<?xml version="1.0"?>
<VTKFile type="UnstructuredGrid" version="0.1" byte_order="LittleEndian">
<UnstructuredGrid>
<Piece NumberOfPoints="251" NumberOfCells="250">
<Points>
<DataArray type="Float64" NumberOfComponents="3" format="ascii">
0 0 0 0 0 -0.25 0 0 -0.00099999999999810158 0 0 -0.001999999999996204 0 0 -0.0029999999999943271 0 0 -0.0039999999999924488 0 0 -0.004999999999990571 0 0 -0.0059999999999886811 0 0 -0.0069999999999867156 0 0 -0.007999999999984719 0 0 -0.008999999999982581 0 0 -0.0099999999999804221 0 0 -0.010999999999978201 0 0 -0.011999999999975971 0 0 -0.01299999999997375 0 0 -0.01399999999997158 0 0 -0.014999999999969531 0 0 -0.01599999999996761 0 0 -0.0169999999999659 0 0 -0.01799999999996427 0 0 -0.018999999999962731 0 0 -0.019999999999961209 0 0 -0.020999999999959669 0 0 -0.02199999999995814 0 0 -0.022999999999956611 0 0 -0.023999999999955082 0 0 -0.024999999999953549 0 0 -0.02599999999995202 0 0 -0.02699999999995048 0 0 -0.027999999999948951 0 0 -0.028999999999947419 0 0 -0.02999999999994565 0 0 -0.03099999999994377 0 0 -0.031999999999941367 0 0 -0.032999999999938787 0 0 -0.033999999999935943 0 0 -0.034999999999933022 0 0 -0.035999999999930102 0 0 -0.036999999999927188 0 0 -0.037999999999924268 0 0 -0.038999999999921348 0 0 -0.039999999999918427 0 0 -0.040999999999915507 0 0 -0.041999999999912593 0 0 -0.042999999999909673 0 0 -0.043999999999906753 0 0 -0.044999999999903832 0 0 -0.045999999999900919 0 0 -0.046999999999897998 0 0 -0.047999999999895078 0 0 -0.048999999999892158 0 0 -0.049999999999889237 0 0 -0.050999999999886317 0 0 -0.051999999999883403 0 0 -0.052999999999880483 0 0 -0.053999999999877563 0 0 -0.054999999999874642 0 0 -0.055999999999871722 0 0 -0.056999999999868801 0 0 -0.057999999999865881 0 0 -0.058999999999862961 0 0 -0.059999999999860047 0 0 -0.060999999999857127 0 0 -0.061999999999854213 0 0 -0.062999999999851286 0 0 -0.063999999999848373 0 0 -0.064999999999845445 0 0 -0.065999999999842532 0 0 -0.066999999999839618 0 0 -0.067999999999836705 0 0 -0.068999999999833792 0 0 -0.069999999999830878 0 0 -0.070999999999827965 0 0 -0.071999999999825051 0 0 -0.072999999999822124 0 0 -0.07399999999981921 0 0 -0.074999999999816297 0 0 -0.075999999999813383 0 0 -0.07699999999981047 0 0 -0.077999999999807557 0 0 -0.078999999999804643 0 0 -0.07999999999980173 0 0 -0.080999999999798802 0 0 -0.081999999999795889 0 0 -0.082999999999792975 0 0 -0.083999999999790062 0 0 -0.084999999999787149 0 0 -0.085999999999784235 0 0 -0.086999999999781322 0 0 -0.087999999999778394 0 0 -0.088999999999775481 0 0 -0.089999999999772567 0 0 -0.090999999999769654 0 0 -0.091999999999766741 0 0 -0.092999999999763827 0 0 -0.093999999999760914 0 0 -0.094999999999758 0 0 -0.095999999999755073 0 0 -0.096999999999752159 0 0 -0.097999999999749246 0 0 -0.098999999999746333 0 0 -0.099999999999743419 0 0 -0.10099999999974051 0 0 -0.10199999999973761 0 0 -0.10299999999973471 0 0 -0.10399999999973179 0 0 -0.1049999999997288 0 0 -0.1059999999997259 0 0 -0.106999999999723 0 0 -0.1079999999997201 0 0 -0.1089999999997172 0 0 -0.1099999999997143 0 0 -0.1109999999997113 0 0 -0.1119999999997084 0 0 -0.1129999999997055 0 0 -0.1139999999997026 0 0 -0.1149999999996997 0 0 -0.1159999999996968 0 0 -0.11699999999969379 0 0 -0.11799999999969089 0 0 -0.11899999999968799 0 0 -0.11999999999968509 0 0 -0.1209999999996822 0 0 -0.1219999999996793 0 0 -0.1229999999996764 0 0 -0.1239999999996748 0 0 -0.12499999999967321 0 0 -0.12599999999967451 0 0 -0.12699999999967579 0 0 -0.1279999999996784 0 0 -0.12899999999968109 0 0 -0.1299999999996837 0 0 -0.13099999999968631 0 0 -0.13199999999968889 0 0 -0.13299999999969159 0 0 -0.1339999999996942 0 0 -0.13499999999969689 0 0 -0.1359999999996995 0 0 -0.13699999999970211 0 0 -0.1379999999997048 0 0 -0.13899999999970741 0 0 -0.13999999999971011 0 0 -0.14099999999971269 0 0 -0.1419999999997153 0 0 -0.14299999999971799 0 0 -0.1439999999997206 0 0 -0.14499999999972321 0 0 -0.14599999999972579 0 0 -0.14699999999972849 0 0 -0.1479999999997311 0 0 -0.14899999999973379 0 0 -0.1499999999997364 0 0 -0.15099999999973901 0 0 -0.1519999999997417 0 0 -0.15299999999974431 0 0 -0.15399999999974701 0 0 -0.15499999999974959 0 0 -0.1559999999997522 0 0 -0.15699999999975489 0 0 -0.1579999999997575 0 0 -0.15899999999976011 0 0 -0.1599999999997628 0 0 -0.16099999999976539 0 0 -0.161999999999768 0 0 -0.16299999999977069 0 0 -0.1639999999997733 0 0 -0.16499999999977599 0 0 -0.1659999999997786 0 0 -0.16699999999978121 0 0 -0.16799999999978391 0 0 -0.16899999999978649 0 0 -0.1699999999997891 0 0 -0.17099999999979171 0 0 -0.1719999999997944 0 0 -0.17299999999979701 0 0 -0.1739999999997997 0 0 -0.17499999999980231 0 0 -0.17599999999980501 0 0 -0.17699999999980759 0 0 -0.1779999999998102 0 0 -0.17899999999981281 0 0 -0.1799999999998155 0 0 -0.18099999999981811 0 0 -0.18199999999982069 0 0 -0.18299999999982339 0 0 -0.183999999999826 0 0 -0.18499999999982869 0 0 -0.1859999999998313 0 0 -0.18699999999983391 0 0 -0.1879999999998366 0 0 -0.18899999999983921 0 0 -0.18999999999984191 0 0 -0.19099999999984449 0 0 -0.1919999999998471 0 0 -0.19299999999984971 0 0 -0.1939999999998524 0 0 -0.19499999999985501 0 0 -0.1959999999998577 0 0 -0.19699999999986029 0 0 -0.19799999999986301 0 0 -0.19899999999986559 0 0 -0.1999999999998682 0 0 -0.20099999999987081 0 0 -0.2019999999998735 0 0 -0.20299999999987611 0 0 -0.20399999999987881 0 0 -0.20499999999988139 0 0 -0.205999999999884 0 0 -0.20699999999988669 0 0 -0.2079999999998893 0 0 -0.20899999999989191 0 0 -0.2099999999998946 0 0 -0.21099999999989719 0 0 -0.21199999999989991 0 0 -0.21299999999990249 0 0 -0.2139999999999051 0 0 -0.21499999999990771 0 0 -0.2159999999999104 0 0 -0.21699999999991301 0 0 -0.21799999999991571 0 0 -0.21899999999991829 0 0 -0.2199999999999209 0 0 -0.22099999999992359 0 0 -0.2219999999999262 0 0 -0.22299999999992881 0 0 -0.22399999999993139 0 0 -0.22499999999993411 0 0 -0.2259999999999367 0 0 -0.22699999999993939 0 0 -0.227999999999942 0 0 -0.22899999999994469 0 0 -0.2299999999999473 0 0 -0.23099999999994991 0 0 -0.23199999999995249 0 0 -0.23299999999995519 0 0 -0.2339999999999578 0 0 -0.23499999999996049 0 0 -0.2359999999999631 0 0 -0.23699999999996571 0 0 -0.2379999999999684 0 0 -0.23899999999997101 0 0 -0.2399999999999736 0 0 -0.24099999999997629 0 0 -0.2419999999999789 0 0 -0.24299999999998159 0 0 -0.2439999999999842 0 0 -0.24499999999998681 0 0 -0.24599999999998939 0 0 -0.24699999999999209 0 0 -0.2479999999999947 0 0 -0.24899999999999739 
</DataArray>
</Points>
<Cells>
<DataArray type="UInt32" Name="connectivity" format="ascii">
0 2 2 3 3 4 4 5 5 6 6 7 7 8 8 9 9 10 10 11 11 12 12 13 13 14 14 15 15 16 16 17 17 18 18 19 19 20 20 21 21 22 22 23 23 24 24 25 25 26 26 27 27 28 28 29 29 30 30 31 31 32 32 33 33 34 34 35 35 36 36 37 37 38 38 39 39 40 40 41 41 42 42 43 43 44 44 45 45 46 46 47 47 48 48 49 49 50 50 51 51 52 52 53 53 54 54 55 55 56 56 57 57 58 58 59 59 60 60 61 61 62 62 63 63 64 64 65 65 66 66 67 67 68 68 69 69 70 70 71 71 72 72 73 73 74 74 75 75 76 76 77 77 78 78 79 79 80 80 81 81 82 82 83 83 84 84 85 85 86 86 87 87 88 88 89 89 90 90 91 91 92 92 93 93 94 94 95 95 96 96 97 97 98 98 99 99 100 100 101 101 102 102 103 103 104 104 105 105 106 106 107 107 108 108 109 109 110 110 111 111 112 112 113 113 114 114 115 115 116 116 117 117 118 118 119 119 120 120 121 121 122 122 123 123 124 124 125 125 126 126 127 127 128 128 129 129 130 130 131 131 132 132 133 133 134 134 135 135 136 136 137 137 138 138 139 139 140 140 141 141 142 142 143 143 144 144 145 145 146 146 147 147 148 148 149 149 150 150 151 151 152 152 153 153 154 154 155 155 156 156 157 157 158 158 159 159 160 160 161 161 162 162 163 163 164 164 165 165 166 166 167 167 168 168 169 169 170 170 171 171 172 172 173 173 174 174 175 175 176 176 177 177 178 178 179 179 180 180 181 181 182 182 183 183 184 184 185 185 186 186 187 187 188 188 189 189 190 190 191 191 192 192 193 193 194 194 195 195 196 196 197 197 198 198 199 199 200 200 201 201 202 202 203 203 204 204 205 205 206 206 207 207 208 208 209 209 210 210 211 211 212 212 213 213 214 214 215 215 216 216 217 217 218 218 219 219 220 220 221 221 222 222 223 223 224 224 225 225 226 226 227 227 228 228 229 229 230 230 231 231 232 232 233 233 234 234 235 235 236 236 237 237 238 238 239 239 240 240 241 241 242 242 243 243 244 244 245 245 246 246 247 247 248 248 249 249 250 250 1 
</DataArray>
<DataArray type="UInt32" Name="offsets" format="ascii">
2 4 6 8 10 12 14 16 18 20 22 24 26 28 30 32 34 36 38 40 42 44 46 48 50 52 54 56 58 60 62 64 66 68 70 72 74 76 78 80 82 84 86 88 90 92 94 96 98 100 102 104 106 108 110 112 114 116 118 120 122 124 126 128 130 132 134 136 138 140 142 144 146 148 150 152 154 156 158 160 162 164 166 168 170 172 174 176 178 180 182 184 186 188 190 192 194 196 198 200 202 204 206 208 210 212 214 216 218 220 222 224 226 228 230 232 234 236 238 240 242 244 246 248 250 252 254 256 258 260 262 264 266 268 270 272 274 276 278 280 282 284 286 288 290 292 294 296 298 300 302 304 306 308 310 312 314 316 318 320 322 324 326 328 330 332 334 336 338 340 342 344 346 348 350 352 354 356 358 360 362 364 366 368 370 372 374 376 378 380 382 384 386 388 390 392 394 396 398 400 402 404 406 408 410 412 414 416 418 420 422 424 426 428 430 432 434 436 438 440 442 444 446 448 450 452 454 456 458 460 462 464 466 468 470 472 474 476 478 480 482 484 486 488 490 492 494 496 498 500 
</DataArray>
<DataArray type="UInt32" Name="types" format="ascii">
3 3 3 3 3 3 3 3 3 3 3 3 3 3 3 3 3 3 3 3 3 3 3 3 3 3 3 3 3 3 3 3 3 3 3 3 3 3 3 3 3 3 3 3 3 3 3 3 3 3 3 3 3 3 3 3 3 3 3 3 3 3 3 3 3 3 3 3 3 3 3 3 3 3 3 3 3 3 3 3 3 3 3 3 3 3 3 3 3 3 3 3 3 3 3 3 3 3 3 3 3 3 3 3 3 3 3 3 3 3 3 3 3 3 3 3 3 3 3 3 3 3 3 3 3 3 3 3 3 3 3 3 3 3 3 3 3 3 3 3 3 3 3 3 3 3 3 3 3 3 3 3 3 3 3 3 3 3 3 3 3 3 3 3 3 3 3 3 3 3 3 3 3 3 3 3 3 3 3 3 3 3 3 3 3 3 3 3 3 3 3 3 3 3 3 3 3 3 3 3 3 3 3 3 3 3 3 3 3 3 3 3 3 3 3 3 3 3 3 3 3 3 3 3 3 3 3 3 3 3 3 3 3 3 3 3 3 3 3 3 3 3 3 3 3 3 3 3 3 3 
</DataArray>
</Cells>
<CellData Scalars="pressure_p0,water_content,conductivity_richards," Vectors="velocity_p0," Tensors="">
<DataArray type="Float64" Name="pressure_p0" format="ascii">
-5958.1210348018521 -5957.8646199232871 -5957.3527683526108 -5956.585436490991 -5955.5625589901101 -5954.2840488172224 -5952.749797341894 -5950.9596744444043 -5948.9135286458304 -5946.6111872597976 -5944.0524565658889 -5941.2371220047025 -5938.1649483945548 -5934.8356801698183 -5931.2490416408764 -5927.4047372756968 -5923.3024520029967 -5918.9418515369834 -5914.3225827236647 -5909.4442739087044 -5904.3065353267984 -5898.9089595125615 -5893.2511217328902 -5887.3325804407714 -5881.1528777505318 -5874.7115399344648 -5868.0080779408345 -5861.0419879331967 -5853.8127518510137 -5846.319837991512 -5838.562701612751 -5830.5407855578324 -5822.2535209002344 -5813.7003276101823 -5804.8806152420311 -5795.7937836425626 -5786.4392236801523 -5776.8163179947533 -5766.9244417685686 -5756.762963517398 -5746.331245902531 -5735.6286465631074 -5724.6545189688713 -5713.4082132931926 -5701.889077306254 -5690.0964572883058 -5678.029698962875 -5665.6881484497708 -5653.0711532378027 -5640.1780631770343 -5627.008231490453 -5613.5610158048876 -5599.8357792010293 -5585.8318912823725 -5571.5487292629095 -5556.9856790733929 -5542.1421364859671 -5527.0175082569804 -5511.6112132877497 -5495.9226838030518 -5479.9513665471495 -5463.69672399705 -5447.1582355927985 -5430.3353989845118 -5413.2277312958868 -5395.8347704038997 -5378.1560762343997 -5360.1912320732808 -5341.9398458929145 -5323.4015516935015 -5304.5760108590075 -5285.4629135273162 -5266.0619799742162 -5246.3729620108388 -5226.3956443941388 -5206.1298462500145 -5185.5754225086057 -5164.7322653513465 -5143.600305669288 -5122.1795145322294 -5100.4699046681344 -5078.4715319523375 -5056.1844969059985 -5033.6089462032542 -5010.7450741865032 -4987.5931243892319 -4964.1533910657854 -4940.4262207274342 -4916.4120136841248 -4892.111225591223 -4867.5243690005736 -4842.6520149151675 -4817.4947943466996 -4792.0533998752489 -4766.3285872103297 -4740.3211767524954 -4714.0320551546984 -4687.4621768825655 -4660.612565772708 -4633.4843165881994 -4606.0785965702871 -4578.3966469854086 -4550.439784666567 -4522.2094035480404 -4493.7069761924377 -4464.9340553090451 -4435.8922752624003 -4406.5833535699985 -4377.0090923879925 -4347.171379983748 -4317.0721921940531 -4286.7135938677911 -4256.0977402918106 -4225.2268785987453 -4194.1033491554554 -4162.7295869307627 -4131.108122841124 -4099.241585072823 -4067.1327003792662 -4034.7842953519139 -4002.1992976633273 -3969.3807372808228 -3936.3317476491538 -3903.0555668405964 -3869.5555386708807 -3835.8351137791487 -3801.8978506704043 -3767.7474167185537 -3733.3875891282646 -3698.8222558539601 -3664.0554164738824 -3629.0911830174928 -3593.9337807441811 -3558.5875488713177 -3523.0569412496156 -3487.3465269837548 -3451.4609909961546 -3415.4051345317393 -3379.1838756015268 -3342.8022493627805 -3306.2654084334717 -3269.5786231387165 -3232.7472816868258 -3195.7768902725738 -3158.6730731052012 -3121.4415723586799 -3084.0882480416822 -3046.6190777846668 -3009.0401565414395 -2971.3576962025045 -2933.5780251174792 -2895.7075875237779 -2857.752942878768 -2819.7207650924893 -2781.6178416580315 -2743.4510726766002 -2705.2274697742405 -2666.9541549071719 -2628.6383590525893 -2590.2874207817868 -2551.9087847123942 -2513.5099998364485 -2475.0987177209963 -2436.6826905778998 -2398.2697691993981 -2359.8679007560013 -2321.485126453224 -2283.1295790435943 -2244.8094801903885 -2206.5331376794143 -2168.3089424752061 -2130.1453656179056 -2092.050954957067 -2054.0343317185843 -2016.104186900925 -1978.2692774967836 -1940.5384225362582 -1902.9204989476061 -1865.4244372316093 -1828.0592169455622 -1790.833861992852 -1753.7574357140804 -1716.8390357756678 -1680.0877888518689 -1643.512845096081 -1607.1233723973533 -1570.9285504179898 -1534.9375644081165 -1499.159598793131 -1463.6038305298953 -1428.2794222276107 -1393.1955150292815 -1358.3612212497173 -1323.785616766057 -1289.4777331568055 -1255.4465495854229 -1221.7009844245526 -1188.2498866170072 -1155.1020267696872 -1122.2660879766536 -1089.7506563676161 -1057.5642113781837 -1025.7151157382314 -994.21160517479564 -963.06177782596535 -932.27358336221869 -901.8548118116845 -871.81308208578639 -842.15583020162853 -812.89029719741461 -784.02351673701605 -755.56230239952004 -727.51323464928328 -699.882647481498 -672.67661473762587 -645.90093608421307 -619.56112264741694 -593.6623822941109 -568.20960454850047 -543.20734513068169 -518.65981010036478 -494.57083958488272 -470.9438910652637 -447.78202218738693 -425.08787305647195 -402.86364796187843 -381.11109646461193 -359.83149376105246 -339.02562021178358 -318.69373989213375 -298.83557797850654 -279.45029672803298 -260.53646973331416 -242.09205403138856 -224.11435950544637 -206.60001482251977 -189.54492887483792 -172.94424629668248 -156.79229504776941 -141.08252318061915 -125.80742055679056 -110.95841910851456 -96.525761617474217 -82.49832260290394 -68.86335293165601 -55.606095290718301 -42.709161577169667 -30.151410940755532 -17.90551355895872 -5.9283093325607235 
</DataArray>
<DataArray type="Float64" Name="velocity_p0" NumberOfComponents="3" format="ascii">
0 0 1.9547890813933598e-09 0 0 5.8647129920596338e-09 0 0 9.775673720311752e-09 0 0 1.3688361861412181e-08 0 0 1.7603467885598452e-08 0 0 2.1521682087775689e-08 0 0 2.5443694537719452e-08 0 0 2.9370195029921131e-08 0 0 3.3301873033747201e-08 0 0 3.7239417643638232e-08 0 0 4.1183517529524151e-08 0 0 4.5134860887484774e-08 0 0 4.9094135390260573e-08 0 0 5.3062028138574945e-08 0 0 5.7039225611768124e-08 0 0 6.1026413619688625e-08 0 0 6.5024277254029667e-08 0 0 6.9033500840480705e-08 0 0 7.3054767890794167e-08 0 0 7.708876105540955e-08 0 0 8.1136162076348213e-08 0 0 8.5197651740176271e-08 0 0 8.9273909831968013e-08 0 0 9.3365615088948713e-08 0 0 9.7473445154888565e-08 0 0 1.0159807653489727e-07 0 0 1.057401845505398e-07 0 0 1.0990044329539779e-07 0 0 1.1407952559120356e-07 0 0 1.1827810294414884e-07 0 0 1.2249684550212559e-07 0 0 1.2673642201202572e-07 0 0 1.3099749977765949e-07 0 0 1.3528074461821902e-07 0 0 1.3958682082736246e-07 0 0 1.4391639113269286e-07 0 0 1.4827011665577856e-07 0 0 1.5264865687261837e-07 0 0 1.5705266957520778e-07 0 0 1.6148281083266808e-07 0 0 1.6593973495403108e-07 0 0 1.7042409445072237e-07 0 0 1.7493654000011869e-07 0 0 1.7947772040958845e-07 0 0 1.8404828258109276e-07 0 0 1.8864887147625552e-07 0 0 1.9328013008220872e-07 0 0 1.9794269937788308e-07 0 0 2.0263721830103081e-07 0 0 2.0736432371557403e-07 0 0 2.1212465037996617e-07 0 0 2.1691883091553123e-07 0 0 2.2174749577609691e-07 0 0 2.2661127321756518e-07 0 0 2.3151078926829328e-07 0 0 2.3644666770027275e-07 0 0 2.4141953000031027e-07 0 0 2.4642999534216822e-07 0 0 2.5147868055914053e-07 0 0 2.5656620011713995e-07 0 0 2.6169316608795077e-07 0 0 2.6686018812364377e-07 0 0 2.7206787343074848e-07 0 0 2.7731682674519547e-07 0 0 2.8260765030774884e-07 0 0 2.8794094383965e-07 0 0 2.9331730451872827e-07 0 0 2.9873732695566612e-07 0 0 3.0420160317116421e-07 0 0 3.09710722572492e-07 0 0 3.152652719311099e-07 0 0 3.2086583535997801e-07 0 0 3.2651299429123045e-07 0 0 3.3220732745422976e-07 0 0 3.3794941085326288e-07 0 0 3.4373981774558239e-07 0 0 3.495791186195764e-07 0 0 3.5546788117247823e-07 0 0 3.6140667028842858e-07 0 0 3.6739604801614353e-07 0 0 3.7343657354645647e-07 0 0 3.7952880318960495e-07 0 0 3.8567329035221637e-07 0 0 3.9187058551387163e-07 0 0 3.9812123620315525e-07 0 0 4.0442578697329151e-07 0 0 4.1078477937708313e-07 0 0 4.1719875194105299e-07 0 0 4.2366824013929367e-07 0 0 4.3019377636543998e-07 0 0 4.3677588990502155e-07 0 0 4.4341510690546924e-07 0 0 4.5011195034583278e-07 0 0 4.568669400044788e-07 0 0 4.6368059242635373e-07 0 0 4.70553420887707e-07 0 0 4.7748593535973235e-07 0 0 4.8447864247029091e-07 0 0 4.9153204546364113e-07 0 0 4.9864664415812335e-07 0 0 5.0582293490169427e-07 0 0 5.130614105248592e-07 0 0 5.2036256029109489e-07 0 0 5.2772686984471801e-07 0 0 5.3515482115536796e-07 0 0 5.4264689245978087e-07 0 0 5.5020355819983988e-07 0 0 5.5782528895735107e-07 0 0 5.6551255138435986e-07 0 0 5.7326580813051691e-07 0 0 5.8108551776480851e-07 0 0 5.8897213469365553e-07 0 0 5.969261090736744e-07 0 0 6.0494788671911783e-07 0 0 6.1303790900441312e-07 0 0 6.2119661275985734e-07 0 0 6.2942443016226066e-07 0 0 6.3772178861786998e-07 0 0 6.4608911063930059e-07 0 0 6.5452681371433635e-07 0 0 6.6303531016742116e-07 0 0 6.7161500701260403e-07 0 0 6.8026630579767489e-07 0 0 6.889896024394361e-07 0 0 6.9778528704846575e-07 0 0 7.0665374374417304e-07 0 0 7.1559535045868565e-07 0 0 7.2461047872880167e-07 0 0 7.3369949347606928e-07 0 0 7.4286275277370647e-07 0 0 7.5210060759993093e-07 0 0 7.6141340157652582e-07 0 0 7.7080147069235121e-07 0 0 7.8026514301058542e-07 0 0 7.8980473835857941e-07 0 0 7.9942056799993392e-07 0 0 8.0911293428716696e-07 0 0 8.1888213029442758e-07 0 0 8.2872843942835889e-07 0 0 8.3865213501677763e-07 0 0 8.4865347987308888e-07 0 0 8.5873272583553792e-07 0 0 8.6889011327966824e-07 0 0 8.7912587060252271e-07 0 0 8.8944021367677359e-07 0 0 8.9983334527321153e-07 0 0 9.1030545444978326e-07 0 0 9.2085671590525603e-07 0 0 9.314872892950211e-07 0 0 9.4219731850730293e-07 0 0 9.5298693089790389e-07 0 0 9.6385623647932478e-07 0 0 9.7480532706381008e-07 0 0 9.8583427535575964e-07 0 0 9.9694313399184023e-07 0 0 1.0081319345246318e-06 0 0 1.0194006863471699e-06 0 0 1.0307493755548182e-06 0 0 1.0421779637400478e-06 0 0 1.0536863867170809e-06 0 0 1.0652745531712384e-06 0 0 1.0769423432294716e-06 0 0 1.0886896069459275e-06 0 0 1.1005161626989507e-06 0 0 1.1124217954928428e-06 0 0 1.1244062551594187e-06 0 0 1.1364692544526719e-06 0 0 1.1486104670301657e-06 0 0 1.1608295253145125e-06 0 0 1.1731260182269104e-06 0 0 1.1854994887851701e-06 0 0 1.1979494315578803e-06 0 0 1.210475289965688e-06 0 0 1.2230764534199689e-06 0 0 1.2357522542889288e-06 0 0 1.248501964680125e-06 0 0 1.2613247930284643e-06 0 0 1.2742198804763164e-06 0 0 1.2871862970338926e-06 0 0 1.3002230375052114e-06 0 0 1.3133290171652154e-06 0 0 1.326503067171871e-06 0 0 1.3397439296973932e-06 0 0 1.3530502527598607e-06 0 0 1.3664205847368766e-06 0 0 1.3798533685409681e-06 0 0 1.3933469354357556e-06 0 0 1.4068994984695562e-06 0 0 1.4205091455032371e-06 0 0 1.4341738318066365e-06 0 0 1.4478913721962387e-06 0 0 1.4616594326865242e-06 0 0 1.475475521624288e-06 0 0 1.4893369802746112e-06 0 0 1.5032409728253242e-06 0 0 1.5171844757748788e-06 0 0 1.5311642666672659e-06 0 0 1.5451769121353497e-06 0 0 1.5592187552134157e-06 0 0 1.5732859018772945e-06 0 0 1.5873742067693972e-06 0 0 1.6014792580652757e-06 0 0 1.6155963614367133e-06 0 0 1.6297205230659325e-06 0 0 1.6438464316662672e-06 0 0 1.6579684394636078e-06 0 0 1.672080542095165e-06 0 0 1.6861763573836921e-06 0 0 1.7002491029487551e-06 0 0 1.7142915726203332e-06 0 0 1.7282961116270689e-06 0 0 1.7422545905390391e-06 0 0 1.7561583779556356e-06 0 0 1.769998311942452e-06 0 0 1.7837646702393877e-06 0 0 1.7974471392816943e-06 0 0 1.8110347821050906e-06 0 0 1.8245160052366898e-06 0 0 1.8378785247168023e-06 0 0 1.8511093314450212e-06 0 0 1.8641946561059333e-06 0 0 1.8771199340044373e-06 0 0 1.8898697702312219e-06 0 0 1.9024279056882307e-06 0 0 1.9147771846381357e-06 0 0 1.9268995246021668e-06 0 0 1.9387758896261878e-06 0 0 1.9503862681714663e-06 0 0 1.9617096571728057e-06 0 0 1.9727240541559913e-06 0 0 1.9834064597307334e-06 0 0 1.9937328932963767e-06 0 0 2.0036784254391666e-06 0 0 2.013217231297417e-06 0 0 2.0223226701726854e-06 0 0 2.0309673979418675e-06 0 0 2.0391235204802337e-06 0 0 2.046762798500967e-06 0 0 2.0538569172088752e-06 0 0 2.060377838382604e-06 0 0 2.0662982586843385e-06 0 0 2.071592207501809e-06 0 0 2.0762358330706514e-06 0 0 2.0802084524016844e-06 0 0 2.0834939907557419e-06 0 0 2.0860830403031164e-06 0 0 2.0879760124099809e-06 0 0 2.0891885545022101e-06 0 0 2.0897631312416721e-06 0 0 2.089819733780082e-06 
</DataArray>
<DataArray type="Float64" Name="water_content" format="ascii">
0.20795727695053101 0.20795898638749044 0.20796239900822439 0.20796751563838714 0.20797433751620498 0.20798286629276228 0.20799310403238297 0.20800505321310836 0.20801871672727074 0.20803409788216443 0.20805120040081385 0.20807002842284 0.208090586505426 0.20811287962438241 0.20813691317531324 0.20816269297488404 0.20819022526219322 0.20821951670024713 0.20825057437754146 0.20828340580974919 0.20831801894151758 0.20835442214837505 0.20839262423875043 0.20843263445610574 0.2084744624811849 0.20851811843438017 0.20856361287821856 0.20861095681997049 0.20866016171438281 0.20871123946653913 0.20876420243484944 0.20881906343417234 0.20887583573907223 0.20893453308721441 0.20899516968290152 0.20905776020075414 0.20912231978953905 0.20918886407614834 0.20925740916973345 0.2093279716659972 0.20940056865164824 0.20947521770902139 0.20955193692086849 0.20963074487532374 0.20971166067104813 0.20979470392255756 0.20987989476573929 0.20996725386356171 0.21005680241198277 0.21014856214606203 0.21024255534628214 0.21033880484508491 0.21043733403362863 0.21053816686877191 0.21064132788029072 0.2107468421783352 0.21085473546113265 0.21096503402294392 0.21107776476228013 0.21119295519038733 0.21131063344000689 0.211430828274419 0.2115535690967783 0.21167888595974946 0.21180680957545162 0.2119373713257211 0.21207060327270161 0.21220653816977111 0.21234520947281632 0.21248665135186467 0.21263089870308435 0.21277798716116403 0.21292795311208318 0.21308083370628558 0.2132366668722675 0.21339549133059399 0.21355734660835624 0.21372227305408326 0.21389031185312279 0.21406150504350524 0.21423589553230638 0.21441352711252426 0.21459444448048637 0.21477869325380444 0.21496631998989357 0.21515737220507422 0.21535189839427576 0.2155499480513606 0.21575157169008946 0.21595682086574802 0.2161657481974571 0.21637840739118841 0.21659485326350914 0.21681514176607922 0.21703933001092673 0.21726747629652693 0.21749964013471162 0.21773588227843718 0.2179762647504398 0.21822085087280785 0.21846970529750304 0.21872289403786205 0.21898048450111243 0.21924254552193784 0.21950914739712857 0.21978036192135478 0.22005626242410192 0.22033692380780839 0.2206224225872479 0.22091283693019997 0.22120824669945482 0.22150873349619865 0.22181438070482945 0.22212527353925421 0.2224414990907202 0.22276314637723602 0.22309030639463939 0.22342307216937171 0.22376153881302097 0.22410580357869797 0.22445596591931288 0.22481212754782171 0.22517439249951543 0.22554286719642758 0.225917660513938 0.22629888384965574 0.22668665119466475 0.22708107920722184 0.22748228728899933 0.22789039766396621 0.22830553546000992 0.22872782879340017 0.22915740885620367 0.22959441000676195 0.23003896986334871 0.23049122940112765 0.23095133305253784 0.23141942881123673 0.23189566833973813 0.23238020708088641 0.23287320437331432 0.23337482357103792 0.23388523216734747 0.23440460192315934 0.23493310900000131 0.23547093409780817 0.23601826259771386 0.23657528471003025 0.23714219562761302 0.23771919568481897 0.23830649052226921 0.23890429125763796 0.23951281466269603 0.24013228334684433 0.24076292594738091 0.2414049773267529 0.24205867877705231 0.2427242782320212 0.2434020304868407 0.24409219742598459 0.24479504825942405 0.24551085976747902 0.24623991655461502 0.24698251131249027 0.24773894509256367 0.24850952758857536 0.24929457742921546 0.25009442248129649 0.25090940016374463 0.25173985777272173 0.25258615281818431 0.25344865337217881 0.25432773842916012 0.25522379827860564 0.25613723489017765 0.25706846231166303 0.25801790707988731 0.2589860086447644 0.25997321980659827 0.26098000716669756 0.26200685159130033 0.26305424868873017 0.26412270929961418 0.26521275999988514 0.26632494361617004 0.26745981975301736 0.26861796533124749 0.26979997513651421 0.27100646237693427 0.27223805924837841 0.27349541750570683 0.27477920903787989 0.27609012644445963 0.27742888361054613 0.27879621627664242 0.28019288259931219 0.2816196636977622 0.28307736418064555 0.28456681264640882 0.28608886214939533 0.2876443906226267 0.28923430124670324 0.29085952275255622 0.29252100964381078 0.29421974232224574 0.29595672709720944 0.29773299605681908 0.29954960677526388 0.30140764182648072 0.30330820806977488 0.30525243566751858 0.30724147678875269 0.30927650394518247 0.31135870789753317 0.31348929506029538 0.31566948432128977 0.31790050317891855 0.32018358308406314 0.32251995385489252 0.32491083701080226 0.3273574378456246 0.32986093602926836 0.33242247448999196 0.335043146285181 0.33772397911502811 0.34046591706855889 0.34326979911194611 0.3461363337308635 0.34906606901615139 0.3520593573275056 0.35511631347233241 0.35823676508065522 0.36142019351913313 0.36466566323375704 0.36797173678969808 0.37133637200712366 0.37475679634401737 0.37822935183783962 0.38174930112461647 0.38531058066743779 0.38890548017101678 0.39252421496579976 0.39615433627142094 0.39977988250386148 0.40338008876267728 0.40692727592827388 0.41038303176582874 0.41369018519883949 0.41675095324610362 0.41910197986573128 
</DataArray>
<DataArray type="Float64" Name="conductivity_richards" format="ascii">