<?xml version="1.0"?>
<VTKFile type="UnstructuredGrid" version="0.1" byte_order="LittleEndian">
<UnstructuredGrid>
<Piece NumberOfPoints="251" NumberOfCells="250">
<Points>
<DataArray type="Float64" NumberOfComponents="3" format="ascii">
0 0 -0.17099999999979171 0 0 -0.1559999999997522 0 0 -0.15699999999975489 0 0 -0.1579999999997575 0 0 -0.15899999999976011 0 0 -0.1599999999997628 0 0 -0.16099999999976539 0 0 -0.161999999999768 0 0 -0.16299999999977069 0 0 -0.1639999999997733 0 0 -0.16499999999977599 0 0 -0.1659999999997786 0 0 -0.16699999999978121 0 0 -0.16799999999978391 0 0 -0.16899999999978649 0 0 -0.1699999999997891 0 0 -0.15499999999974959 0 0 -0.1719999999997944 0 0 -0.17299999999979701 0 0 -0.1739999999997997 0 0 -0.17499999999980231 0 0 -0.17599999999980501 0 0 -0.17699999999980759 0 0 -0.1779999999998102 0 0 -0.17899999999981281 0 0 -0.1799999999998155 0 0 -0.18099999999981811 0 0 -0.18199999999982069 0 0 -0.18299999999982339 0 0 -0.183999999999826 0 0 -0.18499999999982869 0 0 -0.1859999999998313 0 0 -0.13999999999971011 0 0 -0.12499999999967321 0 0 -0.12599999999967451 0 0 -0.12699999999967579 0 0 -0.1279999999996784 0 0 -0.12899999999968109 0 0 -0.1299999999996837 0 0 -0.13099999999968631 0 0 -0.13199999999968889 0 0 -0.13299999999969159 0 0 -0.1339999999996942 0 0 -0.13499999999969689 0 0 -0.1359999999996995 0 0 -0.13699999999970211 0 0 -0.1379999999997048 0 0 -0.13899999999970741 0 0 -0.18699999999983391 0 0 -0.14099999999971269 0 0 -0.1419999999997153 0 0 -0.14299999999971799 0 0 -0.1439999999997206 0 0 -0.14499999999972321 0 0 -0.14599999999972579 0 0 -0.14699999999972849 0 0 -0.1479999999997311 0 0 -0.14899999999973379 0 0 -0.1499999999997364 0 0 -0.15099999999973901 0 0 -0.1519999999997417 0 0 -0.15299999999974431 0 0 -0.15399999999974701 0 0 -0.2339999999999578 0 0 -0.21899999999991829 0 0 -0.2199999999999209 0 0 -0.22099999999992359 0 0 -0.2219999999999262 0 0 -0.22299999999992881 0 0 -0.22399999999993139 0 0 -0.22499999999993411 0 0 -0.2259999999999367 0 0 -0.22699999999993939 0 0 -0.227999999999942 0 0 -0.22899999999994469 0 0 -0.2299999999999473 0 0 -0.23099999999994991 0 0 -0.23199999999995249 0 0 -0.23299999999995519 0 0 -0.21799999999991571 0 0 -0.23499999999996049 0 0 -0.2359999999999631 0 0 -0.23699999999996571 0 0 -0.2379999999999684 0 0 -0.23899999999997101 0 0 -0.2399999999999736 0 0 -0.24099999999997629 0 0 -0.2419999999999789 0 0 -0.24299999999998159 0 0 -0.2439999999999842 0 0 -0.24499999999998681 0 0 -0.24599999999998939 0 0 -0.24699999999999209 0 0 -0.2479999999999947 0 0 -0.24899999999999739 0 0 -0.20299999999987611 0 0 -0.1879999999998366 0 0 -0.18899999999983921 0 0 -0.18999999999984191 0 0 -0.19099999999984449 0 0 -0.1919999999998471 0 0 -0.19299999999984971 0 0 -0.1939999999998524 0 0 -0.19499999999985501 0 0 -0.1959999999998577 0 0 -0.19699999999986029 0 0 -0.19799999999986301 0 0 -0.19899999999986559 0 0 -0.1999999999998682 0 0 -0.20099999999987081 0 0 -0.2019999999998735 0 0 -0.1239999999996748 0 0 -0.20399999999987881 0 0 -0.20499999999988139 0 0 -0.205999999999884 0 0 -0.20699999999988669 0 0 -0.2079999999998893 0 0 -0.20899999999989191 0 0 -0.2099999999998946 0 0 -0.21099999999989719 0 0 -0.21199999999989991 0 0 -0.21299999999990249 0 0 -0.2139999999999051 0 0 -0.21499999999990771 0 0 -0.2159999999999104 0 0 -0.21699999999991301 0 0 -0.045999999999900919 0 0 -0.03099999999994377 0 0 -0.031999999999941367 0 0 -0.032999999999938787 0 0 -0.033999999999935943 0 0 -0.034999999999933022 0 0 -0.035999999999930102 0 0 -0.036999999999927188 0 0 -0.037999999999924268 0 0 -0.038999999999921348 0 0 -0.039999999999918427 0 0 -0.040999999999915507 0 0 -0.041999999999912593 0 0 -0.042999999999909673 0 0 -0.043999999999906753 0 0 -0.044999999999903832 0 0 -0.02999999999994565 0 0 -0.046999999999897998 0 0 -0.047999999999895078 0 0 -0.048999999999892158 0 0 -0.049999999999889237 0 0 -0.050999999999886317 0 0 -0.051999999999883403 0 0 -0.052999999999880483 0 0 -0.053999999999877563 0 0 -0.054999999999874642 0 0 -0.055999999999871722 0 0 -0.056999999999868801 0 0 -0.057999999999865881 0 0 -0.058999999999862961 0 0 -0.059999999999860047 0 0 -0.060999999999857127 0 0 -0.014999999999969531 0 0 -0.25 0 0 -0.00099999999999810158 0 0 -0.001999999999996204 0 0 -0.0029999999999943271 0 0 -0.0039999999999924488 0 0 -0.004999999999990571 0 0 -0.0059999999999886811 0 0 -0.0069999999999867156 0 0 -0.007999999999984719 0 0 -0.008999999999982581 0 0 -0.0099999999999804221 0 0 -0.010999999999978201 0 0 -0.011999999999975971 0 0 -0.01299999999997375 0 0 -0.01399999999997158 0 0 -0.061999999999854213 0 0 -0.01599999999996761 0 0 -0.0169999999999659 0 0 -0.01799999999996427 0 0 -0.018999999999962731 0 0 -0.019999999999961209 0 0 -0.020999999999959669 0 0 -0.02199999999995814 0 0 -0.022999999999956611 0 0 -0.023999999999955082 0 0 -0.024999999999953549 0 0 -0.02599999999995202 0 0 -0.02699999999995048 0 0 -0.027999999999948951 0 0 -0.028999999999947419 0 0 -0.1089999999997172 0 0 -0.093999999999760914 0 0 -0.094999999999758 0 0 -0.095999999999755073 0 0 -0.096999999999752159 0 0 -0.097999999999749246 0 0 -0.098999999999746333 0 0 -0.099999999999743419 0 0 -0.10099999999974051 0 0 -0.10199999999973761 0 0 -0.10299999999973471 0 0 -0.10399999999973179 0 0 -0.1049999999997288 0 0 -0.1059999999997259 0 0 -0.106999999999723 0 0 -0.1079999999997201 0 0 -0.092999999999763827 0 0 -0.1099999999997143 0 0 -0.1109999999997113 0 0 -0.1119999999997084 0 0 -0.1129999999997055 0 0 -0.1139999999997026 0 0 -0.1149999999996997 0 0 -0.1159999999996968 0 0 -0.11699999999969379 0 0 -0.11799999999969089 0 0 -0.11899999999968799 0 0 -0.11999999999968509 0 0 -0.1209999999996822 0 0 -0.1219999999996793 0 0 -0.1229999999996764 0 0 -0.077999999999807557 0 0 -0.062999999999851286 0 0 -0.063999999999848373 0 0 -0.064999999999845445 0 0 -0.065999999999842532 0 0 -0.066999999999839618 0 0 -0.067999999999836705 0 0 -0.068999999999833792 0 0 -0.069999999999830878 0 0 -0.070999999999827965 0 0 -0.071999999999825051 0 0 -0.072999999999822124 0 0 -0.07399999999981921 0 0 -0.074999999999816297 0 0 -0.075999999999813383 0 0 -0.07699999999981047 0 0 0 0 0 -0.078999999999804643 0 0 -0.07999999999980173 0 0 -0.080999999999798802 0 0 -0.081999999999795889 0 0 -0.082999999999792975 0 0 -0.083999999999790062 0 0 -0.084999999999787149 0 0 -0.085999999999784235 0 0 -0.086999999999781322 0 0 -0.087999999999778394 0 0 -0.088999999999775481 0 0 -0.089999999999772567 0 0 -0.090999999999769654 0 0 -0.091999999999766741 
</DataArray>
</Points>
<Cells>
<DataArray type="UInt32" Name="connectivity" format="ascii">
17 18 2 3 3 4 4 5 5 6 6 7 7 8 8 9 9 10 10 11 11 12 12 13 13 14 14 15 15 0 0 17 1 2 18 19 19 20 20 21 21 22 22 23 23 24 24 25 25 26 26 27 27 28 28 29 29 30 30 31 31 48 48 96 49 50 34 35 35 36 36 37 37 38 38 39 39 40 40 41 41 42 42 43 43 44 44 45 45 46 46 47 47 32 32 49 96 97 50 51 51 52 52 53 53 54 54 55 55 56 56 57 57 58 58 59 59 60 60 61 61 62 62 16 16 1 80 81 65 66 66 67 67 68 68 69 69 70 70 71 71 72 72 73 73 74 74 75 75 76 76 77 77 78 78 63 63 80 64 65 81 82 82 83 83 84 84 85 85 86 86 87 87 88 88 89 89 90 90 91 91 92 92 93 93 94 94 159 112 113 97 98 98 99 99 100 100 101 101 102 102 103 103 104 104 105 105 106 106 107 107 108 108 109 109 110 110 95 95 112 33 34 113 114 114 115 115 116 116 117 117 118 118 119 119 120 120 121 121 122 122 123 123 124 124 125 125 79 79 64 143 144 128 129 129 130 130 131 131 132 132 133 133 134 134 135 135 136 136 137 137 138 138 139 139 140 140 141 141 126 126 143 127 128 144 145 145 146 146 147 147 148 148 149 149 150 150 151 151 152 152 153 153 154 154 155 155 156 156 157 157 174 174 221 175 176 160 161 161 162 162 163 163 164 164 165 165 166 166 167 167 168 168 169 169 170 170 171 171 172 172 173 173 158 158 175 221 222 176 177 177 178 178 179 179 180 180 181 181 182 182 183 183 184 184 185 185 186 186 187 187 188 188 142 142 127 206 207 191 192 192 193 193 194 194 195 195 196 196 197 197 198 198 199 199 200 200 201 201 202 202 203 203 204 204 189 189 206 190 191 207 208 208 209 209 210 210 211 211 212 212 213 213 214 214 215 215 216 216 217 217 218 218 219 219 111 111 33 237 238 222 223 223 224 224 225 225 226 226 227 227 228 228 229 229 230 230 231 231 232 232 233 233 234 234 235 235 220 220 237 236 160 238 239 239 240 240 241 241 242 242 243 243 244 244 245 245 246 246 247 247 248 248 249 249 250 250 205 205 190 
</DataArray>
<DataArray type="UInt32" Name="offsets" format="ascii">
2 4 6 8 10 12 14 16 18 20 22 24 26 28 30 32 34 36 38 40 42 44 46 48 50 52 54 56 58 60 62 64 66 68 70 72 74 76 78 80 82 84 86 88 90 92 94 96 98 100 102 104 106 108 110 112 114 116 118 120 122 124 126 128 130 132 134 136 138 140 142 144 146 148 150 152 154 156 158 160 162 164 166 168 170 172 174 176 178 180 182 184 186 188 190 192 194 196 198 200 202 204 206 208 210 212 214 216 218 220 222 224 226 228 230 232 234 236 238 240 242 244 246 248 250 252 254 256 258 260 262 264 266 268 270 272 274 276 278 280 282 284 286 288 290 292 294 296 298 300 302 304 306 308 310 312 314 316 318 320 322 324 326 328 330 332 334 336 338 340 342 344 346 348 350 352 354 356 358 360 362 364 366 368 370 372 374 376 378 380 382 384 386 388 390 392 394 396 398 400 402 404 406 408 410 412 414 416 418 420 422 424 426 428 430 432 434 436 438 440 442 444 446 448 450 452 454 456 458 460 462 464 466 468 470 472 474 476 478 480 482 484 486 488 490 492 494 496 498 500 
</DataArray>
<DataArray type="UInt32" Name="types" format="ascii">
3 3 3 3 3 3 3 3 3 3 3 3 3 3 3 3 3 3 3 3 3 3 3 3 3 3 3 3 3 3 3 3 3 3 3 3 3 3 3 3 3 3 3 3 3 3 3 3 3 3 3 3 3 3 3 3 3 3 3 3 3 3 3 3 3 3 3 3 3 3 3 3 3 3 3 3 3 3 3 3 3 3 3 3 3 3 3 3 3 3 3 3 3 3 3 3 3 3 3 3 3 3 3 3 3 3 3 3 3 3 3 3 3 3 3 3 3 3 3 3 3 3 3 3 3 3 3 3 3 3 3 3 3 3 3 3 3 3 3 3 3 3 3 3 3 3 3 3 3 3 3 3 3 3 3 3 3 3 3 3 3 3 3 3 3 3 3 3 3 3 3 3 3 3 3 3 3 3 3 3 3 3 3 3 3 3 3 3 3 3 3 3 3 3 3 3 3 3 3 3 3 3 3 3 3 3 3 3 3 3 3 3 3 3 3 3 3 3 3 3 3 3 3 3 3 3 3 3 3 3 3 3 3 3 3 3 3 3 3 3 3 3 3 3 3 3 3 3 3 3 
</DataArray>
</Cells>
<CellData Scalars="pressure_p0,water_content,conductivity_richards," Vectors="velocity_p0," Tensors="">
<DataArray type="Float64" Name="pressure_p0" format="ascii">
-2643.6197701063224 -3314.2680164609328 -3270.6368251943836 -3226.809993131159 -3182.7963800286425 -3138.6050893168745 -3094.2454678635108 -3049.7271055125402 -3005.0598343878573 -2960.2537279526832 -2915.3190998155665 -2870.2665022735328 -2825.1067245827639 -2779.8507909469436 -2734.5099582132671 -2689.09571326588 -3357.6949508635189 -2598.0940666103497 -2552.5307609503107 -2506.9422276720779 -2461.3410534153081 -2415.7400322656222 -2370.1521607271202 -2324.5906323034442 -2279.0688316754158 -2233.6003284630842 -2188.1988705598696 -2142.8783770263035 -2097.652930530684 -2052.5367693238168 -2007.5442787348784 -1962.6899821752586 -3979.4676255527456 -4532.4765467438101 -4498.022381788227 -4463.2120924932315 -4428.047750958729 -4392.531608006635 -4356.666096529636 -4320.4538348034584 -4283.8976297587624 -4247.0004802086069 -4209.7655800273515 -4172.1963212766914 -4134.2962972744099 -4096.0693056012869 -4057.5193510414601 -4018.6506484514384 -1917.988531637151 -3939.9749256431051 -3900.1774102209233 -3860.0801615175978 -3819.6884849321286 -3779.0079113623187 -3738.0441994266766 -3696.8033375709774 -3655.2915460533263 -3613.5152788013424 -3571.4812251349535 -3529.196311348132 -3486.6677021426849 -3443.9028019071025 -3400.9092558332486 -254.30107203446985 -657.72674011395509 -626.313135046262 -595.51904435811468 -565.35271558953093 -535.82173402355659 -506.93298512971035 -478.69261587329538 -451.10599480545932 -424.17767082063034 -397.91133042969733 -372.30975334534889 -347.3747661050736 -323.10719336006093 -299.50680632373883 -276.57226768601492 -689.75098625091277 -232.68948044489605 -211.73244735279212 -191.42353700107577 -171.75482552100368 -152.71678277252553 -134.2981249574193 -116.48562379100845 -99.263848784593762 -82.614801802476762 -66.517367456140121 -50.946421158269089 -35.871214326480789 -21.251846972889759 -7.0252046289382353 -1235.8297490693315 -1873.4546976734814 -1829.1033588457065 -1784.9494906258824 -1741.0081537393357 -1697.2944819342033 -1653.8236691640425 -1610.6109561696894 -1567.6716164465422 -1525.0209415834429 -1482.6742259593784 -1440.6467507842615 -1398.9537674701492 -1357.6104803193928 -1316.6320285163065 -1276.0334674091373 -4566.5726906007003 -1196.0357021152929 -1156.6660107880907 -1117.7351932668726 -1079.2575792119765 -1041.2472865241043 -1003.7181973081981 -966.68393303092671 -930.15782886100351 -894.15290718171491 -858.68185026516119 -823.75697209769578 -789.39018934579281 -755.59299145107047 -722.37640984231575 -6166.4327554272968 -6277.8064139571752 -6271.847145036887 -6265.6867870268743 -6259.3235549625188 -6252.7556195459001 -6245.9811078993589 -6238.9981043465768 -6231.8046512216024 -6224.3987497062662 -6216.7783606965013 -6208.9414056979913 -6200.8857677516417 -6192.6092923893502 -6184.1097886205398 -6175.3850299499754 -6283.5663336925136 -6157.2506707287757 -6147.8364492717901 -6138.1877333624816 -6128.3021353770746 -6118.1772389773632 -6107.8106003607909 -6097.1997495456453 -6086.3421916918014 -6075.2354084574872 -6063.8768593925124 -6052.2639833684316 -6040.3942000460502 -6028.2649113807147 -6015.8735031658198 -6003.2173466149143 -6347.0810302639838 -6370.2909558945294 -6369.9488126018496 -6369.4359571191999 -6368.7522208445289 -6367.8973790595828 -6366.871151003973 -6365.6731999678568 -6364.3031334033285 -6362.7605030546265 -6361.0448051072535 -6359.1554803561394 -6357.0919143929914 -6354.8534378129871 -6352.4393264409728 -6349.8488015773728 -5990.2937999828064 -6344.1351255699001 -6341.0101468977919 -6337.7051003107426 -6334.2189388799725 -6330.5505630536645 -6326.6988210471918 -6322.6625092550639 -6318.4403726848759 -6314.0311054136018 -6309.4333510665601 -6304.6457033194001 -6299.6667064234653 -6294.494855754906 -6289.1285983879188 -5034.2588783242609 -5419.7774050141834 -5396.5764695304715 -5373.0249040833251 -5349.1209558160444 -5324.8629448698994 -5300.2492675135891 -5275.2783993063822 -5249.9488982939029 -5224.2594082354663 -5198.2086618618396 -5171.7954841621722 -5145.0187956988248 -5117.8776159487225 -5090.3710666697971 -5062.4983752909902 -5442.6295332942937 -5005.652024796872 -4976.6773797022524 -4947.334627467575 -4917.623575436136 -4887.544157362523 -4857.0964369184867 -4826.2806112073195 -4795.0970142844762 -4763.5461206820601 -4731.6285489346919 -4699.3450651042112 -4666.6965863005425 -4633.6841841959249 -4600.3090885297252 -5744.9734211745745 -5977.1002102260809 -5963.6339147033486 -5949.8922429156091 -5935.8725182870621 -5921.5720599866836 -5906.9881847908691 -5892.1182089874183 -5876.9594503211219 -5861.5092299812122 -5845.7648746308714 -5829.7237184789892 -5813.3831053943568 -5796.7403910624198 -5779.7929451847122 -5762.5381537210542 -6370.4624994276246 -5727.0961729195678 -5708.9038575722006 -5690.3939494039896 -5671.5639507980004 -5652.4113947476635 -5632.9338473979988 -5613.128910629126 -5592.9942246817864 -5572.5274708246025 -5551.726374062775 -5530.5887058878452 -5509.1122870681011 -5487.2949904791985 -5465.1347439744568 
</DataArray>
<DataArray type="Float64" Name="velocity_p0" NumberOfComponents="3" format="ascii">
0 0 1.2322403083251691e-06 0 0 1.0073261957360491e-06 0 0 1.0213637007596678e-06 0 0 1.0355368450276283e-06 0 0 1.0498459684437169e-06 0 0 1.0642913820751005e-06 0 0 1.0788733664084496e-06 0 0 1.0935921694889683e-06 0 0 1.10844800493464e-06 0 0 1.1234410498169576e-06 0 0 1.1385714423992379e-06 0 0 1.1538392797218713e-06 0 0 1.1692446150245935e-06 0 0 1.1847874549939071e-06 0 0 1.2004677568236173e-06 0 0 1.2162854250756185e-06 0 0 9.9342396285138668e-07 0 0 1.2483321955785315e-06 0 0 1.2645608124433056e-06 0 0 1.2809258170359742e-06 0 0 1.2974267956075896e-06 0 0 1.3140632578661851e-06 0 0 1.3308346319755996e-06 0 0 1.3477402592057458e-06 0 0 1.3647793882106319e-06 0 0 1.3819511689052647e-06 0 0 1.3992546459137057e-06 0 0 1.4166887515557966e-06 0 0 1.4342522983388629e-06 0 0 1.4519439709186626e-06 0 0 1.469762317488798e-06 0 0 1.4877057405583186e-06 0 0 8.0080575815275006e-07 0 0 6.3664898261017838e-07 0 0 6.4675333099184975e-07 0 0 6.569743880334043e-07 0 0 6.6731291478237193e-07 0 0 6.7776966619194081e-07 0 0 6.8834539087693972e-07 0 0 6.9904083085457587e-07 0 0 7.0985672126809556e-07 0 0 7.2079379009361331e-07 0 0 7.3185275782743745e-07 0 0 7.4303433715353093e-07 0 0 7.5433923258932067e-07 0 0 7.6576814010934283e-07 0 0 7.7732174674296548e-07 0 0 7.8900073014750357e-07 0 0 1.5057724870699618e-06 0 0 8.1273748827568223e-07 0 0 8.2479656720369762e-07 0 0 8.3698363024426049e-07 0 0 8.4929930073800209e-07 0 0 8.6174418943330165e-07 0 0 8.7431889382070215e-07 0 0 8.8702399742219834e-07 0 0 8.9986006903477891e-07 0 0 9.1282766192370302e-07 0 0 9.2592731296269918e-07 0 0 9.3915954171727716e-07 0 0 9.5252484946775872e-07 0 0 9.6602371816720812e-07 0 0 9.7965660933083472e-07 0 0 2.3776058849416377e-06 0 0 2.124289028962031e-06 0 0 2.1433601010505387e-06 0 0 2.1622504073742257e-06 0 0 2.1809353597863242e-06 0 0 2.1993886706880815e-06 0 0 2.2175822592261208e-06 0 0 2.2354861582212675e-06 0 0 2.2530684237109889e-06 0 0 2.2702950495521035e-06 0 0 2.2871298902337848e-06 0 0 2.3035345959334162e-06 0 0 2.3194685649480275e-06 0 0 2.3348889200172408e-06 0 0 2.3497505167926564e-06 0 0 2.3640059949109755e-06 0 0 2.1050601729059004e-06 0 0 2.3904987881144821e-06 0 0 2.4026316505091633e-06 0 0 2.4139501597999991e-06 0 0 2.424399301510652e-06 0 0 2.4339241244367666e-06 0 0 2.4424707839703079e-06 0 0 2.4499879623866066e-06 0 0 2.4564288168095033e-06 0 0 2.4617537012421463e-06 0 0 2.4659341055862357e-06 0 0 2.4689587166770264e-06 0 0 2.4708438234801834e-06 0 0 2.4716554748521571e-06 0 0 2.4716065875450196e-06 0 0 1.8093803660150714e-06 0 0 1.5239606378119564e-06 0 0 1.5422680960696392e-06 0 0 1.5606925754607556e-06 0 0 1.579231586893237e-06 0 0 1.5978824245809657e-06 0 0 1.6166421510462819e-06 0 0 1.6355075810347556e-06 0 0 1.6544752642612348e-06 0 0 1.6735414669002434e-06 0 0 1.6927021517294722e-06 0 0 1.7119529568258181e-06 0 0 1.7312891727102777e-06 0 0 1.750705717827599e-06 0 0 1.7701971122434747e-06 0 0 1.7897574494311659e-06 0 0 6.2666057597610594e-07 0 0 1.8290590093306459e-06 0 0 1.848786002653282e-06 0 0 1.8685534079437697e-06 0 0 1.8883526859504605e-06 0 0 1.9081746535065825e-06 0 0 1.9280094378569757e-06 0 0 1.9478464278485523e-06 0 0 1.9676742218214451e-06 0 0 1.9874805720439071e-06 0 0 2.0072523255459089e-06 0 0 2.0269753612233441e-06 0 0 2.0466345231097738e-06 0 0 2.0662135497505099e-06 0 0 2.0856949996593783e-06 0 0 1.3543016065478944e-07 0 0 8.6409903046631317e-08 0 0 8.9423289121417139e-08 0 0 9.2468898516358861e-08 0 0 9.5547690547161225e-08 0 0 9.8660624228925925e-08 0 0 1.0180865825694889e-07 0 0 1.0499275098693003e-07 0 0 1.0821386041519946e-07 0 0 1.1147294415780472e-07 0 0 1.1477095942824379e-07 0 0 1.1810886301591341e-07 0 0 1.214876112623544e-07 0 0 1.249081600379382e-07 0 0 1.2837146471740567e-07 0 0 1.318784801539813e-07 0 0 8.3427780692625267e-08 0 0 1.3902745995320672e-07 0 0 1.426713311823951e-07 0 0 1.4636272684728937e-07 0 0 1.5010259879590578e-07 0 0 1.5389189819062592e-07 0 0 1.5773157547820539e-07 0 0 1.6162258035994604e-07 0 0 1.6556586175987261e-07 0 0 1.6956236779459684e-07 0 0 1.7361304574016427e-07 0 0 1.7771884200000671e-07 0 0 1.8188070207193834e-07 0 0 1.8609957051456403e-07 0 0 1.9037639091262048e-07 0 0 1.9471210584364157e-07 0 0 4.1794382378712434e-08 0 0 3.7344989404099905e-09 0 0 6.2257701004156005e-09 0 0 8.7194486970460215e-09 0 0 1.1216497503584049e-08 0 0 1.3717879282329467e-08 0 0 1.6224556780525203e-08 0 0 1.8737492727518401e-08 0 0 2.1257649830253428e-08 0 0 2.3785990769687228e-08 0 0 2.632347819622623e-08 0 0 2.8871074725454991e-08 0 0 3.1429742933163097e-08 0 0 3.4000445350274931e-08 0 0 3.6584144457567448e-08 0 0 3.9181802679471205e-08 0 0 1.9910765684161957e-07 0 0 4.4422845848171419e-08 0 0 4.7068155305594189e-08 0 0 4.9731272884763042e-08 0 0 5.2413160627912716e-08 0 0 5.5114780477407625e-08 0 0 5.7837094266395131e-08 0 0 6.0581063709003378e-08 0 0 6.3347650390918113e-08 0 0 6.6137815757598137e-08 0 0 6.8952521103771467e-08 0 0 7.1792727560742523e-08 0 0 7.4659396084300359e-08 0 0 7.7553487441326452e-08 0 0 8.0475962195314131e-08 0 0 4.9021024571712677e-07 0 0 3.7692416506959226e-07 0 0 3.8381345222987079e-07 0 0 3.907936921842192e-07 0 0 3.9786576496591756e-07 0 0 4.0503054803579714e-07 0 0 4.1228891622736999e-07 0 0 4.1964174168989503e-07 0 0 4.2708989383046665e-07 0 0 4.3463423925388748e-07 0 0 4.42275641700304e-07 0 0 4.5001496198153494e-07 0 0 4.5785305791415921e-07 0 0 4.6579078425061516e-07 0 0 4.7382899260752448e-07 0 0 4.8196853139069743e-07 0 0 3.7012494815131612e-07 0 0 4.9855497733384705e-07 0 0 5.0700356453246131e-07 0 0 5.1555684205978965e-07 0 0 5.2421564102433111e-07 0 0 5.329807887979963e-07 0 0 5.4185310891229599e-07 0 0 5.5083342094975685e-07 0 0 5.5992254042883367e-07 0 0 5.6912127868282447e-07 0 0 5.7843044273199956e-07 0 0 5.8785083514820024e-07 0 0 5.9738325391187471e-07 0 0 6.0702849226055674e-07 0 0 6.1678733852845198e-07 0 0 2.7833786239998533e-07 0 0 2.035639843624219e-07 0 0 2.0808202774769704e-07 0 0 2.126627251884875e-07 0 0 2.1730701368867463e-07 0 0 2.22015829027831e-07 0 0 2.2679010572367453e-07 0 0 2.3163077699459747e-07 0 0 2.3653877472127727e-07 0 0 2.4151502940807753e-07 0 0 2.4656047014452612e-07 0 0 2.5167602456598134e-07 0 0 2.5686261881426734e-07 0 0 2.62121177497729e-07 0 0 2.6745262365151521e-07 0 0 2.7285787869668169e-07 0 0 1.2446724361445001e-09 0 0 2.8389349283241347e-07 0 0 2.895256863279495e-07 0 0 2.9523535744211306e-07 0 0 3.0102341890952703e-07 0 0 3.0689078160130561e-07 0 0 3.1283835448321811e-07 0 0 3.1886704457069588e-07 0 0 3.2497775688684757e-07 0 0 3.3117139441690935e-07 0 0 3.3744885806420598e-07 0 0 3.4381104660442348e-07 0 0 3.5025885663987261e-07 0 0 3.5679318255251034e-07 0 0 3.6341491645682873e-07 
</DataArray>
<DataArray type="Float64" Name="water_content" format="ascii">
0.24313624480046234 0.23276500857761753 0.23336061349526885 0.23396852725195838 0.23458903941897286 0.23522244830060118 0.23586906126187768 0.2365291950703852 0.23720317625275816 0.23789134146655089 0.23859403788816666 0.23931162361756975 0.24004446810053248 0.24079295256919764 0.24155747050176696 0.24233842810215306 0.23218143134642388 0.24395135377520299 0.24478420249813918 0.24563525330273492 0.24650498397715606 0.24739388838281462 0.24830247709945752 0.24923127809780926 0.25018083744078373 0.25115172001427633 0.25214451028853468 0.25315981311108232 0.25419825453213296 0.25526048266338058 0.25634716857097728 0.25745900720341686 0.22470247599820148 0.21914712425554667 0.219468771680774 0.2197967844490008 0.22013128953985805 0.22047241700779113 0.22082030007769307 0.22117507524418772 0.2215368823747173 0.22190586481659522 0.22228216950819418 0.22266594709444526 0.22305735204683474 0.22345654278809166 0.22386368182177008 0.22427893586693881 0.25859671835491954 0.22513447779128121 0.22557512147441405 0.22602459208580822 0.22648307963743813 0.22695077928545404 0.22742789150750342 0.22791462228727272 0.22841118330657401 0.22891779214531566 0.22943467248971286 0.22996205434911099 0.23050017428181171 0.23104927563031141 0.23160960876637926 0.362508574499811 0.31470037128308648 0.31732464149354556 0.32002155289611522 0.32279313842780732 0.32564141348673314 0.32856835710790522 0.33157588897565765 0.33466584143297351 0.33783992546662001 0.34109968941971913 0.34444646889561986 0.34788132594810761 0.35140497517345803 0.35501769368593816 0.35871921110422467 0.31214670714329451 0.3663839815974097 0.37034257310505025 0.37438017143571456 0.37849094746638512 0.38266698790063747 0.38689772043286086 0.39116912647930557 0.39546261907139579 0.39975335627358588 0.40400751703698889 0.40817743433434589 0.41219148344002532 0.41592681452006897 0.41885248635821448 0.28101926160491586 0.25976104766476116 0.2609527676527964 0.26217267879118966 0.26342161061207786 0.26470042285053735 0.26601000662180035 0.2673512856311554 0.26872521741434829 0.27013279460556783 0.27157504622922185 0.27305303901066313 0.27456787869978871 0.27612071139995831 0.27771272489293763 0.27934514994850523 0.21883171817637093 0.28273638040352633 0.28449787355746992 0.2863051560302271 0.28815969149516663 0.29006299314148543 0.29201662428529851 0.29402219873673618 0.29608138086455171 0.29819588528866814 0.30036747611796055 0.30259796563497643 0.30488921231077715 0.30724311801102933 0.30966162422819715 0.20659743560732 0.20589315591562979 0.20593045275651853 0.20596905360489337 0.20600897429710685 0.20605023117424595 0.20609284108580417 0.20613682139350067 0.2061821899752504 0.20622896522928913 0.20627716607845781 0.20632681197465064 0.20637792290343079 0.20643051938881984 0.20648462249826449 0.20654025384778635 0.20585714774708028 0.20665619050624498 0.20671654183911697 0.20677851347160481 0.20684212984663841 0.20690741599077533 0.20697439752079141 0.20704310065050296 0.20711355219782762 0.20718577959209053 0.20725981088158502 0.20733567474139347 0.20741340048147899 0.20749301805505421 0.20757455806723771 0.20765805178400615 0.20546273581975436 0.20531980704125147 0.20532190937344064 0.20532506092107225 0.20532926302964805 0.20533451749338372 0.20534082655555452 0.20534819290892781 0.20535661969628305 0.20536611051101961 0.20537666939785307 0.2053883008536006 0.20540100982805681 0.20541480172495963 0.20542968240304882 0.20544565817721688 0.20774353114145211 0.20548092256169015 0.20550022609422855 0.20552065457028462 0.20554221660611888 0.20556492128307349 0.20558877814941159 0.20561379722226114 0.20563998898966612 0.20566736441274627 0.20569593492796823 0.20572571244952992 0.20575670937186083 0.20578893857224079 0.20582241341353957 0.21477344686509223 0.21175782558294526 0.21193184393667211 0.21210942485613574 0.21229063288498484 0.21247553389132234 0.21266419509952267 0.21285668512315076 0.21305307399902332 0.2132534332224546 0.21345783578373079 0.21366635620585897 0.2138790705836382 0.21409605662410275 0.2143173936883892 0.21454316283508187 0.21158730654500585 0.21500833036813183 0.21524789977083969 0.21549224338662823 0.21574145146731427 0.21599561625660496 0.21625483204551135 0.21651919522976501 0.21678880436931747 0.21706376025000462 0.21734416594746309 0.21763012689338807 0.21792175094422733 0.21821914845241014 0.2185224323402129 0.20941006711560739 0.20783102875535697 0.20792057793108948 0.20801221267384037 0.20810596769920373 0.20820187844411653 0.20829998107816833 0.20840031251529273 0.20850291042585378 0.20860781324914002 0.20871506020627939 0.20882469131359005 0.2089367473963806 0.20905127010321498 0.20916830192065841 0.20928788618851973 0.20531875302745789 0.20953488979601642 0.2096624002259645 0.20979264532119607 0.20992567293497386 0.21006153187667784 0.21020027193103311 0.21034194387798816 0.21048659951326626 0.21063429166961342 0.2107850742387678 0.21093900219417505 0.21109613161447704 0.21125651970780049 0.21142022483687437 
</DataArray>
<DataArray type="Float64" Name="conductivity_richards" format="ascii">