<?xml version="1.0"?>
<VTKFile type="UnstructuredGrid" version="0.1" byte_order="LittleEndian">
<UnstructuredGrid>
<Piece NumberOfPoints="251" NumberOfCells="250">
<Points>
<DataArray type="Float64" NumberOfComponents="3" format="ascii">
0 0 0 0 0 -0.25 0 0 -0.00099999999999810158 0 0 -0.001999999999996204 0 0 -0.0029999999999943271 0 0 -0.0039999999999924488 0 0 -0.004999999999990571 0 0 -0.0059999999999886811 0 0 -0.0069999999999867156 0 0 -0.007999999999984719 0 0 -0.008999999999982581 0 0 -0.0099999999999804221 0 0 -0.010999999999978201 0 0 -0.011999999999975971 0 0 -0.01299999999997375 0 0 -0.01399999999997158 0 0 -0.014999999999969531 0 0 -0.01599999999996761 0 0 -0.0169999999999659 0 0 -0.01799999999996427 0 0 -0.018999999999962731 0 0 -0.019999999999961209 0 0 -0.020999999999959669 0 0 -0.02199999999995814 0 0 -0.022999999999956611 0 0 -0.023999999999955082 0 0 -0.024999999999953549 0 0 -0.02599999999995202 0 0 -0.02699999999995048 0 0 -0.027999999999948951 0 0 -0.028999999999947419 0 0 -0.02999999999994565 0 0 -0.03099999999994377 0 0 -0.031999999999941367 0 0 -0.032999999999938787 0 0 -0.033999999999935943 0 0 -0.034999999999933022 0 0 -0.035999999999930102 0 0 -0.036999999999927188 0 0 -0.037999999999924268 0 0 -0.038999999999921348 0 0 -0.039999999999918427 0 0 -0.040999999999915507 0 0 -0.041999999999912593 0 0 -0.042999999999909673 0 0 -0.043999999999906753 0 0 -0.044999999999903832 0 0 -0.045999999999900919 0 0 -0.046999999999897998 0 0 -0.047999999999895078 0 0 -0.048999999999892158 0 0 -0.049999999999889237 0 0 -0.050999999999886317 0 0 -0.051999999999883403 0 0 -0.052999999999880483 0 0 -0.053999999999877563 0 0 -0.054999999999874642 0 0 -0.055999999999871722 0 0 -0.056999999999868801 0 0 -0.057999999999865881 0 0 -0.058999999999862961 0 0 -0.059999999999860047 0 0 -0.060999999999857127 0 0 -0.061999999999854213 0 0 -0.062999999999851286 0 0 -0.063999999999848373 0 0 -0.064999999999845445 0 0 -0.065999999999842532 0 0 -0.066999999999839618 0 0 -0.067999999999836705 0 0 -0.068999999999833792 0 0 -0.069999999999830878 0 0 -0.070999999999827965 0 0 -0.071999999999825051 0 0 -0.072999999999822124 0 0 -0.07399999999981921 0 0 -0.074999999999816297 0 0 -0.075999999999813383 0 0 -0.07699999999981047 0 0 -0.077999999999807557 0 0 -0.078999999999804643 0 0 -0.07999999999980173 0 0 -0.080999999999798802 0 0 -0.081999999999795889 0 0 -0.082999999999792975 0 0 -0.083999999999790062 0 0 -0.084999999999787149 0 0 -0.085999999999784235 0 0 -0.086999999999781322 0 0 -0.087999999999778394 0 0 -0.088999999999775481 0 0 -0.089999999999772567 0 0 -0.090999999999769654 0 0 -0.091999999999766741 0 0 -0.092999999999763827 0 0 -0.093999999999760914 0 0 -0.094999999999758 0 0 -0.095999999999755073 0 0 -0.096999999999752159 0 0 -0.097999999999749246 0 0 -0.098999999999746333 0 0 -0.099999999999743419 0 0 -0.10099999999974051 0 0 -0.10199999999973761 0 0 -0.10299999999973471 0 0 -0.10399999999973179 0 0 -0.1049999999997288 0 0 -0.1059999999997259 0 0 -0.106999999999723 0 0 -0.1079999999997201 0 0 -0.1089999999997172 0 0 -0.1099999999997143 0 0 -0.1109999999997113 0 0 -0.1119999999997084 0 0 -0.1129999999997055 0 0 -0.1139999999997026 0 0 -0.1149999999996997 0 0 -0.1159999999996968 0 0 -0.11699999999969379 0 0 -0.11799999999969089 0 0 -0.11899999999968799 0 0 -0.11999999999968509 0 0 -0.1209999999996822 0 0 -0.1219999999996793 0 0 -0.1229999999996764 0 0 -0.1239999999996748 0 0 -0.12499999999967321 0 0 -0.12599999999967451 0 0 -0.12699999999967579 0 0 -0.1279999999996784 0 0 -0.12899999999968109 0 0 -0.1299999999996837 0 0 -0.13099999999968631 0 0 -0.13199999999968889 0 0 -0.13299999999969159 0 0 -0.1339999999996942 0 0 -0.13499999999969689 0 0 -0.1359999999996995 0 0 -0.13699999999970211 0 0 -0.1379999999997048 0 0 -0.13899999999970741 0 0 -0.13999999999971011 0 0 -0.14099999999971269 0 0 -0.1419999999997153 0 0 -0.14299999999971799 0 0 -0.1439999999997206 0 0 -0.14499999999972321 0 0 -0.14599999999972579 0 0 -0.14699999999972849 0 0 -0.1479999999997311 0 0 -0.14899999999973379 0 0 -0.1499999999997364 0 0 -0.15099999999973901 0 0 -0.1519999999997417 0 0 -0.15299999999974431 0 0 -0.15399999999974701 0 0 -0.15499999999974959 0 0 -0.1559999999997522 0 0 -0.15699999999975489 0 0 -0.1579999999997575 0 0 -0.15899999999976011 0 0 -0.1599999999997628 0 0 -0.16099999999976539 0 0 -0.161999999999768 0 0 -0.16299999999977069 0 0 -0.1639999999997733 0 0 -0.16499999999977599 0 0 -0.1659999999997786 0 0 -0.16699999999978121 0 0 -0.16799999999978391 0 0 -0.16899999999978649 0 0 -0.1699999999997891 0 0 -0.17099999999979171 0 0 -0.1719999999997944 0 0 -0.17299999999979701 0 0 -0.1739999999997997 0 0 -0.17499999999980231 0 0 -0.17599999999980501 0 0 -0.17699999999980759 0 0 -0.1779999999998102 0 0 -0.17899999999981281 0 0 -0.1799999999998155 0 0 -0.18099999999981811 0 0 -0.18199999999982069 0 0 -0.18299999999982339 0 0 -0.183999999999826 0 0 -0.18499999999982869 0 0 -0.1859999999998313 0 0 -0.18699999999983391 0 0 -0.1879999999998366 0 0 -0.18899999999983921 0 0 -0.18999999999984191 0 0 -0.19099999999984449 0 0 -0.1919999999998471 0 0 -0.19299999999984971 0 0 -0.1939999999998524 0 0 -0.19499999999985501 0 0 -0.1959999999998577 0 0 -0.19699999999986029 0 0 -0.19799999999986301 0 0 -0.19899999999986559 0 0 -0.1999999999998682 0 0 -0.20099999999987081 0 0 -0.2019999999998735 0 0 -0.20299999999987611 0 0 -0.20399999999987881 0 0 -0.20499999999988139 0 0 -0.205999999999884 0 0 -0.20699999999988669 0 0 -0.2079999999998893 0 0 -0.20899999999989191 0 0 -0.2099999999998946 0 0 -0.21099999999989719 0 0 -0.21199999999989991 0 0 -0.21299999999990249 0 0 -0.2139999999999051 0 0 -0.21499999999990771 0 0 -0.2159999999999104 0 0 -0.21699999999991301 0 0 -0.21799999999991571 0 0 -0.21899999999991829 0 0 -0.2199999999999209 0 0 -0.22099999999992359 0 0 -0.2219999999999262 0 0 -0.22299999999992881 0 0 -0.22399999999993139 0 0 -0.22499999999993411 0 0 -0.2259999999999367 0 0 -0.22699999999993939 0 0 -0.227999999999942 0 0 -0.22899999999994469 0 0 -0.2299999999999473 0 0 -0.23099999999994991 0 0 -0.23199999999995249 0 0 -0.23299999999995519 0 0 -0.2339999999999578 0 0 -0.23499999999996049 0 0 -0.2359999999999631 0 0 -0.23699999999996571 0 0 -0.2379999999999684 0 0 -0.23899999999997101 0 0 -0.2399999999999736 0 0 -0.24099999999997629 0 0 -0.2419999999999789 0 0 -0.24299999999998159 0 0 -0.2439999999999842 0 0 -0.24499999999998681 0 0 -0.24599999999998939 0 0 -0.24699999999999209 0 0 -0.2479999999999947 0 0 -0.24899999999999739 
</DataArray>
</Points>
<Cells>
<DataArray type="UInt32" Name="connectivity" format="ascii">
0 2 2 3 3 4 4 5 5 6 6 7 7 8 8 9 9 10 10 11 11 12 12 13 13 14 14 15 15 16 16 17 17 18 18 19 19 20 20 21 21 22 22 23 23 24 24 25 25 26 26 27 27 28 28 29 29 30 30 31 31 32 32 33 33 34 34 35 35 36 36 37 37 38 38 39 39 40 40 41 41 42 42 43 43 44 44 45 45 46 46 47 47 48 48 49 49 50 50 51 51 52 52 53 53 54 54 55 55 56 56 57 57 58 58 59 59 60 60 61 61 62 62 63 63 64 64 65 65 66 66 67 67 68 68 69 69 70 70 71 71 72 72 73 73 74 74 75 75 76 76 77 77 78 78 79 79 80 80 81 81 82 82 83 83 84 84 85 85 86 86 87 87 88 88 89 89 90 90 91 91 92 92 93 93 94 94 95 95 96 96 97 97 98 98 99 99 100 100 101 101 102 102 103 103 104 104 105 105 106 106 107 107 108 108 109 109 110 110 111 111 112 112 113 113 114 114 115 115 116 116 117 117 118 118 119 119 120 120 121 121 122 122 123 123 124 124 125 125 126 126 127 127 128 128 129 129 130 130 131 131 132 132 133 133 134 134 135 135 136 136 137 137 138 138 139 139 140 140 141 141 142 142 143 143 144 144 145 145 146 146 147 147 148 148 149 149 150 150 151 151 152 152 153 153 154 154 155 155 156 156 157 157 158 158 159 159 160 160 161 161 162 162 163 163 164 164 165 165 166 166 167 167 168 168 169 169 170 170 171 171 172 172 173 173 174 174 175 175 176 176 177 177 178 178 179 179 180 180 181 181 182 182 183 183 184 184 185 185 186 186 187 187 188 188 189 189 190 190 191 191 192 192 193 193 194 194 195 195 196 196 197 197 198 198 199 199 200 200 201 201 202 202 203 203 204 204 205 205 206 206 207 207 208 208 209 209 210 210 211 211 212 212 213 213 214 214 215 215 216 216 217 217 218 218 219 219 220 220 221 221 222 222 223 223 224 224 225 225 226 226 227 227 228 228 229 229 230 230 231 231 232 232 233 233 234 234 235 235 236 236 237 237 238 238 239 239 240 240 241 241 242 242 243 243 244 244 245 245 246 246 247 247 248 248 249 249 250 250 1 
</DataArray>
<DataArray type="UInt32" Name="offsets" format="ascii">
2 4 6 8 10 12 14 16 18 20 22 24 26 28 30 32 34 36 38 40 42 44 46 48 50 52 54 56 58 60 62 64 66 68 70 72 74 76 78 80 82 84 86 88 90 92 94 96 98 100 102 104 106 108 110 112 114 116 118 120 122 124 126 128 130 132 134 136 138 140 142 144 146 148 150 152 154 156 158 160 162 164 166 168 170 172 174 176 178 180 182 184 186 188 190 192 194 196 198 200 202 204 206 208 210 212 214 216 218 220 222 224 226 228 230 232 234 236 238 240 242 244 246 248 250 252 254 256 258 260 262 264 266 268 270 272 274 276 278 280 282 284 286 288 290 292 294 296 298 300 302 304 306 308 310 312 314 316 318 320 322 324 326 328 330 332 334 336 338 340 342 344 346 348 350 352 354 356 358 360 362 364 366 368 370 372 374 376 378 380 382 384 386 388 390 392 394 396 398 400 402 404 406 408 410 412 414 416 418 420 422 424 426 428 430 432 434 436 438 440 442 444 446 448 450 452 454 456 458 460 462 464 466 468 470 472 474 476 478 480 482 484 486 488 490 492 494 496 498 500 
</DataArray>
<DataArray type="UInt32" Name="types" format="ascii">
3 3 3 3 3 3 3 3 3 3 3 3 3 3 3 3 3 3 3 3 3 3 3 3 3 3 3 3 3 3 3 3 3 3 3 3 3 3 3 3 3 3 3 3 3 3 3 3 3 3 3 3 3 3 3 3 3 3 3 3 3 3 3 3 3 3 3 3 3 3 3 3 3 3 3 3 3 3 3 3 3 3 3 3 3 3 3 3 3 3 3 3 3 3 3 3 3 3 3 3 3 3 3 3 3 3 3 3 3 3 3 3 3 3 3 3 3 3 3 3 3 3 3 3 3 3 3 3 3 3 3 3 3 3 3 3 3 3 3 3 3 3 3 3 3 3 3 3 3 3 3 3 3 3 3 3 3 3 3 3 3 3 3 3 3 3 3 3 3 3 3 3 3 3 3 3 3 3 3 3 3 3 3 3 3 3 3 3 3 3 3 3 3 3 3 3 3 3 3 3 3 3 3 3 3 3 3 3 3 3 3 3 3 3 3 3 3 3 3 3 3 3 3 3 3 3 3 3 3 3 3 3 3 3 3 3 3 3 3 3 3 3 3 3 3 3 3 3 3 3 
</DataArray>
</Cells>
<CellData Scalars="pressure_p0,saturation,conductivity_out," Vectors="velocity_p0," Tensors="">
<DataArray type="Float64" Name="pressure_p0" format="ascii">
-6619.026818593853 -6619.0258213025754 -6619.0248265770006 -6619.0238341303339 -6619.0228435304944 -6619.0218541978211 -6619.0208654020053 -6619.0198762582168 -6619.0188857223866 -6619.0178925856435 -6619.0168954678438 -6619.0158928101609 -6619.014882866697 -6619.0138636950396 -6619.0128331457227 -6619.0117888505156 -6619.0107282094723 -6619.0096483766592 -6619.0085462444613 -6619.0074184263794 -6619.0062612382171 -6619.0050706775219 -6619.0038424011836 -6619.0025717010349 -6619.0012534772959 -6618.9998822097577 -6618.9984519264563 -6618.9969561697171 -6618.9953879593377 -6618.9937397527119 -6618.9920034016541 -6618.9901701056806 -6618.9882303614668 -6618.9861739082371 -6618.9839896687154 -6618.9816656853654 -6618.9791890515271 -6618.9765458370875 -6618.9737210082767 -6618.9706983411379 -6618.9674603282056 -6618.9639880779059 -6618.960261206118 -6618.9562577193183 -6618.9519538887034 -6618.9473241146134 -6618.9423407805461 -6618.9369740960192 -6618.9311919274314 -6618.9249596160926 -6618.9182397824579 -6618.9109921155923 -6618.9031731467967 -6618.8947360062411 -6618.8856301614242 -6618.8758011361388 -6618.8651902085612 -6618.8537340870025 -6618.8413645617302 -6618.8280081311987 -6618.8135856008957 -6618.7980116528761 -6618.7811943839915 -6618.7630348106268 -6618.7434263376481 -6618.7222541891342 -6618.6993947982573 -6618.6747151535856 -6618.6480720988466 -6618.6193115830356 -6618.588267857569 -6618.55476261696 -6618.5186040793087 -6618.4795860026425 -6618.4374866329326 -6618.3920675793761 -6618.3430726122406 -6618.290226378329 -6618.2332330288391 -6618.1717747540661 -6618.1055102191476 -6618.0340728946485 -6617.9570692755497 -6617.8740769817505 -6617.7846427329241 -6617.6882801901265 -6617.584467656221 -6617.4726456267254 -6617.3522141823269 -6617.222530213844 -6617.0829044700013 -6616.932598417905 -6616.7708209056746 -6616.5967246161808 -6616.4094023003736 -6616.2078827782098 -6615.9911266946492 -6615.7580220177369 -6615.5073792652356 -6615.2379264458004 -6614.9483037001692 -6614.6370576273293 -6614.3026352801508 -6613.9433778144685 -6613.5575137751384 -6613.1431520021342 -6612.6982741393194 -6612.2207267281392 -6611.7082128680886 -6611.158283425505 -6610.568327771929 -6609.9355640330741 -6609.2570288292309 -6608.5295664879004 -6607.7498177093466 -6606.9142076659036 -6606.0189335159903 -6605.0599513140769 -6604.0329622982472 -6602.9333985375461 -6601.7564079219601 -6600.496838478758 -6599.1492219999318 -6597.7077569666981 -6596.1662907584732 -6594.5183011353911 -6592.7568769853715 -6590.8746983289075 -6588.86401557725 -6586.7166280424572 -6584.4238617008741 -6581.9765462151445 -6579.3649912236724 -6576.5789619107545 -6573.6076538752495 -6570.4396673208721 -6567.0629805967274 -6563.4649231228996 -6559.6321477424899 -6555.550602548703 -6551.2055022433251 -6546.58129909127 -6541.6616535447929 -6536.4294046205159 -6530.8665401226299 -6524.9541668164338 -6518.6724806678667 -6512.0007372768432 -6504.9172226449846 -6497.3992244318033 -6489.4230038674987 -6480.9637685052276 -6471.9956460110898 -6462.4916592059253 -6452.4237025895054 -6441.7625205946588 -6430.47768783621 -6418.5375916374505 -6405.909417134857 -6392.5591352801202 -6378.4514940769513 -6363.5500134085487 -6347.8169838299382 -6331.2134697175306 -6313.6993171858812 -6295.2331671988741 -6275.7724743189174 -6255.2735315533537 -6233.6915017716638 -6210.9804561801539 -6187.0934203523811 -6161.9824283233093 -6135.5985852628301 -6107.8921392496804 -6078.8125626694873 -6048.308643760497 -6016.3285888271075 -5982.8201356343743 -5947.7306784858156 -5911.0074054718025 -5872.5974483561749 -5832.448045544199 -5790.5067185451517 -5746.7214623074015 -5701.0409497622777 -5653.4147508652577 -5603.7935663683056 -5552.1294764954182 -5498.3762046241991 -5442.4893959990286 -5384.4269114160052 -5324.1491357257064 -5261.6193008967202 -5196.8038232704166 -5129.6726545151869 -5060.1996456559682 -4988.3629234120835 -4914.1452779226502 -4837.5345607739273 -4758.5240920663609 -4677.1130750705988 -4593.3070168209088 -4507.1181527807139 -4418.5658734882218 -4327.6771508497905 -4234.4869614943173 -4139.038704333193 -4041.3846091867963 -3941.5861330394273 -3839.7143401699459 -3735.8502620743011 -3630.0852327481944 -3522.5211945331675 -3413.2709693464558 -3302.4584897139389 -3190.2189836060265 -3076.6991066377227 -2962.0570147366643 -2846.4623699063659 -2730.096271216381 -2613.151102637315 -2495.8302888075268 -2378.3479492711358 -2260.9284411664166 -2143.8057797723491 -2027.2229257436261 -1911.4309272863557 -1796.6879049557419 -1683.2578662023091 -1571.4093362668041 -1461.4137915399901 -1353.5438810782459 -1248.0714216167842 -1145.2651511648305 -1045.388226109857 -948.69544669091647 -855.43019567379554 -765.82107494077673 -680.07822420049229 -598.38930451396004 -520.91512557359238 -447.78488712435353 -379.09098630368578 -314.88330253392098 -255.16278321883422 -199.87394815595411 -148.89540548681305 -102.02589988076284 -58.957188789790273 -19.163327050038376 
</DataArray>
<DataArray type="Float64" Name="velocity_p0" NumberOfComponents="3" format="ascii">
0 0 -1.9238361352938323e-14 0 0 -5.6699232632050491e-14 0 0 -9.1107419238128576e-14 0 0 -1.2040992715012721e-13 0 0 -1.4252665445686008e-13 0 0 -1.5533951594098178e-13 0 0 -1.5668104314017744e-13 0 0 -1.443228568857328e-13 0 0 -1.1596342544422908e-13 0 0 -6.9215846573650156e-14 0 0 -1.5945997276824525e-15 0 0 8.9498040413084082e-14 0 0 2.0678648778947274e-13 0 0 3.5313693742521013e-13 0 0 5.3157384440783913e-13 0 0 7.4529662909746313e-13 0 0 9.9769819370150456e-13 0 0 1.2923841243364258e-12 0 0 1.6331937694422821e-12 0 0 2.0242222941156816e-12 0 0 2.4698443767940679e-12 0 0 2.9747399811393764e-12 0 0 3.5439213358978413e-12 0 0 4.1827626566694302e-12 0 0 4.8970314129395768e-12 0 0 5.6929222295713228e-12 0 0 6.5770933907951872e-12 0 0 7.5567059122839706e-12 0 0 8.6394653917688165e-12 0 0 9.8336674831714182e-12 0 0 1.1148246141552879e-11 0 0 1.2592826219112289e-11 0 0 1.4177779471884474e-11 0 0 1.5914284862166027e-11 0 0 1.7814393602424251e-11 0 0 1.9891099011039627e-11 0 0 2.2158411296628659e-11 0 0 2.4631438391781282e-11 0 0 2.7326472445270965e-11 0 0 3.0261083019750694e-11 0 0 3.3454217229164957e-11 0 0 3.6926306696450503e-11 0 0 4.0699383513572265e-11 0 0 4.4797203759463631e-11 0 0 4.9245380641543983e-11 0 0 5.4071527318305093e-11 0 0 5.9305410066532786e-11 0 0 6.4979112770005936e-11 0 0 7.1127213204335937e-11 0 0 7.7786972450902957e-11 0 0 8.4998537619677179e-11 0 0 9.2805159361065104e-11 0 0 1.0125342512692551e-10 0 0 1.1039350914575915e-10 0 0 1.2027943981638571e-10 0 0 1.3096938674438421e-10 0 0 1.4252596773467093e-10 0 0 1.550165775695227e-10 0 0 1.6851374002411049e-10 0 0 1.830954840270007e-10 0 0 1.9884574697928233e-10 0 0 2.1585480527033517e-10 0 0 2.3421973512322965e-10 0 0 2.5404490477403113e-10 0 0 2.7544250062830075e-10 0 0 2.9853308959918283e-10 0 0 3.234462190436551e-10 0 0 3.5032105766389342e-10 0 0 3.7930707962183869e-10 0 0 4.1056479426044551e-10 0 0 4.4426652432116036e-10 0 0 4.8059723594816091e-10 0 0 5.1975542333102318e-10 0 0 5.6195405112518665e-10 0 0 6.0742155844464576e-10 0 0 6.5640292785106041e-10 0 0 7.0916082271169574e-10 0 0 7.6597679818011775e-10 0 0 8.2715258808571044e-10 0 0 8.9301147379433975e-10 0 0 9.6389973863785814e-10 0 0 1.040188212810648e-09 0 0 1.1222739138352659e-09 0 0 1.2105817877591819e-09 0 0 1.3055665563201097e-09 0 0 1.407714675593714e-09 0 0 1.5175464121252391e-09 0 0 1.6356180427711983e-09 0 0 1.762524183637386e-09 0 0 1.8989002553852723e-09 0 0 2.0454250914272636e-09 0 0 2.2028236952438008e-09 0 0 2.3718701546541864e-09 0 0 2.5533907201914988e-09 0 0 2.7482670541030664e-09 0 0 2.9574396590622268e-09 0 0 3.1819114931535087e-09 0 0 3.4227517796276563e-09 0 0 3.6811000194877627e-09 0 0 3.958170214959115e-09 0 0 4.2552553120147639e-09 0 0 4.5737318709208054e-09 0 0 4.9150649720924297e-09 0 0 5.2808133668852928e-09 0 0 5.6726348810011519e-09 0 0 6.0922920789615575e-09 0 0 6.5416581981313297e-09 0 0 7.0227233600729834e-09 0 0 7.5376010674247486e-09 0 0 8.0885349942060361e-09 0 0 8.6779060758986915e-09 0 0 9.308239908085133e-09 0 0 9.9822144586856572e-09 0 0 1.0702668100794532e-08 0 0 1.1472607971683844e-08 0 0 1.2295218662529644e-08 0 0 1.3173871243627396e-08 0 0 1.4112132628256943e-08 0 0 1.5113775278077012e-08 0 0 1.6182787251021147e-08 0 0 1.7323382593442736e-08 0 0 1.8540012074481099e-08 0 0 1.9837374261800494e-08 0 0 2.1220426935329102e-08 0 0 2.2694398833547851e-08 0 0 2.4264801727108718e-08 0 0 2.5937442810850007e-08 0 0 2.7718437405120983e-08 0 0 2.9614221954423653e-08 0 0 3.1631567309738613e-08 0 0 3.3777592278896439e-08 0 0 3.6059777427140648e-08 0 0 3.8485979107191763e-08 0 0 4.106444369713775e-08 0 0 4.3803822020475436e-08 0 0 4.6713183921047717e-08 0 0 4.980203296295046e-08 0 0 5.3080321222992087e-08 0 0 5.6558464140234899e-08 0 0 6.0247355385403525e-08 0 0 6.4158381708874677e-08 0 0 6.830343772591565e-08 0 0 7.2694940592006968e-08 0 0 7.734584452220767e-08 0 0 8.226965510293073e-08 0 0 8.7480443344928603e-08 0 0 9.2992859422621539e-08 0 0 9.8822146043408675e-08 0 0 1.0498415138989903e-07 0 0 1.1149534157449501e-07 0 0 1.1837281254724104e-07 0 0 1.2563430139456227e-07 0 0 1.3329819696767191e-07 0 0 1.413835497785845e-07 0 0 1.4991008110126186e-07 0 0 1.5889819121791297e-07 0 0 1.6836896674851547e-07 0 0 1.7834418700651378e-07 0 0 1.8884632932268646e-07 0 0 1.9989857328271175e-07 0 0 2.1152480382759334e-07 0 0 2.2374961316771327e-07 0 0 2.3659830146670316e-07 0 0 2.5009687625431682e-07 0 0 2.642720505330247e-07 0 0 2.7915123954801502e-07 0 0 2.9476255619588064e-07 0 0 3.111348050520971e-07 0 0 3.2829747500580953e-07 0 0 3.4628073049476269e-07 0 0 3.6511540134048667e-07 0 0 3.8483297119140432e-07 0 0 4.0546556458736197e-07 0 0 4.2704593266557034e-07 0 0 4.4960743753569829e-07 0 0 4.7318403535625939e-07 0 0 4.9781025815257326e-07 0 0 5.2352119441923531e-07 0 0 5.5035246855642675e-07 0 0 5.7834021919209111e-07 0 0 6.0752107644529678e-07 0 0 6.3793213818628316e-07 0 0 6.6961094534994543e-07 0 0 7.025954563566232e-07 0 0 7.3692402069072549e-07 0 0 7.7263535168122237e-07 0 0 8.097684985207777e-07 0 0 8.4836281754689657e-07 0 0 8.8845794279525494e-07 0 0 9.3009375581639397e-07 0 0 9.7331035472425207e-07 0 0 1.0181480224177416e-06 0 0 1.0646471938832905e-06 0 0 1.1128484224478281e-06 0 0 1.1627923448036099e-06 0 0 1.2145196445757299e-06 0 0 1.268071014133134e-06 0 0 1.3234871142751377e-06 0 0 1.3808085313342588e-06 0 0 1.4400757311345806e-06 0 0 1.5013290091265925e-06 0 0 1.5646084358775683e-06 0 0 1.6299537969351271e-06 0 0 1.6974045258891917e-06 0 0 1.7669996292325828e-06 0 0 1.8387776013579422e-06 0 0 1.9127763277173343e-06 0 0 1.98903297380517e-06 0 0 2.0675838571940833e-06 0 0 2.1484642993409545e-06 0 0 2.2317084532755155e-06 0 0 2.3173491025648887e-06 0 0 2.4054174260907267e-06 0 0 2.4959427221581231e-06 0 0 2.5889520842371543e-06 0 0 2.6844700191863812e-06 0 0 2.7825179970681298e-06 0 0 2.8831139195828567e-06 0 0 2.9862714916567552e-06 0 0 3.0919994777258199e-06 0 0 3.2003008206795861e-06 0 0 3.3111715971397384e-06 0 0 3.4245997776282856e-06 0 0 3.5405637540797109e-06 0 0 3.6590305899186368e-06 0 0 3.7799539394068055e-06 0 0 3.9032715730283829e-06 0 0 4.0289024342670498e-06 0 0 4.1567431402868873e-06 0 0 4.2866638250742453e-06 0 0 4.4185032092631742e-06 0 0 4.5520627676520919e-06 0 0 4.6870998560730904e-06 0 0 4.8233196586447123e-06 0 0 4.9603658327456894e-06 0 0 5.0978097759489294e-06 0 0 5.2351385387781208e-06 0 0 5.3717415945735731e-06 0 0 5.5068970068644209e-06 0 0 5.6397580845785673e-06 0 0 5.7693424933014801e-06 0 0 5.8945271180822735e-06 0 0 6.0140538201969397e-06 0 0 6.1265534072898055e-06 0 0 6.2305966180175771e-06 0 0 6.3247783643489215e-06 0 0 6.4078255024887044e-06 0 0 6.4786637021622358e-06 0 0 6.5362051748531592e-06 0 0 6.5775294035565965e-06 
</DataArray>
<DataArray type="Float64" Name="saturation" format="ascii">
0.48530209482333136 0.48530210874674329 0.48530212263433736 0.48530213649011766 0.48530215032011642 0.48530216413242655 0.48530217793724395 0.48530219174692202 0.48530220557603726 0.48530221944146701 0.4853022333624798 0.48530224736083899 0.48530226146091943 0.48530227568983964 0.48530229007760906 0.48530230465729129 0.48530231946518487 0.4853023345410229 0.48530234992819177 0.48530236567397156 0.48530238182979857 0.48530239845155237 0.48530241559986875 0.48530243334048018 0.48530245174458653 0.48530247088925765 0.48530249085787042 0.48530251174058303 0.4853025336348491 0.4853025566459741 0.48530258088771849 0.48530260648294982 0.48530263356434844 0.48530266227517027 0.48530269277007054 0.48530272521599471 0.4853027597931398 0.48530279669599197 0.48530283613444647 0.48530287833501617 0.485302923542134 0.48530297201955791 0.48530302405188508 0.48530307994618344 0.48530314003374941 0.48530320467200094 0.48530327424651587 0.48530334917322659 0.48530342990078135 0.48530351691308576 0.48530361073203632 0.48530371192046051 0.48530382108527825 0.48530393888090051 0.48530406601288156 0.48530420324184464 0.48530435138769801 0.48530451133416369 0.48530468403364085 0.48530487051242643 0.48530507187631861 0.48530528931662986 0.48530552411663791 0.4853057776585048 0.48530605143069594 0.48530634703593395 0.48530666619972412 0.48530701077948846 0.4853073827743517 0.48530778433562161 0.4853082177780107 0.48530868559164791 0.48530919045493359 0.4853097352482923 0.48531032306888289 0.48531095724632783 0.4853116413595272 0.48531237925462867 0.48531317506422511 0.48531403322786015 0.48531495851392226 0.48531595604301547 0.48531703131289861 0.48531819022508954 0.48531943911323711 0.48532078477336826 0.48532223449612399 0.48532379610110321 0.48532547797344028 0.48532728910274847 0.48532923912456716 0.48533133836445852 0.4853335978849076 0.48533602953518284 0.48533864600432808 0.48534146087745778 0.4853444886955422 0.4853477450188709 0.48535124649439709 0.4853550109271707 0.48535905735607621 0.48536340613410472 0.48536807901339363 0.4853730992352796 0.48537849162562052 0.48538428269564915 0.48539050074863366 0.48539717599262833 0.48540434065960836 0.48541202913129244 0.48542027807196608 0.48542912656863091 0.48543861627881146 0.48544879158636445 0.48545969976564313 0.48547139115437998 0.48548391933565987 0.48549734132936656 0.48551171779349345 0.48552711323571895 0.48554359623565679 0.48556123967819864 0.48558012099837661 0.48560032243818041 0.48562193131577269 0.48564504030755462 0.48566974774353944 0.48569615791650311 0.48572438140538554 0.4857545354134255 0.48578674412151984 0.48582113905730495 0.48585785948046889 0.48589705278480882 0.48593887491755966 0.48598349081653069 0.48603107486559666 0.48608181136910439 0.48613589504576959 0.48619353154265532 0.48625493796984209 0.4863203434564225 0.48638998972847503 0.48646413170970509 0.48654303814546918 0.48662699225093975 0.48671629238420988 0.48681125274518766 0.48691220410118652 0.48701949454018412 0.48713349025279529 0.48725457634408986 0.48738315767648199 0.48751965974502376 0.48766452958656042 0.48781823672433905 0.48798127414981773 0.48815415934359307 0.48833743533755719 0.48853167182060775 0.4887374662904741 0.48895544525448631 0.4891862654824064 0.48943061531476595 0.48968921603051224 0.48996282327815965 0.49025222857507933 0.49055826088004023 0.49088178824464018 0.49122371954984873 0.49158500633451746 0.49196664472341456 0.49236967746310933 0.49279519607487293 0.49324434313468773 0.4937183146914742 0.49421836283575588 0.49474579843221134 0.4953019940309043 0.49588838697346427 0.49650648271211861 0.49715785836126986 0.4978441665032895 0.49856713927238278 0.4993285927427894 0.50013043165025284 0.50097465447864709 0.50186335894692435 0.50279874793518897 0.50378313589274804 0.50481895577550051 0.50590876656504635 0.50705526142751833 0.50826127657641307 0.50952980091072508 0.51086398650757947 0.51226716005740203 0.51374283533962317 0.51529472684811839 0.51692676468820953 0.51864311088131165 0.52044817722939907 0.52234664490967564 0.52434348599043457 0.52644398708243623 0.52865377536659164 0.53097884726875044 0.53342560008644702 0.53600086691110782 0.53871195523308335 0.5415666896666177 0.54457345928827694 0.54774127014619367 0.55107980356964026 0.5545994809897441 0.55831153607344075 0.56222809507473281 0.56636226642042053 0.5707282406717229 0.57534140213787155 0.58021845356090762 0.58537755543875414 0.5908384816994916 0.59662279357259151 0.60275403360498636 0.60925794181367587 0.61616269590955819 0.62349917730440318 0.63130126412592247 0.63960615156579348 0.64845469834729697 0.65789179558282196 0.66796675028149088 0.67873366947967106 0.69025182120323669 0.70258593338281083 0.71580636855721147 0.72998907618288666 0.74521516834060719 0.7615698766210276 0.77914050760195541 0.7980127853052903 0.81826458262611457 0.83995535929804677 0.8631083241710622 0.8876796176136168 0.91350227457403932 0.94017356863872514 0.96677563183700599 0.98994986413923969 
</DataArray>
<DataArray type="Float64" Name="conductivity_out" format="ascii">