<?xml version="1.0"?>
<VTKFile type="UnstructuredGrid" version="0.1" byte_order="LittleEndian">
<UnstructuredGrid>
<Piece NumberOfPoints="251" NumberOfCells="250">
<Points>
<DataArray type="Float64" NumberOfComponents="3" format="ascii">
0 0 -0.25 0 0 -0.24899999999999739 0 0 -0.2479999999999947 0 0 -0.24699999999999209 0 0 -0.24599999999998939 0 0 -0.24499999999998681 0 0 -0.24299999999998159 0 0 -0.2439999999999842 0 0 -0.23499999999996049 0 0 -0.2359999999999631 0 0 -0.23699999999996571 0 0 -0.2379999999999684 0 0 -0.23899999999997101 0 0 -0.2399999999999736 0 0 -0.24099999999997629 0 0 -0.2419999999999789 0 0 -0.22699999999993939 0 0 -0.227999999999942 0 0 -0.22899999999994469 0 0 -0.2299999999999473 0 0 -0.23099999999994991 0 0 -0.23199999999995249 0 0 -0.23299999999995519 0 0 -0.2339999999999578 0 0 -0.22499999999993411 0 0 -0.2259999999999367 0 0 -0.22399999999993139 0 0 -0.22299999999992881 0 0 -0.2219999999999262 0 0 -0.22099999999992359 0 0 -0.2199999999999209 0 0 -0.21899999999991829 0 0 -0.21799999999991571 0 0 -0.21699999999991301 0 0 -0.21499999999990771 0 0 -0.2159999999999104 0 0 -0.21299999999990249 0 0 -0.2139999999999051 0 0 -0.21199999999989991 0 0 -0.21099999999989719 0 0 -0.2099999999998946 0 0 -0.20899999999989191 0 0 -0.2079999999998893 0 0 -0.20399999999987881 0 0 -0.20499999999988139 0 0 -0.205999999999884 0 0 -0.20699999999988669 0 0 -0.18899999999983921 0 0 -0.1879999999998366 0 0 -0.19099999999984449 0 0 -0.18999999999984191 0 0 -0.19299999999984971 0 0 -0.1919999999998471 0 0 -0.19499999999985501 0 0 -0.1939999999998524 0 0 -0.19699999999986029 0 0 -0.1959999999998577 0 0 -0.19899999999986559 0 0 -0.19799999999986301 0 0 -0.20099999999987081 0 0 -0.1999999999998682 0 0 -0.20299999999987611 0 0 -0.2019999999998735 0 0 -0.13099999999968631 0 0 -0.13199999999968889 0 0 -0.1299999999996837 0 0 -0.12899999999968109 0 0 -0.1279999999996784 0 0 -0.12699999999967579 0 0 -0.12599999999967451 0 0 -0.13999999999971011 0 0 -0.13899999999970741 0 0 -0.1379999999997048 0 0 -0.13699999999970211 0 0 -0.1359999999996995 0 0 -0.13499999999969689 0 0 -0.13299999999969159 0 0 -0.1339999999996942 0 0 -0.14699999999972849 0 0 -0.1479999999997311 0 0 -0.14599999999972579 0 0 -0.14499999999972321 0 0 -0.1439999999997206 0 0 -0.14299999999971799 0 0 -0.1419999999997153 0 0 -0.14099999999971269 0 0 -0.1559999999997522 0 0 -0.15499999999974959 0 0 -0.15399999999974701 0 0 -0.15299999999974431 0 0 -0.1519999999997417 0 0 -0.15099999999973901 0 0 -0.14899999999973379 0 0 -0.1499999999997364 0 0 -0.16299999999977069 0 0 -0.1639999999997733 0 0 -0.161999999999768 0 0 -0.16099999999976539 0 0 -0.1599999999997628 0 0 -0.15899999999976011 0 0 -0.1579999999997575 0 0 -0.15699999999975489 0 0 -0.17099999999979171 0 0 -0.1699999999997891 0 0 -0.16899999999978649 0 0 -0.16799999999978391 0 0 -0.16699999999978121 0 0 -0.16499999999977599 0 0 -0.1659999999997786 0 0 -0.1779999999998102 0 0 -0.17899999999981281 0 0 -0.17699999999980759 0 0 -0.17599999999980501 0 0 -0.17499999999980231 0 0 -0.1739999999997997 0 0 -0.17299999999979701 0 0 -0.1719999999997944 0 0 -0.18699999999983391 0 0 -0.1859999999998313 0 0 -0.18499999999982869 0 0 -0.183999999999826 0 0 -0.18299999999982339 0 0 -0.18199999999982069 0 0 -0.1799999999998155 0 0 -0.18099999999981811 0 0 -0.068999999999833792 0 0 -0.069999999999830878 0 0 -0.067999999999836705 0 0 -0.066999999999839618 0 0 -0.065999999999842532 0 0 -0.064999999999845445 0 0 -0.063999999999848373 0 0 -0.062999999999851286 0 0 -0.077999999999807557 0 0 -0.07699999999981047 0 0 -0.075999999999813383 0 0 -0.074999999999816297 0 0 -0.07399999999981921 0 0 -0.072999999999822124 0 0 -0.070999999999827965 0 0 -0.071999999999825051 0 0 -0.083999999999790062 0 0 -0.084999999999787149 0 0 -0.082999999999792975 0 0 -0.081999999999795889 0 0 -0.080999999999798802 0 0 -0.07999999999980173 0 0 -0.078999999999804643 0 0 -0.092999999999763827 0 0 -0.091999999999766741 0 0 -0.090999999999769654 0 0 -0.089999999999772567 0 0 -0.088999999999775481 0 0 -0.087999999999778394 0 0 -0.085999999999784235 0 0 -0.086999999999781322 0 0 -0.099999999999743419 0 0 -0.10099999999974051 0 0 -0.098999999999746333 0 0 -0.097999999999749246 0 0 -0.096999999999752159 0 0 -0.095999999999755073 0 0 -0.094999999999758 0 0 -0.093999999999760914 0 0 -0.1089999999997172 0 0 -0.1079999999997201 0 0 -0.106999999999723 0 0 -0.1059999999997259 0 0 -0.1049999999997288 0 0 -0.10399999999973179 0 0 -0.10199999999973761 0 0 -0.10299999999973471 0 0 -0.1159999999996968 0 0 -0.11699999999969379 0 0 -0.1149999999996997 0 0 -0.1139999999997026 0 0 -0.1129999999997055 0 0 -0.1119999999997084 0 0 -0.1109999999997113 0 0 -0.1099999999997143 0 0 -0.12499999999967321 0 0 -0.1239999999996748 0 0 -0.1229999999996764 0 0 -0.1219999999996793 0 0 -0.1209999999996822 0 0 -0.11999999999968509 0 0 -0.11799999999969089 0 0 -0.11899999999968799 0 0 -0.047999999999895078 0 0 -0.046999999999897998 0 0 -0.049999999999889237 0 0 -0.048999999999892158 0 0 -0.051999999999883403 0 0 -0.050999999999886317 0 0 -0.053999999999877563 0 0 -0.052999999999880483 0 0 -0.055999999999871722 0 0 -0.054999999999874642 0 0 -0.057999999999865881 0 0 -0.056999999999868801 0 0 -0.059999999999860047 0 0 -0.058999999999862961 0 0 -0.061999999999854213 0 0 -0.060999999999857127 0 0 -0.042999999999909673 0 0 -0.043999999999906753 0 0 -0.044999999999903832 0 0 -0.045999999999900919 0 0 -0.041999999999912593 0 0 -0.040999999999915507 0 0 -0.039999999999918427 0 0 -0.038999999999921348 0 0 -0.037999999999924268 0 0 -0.035999999999930102 0 0 -0.036999999999927188 0 0 -0.033999999999935943 0 0 -0.034999999999933022 0 0 -0.032999999999938787 0 0 -0.031999999999941367 0 0 -0.03099999999994377 0 0 -0.02999999999994565 0 0 -0.028999999999947419 0 0 -0.027999999999948951 0 0 -0.02699999999995048 0 0 -0.02599999999995202 0 0 -0.023999999999955082 0 0 -0.024999999999953549 0 0 -0.01599999999996761 0 0 -0.0169999999999659 0 0 -0.01799999999996427 0 0 -0.018999999999962731 0 0 -0.019999999999961209 0 0 -0.020999999999959669 0 0 -0.02199999999995814 0 0 -0.022999999999956611 0 0 -0.007999999999984719 0 0 -0.008999999999982581 0 0 -0.0099999999999804221 0 0 -0.010999999999978201 0 0 -0.011999999999975971 0 0 -0.01299999999997375 0 0 -0.01399999999997158 0 0 -0.014999999999969531 0 0 -0.0059999999999886811 0 0 -0.0069999999999867156 0 0 -0.004999999999990571 0 0 -0.0039999999999924488 0 0 -0.0029999999999943271 0 0 -0.001999999999996204 0 0 -0.00099999999999810158 0 0 0 
</DataArray>
</Points>
<Cells>
<DataArray type="UInt32" Name="connectivity" format="ascii">
1 0 2 1 3 2 4 3 5 4 7 5 15 6 6 7 23 8 8 9 9 10 10 11 11 12 12 13 13 14 14 15 16 17 17 18 18 19 19 20 20 21 21 22 22 23 24 25 25 16 26 24 27 26 28 27 29 28 30 29 31 30 32 31 33 32 34 35 35 33 36 37 37 34 38 36 39 38 40 39 41 40 42 41 46 42 61 43 43 44 44 45 45 46 48 47 50 49 47 50 52 51 49 52 54 53 51 54 56 55 53 56 58 57 55 58 60 59 57 60 62 61 59 62 63 64 64 76 65 63 66 65 67 66 68 67 69 68 180 69 70 85 71 70 72 71 73 72 74 73 75 74 76 77 77 75 80 78 78 79 81 80 82 81 83 82 84 83 85 84 87 86 88 87 89 88 90 89 91 90 93 91 79 92 92 93 96 94 94 95 97 96 98 97 99 98 100 99 101 100 86 101 102 116 103 102 104 103 105 104 106 105 108 106 95 107 107 108 109 110 110 123 111 109 112 111 113 112 114 113 115 114 116 115 117 48 118 117 119 118 120 119 121 120 122 121 123 124 124 122 127 125 125 126 128 127 129 128 130 129 131 130 132 131 134 133 135 134 136 135 137 136 138 137 140 138 126 139 139 140 141 142 142 154 143 141 144 143 145 144 146 145 147 146 133 147 148 163 149 148 150 149 151 150 152 151 153 152 154 155 155 153 156 157 157 170 158 156 159 158 160 159 161 160 162 161 163 162 165 164 166 165 167 166 168 167 169 168 170 171 171 169 174 172 172 173 175 174 176 175 177 176 178 177 179 178 164 179 181 180 182 181 183 182 184 183 185 184 187 185 173 186 186 187 188 191 189 188 190 193 191 190 192 195 193 192 194 197 195 194 196 199 197 196 198 201 199 198 200 203 201 200 202 132 203 202 204 205 205 206 206 207 207 189 208 204 209 208 210 209 211 210 212 211 214 212 216 213 213 214 217 215 215 216 218 217 219 218 220 219 221 220 222 221 223 222 224 223 226 224 234 225 225 226 227 228 228 229 229 230 230 231 231 232 232 233 233 234 235 236 236 237 237 238 238 239 239 240 240 241 241 242 242 227 243 244 244 235 245 243 246 245 247 246 248 247 249 248 250 249 
</DataArray>
<DataArray type="UInt32" Name="offsets" format="ascii">
2 4 6 8 10 12 14 16 18 20 22 24 26 28 30 32 34 36 38 40 42 44 46 48 50 52 54 56 58 60 62 64 66 68 70 72 74 76 78 80 82 84 86 88 90 92 94 96 98 100 102 104 106 108 110 112 114 116 118 120 122 124 126 128 130 132 134 136 138 140 142 144 146 148 150 152 154 156 158 160 162 164 166 168 170 172 174 176 178 180 182 184 186 188 190 192 194 196 198 200 202 204 206 208 210 212 214 216 218 220 222 224 226 228 230 232 234 236 238 240 242 244 246 248 250 252 254 256 258 260 262 264 266 268 270 272 274 276 278 280 282 284 286 288 290 292 294 296 298 300 302 304 306 308 310 312 314 316 318 320 322 324 326 328 330 332 334 336 338 340 342 344 346 348 350 352 354 356 358 360 362 364 366 368 370 372 374 376 378 380 382 384 386 388 390 392 394 396 398 400 402 404 406 408 410 412 414 416 418 420 422 424 426 428 430 432 434 436 438 440 442 444 446 448 450 452 454 456 458 460 462 464 466 468 470 472 474 476 478 480 482 484 486 488 490 492 494 496 498 500 
</DataArray>
<DataArray type="UInt32" Name="types" format="ascii">
3 3 3 3 3 3 3 3 3 3 3 3 3 3 3 3 3 3 3 3 3 3 3 3 3 3 3 3 3 3 3 3 3 3 3 3 3 3 3 3 3 3 3 3 3 3 3 3 3 3 3 3 3 3 3 3 3 3 3 3 3 3 3 3 3 3 3 3 3 3 3 3 3 3 3 3 3 3 3 3 3 3 3 3 3 3 3 3 3 3 3 3 3 3 3 3 3 3 3 3 3 3 3 3 3 3 3 3 3 3 3 3 3 3 3 3 3 3 3 3 3 3 3 3 3 3 3 3 3 3 3 3 3 3 3 3 3 3 3 3 3 3 3 3 3 3 3 3 3 3 3 3 3 3 3 3 3 3 3 3 3 3 3 3 3 3 3 3 3 3 3 3 3 3 3 3 3 3 3 3 3 3 3 3 3 3 3 3 3 3 3 3 3 3 3 3 3 3 3 3 3 3 3 3 3 3 3 3 3 3 3 3 3 3 3 3 3 3 3 3 3 3 3 3 3 3 3 3 3 3 3 3 3 3 3 3 3 3 3 3 3 3 3 3 3 3 3 3 3 3 
</DataArray>
</Cells>
<CellData Scalars="pressure_p0,water_content,conductivity_richards," Vectors="velocity_p0," Tensors="">
<DataArray type="Float64" Name="pressure_p0" format="ascii">
-7.862350364137292 -23.813791050928849 -40.270561890473672 -57.313931344030507 -74.995203074361939 -93.35377294347964 -132.22540787105095 -112.42163007040016 -319.19068672566459 -292.94407788543754 -267.5328076761927 -242.95269973860511 -219.19758302117347 -196.25915578060039 -174.1268255227231 -152.78751379412367 -526.28850286341867 -494.22270996655953 -462.97440604321275 -432.55056090318578 -402.95680440967556 -374.1973540534301 -346.27493471172102 -592.83843067332714 -559.16355161819513 -627.30259264325571 -662.5444353348098 -698.55136521616521 -735.30986101735948 -772.8055347348793 -811.02319078261962 -849.94688333031559 -889.55997186187665 -970.7846224832565 -929.84517498040384 -1054.5521263137464 -1012.3599057285613 -1097.3419430865861 -1140.7096175096347 -1184.6350573996592 -1229.0978590646087 -1274.0773478616275 -1319.5526172006662 -1505.9873067684171 -1458.7413398435194 -1411.9059347551229 -1365.5025660192828 -2249.394949408369 -2147.7887243901232 -2198.5438740550935 -2046.6455117330936 -2097.1492648636149 -1946.1263572361249 -1996.2977179623751 -1846.3958306293887 -1896.1521070549054 -1747.6214645270375 -1796.8785577467625 -1649.9731237387255 -1698.6458520381593 -1553.6223016954991 -1601.6247617170748 -4830.0224448248782 -4795.1374587686432 -4864.4508860532151 -4898.4225637405698 -4931.9374761633007 -4964.99583185132 -4997.59804349146 -5029.7447224810312 -4499.7245114222951 -4538.2259661768821 -4576.2811628270238 -4613.887928366943 -4651.0443529190179 -4687.7487887508014 -4759.7963694058744 -4723.9998441988 -4259.5010493669661 -4217.9602108969584 -4300.6187814040995 -4341.3092078654299 -4381.5684390306287 -4421.3928837822723 -4460.7792433024697 -3871.0111431526102 -3915.7470560291649 -3960.1051462109244 -4004.0785692005493 -4047.6608281059312 -4090.8457696920368 -4176.0007775430386 -4133.6275795913389 -3547.9306658696696 -3500.4616933234079 -3595.0895870655477 -3641.9286868453419 -3688.4385710550368 -3734.6102214175244 -3780.4349924812295 -3825.9046044707175 -3110.8466747746161 -3160.3983834165115 -3209.7320146756165 -3258.8347182852103 -3307.6940319075266 -3356.2978806115543 -3452.6928192968944 -3404.6345764904154 -2759.0389193903134 -2708.2513398995625 -2809.7250208185596 -2860.2937508197019 -2910.7295874356364 -2961.0173812382873 -3011.1423588206062 -3061.0901261869176 -2300.3224518003344 -2351.3071635254355 -2402.3301560362361 -2453.3728012269216 -2504.4167859343561 -2555.4441196544813 -2657.3785408807244 -2606.4371434414879 -6193.07170289653 -6182.0401630906536 -6203.8474396219317 -6214.3713395296818 -6224.6473283775831 -6234.6792995007581 -6244.4711123433117 -6084.0925286570309 -6097.3170048449365 -6110.2528687666054 -6122.9043090858631 -6135.2754921649703 -6147.3705625191487 -6170.7488198528972 -6159.193640819949 -5983.0847943361987 -5967.3988459998127 -5998.4481366852569 -6013.49314653699 -6028.2240988345811 -6042.6452608511372 -6056.7608895790281 -6070.575232645333 -5829.7863401729746 -5848.2062412625064 -5866.2696332165779 -5883.9806973551458 -5901.3436362670527 -5918.3626732182465 -5951.3860191726872 -5935.0420488913023 -5690.5199507962752 -5669.1013451712251 -5711.5498432859367 -5732.1948915730773 -5752.459016367302 -5772.3461877843829 -5791.8604213854887 -5811.0057747193368 -5507.9751229953035 -5532.2177451932366 -5556.0464041177656 -5579.4644794659844 -5602.4754325556387 -5647.2902142403727 -5625.0828053227824 -5326.4216415315241 -5298.7572673067289 -5353.6486067257629 -5380.4406970359105 -5406.80057577156 -5432.7310192665 -5458.234911609723 -5483.3152460351721 -5061.4366725818963 -5092.6748839188376 -5123.4605270173051 -5153.79494688455 -5183.6796571381174 -5213.1163341850861 -5270.6530790143115 -5242.1068114556201 -6365.0169823851083 -6371.4540305069731 -6351.5855757174413 -6358.3951900569537 -6337.3902963320861 -6344.5850070589204 -6322.4054266082767 -6329.9982010891563 -6306.6044005411568 -6314.6086258937939 -6289.9598307548677 -6298.3893016454349 -6272.4435374953518 -6281.3124408707936 -6254.0265814145823 -6263.3494797283329 -6395.4143600539082 -6389.6866415011082 -6383.7859239111667 -6377.7093562372265 -6400.9718714463615 -6406.3619087413754 -6411.5871457165413 -6416.6501964209974 -6421.5536147594103 -6426.2998941019259 -6435.3307044396697 -6430.8914669189471 -6443.7613504115288 -6439.6199163332403 -6447.7571923524574 -6451.6095654428536 -6455.3205303398754 -6458.8920848500456 -6462.326163724907 -6465.6246384724582 -6468.7893171834457 -6471.8219443716498 -6477.4977034831536 -6474.7242008273461 -6493.4294698437789 -6491.5173586476703 -6489.4860151477715 -6487.3342722882007 -6485.0608976137755 -6482.6645951127102 -6480.1440052914641 -6504.5526948364604 -6503.5601855626082 -6502.4554519286858 -6501.2378446876319 -6499.906653904327 -6498.4611006632122 -6496.9003370989649 -6495.2234512190953 -6506.2033140525837 -6505.4335641292137 -6506.8623991941804 -6507.41120810353 -6507.850065521141 -6508.1792312494199 -6508.3989001454711 -6508.5092021157925 
</DataArray>
<DataArray type="Float64" Name="velocity_p0" NumberOfComponents="3" format="ascii">
0 0 2.7618407545625216e-06 0 0 2.7620700184141098e-06 0 0 2.7610976882836059e-06 0 0 2.7586108270790821e-06 0 0 2.7545217716943361e-06 0 0 2.7488179822766084e-06 0 0 2.732704207245697e-06 0 0 2.7415277762930818e-06 0 0 2.6162562085245059e-06 0 0 2.6344951327008745e-06 0 0 2.6518452929914454e-06 0 0 2.6682277786816022e-06 0 0 2.6835606895049723e-06 0 0 2.6977598848314242e-06 0 0 2.7107399469553431e-06 0 0 2.7224156894453822e-06 0 0 2.4695573356200518e-06 0 0 2.4921183236415545e-06 0 0 2.5142385214423306e-06 0 0 2.5358653403379295e-06 0 0 2.5569429329893772e-06 0 0 2.5774103824073465e-06 0 0 2.5972039888382725e-06 0 0 2.4233057396242285e-06 0 0 2.4466046130020775e-06 0 0 2.3997034135785477e-06 0 0 2.3758370071771369e-06 0 0 2.3517431572619132e-06 0 0 2.3274558378296255e-06 0 0 2.3030065307996533e-06 0 0 2.278424390489778e-06 0 0 2.2537364008257017e-06 0 0 2.2289675246894659e-06 0 0 2.1792776981295738e-06 0 0 2.2041408450995256e-06 0 0 2.1295193519694395e-06 0 0 2.1543977976347508e-06 0 0 2.1046591729622447e-06 0 0 2.0798327774715383e-06 0 0 2.0550544818780703e-06 0 0 2.0303374898935145e-06 0 0 2.0056939740704338e-06 0 0 1.9811351514002723e-06 0 0 1.8839414693390591e-06 0 0 1.9080661143914284e-06 0 0 1.9323120909100007e-06 0 0 1.9566713533794013e-06 0 0 1.5404525106807191e-06 0 0 1.5840159709077365e-06 0 0 1.5621418401700332e-06 0 0 1.6283106685904238e-06 0 0 1.6060729695788029e-06 0 0 1.6733182647115258e-06 0 0 1.6507266614561571e-06 0 0 1.7190161215538529e-06 0 0 1.6960825105230156e-06 0 0 1.7653766385393902e-06 0 0 1.7421154873022436e-06 0 0 1.8123664589895209e-06 0 0 1.7887952196907023e-06 0 0 1.8599455478503681e-06 0 0 1.8360851362203179e-06 0 0 6.1548832066372576e-07 0 0 6.267943933732283e-07 0 0 6.0433739106955483e-07 0 0 5.9334035656906507e-07 0 0 5.8249597494693872e-07 0 0 5.7180296651054565e-07 0 0 5.6126007972015329e-07 0 0 5.5086604787990425e-07 0 0 7.2297615763597956e-07 0 0 7.1038472924261871e-07 0 0 6.9795820522478691e-07 0 0 6.8569539055356087e-07 0 0 6.7359498903081752e-07 0 0 6.6165597641756175e-07 0 0 6.3825685183321589e-07 0 0 6.4987704180810613e-07 0 0 8.0205343160024404e-07 0 0 8.1583187459220022e-07 0 0 7.8844799143324111e-07 0 0 7.7501442979117253e-07 0 0 7.6175170871694341e-07 0 0 7.4865848417505999e-07 0 0 7.3573367696797758e-07 0 0 9.3241786736161793e-07 0 0 9.1721661764871798e-07 0 0 9.0219683911409395e-07 0 0 8.8735753306286549e-07 0 0 8.7269766793486521e-07 0 0 8.5821623513890876e-07 0 0 8.2978443207324383e-07 0 0 8.4391216811189514e-07 0 0 1.0439871709604495e-06 0 0 1.0606733977072359e-06 0 0 1.0274895489072268e-06 0 0 1.0111797381075291e-06 0 0 9.9505685388945711e-07 0 0 9.791201605124968e-07 0 0 9.6336871563285228e-07 0 0 9.4780156653740473e-07 0 0 1.2010358679050115e-06 0 0 1.1828168126245624e-06 0 0 1.1647912813409992e-06 0 0 1.1469588241659307e-06 0 0 1.1293189508099692e-06 0 0 1.1118710816821947e-06 0 0 1.0775489888058355e-06 0 0 1.0946146296788631e-06 0 0 1.3340126913249721e-06 0 0 1.3537883582819628e-06 0 0 1.3144317146161399e-06 0 0 1.2950455653309556e-06 0 0 1.2758543647544501e-06 0 0 1.2568579196196733e-06 0 0 1.2380561849560659e-06 0 0 1.2194488398798906e-06 0 0 1.5189497007833039e-06 0 0 1.497635047136578e-06 0 0 1.4765096452550866e-06 0 0 1.455574772374359e-06 0 0 1.4348314260136909e-06 0 0 1.4142804533951441e-06 0 0 1.3737584796286731e-06 0 0 1.3939225617135517e-06 0 0 1.6236583783725573e-07 0 0 1.6641570760413965e-07 0 0 1.5839018484095886e-07 0 0 1.5448752314445275e-07 0 0 1.5065648873464525e-07 0 0 1.468961502793974e-07 0 0 1.4320515239766494e-07 0 0 2.0163488436649725e-07 0 0 1.9694668224257616e-07 0 0 1.9234264328637559e-07 0 0 1.8782151112829301e-07 0 0 1.8338199503989036e-07 0 0 1.7902292166453663e-07 0 0 1.7054102375169068e-07 0 0 1.7474300765845723e-07 0 0 2.369150959333082e-07 0 0 2.423222262198233e-07 0 0 2.3160229572812159e-07 0 0 2.2638254440785993e-07 0 0 2.212546614482866e-07 0 0 2.1621717538983718e-07 0 0 2.1126891151861316e-07 0 0 2.064085094959807e-07 0 0 2.8912963402521108e-07 0 0 2.8292145045334205e-07 0 0 2.7681793078548316e-07 0 0 2.7081777630422005e-07 0 0 2.6491964736223042e-07 0 0 2.5912233411877615e-07 0 0 2.4782497038951311e-07 0 0 2.5342450077336302e-07 0 0 3.3562686781075089e-07 0 0 3.4271928294772259e-07 0 0 3.2864955356374112e-07 0 0 3.2178603218344571e-07 0 0 3.1503496997777879e-07 0 0 3.0839511326992313e-07 0 0 3.0186513019974673e-07 0 0 2.9544378185287362e-07 0 0 3.95699077745559e-07 0 0 3.8776430225911195e-07 0 0 3.799537914816044e-07 0 0 3.7226623656240239e-07 0 0 3.647002696119155e-07 0 0 3.4992810753993276e-07 0 0 3.5725469865726257e-07 0 0 4.5483168129311126e-07 0 0 4.638076025785107e-07 0 0 4.459904652049432e-07 0 0 4.3728265364805612e-07 0 0 4.2870712227987252e-07 0 0 4.2026221158775606e-07 0 0 4.1194679457892007e-07 0 0 4.037594263253022e-07 0 0 5.4061960028013848e-07 0 0 5.305194624387471e-07 0 0 5.2056435633282246e-07 0 0 5.1075300062200172e-07 0 0 5.010841108641137e-07 0 0 4.9155639972326185e-07 0 0 4.7291952795792704e-07 0 0 4.8216857717179359e-07 0 0 9.5350356991039266e-08 0 0 9.2607617906121693e-08 0 0 1.0098866913177618e-07 0 0 9.8143661470812963e-08 0 0 1.0683834510276754e-07 0 0 1.0388649851252264e-07 0 0 1.12908631410533e-07 0 0 1.0984533706358264e-07 0 0 1.192087792745276e-07 0 0 1.1602938995216076e-07 0 0 1.2574814038132264e-07 0 0 1.224479707236729e-07 0 0 1.325361421625232e-07 0 0 1.2911046903824304e-07 0 0 1.3958228685196794e-07 0 0 1.3602634986337523e-07 0 0 8.2119702335226128e-08 0 0 8.4671462017767932e-08 0 0 8.7269283750261186e-08 0 0 8.9914311230875833e-08 0 0 7.9612890751619382e-08 0 0 7.7149918012152547e-08 0 0 7.4729679521861944e-08 0 0 7.2351075308547068e-08 0 0 7.0013009979111839e-08 0 0 6.7714392672167799e-08 0 0 6.3231161025214166e-08 0 0 6.5454137006501129e-08 0 0 5.8892742041080476e-08 0 0 6.1044387134609313e-08 0 0 5.6775156681291483e-08 0 0 5.4690566149832886e-08 0 0 5.2637909622998277e-08 0 0 5.0616130277196631e-08 0 0 4.8624175204967387e-08 0 0 4.6660995326348075e-08 0 0 4.4725545296742631e-08 0 0 4.2816783411032901e-08 0 0 3.9075174848750849e-08 0 0 4.0933671504152011e-08 0 0 2.6668653896197553e-08 0 0 2.8383550535210751e-08 0 0 3.0115906256492091e-08 0 0 3.1866734877335675e-08 0 0 3.3637078419799128e-08 0 0 3.54279049271226e-08 0 0 3.7240262048020209e-08 0 0 1.3457132814931241e-08 0 0 1.5068581692167981e-08 0 0 1.6689458018975552e-08 0 0 1.8320759343157302e-08 0 0 1.9963365111454936e-08 0 0 2.1618515458851648e-08 0 0 2.3287093358419545e-08 0 0 2.4970205024032231e-08 0 0 1.0258566323346175e-08 0 0 1.1854115248384425e-08 0 0 8.6694278566542723e-09 0 0 7.0857392693938088e-09 0 0 5.5065086012088382e-09 0 0 3.9307445668331505e-09 0 0 2.3574564074147845e-09 0 0 7.8565373970240129e-10 
</DataArray>
<DataArray type="Float64" Name="water_content" format="ascii">
0.41865700810561307 0.4152830875377802 0.41102589327298145 0.40647029005496388 0.40175908719440923 0.39697518723055791 0.38739139587525651 0.3921732246905546 0.35199739132612906 0.35606315779378139 0.36023951434917745 0.3645246782761683 0.36891540582037102 0.37340658738448723 0.37799072010153661 0.38265720648464607 0.32659591297869528 0.32990810217347299 0.33332219904413152 0.33684066126925971 0.34046571665618891 0.34419928024913382 0.34804285210615127 0.32026666127739006 0.32338300995310565 0.31724406766255525 0.31431239679484835 0.31146881094631707 0.30871048869588513 0.30603464206380093 0.30343852983925035 0.30091946779511469 0.2984748363596626 0.29379874219977714 0.29610208621379708 0.2893907568649513 0.29156240585953042 0.28728155355668211 0.2852326327700056 0.28324190909518865 0.2813073736937225 0.27942709277046507 0.27759920578391528 0.27077683559860294 0.2724123592389508 0.27409352567934053 0.27582192346210199 0.25081258810880358 0.25304940129649772 0.25191695566067768 0.25540206321529035 0.2542108004786261 0.25787800158242258 0.25662413562764075 0.26048524858440675 0.25916468439142282 0.26323249645270319 0.26184080175105862 0.26612915751255284 0.26466153220259403 0.26918542856796362 0.2676366720025074 0.21648705129568163 0.21678852159997986 0.21619210295567692 0.21590353797599474 0.21562122110880982 0.21534502036319217 0.21507480690463679 0.2148104549532372 0.21945290643932375 0.21909382953030454 0.21874251835168479 0.21839880312088006 0.21806251844154159 0.21773350311343453 0.21709665593998456 0.21741159999435533 0.22178054491683241 0.22219913548516085 0.22137104416424305 0.22097042832630442 0.22057849803376212 0.22019505930672462 0.21981992337464257 0.2259016827137551 0.22540225983889101 0.22491379208710771 0.2244360220806825 0.22396869987930978 0.22351158270111726 0.22262702652802638 0.22306443466260528 0.2297277046349479 0.23032502612598243 0.22914370183485261 0.22857268949550724 0.22801434950531058 0.22746837344983034 0.22693446224094246 0.22641232580713339 0.23562613226819457 0.2349090893950338 0.23420840773997126 0.23352366190171281 0.23285444041824496 0.2322003452129249 0.23093600504664469 0.23156099105843742 0.24114249402433893 0.24200762227056583 0.24029770910173259 0.23947270680269153 0.23866694593248811 0.23787990403026366 0.23711107658737132 0.23635997629236521 0.24973545622738821 0.24868474917763186 0.24765968640725389 0.24665951633987382 0.24568351504158809 0.24473098506812219 0.24289367492849534 0.24380125432466415 0.20642758616442544 0.20649781808292 0.20635912994594927 0.20629241341837079 0.20622740135543133 0.20616405924106052 0.20610235325797627 0.20712817805268161 0.20704234970542287 0.20695861376170144 0.20687692772157495 0.20679724995426518 0.2067195396668125 0.20656986247517953 0.20664375688947478 0.20779132212884849 0.2078955283956227 0.20768958123833187 0.20759025573166839 0.20749329659575763 0.2073986558197638 0.2073062863762323 0.20721614218001827 0.20882427760649305 0.20869842162893587 0.20857546954078979 0.20845536256354064 0.20833804310923176 0.20822345473652304 0.20800225105162812 0.20811154212626157 0.20979177618759337 0.2099431301006951 0.20964384225289182 0.20949925904653749 0.20935795874203497 0.20921987489147689 0.20908494239345798 0.20895309745937407 0.21110449830090577 0.21092713885729819 0.21075372688896682 0.21058418218660713 0.21041842624002682 0.21009797469435951 0.21025638216926335 0.21246365660280853 0.21267570098738248 0.21225626770194944 0.2120534388585556 0.21185507669299281 0.21166108989693855 0.21147138917842367 0.21128588715908253 0.21455184169340807 0.21429884718451933 0.214051354274918 0.21380924851919636 0.21357241809856931 0.21334075374423317 0.21289249842812111 0.21311414866358139 0.20535223479629372 0.20531266741700488 0.20543495269379378 0.20539298874520437 0.2055226072302026 0.20547815065266056 0.20561539769803117 0.20556834763995918 0.20571353310860457 0.20566378383593206 0.20581723244497391 0.20576467320267827 0.20592672493529168 0.20587123981126337 0.20604225033744847 0.20598371811807006 0.20516581513636684 0.20520085905256866 0.20523700153912772 0.20527426375598412 0.20513184918888627 0.20509894115559141 0.20506707152328532 0.20503622131452465 0.20500637208220646 0.20497750590432445 0.20492265361901829 0.20494960537889054 0.20487153139553527 0.20489663424816595 0.2048473296916235 0.20482401426392685 0.20480157073279132 0.20477998520740995 0.20475924428196368 0.20473933503190353 0.20472024501037267 0.20470196224476603 0.20466777294247263 0.20468447523342603 0.20457199915833857 0.20458347865625345 0.20459567849641958 0.20460860651605156 0.20462227100692995 0.20463668070700064 0.20465184480276596 0.20450530179289347 0.20451124744301458 0.20451786667852495 0.20452516380966224 0.20453314355723709 0.2045418111037875 0.20455117209499724 0.20456123261254805 0.20449541617174422 0.20450002585225158 0.2044914697410708 0.20448818398815433 0.20448555676502217 0.20448358635392844 0.20448227146688608 0.20448161124531611 
</DataArray>
<DataArray type="Float64" Name="conductivity_richards" format="ascii">