<?xml version="1.0"?>
<VTKFile type="UnstructuredGrid" version="0.1" byte_order="LittleEndian">
<UnstructuredGrid>
<Piece NumberOfPoints="251" NumberOfCells="250">
<Points>
<DataArray type="Float64" NumberOfComponents="3" format="ascii">
0 0 -0.17099999999979171 0 0 -0.1559999999997522 0 0 -0.15699999999975489 0 0 -0.1579999999997575 0 0 -0.15899999999976011 0 0 -0.1599999999997628 0 0 -0.16099999999976539 0 0 -0.161999999999768 0 0 -0.16299999999977069 0 0 -0.1639999999997733 0 0 -0.16499999999977599 0 0 -0.1659999999997786 0 0 -0.16699999999978121 0 0 -0.16799999999978391 0 0 -0.16899999999978649 0 0 -0.1699999999997891 0 0 -0.15499999999974959 0 0 -0.1719999999997944 0 0 -0.17299999999979701 0 0 -0.1739999999997997 0 0 -0.17499999999980231 0 0 -0.17599999999980501 0 0 -0.17699999999980759 0 0 -0.1779999999998102 0 0 -0.17899999999981281 0 0 -0.1799999999998155 0 0 -0.18099999999981811 0 0 -0.18199999999982069 0 0 -0.18299999999982339 0 0 -0.183999999999826 0 0 -0.18499999999982869 0 0 -0.1859999999998313 0 0 -0.13999999999971011 0 0 -0.12499999999967321 0 0 -0.12599999999967451 0 0 -0.12699999999967579 0 0 -0.1279999999996784 0 0 -0.12899999999968109 0 0 -0.1299999999996837 0 0 -0.13099999999968631 0 0 -0.13199999999968889 0 0 -0.13299999999969159 0 0 -0.1339999999996942 0 0 -0.13499999999969689 0 0 -0.1359999999996995 0 0 -0.13699999999970211 0 0 -0.1379999999997048 0 0 -0.13899999999970741 0 0 -0.18699999999983391 0 0 -0.14099999999971269 0 0 -0.1419999999997153 0 0 -0.14299999999971799 0 0 -0.1439999999997206 0 0 -0.14499999999972321 0 0 -0.14599999999972579 0 0 -0.14699999999972849 0 0 -0.1479999999997311 0 0 -0.14899999999973379 0 0 -0.1499999999997364 0 0 -0.15099999999973901 0 0 -0.1519999999997417 0 0 -0.15299999999974431 0 0 -0.15399999999974701 0 0 -0.2339999999999578 0 0 -0.21899999999991829 0 0 -0.2199999999999209 0 0 -0.22099999999992359 0 0 -0.2219999999999262 0 0 -0.22299999999992881 0 0 -0.22399999999993139 0 0 -0.22499999999993411 0 0 -0.2259999999999367 0 0 -0.22699999999993939 0 0 -0.227999999999942 0 0 -0.22899999999994469 0 0 -0.2299999999999473 0 0 -0.23099999999994991 0 0 -0.23199999999995249 0 0 -0.23299999999995519 0 0 -0.21799999999991571 0 0 -0.23499999999996049 0 0 -0.2359999999999631 0 0 -0.23699999999996571 0 0 -0.2379999999999684 0 0 -0.23899999999997101 0 0 -0.2399999999999736 0 0 -0.24099999999997629 0 0 -0.2419999999999789 0 0 -0.24299999999998159 0 0 -0.2439999999999842 0 0 -0.24499999999998681 0 0 -0.24599999999998939 0 0 -0.24699999999999209 0 0 -0.2479999999999947 0 0 -0.24899999999999739 0 0 -0.20299999999987611 0 0 -0.1879999999998366 0 0 -0.18899999999983921 0 0 -0.18999999999984191 0 0 -0.19099999999984449 0 0 -0.1919999999998471 0 0 -0.19299999999984971 0 0 -0.1939999999998524 0 0 -0.19499999999985501 0 0 -0.1959999999998577 0 0 -0.19699999999986029 0 0 -0.19799999999986301 0 0 -0.19899999999986559 0 0 -0.1999999999998682 0 0 -0.20099999999987081 0 0 -0.2019999999998735 0 0 -0.1239999999996748 0 0 -0.20399999999987881 0 0 -0.20499999999988139 0 0 -0.205999999999884 0 0 -0.20699999999988669 0 0 -0.2079999999998893 0 0 -0.20899999999989191 0 0 -0.2099999999998946 0 0 -0.21099999999989719 0 0 -0.21199999999989991 0 0 -0.21299999999990249 0 0 -0.2139999999999051 0 0 -0.21499999999990771 0 0 -0.2159999999999104 0 0 -0.21699999999991301 0 0 -0.045999999999900919 0 0 -0.03099999999994377 0 0 -0.031999999999941367 0 0 -0.032999999999938787 0 0 -0.033999999999935943 0 0 -0.034999999999933022 0 0 -0.035999999999930102 0 0 -0.036999999999927188 0 0 -0.037999999999924268 0 0 -0.038999999999921348 0 0 -0.039999999999918427 0 0 -0.040999999999915507 0 0 -0.041999999999912593 0 0 -0.042999999999909673 0 0 -0.043999999999906753 0 0 -0.044999999999903832 0 0 -0.02999999999994565 0 0 -0.046999999999897998 0 0 -0.047999999999895078 0 0 -0.048999999999892158 0 0 -0.049999999999889237 0 0 -0.050999999999886317 0 0 -0.051999999999883403 0 0 -0.052999999999880483 0 0 -0.053999999999877563 0 0 -0.054999999999874642 0 0 -0.055999999999871722 0 0 -0.056999999999868801 0 0 -0.057999999999865881 0 0 -0.058999999999862961 0 0 -0.059999999999860047 0 0 -0.060999999999857127 0 0 -0.014999999999969531 0 0 -0.25 0 0 -0.00099999999999810158 0 0 -0.001999999999996204 0 0 -0.0029999999999943271 0 0 -0.0039999999999924488 0 0 -0.004999999999990571 0 0 -0.0059999999999886811 0 0 -0.0069999999999867156 0 0 -0.007999999999984719 0 0 -0.008999999999982581 0 0 -0.0099999999999804221 0 0 -0.010999999999978201 0 0 -0.011999999999975971 0 0 -0.01299999999997375 0 0 -0.01399999999997158 0 0 -0.061999999999854213 0 0 -0.01599999999996761 0 0 -0.0169999999999659 0 0 -0.01799999999996427 0 0 -0.018999999999962731 0 0 -0.019999999999961209 0 0 -0.020999999999959669 0 0 -0.02199999999995814 0 0 -0.022999999999956611 0 0 -0.023999999999955082 0 0 -0.024999999999953549 0 0 -0.02599999999995202 0 0 -0.02699999999995048 0 0 -0.027999999999948951 0 0 -0.028999999999947419 0 0 -0.1089999999997172 0 0 -0.093999999999760914 0 0 -0.094999999999758 0 0 -0.095999999999755073 0 0 -0.096999999999752159 0 0 -0.097999999999749246 0 0 -0.098999999999746333 0 0 -0.099999999999743419 0 0 -0.10099999999974051 0 0 -0.10199999999973761 0 0 -0.10299999999973471 0 0 -0.10399999999973179 0 0 -0.1049999999997288 0 0 -0.1059999999997259 0 0 -0.106999999999723 0 0 -0.1079999999997201 0 0 -0.092999999999763827 0 0 -0.1099999999997143 0 0 -0.1109999999997113 0 0 -0.1119999999997084 0 0 -0.1129999999997055 0 0 -0.1139999999997026 0 0 -0.1149999999996997 0 0 -0.1159999999996968 0 0 -0.11699999999969379 0 0 -0.11799999999969089 0 0 -0.11899999999968799 0 0 -0.11999999999968509 0 0 -0.1209999999996822 0 0 -0.1219999999996793 0 0 -0.1229999999996764 0 0 -0.077999999999807557 0 0 -0.062999999999851286 0 0 -0.063999999999848373 0 0 -0.064999999999845445 0 0 -0.065999999999842532 0 0 -0.066999999999839618 0 0 -0.067999999999836705 0 0 -0.068999999999833792 0 0 -0.069999999999830878 0 0 -0.070999999999827965 0 0 -0.071999999999825051 0 0 -0.072999999999822124 0 0 -0.07399999999981921 0 0 -0.074999999999816297 0 0 -0.075999999999813383 0 0 -0.07699999999981047 0 0 0 0 0 -0.078999999999804643 0 0 -0.07999999999980173 0 0 -0.080999999999798802 0 0 -0.081999999999795889 0 0 -0.082999999999792975 0 0 -0.083999999999790062 0 0 -0.084999999999787149 0 0 -0.085999999999784235 0 0 -0.086999999999781322 0 0 -0.087999999999778394 0 0 -0.088999999999775481 0 0 -0.089999999999772567 0 0 -0.090999999999769654 0 0 -0.091999999999766741 
</DataArray>
</Points>
<Cells>
<DataArray type="UInt32" Name="connectivity" format="ascii">
17 18 2 3 3 4 4 5 5 6 6 7 7 8 8 9 9 10 10 11 11 12 12 13 13 14 14 15 15 0 0 17 1 2 18 19 19 20 20 21 21 22 22 23 23 24 24 25 25 26 26 27 27 28 28 29 29 30 30 31 31 48 48 96 49 50 34 35 35 36 36 37 37 38 38 39 39 40 40 41 41 42 42 43 43 44 44 45 45 46 46 47 47 32 32 49 96 97 50 51 51 52 52 53 53 54 54 55 55 56 56 57 57 58 58 59 59 60 60 61 61 62 62 16 16 1 80 81 65 66 66 67 67 68 68 69 69 70 70 71 71 72 72 73 73 74 74 75 75 76 76 77 77 78 78 63 63 80 64 65 81 82 82 83 83 84 84 85 85 86 86 87 87 88 88 89 89 90 90 91 91 92 92 93 93 94 94 159 112 113 97 98 98 99 99 100 100 101 101 102 102 103 103 104 104 105 105 106 106 107 107 108 108 109 109 110 110 95 95 112 33 34 113 114 114 115 115 116 116 117 117 118 118 119 119 120 120 121 121 122 122 123 123 124 124 125 125 79 79 64 143 144 128 129 129 130 130 131 131 132 132 133 133 134 134 135 135 136 136 137 137 138 138 139 139 140 140 141 141 126 126 143 127 128 144 145 145 146 146 147 147 148 148 149 149 150 150 151 151 152 152 153 153 154 154 155 155 156 156 157 157 174 174 221 175 176 160 161 161 162 162 163 163 164 164 165 165 166 166 167 167 168 168 169 169 170 170 171 171 172 172 173 173 158 158 175 221 222 176 177 177 178 178 179 179 180 180 181 181 182 182 183 183 184 184 185 185 186 186 187 187 188 188 142 142 127 206 207 191 192 192 193 193 194 194 195 195 196 196 197 197 198 198 199 199 200 200 201 201 202 202 203 203 204 204 189 189 206 190 191 207 208 208 209 209 210 210 211 211 212 212 213 213 214 214 215 215 216 216 217 217 218 218 219 219 111 111 33 237 238 222 223 223 224 224 225 225 226 226 227 227 228 228 229 229 230 230 231 231 232 232 233 233 234 234 235 235 220 220 237 236 160 238 239 239 240 240 241 241 242 242 243 243 244 244 245 245 246 246 247 247 248 248 249 249 250 250 205 205 190 
</DataArray>
<DataArray type="UInt32" Name="offsets" format="ascii">
2 4 6 8 10 12 14 16 18 20 22 24 26 28 30 32 34 36 38 40 42 44 46 48 50 52 54 56 58 60 62 64 66 68 70 72 74 76 78 80 82 84 86 88 90 92 94 96 98 100 102 104 106 108 110 112 114 116 118 120 122 124 126 128 130 132 134 136 138 140 142 144 146 148 150 152 154 156 158 160 162 164 166 168 170 172 174 176 178 180 182 184 186 188 190 192 194 196 198 200 202 204 206 208 210 212 214 216 218 220 222 224 226 228 230 232 234 236 238 240 242 244 246 248 250 252 254 256 258 260 262 264 266 268 270 272 274 276 278 280 282 284 286 288 290 292 294 296 298 300 302 304 306 308 310 312 314 316 318 320 322 324 326 328 330 332 334 336 338 340 342 344 346 348 350 352 354 356 358 360 362 364 366 368 370 372 374 376 378 380 382 384 386 388 390 392 394 396 398 400 402 404 406 408 410 412 414 416 418 420 422 424 426 428 430 432 434 436 438 440 442 444 446 448 450 452 454 456 458 460 462 464 466 468 470 472 474 476 478 480 482 484 486 488 490 492 494 496 498 500 
</DataArray>
<DataArray type="UInt32" Name="types" format="ascii">
3 3 3 3 3 3 3 3 3 3 3 3 3 3 3 3 3 3 3 3 3 3 3 3 3 3 3 3 3 3 3 3 3 3 3 3 3 3 3 3 3 3 3 3 3 3 3 3 3 3 3 3 3 3 3 3 3 3 3 3 3 3 3 3 3 3 3 3 3 3 3 3 3 3 3 3 3 3 3 3 3 3 3 3 3 3 3 3 3 3 3 3 3 3 3 3 3 3 3 3 3 3 3 3 3 3 3 3 3 3 3 3 3 3 3 3 3 3 3 3 3 3 3 3 3 3 3 3 3 3 3 3 3 3 3 3 3 3 3 3 3 3 3 3 3 3 3 3 3 3 3 3 3 3 3 3 3 3 3 3 3 3 3 3 3 3 3 3 3 3 3 3 3 3 3 3 3 3 3 3 3 3 3 3 3 3 3 3 3 3 3 3 3 3 3 3 3 3 3 3 3 3 3 3 3 3 3 3 3 3 3 3 3 3 3 3 3 3 3 3 3 3 3 3 3 3 3 3 3 3 3 3 3 3 3 3 3 3 3 3 3 3 3 3 3 3 3 3 3 3 
</DataArray>
</Cells>
<CellData Scalars="pressure_p0,water_content,conductivity_richards," Vectors="velocity_p0," Tensors="">
<DataArray type="Float64" Name="pressure_p0" format="ascii">
-4263.1123473760308 -4996.7286549292658 -4953.4687735715088 -4909.3990879062985 -4864.5181676241464 -4818.8252281113619 -4772.3201571154386 -4725.0035416051669 -4676.8766947863123 -4627.9416832311326 -4578.2013540770877 -4527.6593622472137 -4476.3201976416567 -4424.189212246627 -4371.2726471039186 -4317.5776590807263 -5039.1807815506072 -4207.8857796962893 -4151.9080180294295 -4095.1901439423818 -4037.744283323394 -3979.5836304863751 -3920.7224715502634 -3861.1762070021732 -3800.9613733485589 -3740.0956637540894 -3678.5979475632112 -3616.4882885945472 -3553.7879620932381 -3490.5194702212648 -3426.7065559604839 -3362.3742152977334 -5582.0258213950037 -5965.8822781490235 -5944.614815488877 -5922.7740182790703 -5900.3494996317495 -5877.3309039617143 -5853.7079190824979 -5829.4702888129686 -5804.6078261008242 -5779.1104266687562 -5752.9680831884434 -5726.170899986877 -5698.7091082888473 -5670.573081998612 -5641.7533540230124 -5612.2406331374186 -3297.548707555839 -5551.1000320788353 -5519.4546081953413 -5487.0811415065127 -5453.9714920971419 -5420.1178084722169 -5385.5125481782397 -5350.1484989409892 -5314.0188003108142 -5277.1169658050858 -5239.4369055359039 -5200.9729493095838 -5161.7198701826583 -5121.67290845753 -5080.8277960989453 -428.40560045708435 -1183.5168633304834 -1124.7474530909512 -1066.9923509909731 -1010.3005588815199 -954.71983425322958 -900.29648446327872 -847.07515071394755 -795.09858168375968 -744.40739673710095 -695.0398386580307 -647.0315158630217 -600.41513403685417 -555.22021709243347 -511.47281725791703 -469.19521391076779 -1243.2505311489981 -389.11775801454343 -351.34071376718134 -315.07838040314346 -280.32917065427284 -247.08557698413998 -215.33369974188008 -185.05269535739382 -156.21409480308887 -128.78090147163908 -102.70629220937602 -77.931546962500704 -54.382288756804016 -31.960123639573695 -10.508322886691712 -2219.627602858176 -3232.2575637286041 -3166.5295926721333 -3100.3948849988601 -3033.8848145145662 -2967.0320370325221 -2899.8704863925418 -2832.4353675063157 -2764.7631462439358 -2696.8915359698785 -2628.8594805300809 -2560.707133485048 -2492.4758333771811 -2424.2080748138496 -2355.9474751410089 -2287.7387364755541 -5986.5868128576785 -2151.6608122821344 -2083.8860433473046 -2016.3518562831141 -1949.1076280785474 -1882.2034814525482 -1815.6902073938427 -1749.6191809955055 -1684.0422703069273 -1619.0117379239757 -1554.5801350375414 -1490.8001876614269 -1427.7246747627462 -1365.4062980220954 -1303.8975429568218 -6586.6604536438517 -6601.8982141901979 -6601.170059737321 -6600.4069641240185 -6599.607670629799 -6598.7708707011689 -6597.8952026579036 -6596.9792503634699 -6596.02154185994 -6595.0205479677606 -6593.9746808508353 -6592.8822925473396 -6591.7416734668404 -6590.5510508542811 -6589.3085872214706 -6588.0123787467865 -6602.5926336277225 -6585.2507705000035 -6583.7812165855084 -6582.2496061344518 -6580.6536785983863 -6578.9910968738968 -6577.2594455052977 -6575.456228863768 -6573.578869304396 -6571.6247053025845 -6569.5909895714631 -6567.4748871620468 -6565.2734735479562 -6562.9837326966408 -6560.6025551291896 -6558.1267359709282 -6609.6393401603091 -6611.9413388553221 -6611.9077967304547 -6611.8579088091574 -6611.7915853081849 -6611.7087063458603 -6611.609121795861 -6611.4926511044214 -6611.3590830709036 -6611.2081755916997 -6611.0396553674291 -6610.8532175733881 -6610.6485254931886 -6610.4252101155507 -6610.1828696941739 -6609.921069270642 -6555.5529729951004 -6609.3371794010927 -6609.01404916512 -6608.6693761331826 -6608.3025508319333 -6607.9129269337927 -6607.4998205195025 -6607.0625093033159 -6606.6002318207784 -6606.1121865790938 -6605.5975311700631 -6605.0553813456218 -6604.4848100559739 -6603.8848464503917 -6603.254474840729 -6236.6240716027833 -6395.9049798375745 -6387.4997758645968 -6378.8136577114255 -6369.8388893341962 -6360.5675948856478 -6350.9917596354444 -6341.1032310996025 -6330.8937203884543 -6320.354803782704 -6309.4779245472891 -6298.254394992935 -6286.6753987953634 -6274.7319935823161 -6262.4151137985918 -6249.7155738594465 -6404.0368651503959 -6223.1311920506123 -6209.2274114903612 -6194.9031018865935 -6180.1485356337826 -6164.9538906607786 -6149.3092558975632 -6133.2046371148908 -6116.6299631473657 -6099.5750925103912 -6082.0298204213614 -6063.9838862353417 -6045.4269813053115 -6026.3487572768863 -6006.738834827248 -6497.9502102149572 -6552.8778646620885 -6550.0979081567739 -6547.2094974267457 -6544.208921224229 -6541.0923611547641 -6537.8558897357943 -6534.4954684684908 -6531.0069459262886 -6527.3860558638098 -6523.6284153499728 -6519.7295229292786 -6515.6847568154362 -6511.4893731216898 -6507.1385041323483 -6502.6271566202304 -6611.9585949781867 -6493.1024158271375 -6488.0783941337586 -6482.8726341302563 -6477.4794917549361 -6471.89318859164 -6466.1078106567356 -6460.1173072767087 -6453.9154900628346 -6447.4960319896709 -6440.8524665842288 -6433.9781872329395 -6426.8664466137443 -6419.5103562608238 -6411.9028862696605 
</DataArray>
<DataArray type="Float64" Name="velocity_p0" NumberOfComponents="3" format="ascii">
0 0 1.0638112691419678e-06 0 0 7.4310770765188485e-07 0 0 7.6180207761073751e-07 0 0 7.808615243840172e-07 0 0 8.0029039313534059e-07 0 0 8.200930177598782e-07 0 0 8.4027371888981571e-07 0 0 8.6083680177279163e-07 0 0 8.8178655401058421e-07 0 0 9.0312724314202955e-07 0 0 9.2486311405462394e-07 0 0 9.4699838620478394e-07 0 0 9.6953725062785281e-07 0 0 9.9248386671598419e-07 0 0 1.015842358737461e-06 0 0 1.0396168120737297e-06 0 0 7.2477405995667422e-07 0 0 1.0884297249723122e-06 0 0 1.1134761224044663e-06 0 0 1.1389543468639421e-06 0 0 1.1648682206752707e-06 0 0 1.1912214968656153e-06 0 0 1.2180178524066724e-06 0 0 1.2452608808375688e-06 0 0 1.2729540842072404e-06 0 0 1.3011008642661249e-06 0 0 1.3297045128320481e-06 0 0 1.3587682012473711e-06 0 0 1.3882949688332304e-06 0 0 1.4182877102426874e-06 0 0 1.448749161597886e-06 0 0 1.4796818852899066e-06 0 0 4.900847866328927e-07 0 0 3.2092596860420241e-07 0 0 3.3045110752052641e-07 0 0 3.4020874328349499e-07 0 0 3.5020291535982705e-07 0 0 3.6043768830541615e-07 0 0 3.7091715090789065e-07 0 0 3.8164541531686293e-07 0 0 3.9262661616006556e-07 0 0 4.0386490964767907e-07 0 0 4.1536447266450238e-07 0 0 4.2712950184838267e-07 0 0 4.3916421265719354e-07 0 0 4.5147283842246851e-07 0 0 4.6405962939005784e-07 0 0 4.7692885174670601e-07 0 0 1.5110882533041355e-06 0 0 5.0353172913994078e-07 0 0 5.1727398729072054e-07 0 0 5.3131588100358486e-07 0 0 5.4566174103634581e-07 0 0 5.6031590790955124e-07 0 0 5.7528273080742903e-07 0 0 5.9056656645250391e-07 0 0 6.0617177795299764e-07 0 0 6.2210273361866249e-07 0 0 6.3836380574159068e-07 0 0 6.5495936933884047e-07 0 0 6.7189380085195657e-07 0 0 6.89171476797667e-07 0 0 7.0679677236580059e-07 0 0 3.4013936528943884e-06 0 0 2.7576105451246859e-06 0 0 2.80236258650694e-06 0 0 2.8471839754962356e-06 0 0 2.8920207458140954e-06 0 0 2.9368129557726682e-06 0 0 2.981494085049043e-06 0 0 3.0259903787649884e-06 0 0 3.0702201377963977e-06 0 0 3.1140929557500014e-06 0 0 3.1575089052753961e-06 0 0 3.2003576795781036e-06 0 0 3.2425176995153342e-06 0 0 3.2838552029531254e-06 0 0 3.3242233417537748e-06 0 0 3.3634613236927989e-06 0 0 2.7129763948196889e-06 0 0 3.4378295445819404e-06 0 0 3.4725626202333448e-06 0 0 3.505371030717902e-06 0 0 3.5360182123379612e-06 0 0 3.5642545612520416e-06 0 0 3.589820427968702e-06 0 0 3.6124510083561836e-06 0 0 3.6318839870859996e-06 0 0 3.6478712769819507e-06 0 0 3.6601971541967138e-06 0 0 3.6687072794822836e-06 0 0 3.6733592958004403e-06 0 0 3.6743302975595942e-06 0 0 3.6724868659245865e-06 0 0 2.0788331116424057e-06 0 0 1.542970428921384e-06 0 0 1.5753303466288355e-06 0 0 1.6081696900560338e-06 0 0 1.6414898677354119e-06 0 0 1.6752919864601369e-06 0 0 1.7095768219931336e-06 0 0 1.7443447868512266e-06 0 0 1.779595894859287e-06 0 0 1.8153297221383872e-06 0 0 1.8515453641524376e-06 0 0 1.8882413883984311e-06 0 0 1.9254157822816436e-06 0 0 1.963065895663018e-06 0 0 2.0011883775139814e-06 0 0 2.0397791060497578e-06 0 0 3.1162931300134344e-07 0 0 2.1183444917410541e-06 0 0 2.1583063169393737e-06 0 0 2.1987105272381818e-06 0 0 2.2395478174473169e-06 0 0 2.2808075105573127e-06 0 0 2.3224774177865056e-06 0 0 2.3645436838732462e-06 0 0 2.4069906160345444e-06 0 0 2.4498004948527218e-06 0 0 2.4929533651810044e-06 0 0 2.5364268049761625e-06 0 0 2.5801956697790862e-06 0 0 2.6242318103681152e-06 0 0 2.6685037609190384e-06 0 0 1.9668222358112572e-08 0 0 1.0108053553185947e-08 0 0 1.0597548585653527e-08 0 0 1.110468950432921e-08 0 0 1.1630216841098199e-08 0 0 1.2174890317347656e-08 0 0 1.2739489437810932e-08 0 0 1.3324814086133656e-08 0 0 1.3931685121699074e-08 0 0 1.4560944977422029e-08 0 0 1.5213458257785325e-08 0 0 1.5890112338844894e-08 0 0 1.6591817966301091e-08 0 0 1.7319509855704749e-08 0 0 1.8074147290496981e-08 0 0 1.8856714720334331e-08 0 0 9.6354824715750697e-09 0 0 2.0509706775578653e-08 0 0 2.1382231496312209e-08 0 0 2.2286887588244099e-08 0 0 2.322479425165494e-08 0 0 2.4197099404740298e-08 0 0 2.5204980266458334e-08 0 0 2.6249643933692626e-08 0 0 2.7332327955065962e-08 0 0 2.8454300899614255e-08 0 0 2.9616862919409969e-08 0 0 3.0821346306304325e-08 0 0 3.2069116042018384e-08 0 0 3.3361570341519998e-08 0 0 3.4700141187483128e-08 0 0 3.60862948573649e-08 0 0 4.1369701359407524e-09 0 0 3.4684722451360885e-10 0 0 5.7878895982526693e-10 0 0 8.1179697063487671e-10 0 0 1.0462996075914764e-09 0 0 1.2827270798144059e-09 0 0 1.5215119864051984e-09 0 0 1.7630898492243766e-09 0 0 2.0078996461765243e-09 0 0 2.2563843461928365e-09 0 0 2.5089914442523191e-09 0 0 2.7661734993518375e-09 0 0 3.0283886721837682e-09 0 0 3.2961012660841488e-09 0 0 3.5697822685675511e-09 0 0 3.849909895363e-09 0 0 3.7521532441304318e-08 0 0 4.4314573018012258e-09 0 0 4.7338745761962799e-09 0 0 5.0447345669271259e-09 0 0 5.364559860437249e-09 0 0 5.6938835797009618e-09 0 0 6.0332499430791812e-09 0 0 6.3832148270816308e-09 0 0 6.744346330515842e-09 0 0 7.1172253419981046e-09 0 0 7.5024461097610537e-09 0 0 7.9006168136828372e-09 0 0 8.3123601407680838e-09 0 0 8.7383138618005158e-09 0 0 9.1791314116292375e-09 0 0 1.9695686802565661e-07 0 0 1.2033728580408711e-07 0 0 1.2448713464170137e-07 0 0 1.2876061300214635e-07 0 0 1.3316065182029308e-07 0 0 1.3769022447132807e-07 0 0 1.423523465628402e-07 0 0 1.4715007569947806e-07 0 0 1.5208651122214453e-07 0 0 1.5716479392092086e-07 0 0 1.6238810572211906e-07 0 0 1.6775966934938765e-07 0 0 1.732827479599645e-07 0 0 1.7896064475432817e-07 0 0 1.8479670256264202e-07 0 0 1.9079430340442832e-07 0 0 1.163081781784273e-07 0 0 2.0328785541056194e-07 0 0 2.0979076227030731e-07 0 0 2.1646912250912299e-07 0 0 2.233265066664441e-07 0 0 2.3036652133798891e-07 0 0 2.3759280857487943e-07 0 0 2.4500904526122885e-07 0 0 2.5261894247163607e-07 0 0 2.6042624480870946e-07 0 0 2.684347297208301e-07 0 0 2.7664820680132497e-07 0 0 2.8507051706983429e-07 0 0 2.9370553223499436e-07 0 0 3.0255715394195376e-07 0 0 6.8528005187910218e-08 0 0 3.9007390350082276e-08 0 0 4.0545440813300275e-08 0 0 4.213729236657554e-08 0 0 4.3784590327472737e-08 0 0 4.5489017259041389e-08 0 0 4.7252293420805627e-08 0 0 4.9076177206986016e-08 0 0 5.0962465569763577e-08 0 0 5.2912994428684801e-08 0 0 5.4929639064621265e-08 0 0 5.7014314497661686e-08 0 0 5.9168975849267844e-08 0 0 6.1395618685711439e-08 0 0 6.3696279346214854e-08 0 0 6.6073035250397623e-08 0 0 1.1554474061119781e-10 0 0 7.1063349589217229e-08 0 0 7.3681270774603209e-08 0 0 7.6384013184381151e-08 0 0 7.9173863586788769e-08 0 0 8.205315126456753e-08 0 0 8.5024248179356071e-08 0 0 8.8089569113815753e-08 0 0 9.1251571790487312e-08 0 0 9.4512756966360893e-08 0 0 9.7875668505048486e-08 0 0 1.0134289342394835e-07 0 0 1.0491706191593636e-07 0 0 1.0860084734807165e-07 0 0 1.1239696623351555e-07 
</DataArray>
<DataArray type="Float64" Name="water_content" format="ascii">
0.22174485000436001 0.21508218216870725 0.2154412833209835 0.21581103982898953 0.21619176320405425 0.21658377530575651 0.21698740878953485 0.21740300757844649 0.21783092736054829 0.21827153611346875 0.21872521465784803 0.21919235724143615 0.21967337215576149 0.22016868238741411 0.22067872630612878 0.22120395839200446 0.21473343478424345 0.22230189019490074 0.2228755865680585 0.22346646619157043 0.22407507656057718 0.22470198661875629 0.22534778784025472 0.22601309537645403 0.22669854927188893 0.22740481575394891 0.22813258860132343 0.22888259059650332 0.22965557506803108 0.23045232752859526 0.23127366741549465 0.23212044994045522 0.2105657690196282 0.2079056530514673 0.20804751918468761 0.20819385491706488 0.20834478731933542 0.20850044687853503 0.20866096760187824 0.20882648712504776 0.20899714682512927 0.20917309193843975 0.20935447168351212 0.20954143938951258 0.20973415263038431 0.20993277336502658 0.21013746808383704 0.21034840796196302 0.23299356805626903 0.21078973228992245 0.21102048399446449 0.21125821572737213 0.2115031246480002 0.21175541368293332 0.21201529173775036 0.2122829739191083 0.2125586817677266 0.21284264350288848 0.21313509427911362 0.21343627645569679 0.21374643987985084 0.2140658421842383 0.21439474909972506 0.33735643169960272 0.28329958531970356 0.28598533775003154 0.28877730573914495 0.29168059343004515 0.29470054915543142 0.29784276470975468 0.30111307012788785 0.30451752247859093 0.30806238675387909 0.31175410638491674 0.31559926020281454 0.31960450173688015 0.3237764755322694 0.32812170357413295 0.33264643278417183 0.28071518588894195 0.34225672053860789 0.3473512134056444 0.35264224358535423 0.35812993132930621 0.36381133575663693 0.36967930370056185 0.37572087884499766 0.38191504310005608 0.38822937816640107 0.39461482316141006 0.40099664367533105 0.40725639847974093 0.41318509570697592 0.41801636684845733 0.25145840919159002 0.23389395454823902 0.23482258425895561 0.23578047645550199 0.23676869734878128 0.23778836277528087 0.23884064105222874 0.23992675601775421 0.24104799026832785 0.24220568860641739 0.24340126171194237 0.24463619005172008 0.2459120280416533 0.24723040847687711 0.24859304724542675 0.25000174834115868 0.20776813276327522 0.2529650263159382 0.25452370132784236 0.25613664729590024 0.25780619547310202 0.25953480240327298 0.26132505740849821 0.26317969045586564 0.26510158039431042 0.26709376354236175 0.26915944259451091 0.27130199579690528 0.27352498632107491 0.27583217173605562 0.27822751344289642 0.20401723582794482 0.20392747612906825 0.20393175964368043 0.20393624932603105 0.20394095265890833 0.20394587743877973 0.20395103178416785 0.20395642414429743 0.20396206330801631 0.20396795841299251 0.20397411895518994 0.20398055479862545 0.20398727618540957 0.20399429374607334 0.20400161851018467 0.20400926191725569 0.20392339160497885 0.20402555253555599 0.20403422477783725 0.20404326574908294 0.20405268911254079 0.20406250901312811 0.20407274009045956 0.20408339749218973 0.20409449688767395 0.20410605448195004 0.2041180870300453 0.20413061185161147 0.2041436468458917 0.20415721050702318 0.20417132193967935 0.20418600087505617 0.2038819730496208 0.20386845423627839 0.20386865117588082 0.20386894409063022 0.20386933351034753 0.20386982014248262 0.20387040487300562 0.20387108876752069 0.20387187307260435 0.20387275921736758 0.20387374881524345 0.20387484366599989 0.20387604575797921 0.203877357270565 0.20387878057687719 0.20388031824669681 0.20420126768720567 0.20388374795844894 0.20388564615280338 0.203887671022983 0.20388982617405299 0.20389211543017211 0.20389454283915859 0.20389711267729649 0.20389982945438442 0.20390269791902776 0.20390572306417698 0.20390891013291357 0.20391226462448508 0.20391579230059223 0.203919499191929 0.20615180651162054 0.20516282050390727 0.20521425469265392 0.2052674947455421 0.20532259704349159 0.20537961949812164 0.20543862158823775 0.20549966439728873 0.2055628106518359 0.20562812476108128 0.20569567285750237 0.20576552283864505 0.20583774441012898 0.20591240912992259 0.20598959045394846 0.20606936378308341 0.20511313729352354 0.20623699807726573 0.20632502001274342 0.20641595599909229 0.20650989192073504 0.20660691592241126 0.20670711846806772 0.20681059240180591 0.20691743301099036 0.20702773809162994 0.20714160801614781 0.20725914580366403 0.20738045719292011 0.20750565071798335 0.20763483778687486 0.20454487782627054 0.20421714340972263 0.20423364975278802 0.20425080912057461 0.20426864462901984 0.20428718012397129 0.20430644019971061 0.20432645021786189 0.20434723632669136 0.20436882548080418 0.20439124546124698 0.20441452489602274 0.20443869328102643 0.20446378100141049 0.20448981935338911 0.20451684056649083 0.20386835291896338 0.20457396529749178 0.20460413814779099 0.20463543257183681 0.2046678858159974 0.20470153620353104 0.2047364231603141 0.20477258724112385 0.20481007015649294 0.20484891480015405 0.2048891652770945 0.20493086693224213 0.20497406637980425 0.20501881153328375 0.2050651516361974 
</DataArray>
<DataArray type="Float64" Name="conductivity_richards" format="ascii">