<?xml version="1.0"?>
<VTKFile type="UnstructuredGrid" version="0.1" byte_order="LittleEndian">
<UnstructuredGrid>
<Piece NumberOfPoints="251" NumberOfCells="250">
<Points>
<DataArray type="Float64" NumberOfComponents="3" format="ascii">
0 0 -0.25 0 0 -0.24899999999999739 0 0 -0.2479999999999947 0 0 -0.24699999999999209 0 0 -0.24599999999998939 0 0 -0.24499999999998681 0 0 -0.24299999999998159 0 0 -0.2439999999999842 0 0 -0.23499999999996049 0 0 -0.2359999999999631 0 0 -0.23699999999996571 0 0 -0.2379999999999684 0 0 -0.23899999999997101 0 0 -0.2399999999999736 0 0 -0.24099999999997629 0 0 -0.2419999999999789 0 0 -0.22699999999993939 0 0 -0.227999999999942 0 0 -0.22899999999994469 0 0 -0.2299999999999473 0 0 -0.23099999999994991 0 0 -0.23199999999995249 0 0 -0.23299999999995519 0 0 -0.2339999999999578 0 0 -0.22499999999993411 0 0 -0.2259999999999367 0 0 -0.22399999999993139 0 0 -0.22299999999992881 0 0 -0.2219999999999262 0 0 -0.22099999999992359 0 0 -0.2199999999999209 0 0 -0.21899999999991829 0 0 -0.21799999999991571 0 0 -0.21699999999991301 0 0 -0.21499999999990771 0 0 -0.2159999999999104 0 0 -0.21299999999990249 0 0 -0.2139999999999051 0 0 -0.21199999999989991 0 0 -0.21099999999989719 0 0 -0.2099999999998946 0 0 -0.20899999999989191 0 0 -0.2079999999998893 0 0 -0.20399999999987881 0 0 -0.20499999999988139 0 0 -0.205999999999884 0 0 -0.20699999999988669 0 0 -0.18899999999983921 0 0 -0.1879999999998366 0 0 -0.19099999999984449 0 0 -0.18999999999984191 0 0 -0.19299999999984971 0 0 -0.1919999999998471 0 0 -0.19499999999985501 0 0 -0.1939999999998524 0 0 -0.19699999999986029 0 0 -0.1959999999998577 0 0 -0.19899999999986559 0 0 -0.19799999999986301 0 0 -0.20099999999987081 0 0 -0.1999999999998682 0 0 -0.20299999999987611 0 0 -0.2019999999998735 0 0 -0.13099999999968631 0 0 -0.13199999999968889 0 0 -0.1299999999996837 0 0 -0.12899999999968109 0 0 -0.1279999999996784 0 0 -0.12699999999967579 0 0 -0.12599999999967451 0 0 -0.13999999999971011 0 0 -0.13899999999970741 0 0 -0.1379999999997048 0 0 -0.13699999999970211 0 0 -0.1359999999996995 0 0 -0.13499999999969689 0 0 -0.13299999999969159 0 0 -0.1339999999996942 0 0 -0.14699999999972849 0 0 -0.1479999999997311 0 0 -0.14599999999972579 0 0 -0.14499999999972321 0 0 -0.1439999999997206 0 0 -0.14299999999971799 0 0 -0.1419999999997153 0 0 -0.14099999999971269 0 0 -0.1559999999997522 0 0 -0.15499999999974959 0 0 -0.15399999999974701 0 0 -0.15299999999974431 0 0 -0.1519999999997417 0 0 -0.15099999999973901 0 0 -0.14899999999973379 0 0 -0.1499999999997364 0 0 -0.16299999999977069 0 0 -0.1639999999997733 0 0 -0.161999999999768 0 0 -0.16099999999976539 0 0 -0.1599999999997628 0 0 -0.15899999999976011 0 0 -0.1579999999997575 0 0 -0.15699999999975489 0 0 -0.17099999999979171 0 0 -0.1699999999997891 0 0 -0.16899999999978649 0 0 -0.16799999999978391 0 0 -0.16699999999978121 0 0 -0.16499999999977599 0 0 -0.1659999999997786 0 0 -0.1779999999998102 0 0 -0.17899999999981281 0 0 -0.17699999999980759 0 0 -0.17599999999980501 0 0 -0.17499999999980231 0 0 -0.1739999999997997 0 0 -0.17299999999979701 0 0 -0.1719999999997944 0 0 -0.18699999999983391 0 0 -0.1859999999998313 0 0 -0.18499999999982869 0 0 -0.183999999999826 0 0 -0.18299999999982339 0 0 -0.18199999999982069 0 0 -0.1799999999998155 0 0 -0.18099999999981811 0 0 -0.068999999999833792 0 0 -0.069999999999830878 0 0 -0.067999999999836705 0 0 -0.066999999999839618 0 0 -0.065999999999842532 0 0 -0.064999999999845445 0 0 -0.063999999999848373 0 0 -0.062999999999851286 0 0 -0.077999999999807557 0 0 -0.07699999999981047 0 0 -0.075999999999813383 0 0 -0.074999999999816297 0 0 -0.07399999999981921 0 0 -0.072999999999822124 0 0 -0.070999999999827965 0 0 -0.071999999999825051 0 0 -0.083999999999790062 0 0 -0.084999999999787149 0 0 -0.082999999999792975 0 0 -0.081999999999795889 0 0 -0.080999999999798802 0 0 -0.07999999999980173 0 0 -0.078999999999804643 0 0 -0.092999999999763827 0 0 -0.091999999999766741 0 0 -0.090999999999769654 0 0 -0.089999999999772567 0 0 -0.088999999999775481 0 0 -0.087999999999778394 0 0 -0.085999999999784235 0 0 -0.086999999999781322 0 0 -0.099999999999743419 0 0 -0.10099999999974051 0 0 -0.098999999999746333 0 0 -0.097999999999749246 0 0 -0.096999999999752159 0 0 -0.095999999999755073 0 0 -0.094999999999758 0 0 -0.093999999999760914 0 0 -0.1089999999997172 0 0 -0.1079999999997201 0 0 -0.106999999999723 0 0 -0.1059999999997259 0 0 -0.1049999999997288 0 0 -0.10399999999973179 0 0 -0.10199999999973761 0 0 -0.10299999999973471 0 0 -0.1159999999996968 0 0 -0.11699999999969379 0 0 -0.1149999999996997 0 0 -0.1139999999997026 0 0 -0.1129999999997055 0 0 -0.1119999999997084 0 0 -0.1109999999997113 0 0 -0.1099999999997143 0 0 -0.12499999999967321 0 0 -0.1239999999996748 0 0 -0.1229999999996764 0 0 -0.1219999999996793 0 0 -0.1209999999996822 0 0 -0.11999999999968509 0 0 -0.11799999999969089 0 0 -0.11899999999968799 0 0 -0.047999999999895078 0 0 -0.046999999999897998 0 0 -0.049999999999889237 0 0 -0.048999999999892158 0 0 -0.051999999999883403 0 0 -0.050999999999886317 0 0 -0.053999999999877563 0 0 -0.052999999999880483 0 0 -0.055999999999871722 0 0 -0.054999999999874642 0 0 -0.057999999999865881 0 0 -0.056999999999868801 0 0 -0.059999999999860047 0 0 -0.058999999999862961 0 0 -0.061999999999854213 0 0 -0.060999999999857127 0 0 -0.042999999999909673 0 0 -0.043999999999906753 0 0 -0.044999999999903832 0 0 -0.045999999999900919 0 0 -0.041999999999912593 0 0 -0.040999999999915507 0 0 -0.039999999999918427 0 0 -0.038999999999921348 0 0 -0.037999999999924268 0 0 -0.035999999999930102 0 0 -0.036999999999927188 0 0 -0.033999999999935943 0 0 -0.034999999999933022 0 0 -0.032999999999938787 0 0 -0.031999999999941367 0 0 -0.03099999999994377 0 0 -0.02999999999994565 0 0 -0.028999999999947419 0 0 -0.027999999999948951 0 0 -0.02699999999995048 0 0 -0.02599999999995202 0 0 -0.023999999999955082 0 0 -0.024999999999953549 0 0 -0.01599999999996761 0 0 -0.0169999999999659 0 0 -0.01799999999996427 0 0 -0.018999999999962731 0 0 -0.019999999999961209 0 0 -0.020999999999959669 0 0 -0.02199999999995814 0 0 -0.022999999999956611 0 0 -0.007999999999984719 0 0 -0.008999999999982581 0 0 -0.0099999999999804221 0 0 -0.010999999999978201 0 0 -0.011999999999975971 0 0 -0.01299999999997375 0 0 -0.01399999999997158 0 0 -0.014999999999969531 0 0 -0.0059999999999886811 0 0 -0.0069999999999867156 0 0 -0.004999999999990571 0 0 -0.0039999999999924488 0 0 -0.0029999999999943271 0 0 -0.001999999999996204 0 0 -0.00099999999999810158 0 0 0 
</DataArray>
</Points>
<Cells>
<DataArray type="UInt32" Name="connectivity" format="ascii">
1 0 2 1 3 2 4 3 5 4 7 5 15 6 6 7 23 8 8 9 9 10 10 11 11 12 12 13 13 14 14 15 16 17 17 18 18 19 19 20 20 21 21 22 22 23 24 25 25 16 26 24 27 26 28 27 29 28 30 29 31 30 32 31 33 32 34 35 35 33 36 37 37 34 38 36 39 38 40 39 41 40 42 41 46 42 61 43 43 44 44 45 45 46 48 47 50 49 47 50 52 51 49 52 54 53 51 54 56 55 53 56 58 57 55 58 60 59 57 60 62 61 59 62 63 64 64 76 65 63 66 65 67 66 68 67 69 68 180 69 70 85 71 70 72 71 73 72 74 73 75 74 76 77 77 75 80 78 78 79 81 80 82 81 83 82 84 83 85 84 87 86 88 87 89 88 90 89 91 90 93 91 79 92 92 93 96 94 94 95 97 96 98 97 99 98 100 99 101 100 86 101 102 116 103 102 104 103 105 104 106 105 108 106 95 107 107 108 109 110 110 123 111 109 112 111 113 112 114 113 115 114 116 115 117 48 118 117 119 118 120 119 121 120 122 121 123 124 124 122 127 125 125 126 128 127 129 128 130 129 131 130 132 131 134 133 135 134 136 135 137 136 138 137 140 138 126 139 139 140 141 142 142 154 143 141 144 143 145 144 146 145 147 146 133 147 148 163 149 148 150 149 151 150 152 151 153 152 154 155 155 153 156 157 157 170 158 156 159 158 160 159 161 160 162 161 163 162 165 164 166 165 167 166 168 167 169 168 170 171 171 169 174 172 172 173 175 174 176 175 177 176 178 177 179 178 164 179 181 180 182 181 183 182 184 183 185 184 187 185 173 186 186 187 188 191 189 188 190 193 191 190 192 195 193 192 194 197 195 194 196 199 197 196 198 201 199 198 200 203 201 200 202 132 203 202 204 205 205 206 206 207 207 189 208 204 209 208 210 209 211 210 212 211 214 212 216 213 213 214 217 215 215 216 218 217 219 218 220 219 221 220 222 221 223 222 224 223 226 224 234 225 225 226 227 228 228 229 229 230 230 231 231 232 232 233 233 234 235 236 236 237 237 238 238 239 239 240 240 241 241 242 242 227 243 244 244 235 245 243 246 245 247 246 248 247 249 248 250 249 
</DataArray>
<DataArray type="UInt32" Name="offsets" format="ascii">
2 4 6 8 10 12 14 16 18 20 22 24 26 28 30 32 34 36 38 40 42 44 46 48 50 52 54 56 58 60 62 64 66 68 70 72 74 76 78 80 82 84 86 88 90 92 94 96 98 100 102 104 106 108 110 112 114 116 118 120 122 124 126 128 130 132 134 136 138 140 142 144 146 148 150 152 154 156 158 160 162 164 166 168 170 172 174 176 178 180 182 184 186 188 190 192 194 196 198 200 202 204 206 208 210 212 214 216 218 220 222 224 226 228 230 232 234 236 238 240 242 244 246 248 250 252 254 256 258 260 262 264 266 268 270 272 274 276 278 280 282 284 286 288 290 292 294 296 298 300 302 304 306 308 310 312 314 316 318 320 322 324 326 328 330 332 334 336 338 340 342 344 346 348 350 352 354 356 358 360 362 364 366 368 370 372 374 376 378 380 382 384 386 388 390 392 394 396 398 400 402 404 406 408 410 412 414 416 418 420 422 424 426 428 430 432 434 436 438 440 442 444 446 448 450 452 454 456 458 460 462 464 466 468 470 472 474 476 478 480 482 484 486 488 490 492 494 496 498 500 
</DataArray>
<DataArray type="UInt32" Name="types" format="ascii">
3 3 3 3 3 3 3 3 3 3 3 3 3 3 3 3 3 3 3 3 3 3 3 3 3 3 3 3 3 3 3 3 3 3 3 3 3 3 3 3 3 3 3 3 3 3 3 3 3 3 3 3 3 3 3 3 3 3 3 3 3 3 3 3 3 3 3 3 3 3 3 3 3 3 3 3 3 3 3 3 3 3 3 3 3 3 3 3 3 3 3 3 3 3 3 3 3 3 3 3 3 3 3 3 3 3 3 3 3 3 3 3 3 3 3 3 3 3 3 3 3 3 3 3 3 3 3 3 3 3 3 3 3 3 3 3 3 3 3 3 3 3 3 3 3 3 3 3 3 3 3 3 3 3 3 3 3 3 3 3 3 3 3 3 3 3 3 3 3 3 3 3 3 3 3 3 3 3 3 3 3 3 3 3 3 3 3 3 3 3 3 3 3 3 3 3 3 3 3 3 3 3 3 3 3 3 3 3 3 3 3 3 3 3 3 3 3 3 3 3 3 3 3 3 3 3 3 3 3 3 3 3 3 3 3 3 3 3 3 3 3 3 3 3 3 3 3 3 3 3 
</DataArray>
</Cells>
<CellData Scalars="pressure_p0,water_content,conductivity_richards," Vectors="velocity_p0," Tensors="">
<DataArray type="Float64" Name="pressure_p0" format="ascii">
-5.7254734348600644 -17.28798442832062 -29.099083643159567 -41.198699646057719 -53.612122625275809 -66.358926904171895 -92.914725310384142 -79.455228388341993 -214.82509245269381 -198.13481966177122 -181.87063212560639 -166.02782489464209 -150.60095817721805 -135.58380076436521 -120.96925769687712 -106.74927631117424 -343.84770734682462 -324.09622770436766 -304.78650214419326 -285.91793274729997 -267.48941654657989 -249.49932317337414 -231.94546938605117 -384.67592175779521 -364.04105534969847 -405.75151202028678 -427.26660486262625 -449.21956848456909 -471.60837739164407 -494.43062821827891 -517.68355503523753 -541.36404419398605 -565.46864874964808 -614.93483363650762 -589.99360249565257 -666.04839264472844 -640.28797811983941 -692.21116736012596 -718.77113826457321 -745.72289931644866 -773.0608142624144 -800.77902819048836 -828.87147881321812 -944.8557540937378 -915.33074689878174 -886.15386996280131 -857.33190748572838 -1424.4984526994967 -1357.0327058315054 -1390.6491739761409 -1290.5309267664079 -1323.657239187703 -1225.0581292910458 -1257.6618734427707 -1160.6784641146151 -1192.7276852246107 -1097.4549959206756 -1128.9183131408286 -1035.4494505975349 -1066.2961844135507 -974.72195248907644 -1004.922257915688 -3482.3985934962984 -3447.8496102408758 -3516.7806905907173 -3550.9915718704656 -3585.0270075483213 -3618.8828655029442 -3652.5551107461197 -3686.0398065832051 -3166.0023226151043 -3201.7185399012351 -3237.3061127416504 -3272.7599085060351 -3308.0748914965488 -3343.2461308363727 -3413.1381699031172 -3378.2688004267638 -2949.3036310350403 -2912.8390749307964 -2985.6782869689441 -3021.9572079257227 -3058.1346553990397 -3094.2049936938247 -3130.1626944207601 -2618.6187004545786 -2655.5806902057225 -2692.5029562821974 -2729.3788944662338 -2766.2019926035528 -2802.9658333664379 -2876.2905523100712 -2839.6640952955031 -2359.3461724779891 -2322.3148413908957 -2396.3937907209056 -2433.4504010929049 -2470.5087842028843 -2507.5618074305698 -2544.6024268671854 -2581.6236829245854 -2027.5507079752977 -2064.1802213039282 -2100.8869964919431 -2137.6631815204073 -2174.5009876573658 -2211.3926862194185 -2285.3071706813421 -2248.330611337205 -1773.9781118280393 -1738.2554795452991 -1809.8425826442453 -1845.8406834549021 -1881.9642337661551 -1918.205091191769 -1954.5551555551779 -1991.0063655520739 -1458.5723180600235 -1492.8625197464694 -1527.3607867298065 -1562.0588332377238 -1596.948365072617 -1632.0210849502109 -1702.6829210059452 -1667.2686979099626 -5198.8773396520082 -5179.8768088891193 -5217.594971676579 -5236.0296465494666 -5254.1813304537309 -5272.0500213910182 -5289.6357480442284 -5017.7056691110502 -5038.9634370628646 -5059.9399541992534 -5080.634888364988 -5101.0479449008353 -5121.1788674352501 -5160.5934677833102 -5141.0274366530011 -4861.0628411859234 -4837.5720655450632 -4884.2765615580975 -4907.2125407352632 -4929.8701441761696 -4952.2487820994866 -4974.3479081783953 -4996.1670222690454 -4639.7713069175979 -4665.4475497712447 -4690.8541340555512 -4715.989937406086 -4740.8539016435243 -4765.4450213551318 -4813.8049705668891 -4789.7623425555657 -4452.5944282960736 -4424.8088377512595 -4480.1216220981223 -4507.3887775303447 -4534.3943233124319 -4561.1367553047858 -4587.614635230655 -4613.8265882649175 -4223.2275890906403 -4252.7699124127976 -4282.0673768658562 -4311.1178207136518 -4339.9191587827718 -4396.7665627151409 -4368.4693839742849 -4009.773806791628 -3978.3601720926681 -4040.9628178288131 -4071.9243796037294 -4102.6557542922264 -4133.1542887565474 -4163.4174134804953 -4193.4426477197194 -3719.3331131482773 -3752.4312867547851 -3785.3306792064855 -3818.0277370702015 -3850.5190009120561 -3882.8011044984632 -3946.72482707992 -3914.8707739634924 -5519.5506153568094 -5532.6295530780135 -5492.5528348725647 -5506.1918096380341 -5464.4332247891571 -5478.6334001354053 -5435.1895876628942 -5449.9520394370393 -5404.8199280618392 -5420.1456266265759 -5373.3224842428854 -5389.2122792891059 -5340.6957604032814 -5357.1503645135581 -5306.9385602394104 -5323.9585319957296 -5582.1529321170965 -5570.190294045814 -5557.9490713895493 -5545.428932668623 -5593.8373218658562 -5605.243804018608 -5616.3727229457345 -5627.2244258584988 -5637.7992620234727 -5648.0975819944742 -5667.8660775215558 -5658.1197368621852 -5686.5327145465462 -5677.3369539571513 -5695.453705381884 -5704.1002696097094 -5712.4727467892117 -5720.5714722689372 -5728.3967765820853 -5735.9489848605135 -5743.2284162674787 -5750.2353834492478 -5763.433139979652 -5756.9701920056568 -5801.0849035243027 -5796.5173694033265 -5791.6798105546895 -5786.5719945138189 -5781.1936772989739 -5775.5446056387736 -5769.624517365939 -5827.9284138591865 -5825.5140884930534 -5822.8311781937864 -5819.879546404728 -5816.6590449762589 -5813.1695117859981 -5809.4107709780837 -5805.3826344341214 -5831.9517922175219 -5830.0742777590904 -5833.5610540055932 -5834.902144500702 -5835.9751332196283 -5836.7800758933854 -5837.3170143876077 -5837.5859766428448 
</DataArray>
<DataArray type="Float64" Name="velocity_p0" NumberOfComponents="3" format="ascii">
0 0 2.0190373078351325e-06 0 0 2.0189725464336171e-06 0 0 2.0184412336717852e-06 0 0 2.0173365811583924e-06 0 0 2.0156198792209947e-06 0 0 2.0132760565747748e-06 0 0 2.0067094444695906e-06 0 0 2.010303526964482e-06 0 0 1.9577760150308346e-06 0 0 1.9656428308320341e-06 0 0 1.9730581391509248e-06 0 0 1.9799972508509209e-06 0 0 1.9864357237697914e-06 0 0 1.9923488581911757e-06 0 0 1.997713338914889e-06 0 0 2.0025069440532967e-06 0 0 1.8920578781738081e-06 0 0 1.9024298714928502e-06 0 0 1.9125096043750421e-06 0 0 1.9222764782584338e-06 0 0 1.9317091289130178e-06 0 0 1.9407852700640266e-06 0 0 1.9494821770126087e-06 0 0 1.8705152428376518e-06 0 0 1.8814133883408657e-06 0 0 1.859381678663249e-06 0 0 1.848029859794358e-06 0 0 1.8364762100654263e-06 0 0 1.8247363525017914e-06 0 0 1.8128251317360147e-06 0 0 1.8007566389415959e-06 0 0 1.7885442385252177e-06 0 0 1.776200595964671e-06 0 0 1.7511669228298315e-06 0 0 1.7637377062930835e-06 0 0 1.7257440508468038e-06 0 0 1.738498985836401e-06 0 0 1.7129117164723724e-06 0 0 1.7000110515320767e-06 0 0 1.6870506213916912e-06 0 0 1.6740385134322871e-06 0 0 1.6609823615876974e-06 0 0 1.647889369916168e-06 0 0 1.5952792775266123e-06 0 0 1.6084554157435586e-06 0 0 1.6216196684688324e-06 0 0 1.6347663351861609e-06 0 0 1.399223738501221e-06 0 0 1.4249776431937145e-06 0 0 1.4120792690580574e-06 0 0 1.4508934657218062e-06 0 0 1.4379165650430387e-06 0 0 1.4769512539855788e-06 0 0 1.4639059927470809e-06 0 0 1.5031280191664502e-06 0 0 1.490026305964002e-06 0 0 1.5293979154485798e-06 0 0 1.5162530672202365e-06 0 0 1.5557317588061706e-06 0 0 1.5425588087548516e-06 0 0 1.5820966275454814e-06 0 0 1.5689125304808424e-06 0 0 7.7042620402617008e-07 0 0 7.7952679977366764e-07 0 0 7.6139316539132658e-07 0 0 7.5242739987883391e-07 0 0 7.4352865370649655e-07 0 0 7.3469655192055055e-07 0 0 7.2593082614434619e-07 0 0 7.1723116319544434e-07 0 0 8.547951336237327e-07 0 0 8.4514488814883275e-07 0 0 8.3556415496681323e-07 0 0 8.2605272391554652e-07 0 0 8.1661018981382095e-07 0 0 8.0723669060135398e-07 0 0 7.8869522862359393e-07 0 0 7.9793180120827235e-07 0 0 9.1416663120005038e-07 0 0 9.2430835411494323e-07 0 0 9.04095553036393e-07 0 0 8.9409499803950594e-07 0 0 8.8416468097886911e-07 0 0 8.7430475059185359e-07 0 0 8.6451509049720478e-07 0 0 1.0079946481597381e-06 0 0 9.9728535919625341e-07 0 0 9.8664707985630097e-07 0 0 9.7607983146428762e-07 0 0 9.6558357105352944e-07 0 0 9.5515836564190956e-07 0 0 9.3452082828931688e-07 0 0 9.4480413327737587e-07 0 0 1.0849413295675092e-06 0 0 1.0962150378820091e-06 0 0 1.0737375666650097e-06 0 0 1.062603981303247e-06 0 0 1.0515405126908549e-06 0 0 1.0405478555728709e-06 0 0 1.029625891324635e-06 0 0 1.0187749034051511e-06 0 0 1.1888829089108404e-06 0 0 1.1770623200170929e-06 0 0 1.1653084801486809e-06 0 0 1.153621938183858e-06 0 0 1.1420033894458427e-06 0 0 1.1304529036302704e-06 0 0 1.1075584266597006e-06 0 0 1.1189710887835723e-06 0 0 1.2734390267333356e-06 0 0 1.2857672700484527e-06 0 0 1.2611711025583513e-06 0 0 1.2489645295743216e-06 0 0 1.2368200653027681e-06 0 0 1.2247390052553815e-06 0 0 1.2127219735583987e-06 0 0 1.2007696482216764e-06 0 0 1.3864132069961228e-06 0 0 1.3736497185378426e-06 0 0 1.3609351277926729e-06 0 0 1.3482712344569081e-06 0 0 1.3356597047287333e-06 0 0 1.3231020985779711e-06 0 0 1.2981547240570525e-06 0 0 1.3105998754662212e-06 0 0 3.1792961343792425e-07 0 0 3.23535422482112e-07 0 0 3.1236428796985014e-07 0 0 3.0683891457533823e-07 0 0 3.0135281879457174e-07 0 0 2.9590574546978271e-07 0 0 2.9049701540428521e-07 0 0 3.6990228064877372e-07 0 0 3.6395376543919455e-07 0 0 3.5804989634970375e-07 0 0 3.5219016197598231e-07 0 0 3.4637401348964978e-07 0 0 3.4060100401317809e-07 0 0 3.291822441739644e-07 0 0 3.3487057961231457e-07 0 0 4.1283433295567076e-07 0 0 4.191581084859695e-07 0 0 4.0655919849149517e-07 0 0 4.0033221533515323e-07 0 0 3.941529844101631e-07 0 0 3.88020823400769e-07 0 0 3.8193532770493251e-07 0 0 3.7589595076460494e-07 0 0 4.7155706639709452e-07 0 0 4.6482687645543687e-07 0 0 4.5814914139356535e-07 0 0 4.5152339492341498e-07 0 0 4.4494935007927381e-07 0 0 4.3842616972672443e-07 0 0 4.2553101201560588e-07 0 0 4.3195356089244042e-07 0 0 5.2017571817459786e-07 0 0 5.2734195406598413e-07 0 0 5.13065552724711e-07 0 0 5.0601101734488667e-07 0 0 4.9901170442708641e-07 0 0 4.9206709449991925e-07 0 0 4.8517677329866609e-07 0 0 4.7834017441793704e-07 0 0 5.7911200562821249e-07 0 0 5.7154124476899893e-07 0 0 5.6402953655345558e-07 0 0 5.5657646616516133e-07 0 0 5.4918156321110232e-07 0 0 5.345646973097486e-07 0 0 5.4184450868181105e-07 0 0 6.3379459719624151e-07 0 0 6.418522213747754e-07 0 0 6.2579919480763919e-07 0 0 6.1786563352397162e-07 0 0 6.0999356915029514e-07 0 0 6.0218252958585709e-07 0 0 5.944321616961703e-07 0 0 5.8674223000982655e-07 0 0 7.0859724322324076e-07 0 0 7.0002873993398557e-07 0 0 6.9152532080450873e-07 0 0 6.8308664728378581e-07 0 0 6.7471237498453611e-07 0 0 6.6640215386336751e-07 0 0 6.4997244327184369e-07 0 0 6.581556283931535e-07 0 0 2.1359404078561463e-07 0 0 2.0872371427439974e-07 0 0 2.2342353850690967e-07 0 0 2.1849379119198169e-07 0 0 2.333752935544384e-07 0 0 2.2838384123164214e-07 0 0 2.4345387565087722e-07 0 0 2.3839845000694033e-07 0 0 2.5366378444274097e-07 0 0 2.4854213348993771e-07 0 0 2.6400949877840308e-07 0 0 2.5881938731612554e-07 0 0 2.7449546329751978e-07 0 0 2.6923467333405962e-07 0 0 2.8512608760561295e-07 0 0 2.7979241876830799e-07 0 0 1.8952510368857722e-07 0 0 1.9428350267535884e-07 0 0 1.9906901461554823e-07 0 0 2.038822367289645e-07 0 0 1.8479323536571279e-07 0 0 1.8008731365621764e-07 0 0 1.7540675277923871e-07 0 0 1.7075096525728766e-07 0 0 1.6611936194894485e-07 0 0 1.6151135208286629e-07 0 0 1.5236374164608556e-07 0 0 1.5692634329154391e-07 0 0 1.4330337648197422e-07 0 0 1.4782295169151846e-07 0 0 1.3880441761714845e-07 0 0 1.3432547527808776e-07 0 0 1.2986594826545859e-07 0 0 1.2542523403522011e-07 0 0 1.210027287378421e-07 0 0 1.1659782725631306e-07 0 0 1.1220992324377659e-07 0 0 1.0783840916455652e-07 0 0 9.9142114948717273e-08 0 0 1.0348267633174833e-07 0 0 6.9131519639145534e-08 0 0 7.3383039875402117e-08 0 0 7.7645435333583301e-08 0 0 8.1919322434868843e-08 0 0 8.6205345720180503e-08 0 0 9.0504062033584553e-08 0 0 9.481611414812626e-08 0 0 3.5436655757834403e-08 0 0 3.9623449665138628e-08 0 0 4.3816163037265826e-08 0 0 4.8015417304609612e-08 0 0 5.2221793003089294e-08 0 0 5.6435991447984308e-08 0 0 6.0658592096328388e-08 0 0 6.4890257424987637e-08 0 0 2.707839528102864e-08 0 0 3.1255159456200264e-08 0 0 2.2905627123140674e-08 0 0 1.8736288871032096e-08 0 0 1.4569757402092588e-08 0 0 1.040540939076174e-08 0 0 6.2426213527049849e-09 0 0 2.0807696915110796e-09 
</DataArray>
<DataArray type="Float64" Name="water_content" format="ascii">
0.41914718601597911 0.41690058980868555 0.41396308957177763 0.41078595911008015 0.40746250465108724 0.40404728760661779 0.39707820033950048 0.40057701523527711 0.36973686021422958 0.37301463598229734 0.37634295737038326 0.37971809643753707 0.38313529452955886 0.3865885298889839 0.39007021596675384 0.39357079883829443 0.34837429405476283 0.35124977875095897 0.35418468772164025 0.35717894882288515 0.36023220546978652 0.36334376050606543 0.36651250946506309 0.3428007397658257 0.34555806851976589 0.34010178189765095 0.33746053429727518 0.33487622625589919 0.33234799781252056 0.32987491758042442 0.32745599795672281 0.32509020809616718 0.32277648497057387 0.31830088098854142 0.32051374278594602 0.31402036224984875 0.3161367910570948 0.31195048645098822 0.30992606224071073 0.30794599829587072 0.30600921621339172 0.30411465283604561 0.30226126214940002 0.29523918302151014 0.29693795313222376 0.29867390935257482 0.3004480168094627 0.27363176402316169 0.27614054173724784 0.2748734794742525 0.27875330104006091 0.27743359465020351 0.28147542389620872 0.28010034330883615 0.2843126121142816 0.28287926561143395 0.28727090072783967 0.28577622831289762 0.29035667023265566 0.28879743781422318 0.29357665591486837 0.29194945105819031 0.23055427856721961 0.23099789955032957 0.23011800621242648 0.2296889527327643 0.22926699138753981 0.22885199838544334 0.22844385280274487 0.22804243648289133 0.23482805868977219 0.23432058436905662 0.23382161668400173 0.23333099828307657 0.23284857568160539 0.23237419904253048 0.23144900202547636 0.23190772206980093 0.23806086556139042 0.23863263758717213 0.23749881856408123 0.23694630910257863 0.23640315443595178 0.23586917634257787 0.23534420092545699 0.2435810878905145 0.24292415035924078 0.24227862591755939 0.24164428369630306 0.24102089887266442 0.2404082524556877 0.23921432698677753 0.23980613110614957 0.24851996932381565 0.2492773138919325 0.2477761266640594 0.24704549921957408 0.24632780816934441 0.2456227821405477 0.24493015697192302 0.24424967560638627 0.25585932004967538 0.25498261718443493 0.25412202246622057 0.25327717699096408 0.25244773186665226 0.25163334803197823 0.25004845510014473 0.25083369594413052 0.26247969213055938 0.26349950505797848 0.2614792635425951 0.26049776690594834 0.2595347629435607 0.25858982492614935 0.25766253827764352 0.25675250037902719 0.27241477011237714 0.27122189054352236 0.27005253572428678 0.26890613318365408 0.26778212707184756 0.26667997769254187 0.26453916816370193 0.26559916103180381 0.21345249730812915 0.21360234305336234 0.21330553151670034 0.21316141200000549 0.21302010582159547 0.21288158071063756 0.21274580505069413 0.21490907302260434 0.21473488584006281 0.21456387513158431 0.21439600107146031 0.21423122465967021 0.21406950769053584 0.21375510315353979 0.21391081273829449 0.21622084893510563 0.2164219850058185 0.21602323932007511 0.21582910920046483 0.21563841254809779 0.21545110429277037 0.21526714030372276 0.2150864773377657 0.21816399205788389 0.21793283255909598 0.21770561204056843 0.2174822751479692 0.21726276761162511 0.2170470363115925 0.21662669546653093 0.21683502925390771 0.21989729907902331 0.22016210734220298 0.21963691645280312 0.21938089410667611 0.21912916802730648 0.21888167553196997 0.21863835523841174 0.2183991470454637 0.2221454727632427 0.22184773435323296 0.22155491977230798 0.22126695323989429 0.22098376058785518 0.22043140798378819 0.22070526919535155 0.22437422875956708 0.22471429147745195 0.22403975875481674 0.22371079133906374 0.22338723833429758 0.22306901348043462 0.22275603238694058 0.22244821242203269 0.22764763397083729 0.22725933243913868 0.22687742161646507 0.22650179371844503 0.22613234338076066 0.22576896759441431 0.22506003904104874 0.22541156564308978 0.21101961028422012 0.21092405205421383 0.21121773716913878 0.21111749802869403 0.21142535989337324 0.2113203501304286 0.21164266456429209 0.2115327900018214 0.21186984636859468 0.21175500826438612 0.21210710981838876 0.21198720473435917 0.21235466901618891 0.21222958868524336 0.21261274793404872 0.21248237911833304 0.21056469541917297 0.21065114370253352 0.21073983930681306 0.21083080199674986 0.21048047521083807 0.21039846434107079 0.21031864457740496 0.21024099818610725 0.21016550792709732 0.21009215704904324 0.20995180884598486 0.21002092928462837 0.20981982916552705 0.2098847804202908 0.20975694070638962 0.20969610113035531 0.20963729698389588 0.2095805152688392 0.2095257434388727 0.20947296939618715 0.20942218148825825 0.2093733685047621 0.20928162466319103 0.20932651967462301 0.20902128890215399 0.20905276041534782 0.20908612541365154 0.209121391245363 0.2091585656852904 0.20919765692392894 0.2092386735695464 0.20883693778870996 0.20885347610926067 0.20887186405205044 0.20889210566233762 0.20891420538473077 0.20893816808212373 0.20896399903691223 0.20899170394401814 0.20880939585619729 0.20882224545240019 0.20879838617402702 0.20878921399717343 0.20878187730868669 0.20877637449538591 0.20877270434746192 0.20877086605817952 
</DataArray>
<DataArray type="Float64" Name="conductivity_richards" format="ascii">