<?xml version="1.0"?>
<VTKFile type="UnstructuredGrid" version="0.1" byte_order="LittleEndian">
<UnstructuredGrid>
<Piece NumberOfPoints="251" NumberOfCells="250">
<Points>
<DataArray type="Float64" NumberOfComponents="3" format="ascii">
0 0 0 0 0 -0.25 0 0 -0.00099999999999810158 0 0 -0.001999999999996204 0 0 -0.0029999999999943271 0 0 -0.0039999999999924488 0 0 -0.004999999999990571 0 0 -0.0059999999999886811 0 0 -0.0069999999999867156 0 0 -0.007999999999984719 0 0 -0.008999999999982581 0 0 -0.0099999999999804221 0 0 -0.010999999999978201 0 0 -0.011999999999975971 0 0 -0.01299999999997375 0 0 -0.01399999999997158 0 0 -0.014999999999969531 0 0 -0.01599999999996761 0 0 -0.0169999999999659 0 0 -0.01799999999996427 0 0 -0.018999999999962731 0 0 -0.019999999999961209 0 0 -0.020999999999959669 0 0 -0.02199999999995814 0 0 -0.022999999999956611 0 0 -0.023999999999955082 0 0 -0.024999999999953549 0 0 -0.02599999999995202 0 0 -0.02699999999995048 0 0 -0.027999999999948951 0 0 -0.028999999999947419 0 0 -0.02999999999994565 0 0 -0.03099999999994377 0 0 -0.031999999999941367 0 0 -0.032999999999938787 0 0 -0.033999999999935943 0 0 -0.034999999999933022 0 0 -0.035999999999930102 0 0 -0.036999999999927188 0 0 -0.037999999999924268 0 0 -0.038999999999921348 0 0 -0.039999999999918427 0 0 -0.040999999999915507 0 0 -0.041999999999912593 0 0 -0.042999999999909673 0 0 -0.043999999999906753 0 0 -0.044999999999903832 0 0 -0.045999999999900919 0 0 -0.046999999999897998 0 0 -0.047999999999895078 0 0 -0.048999999999892158 0 0 -0.049999999999889237 0 0 -0.050999999999886317 0 0 -0.051999999999883403 0 0 -0.052999999999880483 0 0 -0.053999999999877563 0 0 -0.054999999999874642 0 0 -0.055999999999871722 0 0 -0.056999999999868801 0 0 -0.057999999999865881 0 0 -0.058999999999862961 0 0 -0.059999999999860047 0 0 -0.060999999999857127 0 0 -0.061999999999854213 0 0 -0.062999999999851286 0 0 -0.063999999999848373 0 0 -0.064999999999845445 0 0 -0.065999999999842532 0 0 -0.066999999999839618 0 0 -0.067999999999836705 0 0 -0.068999999999833792 0 0 -0.069999999999830878 0 0 -0.070999999999827965 0 0 -0.071999999999825051 0 0 -0.072999999999822124 0 0 -0.07399999999981921 0 0 -0.074999999999816297 0 0 -0.075999999999813383 0 0 -0.07699999999981047 0 0 -0.077999999999807557 0 0 -0.078999999999804643 0 0 -0.07999999999980173 0 0 -0.080999999999798802 0 0 -0.081999999999795889 0 0 -0.082999999999792975 0 0 -0.083999999999790062 0 0 -0.084999999999787149 0 0 -0.085999999999784235 0 0 -0.086999999999781322 0 0 -0.087999999999778394 0 0 -0.088999999999775481 0 0 -0.089999999999772567 0 0 -0.090999999999769654 0 0 -0.091999999999766741 0 0 -0.092999999999763827 0 0 -0.093999999999760914 0 0 -0.094999999999758 0 0 -0.095999999999755073 0 0 -0.096999999999752159 0 0 -0.097999999999749246 0 0 -0.098999999999746333 0 0 -0.099999999999743419 0 0 -0.10099999999974051 0 0 -0.10199999999973761 0 0 -0.10299999999973471 0 0 -0.10399999999973179 0 0 -0.1049999999997288 0 0 -0.1059999999997259 0 0 -0.106999999999723 0 0 -0.1079999999997201 0 0 -0.1089999999997172 0 0 -0.1099999999997143 0 0 -0.1109999999997113 0 0 -0.1119999999997084 0 0 -0.1129999999997055 0 0 -0.1139999999997026 0 0 -0.1149999999996997 0 0 -0.1159999999996968 0 0 -0.11699999999969379 0 0 -0.11799999999969089 0 0 -0.11899999999968799 0 0 -0.11999999999968509 0 0 -0.1209999999996822 0 0 -0.1219999999996793 0 0 -0.1229999999996764 0 0 -0.1239999999996748 0 0 -0.12499999999967321 0 0 -0.12599999999967451 0 0 -0.12699999999967579 0 0 -0.1279999999996784 0 0 -0.12899999999968109 0 0 -0.1299999999996837 0 0 -0.13099999999968631 0 0 -0.13199999999968889 0 0 -0.13299999999969159 0 0 -0.1339999999996942 0 0 -0.13499999999969689 0 0 -0.1359999999996995 0 0 -0.13699999999970211 0 0 -0.1379999999997048 0 0 -0.13899999999970741 0 0 -0.13999999999971011 0 0 -0.14099999999971269 0 0 -0.1419999999997153 0 0 -0.14299999999971799 0 0 -0.1439999999997206 0 0 -0.14499999999972321 0 0 -0.14599999999972579 0 0 -0.14699999999972849 0 0 -0.1479999999997311 0 0 -0.14899999999973379 0 0 -0.1499999999997364 0 0 -0.15099999999973901 0 0 -0.1519999999997417 0 0 -0.15299999999974431 0 0 -0.15399999999974701 0 0 -0.15499999999974959 0 0 -0.1559999999997522 0 0 -0.15699999999975489 0 0 -0.1579999999997575 0 0 -0.15899999999976011 0 0 -0.1599999999997628 0 0 -0.16099999999976539 0 0 -0.161999999999768 0 0 -0.16299999999977069 0 0 -0.1639999999997733 0 0 -0.16499999999977599 0 0 -0.1659999999997786 0 0 -0.16699999999978121 0 0 -0.16799999999978391 0 0 -0.16899999999978649 0 0 -0.1699999999997891 0 0 -0.17099999999979171 0 0 -0.1719999999997944 0 0 -0.17299999999979701 0 0 -0.1739999999997997 0 0 -0.17499999999980231 0 0 -0.17599999999980501 0 0 -0.17699999999980759 0 0 -0.1779999999998102 0 0 -0.17899999999981281 0 0 -0.1799999999998155 0 0 -0.18099999999981811 0 0 -0.18199999999982069 0 0 -0.18299999999982339 0 0 -0.183999999999826 0 0 -0.18499999999982869 0 0 -0.1859999999998313 0 0 -0.18699999999983391 0 0 -0.1879999999998366 0 0 -0.18899999999983921 0 0 -0.18999999999984191 0 0 -0.19099999999984449 0 0 -0.1919999999998471 0 0 -0.19299999999984971 0 0 -0.1939999999998524 0 0 -0.19499999999985501 0 0 -0.1959999999998577 0 0 -0.19699999999986029 0 0 -0.19799999999986301 0 0 -0.19899999999986559 0 0 -0.1999999999998682 0 0 -0.20099999999987081 0 0 -0.2019999999998735 0 0 -0.20299999999987611 0 0 -0.20399999999987881 0 0 -0.20499999999988139 0 0 -0.205999999999884 0 0 -0.20699999999988669 0 0 -0.2079999999998893 0 0 -0.20899999999989191 0 0 -0.2099999999998946 0 0 -0.21099999999989719 0 0 -0.21199999999989991 0 0 -0.21299999999990249 0 0 -0.2139999999999051 0 0 -0.21499999999990771 0 0 -0.2159999999999104 0 0 -0.21699999999991301 0 0 -0.21799999999991571 0 0 -0.21899999999991829 0 0 -0.2199999999999209 0 0 -0.22099999999992359 0 0 -0.2219999999999262 0 0 -0.22299999999992881 0 0 -0.22399999999993139 0 0 -0.22499999999993411 0 0 -0.2259999999999367 0 0 -0.22699999999993939 0 0 -0.227999999999942 0 0 -0.22899999999994469 0 0 -0.2299999999999473 0 0 -0.23099999999994991 0 0 -0.23199999999995249 0 0 -0.23299999999995519 0 0 -0.2339999999999578 0 0 -0.23499999999996049 0 0 -0.2359999999999631 0 0 -0.23699999999996571 0 0 -0.2379999999999684 0 0 -0.23899999999997101 0 0 -0.2399999999999736 0 0 -0.24099999999997629 0 0 -0.2419999999999789 0 0 -0.24299999999998159 0 0 -0.2439999999999842 0 0 -0.24499999999998681 0 0 -0.24599999999998939 0 0 -0.24699999999999209 0 0 -0.2479999999999947 0 0 -0.24899999999999739 
</DataArray>
</Points>
<Cells>
<DataArray type="UInt32" Name="connectivity" format="ascii">
0 2 2 3 3 4 4 5 5 6 6 7 7 8 8 9 9 10 10 11 11 12 12 13 13 14 14 15 15 16 16 17 17 18 18 19 19 20 20 21 21 22 22 23 23 24 24 25 25 26 26 27 27 28 28 29 29 30 30 31 31 32 32 33 33 34 34 35 35 36 36 37 37 38 38 39 39 40 40 41 41 42 42 43 43 44 44 45 45 46 46 47 47 48 48 49 49 50 50 51 51 52 52 53 53 54 54 55 55 56 56 57 57 58 58 59 59 60 60 61 61 62 62 63 63 64 64 65 65 66 66 67 67 68 68 69 69 70 70 71 71 72 72 73 73 74 74 75 75 76 76 77 77 78 78 79 79 80 80 81 81 82 82 83 83 84 84 85 85 86 86 87 87 88 88 89 89 90 90 91 91 92 92 93 93 94 94 95 95 96 96 97 97 98 98 99 99 100 100 101 101 102 102 103 103 104 104 105 105 106 106 107 107 108 108 109 109 110 110 111 111 112 112 113 113 114 114 115 115 116 116 117 117 118 118 119 119 120 120 121 121 122 122 123 123 124 124 125 125 126 126 127 127 128 128 129 129 130 130 131 131 132 132 133 133 134 134 135 135 136 136 137 137 138 138 139 139 140 140 141 141 142 142 143 143 144 144 145 145 146 146 147 147 148 148 149 149 150 150 151 151 152 152 153 153 154 154 155 155 156 156 157 157 158 158 159 159 160 160 161 161 162 162 163 163 164 164 165 165 166 166 167 167 168 168 169 169 170 170 171 171 172 172 173 173 174 174 175 175 176 176 177 177 178 178 179 179 180 180 181 181 182 182 183 183 184 184 185 185 186 186 187 187 188 188 189 189 190 190 191 191 192 192 193 193 194 194 195 195 196 196 197 197 198 198 199 199 200 200 201 201 202 202 203 203 204 204 205 205 206 206 207 207 208 208 209 209 210 210 211 211 212 212 213 213 214 214 215 215 216 216 217 217 218 218 219 219 220 220 221 221 222 222 223 223 224 224 225 225 226 226 227 227 228 228 229 229 230 230 231 231 232 232 233 233 234 234 235 235 236 236 237 237 238 238 239 239 240 240 241 241 242 242 243 243 244 244 245 245 246 246 247 247 248 248 249 249 250 250 1 
</DataArray>
<DataArray type="UInt32" Name="offsets" format="ascii">
2 4 6 8 10 12 14 16 18 20 22 24 26 28 30 32 34 36 38 40 42 44 46 48 50 52 54 56 58 60 62 64 66 68 70 72 74 76 78 80 82 84 86 88 90 92 94 96 98 100 102 104 106 108 110 112 114 116 118 120 122 124 126 128 130 132 134 136 138 140 142 144 146 148 150 152 154 156 158 160 162 164 166 168 170 172 174 176 178 180 182 184 186 188 190 192 194 196 198 200 202 204 206 208 210 212 214 216 218 220 222 224 226 228 230 232 234 236 238 240 242 244 246 248 250 252 254 256 258 260 262 264 266 268 270 272 274 276 278 280 282 284 286 288 290 292 294 296 298 300 302 304 306 308 310 312 314 316 318 320 322 324 326 328 330 332 334 336 338 340 342 344 346 348 350 352 354 356 358 360 362 364 366 368 370 372 374 376 378 380 382 384 386 388 390 392 394 396 398 400 402 404 406 408 410 412 414 416 418 420 422 424 426 428 430 432 434 436 438 440 442 444 446 448 450 452 454 456 458 460 462 464 466 468 470 472 474 476 478 480 482 484 486 488 490 492 494 496 498 500 
</DataArray>
<DataArray type="UInt32" Name="types" format="ascii">
3 3 3 3 3 3 3 3 3 3 3 3 3 3 3 3 3 3 3 3 3 3 3 3 3 3 3 3 3 3 3 3 3 3 3 3 3 3 3 3 3 3 3 3 3 3 3 3 3 3 3 3 3 3 3 3 3 3 3 3 3 3 3 3 3 3 3 3 3 3 3 3 3 3 3 3 3 3 3 3 3 3 3 3 3 3 3 3 3 3 3 3 3 3 3 3 3 3 3 3 3 3 3 3 3 3 3 3 3 3 3 3 3 3 3 3 3 3 3 3 3 3 3 3 3 3 3 3 3 3 3 3 3 3 3 3 3 3 3 3 3 3 3 3 3 3 3 3 3 3 3 3 3 3 3 3 3 3 3 3 3 3 3 3 3 3 3 3 3 3 3 3 3 3 3 3 3 3 3 3 3 3 3 3 3 3 3 3 3 3 3 3 3 3 3 3 3 3 3 3 3 3 3 3 3 3 3 3 3 3 3 3 3 3 3 3 3 3 3 3 3 3 3 3 3 3 3 3 3 3 3 3 3 3 3 3 3 3 3 3 3 3 3 3 3 3 3 3 3 3 
</DataArray>
</Cells>
<CellData Scalars="pressure_p0,saturation,conductivity_out," Vectors="velocity_p0," Tensors="">
<DataArray type="Float64" Name="pressure_p0" format="ascii">
-6073.5144574365095 -6073.2738634360567 -6072.7936451020614 -6072.0737417973342 -6071.1140626194865 -6069.9144864697346 -6068.4748621446333 -6066.7950084507684 -6064.8747143423952 -6062.713739082038 -6060.3118124240546 -6057.6686348211897 -6054.7838776541039 -6051.6571834839187 -6048.2881663277658 -6044.6764119573745 -6040.8214782206978 -6036.7228953865906 -6032.3801665125802 -6027.7927678357091 -6022.9601491864923 -6017.8817344259969 -6012.5569219060653 -6006.9850849526838 -6001.1655723725326 -5995.0977089827147 -5988.7807961636909 -5982.2141124354266 -5975.3969140567606 -5968.328435648029 -5961.0078908369178 -5953.4344729275854 -5945.6073555930452 -5937.5256935908037 -5929.1886235017882 -5920.5952644925201 -5911.7447191005749 -5902.636074043282 -5893.2684010496723 -5883.6407577156679 -5873.7521883824847 -5863.6017250382174 -5853.1883882426064 -5842.5111880749319 -5831.5691251049993 -5820.3611913871964 -5808.8863714775489 -5797.1436434737379 -5785.131980078002 -5772.8503496828835 -5760.2977174797179 -5747.4730465897956 -5734.3752992181198 -5721.0034378296441 -5707.356426347882 -5693.4332313758041 -5679.2328234388606 -5664.7541782500202 -5649.9962779966881 -5634.9581126493085 -5619.6386812915443 -5604.0369934718092 -5588.1520705759958 -5571.9829472211859 -5555.5286726701343 -5538.7883122663043 -5521.7609488892158 -5504.4456844298456 -5486.8416412858278 -5468.9479638761677 -5450.7638201751624 -5432.28840326524 -5413.5209329083827 -5394.4606571357699 -5375.1068538553009 -5355.4588324766228 -5335.515935553256 -5315.2775404414042 -5294.7430609750227 -5273.9119491566835 -5252.7836968637857 -5231.3578375695815 -5209.6339480785518 -5187.6116502755513 -5165.2906128882059 -5142.6705532619508 -5119.75123914713 -5096.5324904975205 -5073.0141812796464 -5049.1962412921894 -5025.0786579948135 -5000.6614783456698 -4975.9448106468426 -4950.9288263969502 -4925.6137621500893 -4899.9999213803258 -4874.087676350824 -4847.8774699867663 -4821.3698177511205 -4794.5653095223151 -4767.4646114728475 -4740.0684679478018 -4712.377703342253 -4684.3932239764727 -4656.1160199678197 -4627.5471670981915 -4598.687828675862 -4569.5392573904783 -4540.1027971599842 -4510.3798849681953 -4480.3720526916868 -4450.0809289146564 -4419.5082407303671 -4388.6558155277417 -4357.5255827616174 -4326.1195757051755 -4294.4399331829827 -4262.4889012830527 -4230.2688350462959 -4197.7822001316845 -4165.0315744554046 -4132.0196498022369 -4098.749233407364 -4065.2232495067192 -4031.4447408540782 -3997.4168702027782 -3963.142921750275 -3928.6263025433395 -3893.8705438418056 -3858.8793024388988 -3823.656361935743 -3788.2056339679693 -3752.5311593820729 -3716.6371093591792 -3680.5277864838272 -3644.2076257553244 -3607.6811955391768 -3570.9531984560344 -3534.0284722055453 -3496.9119903224473 -3459.6088628621765 -3422.1243370132074 -3384.4637976332888 -3346.6327677066929 -3308.6369087194944 -3270.4820209498748 -3232.1740436703794 -3193.7190552589987 -3155.1232732158451 -3116.3930540821907 -3077.5348932585325 -3038.5554247182881 -2999.4614206137003 -2960.2597907704003 -2920.9575820670752 -2881.5619776965787 -2842.080296304789 -2802.5199910034444 -2762.8886482530897 -2723.1939866122484 -2683.4438553488635 -2643.6462329099277 -2603.8092252452252 -2563.9410639810385 -2524.0501044395251 -2484.1448234995246 -2444.2338172943946 -2404.3257987424522 -2364.4295949055522 -2324.5541441712053 -2284.7084932536463 -2244.901794009169 -2205.1433000609854 -2165.4423632288017 -2125.8084297582714 -2086.2510363454076 -2046.7798059509878 -2007.4044433999452 -1968.1347307606707 -1928.9805224991251 -1889.9517404026074 -1851.0583682679774 -1812.3104463491006 -1773.7180655582774 -1735.291361416329 -1697.0405077460478 -1658.9757101036662 -1621.1071989429902 -1583.4452225068571 -1546.0000394405251 -1508.7819111216572 -1471.8010937015374 -1435.0678298521825 -1398.5923402140481 -1362.3848145390384 -1326.4554025235648 -1290.8142043264688 -1255.4712607666502 -1220.4365431953083 -1185.7199430377743 -1151.3312609999609 -1117.2801959345684 -1083.5763333622185 -1050.2291336427818 -1017.2479197922506 -984.64186494054525 -952.41997942571072 -920.5910975200087 -889.1638637833654 -858.146719039647 -827.54788597113895 -797.37535432640379 -767.63686573649159 -738.33989813405083 -709.4916497693614 -681.09902281657151 -653.16860656237327 -625.70666016799646 -598.71909499359435 -572.21145647170442 -546.18890551334903 -520.6561994263086 -495.61767231978314 -471.07721496285546 -447.03825405527402 -423.50373085752665 -400.47607911214538 -377.95720216858325 -355.94844919827653 -334.45059035262909 -313.46379067178543 -292.98758249214995 -273.02083602002472 -253.5617276292005 -234.60770528980203 -216.15545032606357 -198.20083440425543 -180.73887022523132 -163.76365376886054 -147.26829499291375 -131.24483242452786 -115.68412473246104 -100.57570843697094 -85.90760399069643 -71.666039456634024 -57.835034426898979 -44.395725883914771 -31.325152148878601 -18.593609135349979 -6.1541726541259925 
</DataArray>
<DataArray type="Float64" Name="velocity_p0" NumberOfComponents="3" format="ascii">
0 0 1.8089124045284586e-09 0 0 5.4271185658788776e-09 0 0 9.0464683941146819e-09 0 0 1.2667723762541598e-08 0 0 1.6291646413884099e-08 0 0 1.9918997908125275e-08 0 0 2.3550539570051875e-08 0 0 2.7187032437013729e-08 0 0 3.0829237206968421e-08 0 0 3.4477914186403257e-08 0 0 3.8133823238650404e-08 0 0 4.1797723732068252e-08 0 0 4.5470374488761691e-08 0 0 4.9152533733168257e-08 0 0 5.2844959041160485e-08 0 0 5.6548407288996265e-08 0 0 6.0263634603125349e-08 0 0 6.3991396309749825e-08 0 0 6.7732446884699143e-08 0 0 7.1487539904045894e-08 0 0 7.5257427994657354e-08 0 0 7.9042862785208069e-08 0 0 8.2844594857458025e-08 0 0 8.6663373698325371e-08 0 0 9.0499947651582797e-08 0 0 9.435506387097308e-08 0 0 9.8229468272627377e-08 0 0 1.021239054890414e-07 0 0 1.0603911882267639e-07 0 0 1.0997585020017952e-07 0 0 1.1393484012763518e-07 0 0 1.1791682764559993e-07 0 0 1.2192255028503062e-07 0 0 1.2595274402380908e-07 0 0 1.3000814324338925e-07 0 0 1.3408948068651271e-07 0 0 1.3819748741500832e-07 0 0 1.4233289276852314e-07 0 0 1.4649642432375822e-07 0 0 1.5068880785375505e-07 0 0 1.5491076728894616e-07 0 0 1.5916302467738963e-07 0 0 1.6344630014661931e-07 0 0 1.6776131186599352e-07 0 0 1.7210877600909838e-07 0 0 1.7648940671733021e-07 0 0 1.8090391606369497e-07 0 0 1.8535301401794636e-07 0 0 1.8983740841117328e-07 0 0 1.943578049022491e-07 0 0 1.9891490694407387e-07 0 0 2.0350941575087567e-07 0 0 2.0814203026569726e-07 0 0 2.1281344712932697e-07 0 0 2.1752436064878451e-07 0 0 2.2227546276732016e-07 0 0 2.2706744303451593e-07 0 0 2.3190098857706781e-07 0 0 2.367767840702272e-07 0 0 2.4169551171008855e-07 0 0 2.4665785118573193e-07 0 0 2.5166447965269083e-07 0 0 2.567160717063786e-07 0 0 2.6181329935657497e-07 0 0 2.6695683200167363e-07 0 0 2.7214733640434916e-07 0 0 2.7738547666676795e-07 0 0 2.8267191420701955e-07 0 0 2.8800730773534876e-07 0 0 2.9339231323116565e-07 0 0 2.9882758392050893e-07 0 0 3.0431377025308383e-07 0 0 3.0985151988039772e-07 0 0 3.1544147763411267e-07 0 0 3.2108428550408799e-07 0 0 3.2678058261698246e-07 0 0 3.3253100521493378e-07 0 0 3.3833618663439235e-07 0 0 3.4419675728473924e-07 0 0 3.501133446272305e-07 0 0 3.5608657315365195e-07 0 0 3.621170643650296e-07 0 0 3.6820543674982157e-07 0 0 3.7435230576234359e-07 0 0 3.8055828380048053e-07 0 0 3.8682398018324309e-07 0 0 3.9315000112785481e-07 0 0 3.995369497260013e-07 0 0 4.0598542591984472e-07 0 0 4.1249602647713181e-07 0 0 4.1906934496545706e-07 0 0 4.2570597172576463e-07 0 0 4.324064938445787e-07 0 0 4.391714951254801e-07 0 0 4.4600155605901361e-07 0 0 4.5289725379130392e-07 0 0 4.5985916209120376e-07 0 0 4.668878513161549e-07 0 0 4.7398388837547063e-07 0 0 4.8114783669247371e-07 0 0 4.8838025616430767e-07 0 0 4.9568170311932427e-07 0 0 5.0305273027221241e-07 0 0 5.1049388667644419e-07 0 0 5.1800571767416998e-07 0 0 5.255887648426505e-07 0 0 5.3324356593785414e-07 0 0 5.409706548345022e-07 0 0 5.4877056146231014e-07 0 0 5.566438117382971e-07 0 0 5.6459092749528142e-07 0 0 5.7261242640530569e-07 0 0 5.8070882189854687e-07 0 0 5.8888062307727767e-07 0 0 5.9712833462415014e-07 0 0 6.0545245670497756e-07 0 0 6.1385348486505378e-07 0 0 6.2233190991928738e-07 0 0 6.3088821783536327e-07 0 0 6.3952288960918556e-07 0 0 6.4823640113309715e-07 0 0 6.5702922305549468e-07 0 0 6.6590182063162578e-07 0 0 6.7485465356528398e-07 0 0 6.8388817584036925e-07 0 0 6.9300283554248626e-07 0 0 7.0219907466875014e-07 0 0 7.1147732892663076e-07 0 0 7.2083802751965009e-07 0 0 7.3028159292031501e-07 0 0 7.3980844062910345e-07 0 0 7.4941897891856593e-07 0 0 7.5911360856170914e-07 0 0 7.6889272254384536e-07 0 0 7.7875670575699391e-07 0 0 7.8870593467568845e-07 0 0 7.9874077701286747e-07 0 0 8.0886159135517723e-07 0 0 8.1906872677630567e-07 0 0 8.2936252242632889e-07 0 0 8.3974330709726697e-07 0 0 8.5021139876144681e-07 0 0 8.6076710408292312e-07 0 0 8.7141071789878121e-07 0 0 8.8214252266985872e-07 0 0 8.9296278789816321e-07 0 0 9.0387176950944153e-07 0 0 9.1486970919842746e-07 0 0 9.2595683373532086e-07 0 0 9.3713335422999726e-07 0 0 9.4839946535283037e-07 0 0 9.5975534450803248e-07 0 0 9.7120115095779929e-07 0 0 9.827370248936623e-07 0 0 9.9436308645224115e-07 0 0 1.0060794346716138e-06 0 0 1.0178861463848587e-06 0 0 1.0297832750471656e-06 0 0 1.0417708494918701e-06 0 0 1.0538488726117031e-06 0 0 1.0660173199599504e-06 0 0 1.0782761382674553e-06 0 0 1.0906252438689539e-06 0 0 1.1030645210345865e-06 0 0 1.1155938201992408e-06 0 0 1.1282129560844486e-06 0 0 1.1409217057054463e-06 0 0 1.1537198062561238e-06 0 0 1.166606952864452e-06 0 0 1.1795827962101613e-06 0 0 1.1926469399954348e-06 0 0 1.2057989382597657e-06 0 0 1.2190382925286634e-06 0 0 1.2323644487856434e-06 0 0 1.2457767942560101e-06 0 0 1.2592746539907857e-06 0 0 1.2728572872366973e-06 0 0 1.2865238835796117e-06 0 0 1.3002735588460378e-06 0 0 1.3141053507469835e-06 0 0 1.328018214247253e-06 0 0 1.342011016642593e-06 0 0 1.3560825323252405e-06 0 0 1.3702314372177652e-06 0 0 1.3844563028528552e-06 0 0 1.3987555900768298e-06 0 0 1.4131276423512167e-06 0 0 1.4275706786267881e-06 0 0 1.442082785761741e-06 0 0 1.456661910454289e-06 0 0 1.4713058506582882e-06 0 0 1.4860122464481325e-06 0 0 1.5007785702972989e-06 0 0 1.5156021167331218e-06 0 0 1.5304799913274589e-06 0 0 1.5454090989818436e-06 0 0 1.5603861314619458e-06 0 0 1.5754075541354171e-06 0 0 1.590469591863643e-06 0 0 1.6055682139964311e-06 0 0 1.6206991184164001e-06 0 0 1.6358577145773533e-06 0 0 1.6510391054799388e-06 0 0 1.6662380685254379e-06 0 0 1.6814490351879664e-06 0 0 1.6966660694454727e-06 0 0 1.711882844907587e-06 0 0 1.7270926205827441e-06 0 0 1.7422882152261311e-06 0 0 1.7574619802152544e-06 0 0 1.7726057709041566e-06 0 0 1.7877109164153388e-06 0 0 1.8027681878378141e-06 0 0 1.8177677648135706e-06 0 0 1.8326992005112965e-06 0 0 1.8475513850089697e-06 0 0 1.8623125071342961e-06 0 0 1.8769700148475488e-06 0 0 1.8915105742955383e-06 0 0 1.9059200277190994e-06 0 0 1.9201833504645838e-06 0 0 1.9342846074327297e-06 0 0 1.9482069093991327e-06 0 0 1.9619323697658082e-06 0 0 1.9754420624544036e-06 0 0 1.9887159818375059e-06 0 0 2.0017330058296188e-06 0 0 2.0144708635351603e-06 0 0 2.0269061091858535e-06 0 0 2.0390141045101711e-06 0 0 2.0507690121791794e-06 0 0 2.0621438035903776e-06 0 0 2.0731102850127818e-06 0 0 2.0836391470661377e-06 0 0 2.0937000436989616e-06 0 0 2.1032617083487225e-06 0 0 2.1122921169320952e-06 0 0 2.1207587099112068e-06 0 0 2.128628689207831e-06 0 0 2.1358694106838207e-06 0 0 2.1424489001232394e-06 0 0 2.1483365316937271e-06 0 0 2.1535039257266996e-06 0 0 2.1579261535284613e-06 0 0 2.1615833947107918e-06 0 0 2.1644633119323781e-06 0 0 2.1665646892376188e-06 0 0 2.1679036809368005e-06 0 0 2.168527158850561e-06 0 0 2.1685711739884978e-06 
</DataArray>
<DataArray type="Float64" Name="saturation" format="ascii">
0.49332610615908312 0.49332983687668053 0.49333728381460085 0.4933484489879868 0.49336333541903771 0.49338194713766026 0.49340428918233603 0.49343036760120806 0.49346018945338649 0.49349376281047463 0.4935310967583173 0.49357220139897362 0.4936170878529148 0.49366576826145075 0.49371825578938677 0.49377456462791369 0.49383470999773349 0.49389870815242487 0.4939665763820501 0.49403833301700917 0.49411399743214268 0.49419359005108898 0.49427713235089987 0.49436464686691811 0.49445615719792341 0.49455168801154992 0.49465126504998236 0.49475491513593572 0.49486266617892294 0.4949745471818196 0.495090588247729 0.49521082058715671 0.49533527652549958 0.49546398951085829 0.49559699412217967 0.49573432607773671 0.49587602224395555 0.49602212064459705 0.49617266047030151 0.49632768208850664 0.49648722705374754 0.49665133811834905 0.49682005924352024 0.49699343561086218 0.49717151363429923 0.49735434097244624 0.49754196654142263 0.49773444052812554 0.49793181440397549 0.49813414093914693 0.49834147421729702 0.49855386965080761 0.49877138399655341 0.49899407537221319 0.49922200327313759 0.4994552285897913 0.49969381362578447 0.49993782211651205 0.50018731924841742 0.50044237167889971 0.50070304755688333 0.50096941654406879 0.50124154983688607 0.50151952018917012 0.50180340193558215 0.50209327101579659 0.50238920499947881 0.50269128311207734 0.50299958626145358 0.50331419706537783 0.50363519987991445 0.50396268082872731 0.50429672783332991 0.50463743064431332 0.5049848808735804 0.50533917202761724 0.5057003995418361 0.50606866081602231 0.5064440552509204 0.50682668428599498 0.50721665143840577 0.5076140623432337 0.50801902479499716 0.50843164879050495 0.50885204657308192 0.50928033267821937 0.50971662398069006 0.51016103974318106 0.51061370166649089 0.51107473394134284 0.51154426330187119 0.5120224190808309 0.51250933326659331 0.51300514056198288 0.51350997844502233 0.51402398723164522 0.5145473101404463 0.51508009335953808 0.51562248611558559 0.51617464074509323 0.51673671276802291 0.51730886096382411 0.5178912474499574 0.51848403776300178 0.51908740094243422 0.51970150961717543 0.52032654009500123 0.52096267245491956 0.52161009064261932 0.52226898256910204 0.5229395402126078 0.5236219597239582 0.52431644153543755 0.52502319047333934 0.52574241587431758 0.5264743317056757 0.52721915668974217 0.52797711443248319 0.52874843355650714 0.5295333478386286 0.53033209635215783 0.53114492361409571 0.53197207973741834 0.53281382058864313 0.53367040795087672 0.53454210969255378 0.53542919994208327 0.53633195926862876 0.53725067486926115 0.53818564076272468 0.53913715799007678 0.54010553482246548 0.54109108697632324 0.54209413783626748 0.54311501868600831 0.54415406894757845 0.54521163642921355 0.54628807758222131 0.54738375776719828 0.54849905152996214 0.54963434288758606 0.55079002562493606 0.55196650360212929 0.55316419107335035 0.55438351301747546 0.55562490548097909 0.55688881593361206 0.55817570363736091 0.55948604002922031 0.56082030911832914 0.56217900789804331 0.56356264677354051 0.56497175000557376 0.5664068561710156 0.56786851864085586 0.56935730607634194 0.57087380294397461 0.57241861005009365 0.57399234509581687 0.57559564325311841 0.57722915776285222 0.57889356055556029 0.58058954289591691 0.58231781605169108 0.58407911198812479 0.58587418408864722 0.58770380790286159 0.58956878192275286 0.59146992838808155 0.59340809412193063 0.59538415139738077 0.59739899883628256 0.59945356234108549 0.60154879606067146 0.6036856833911064 0.60586523801219228 0.60808850496065259 0.61035656174071284 0.61267051947276563 0.61503152408070028 0.61744075751835437 0.61989943903539257 0.62240882648273499 0.62497021765743299 0.62758495168663186 0.63025441044994956 0.63298002003922593 0.63576325225417518 0.63860562613195548 0.6415087095080847 0.64447412060542875 0.64750352964718538 0.65059866048883874 0.65376129226296231 0.65699326102947553 0.66029646142247556 0.66367284828304807 0.66712443826546941 0.67065331140190354 0.67426161260801643 0.67795155310883892 0.68172541176060397 0.68558553624013407 0.68953434406852265 0.69357432343026715 0.69770803374252588 0.70193810592165429 0.70626724228544302 0.71069821601935257 0.71523387012324979 0.71987711574144964 0.72463092976291343 0.72949835155984388 0.73448247871120942 0.73958646153235241 0.74481349620211024 0.75016681624403381 0.75564968207730665 0.76126536830469216 0.76701714834779333 0.77290827597230671 0.77894196316552322 0.78512135373229441 0.79144949186039915 0.79792928476716929 0.8045634583703416 0.81135450471954129 0.81830461967002222 0.82541562896304466 0.83268890047784616 0.84012523991096011 0.84772476648019879 0.85548676438545312 0.86340950460105781 0.87149002999478631 0.87972389456393563 0.88810484442549664 0.89662442356182781 0.9052714802992643 0.9140315394870151 0.92288598741050953 0.9318109859473882 0.9407759777566912 0.94974153992577603 0.95865612852205373 0.96745076762988091 0.97602946537549906 0.98424911766272927 0.99186489154222468 0.99774114917221834 
</DataArray>
<DataArray type="Float64" Name="conductivity_out" format="ascii">