<?xml version="1.0"?>
<VTKFile type="UnstructuredGrid" version="0.1" byte_order="LittleEndian">
<UnstructuredGrid>
<Piece NumberOfPoints="251" NumberOfCells="250">
<Points>
<DataArray type="Float64" NumberOfComponents="3" format="ascii">
0 0 -0.17099999999979171 0 0 -0.1559999999997522 0 0 -0.15699999999975489 0 0 -0.1579999999997575 0 0 -0.15899999999976011 0 0 -0.1599999999997628 0 0 -0.16099999999976539 0 0 -0.161999999999768 0 0 -0.16299999999977069 0 0 -0.1639999999997733 0 0 -0.16499999999977599 0 0 -0.1659999999997786 0 0 -0.16699999999978121 0 0 -0.16799999999978391 0 0 -0.16899999999978649 0 0 -0.1699999999997891 0 0 -0.15499999999974959 0 0 -0.1719999999997944 0 0 -0.17299999999979701 0 0 -0.1739999999997997 0 0 -0.17499999999980231 0 0 -0.17599999999980501 0 0 -0.17699999999980759 0 0 -0.1779999999998102 0 0 -0.17899999999981281 0 0 -0.1799999999998155 0 0 -0.18099999999981811 0 0 -0.18199999999982069 0 0 -0.18299999999982339 0 0 -0.183999999999826 0 0 -0.18499999999982869 0 0 -0.1859999999998313 0 0 -0.13999999999971011 0 0 -0.12499999999967321 0 0 -0.12599999999967451 0 0 -0.12699999999967579 0 0 -0.1279999999996784 0 0 -0.12899999999968109 0 0 -0.1299999999996837 0 0 -0.13099999999968631 0 0 -0.13199999999968889 0 0 -0.13299999999969159 0 0 -0.1339999999996942 0 0 -0.13499999999969689 0 0 -0.1359999999996995 0 0 -0.13699999999970211 0 0 -0.1379999999997048 0 0 -0.13899999999970741 0 0 -0.18699999999983391 0 0 -0.14099999999971269 0 0 -0.1419999999997153 0 0 -0.14299999999971799 0 0 -0.1439999999997206 0 0 -0.14499999999972321 0 0 -0.14599999999972579 0 0 -0.14699999999972849 0 0 -0.1479999999997311 0 0 -0.14899999999973379 0 0 -0.1499999999997364 0 0 -0.15099999999973901 0 0 -0.1519999999997417 0 0 -0.15299999999974431 0 0 -0.15399999999974701 0 0 -0.2339999999999578 0 0 -0.21899999999991829 0 0 -0.2199999999999209 0 0 -0.22099999999992359 0 0 -0.2219999999999262 0 0 -0.22299999999992881 0 0 -0.22399999999993139 0 0 -0.22499999999993411 0 0 -0.2259999999999367 0 0 -0.22699999999993939 0 0 -0.227999999999942 0 0 -0.22899999999994469 0 0 -0.2299999999999473 0 0 -0.23099999999994991 0 0 -0.23199999999995249 0 0 -0.23299999999995519 0 0 -0.21799999999991571 0 0 -0.23499999999996049 0 0 -0.2359999999999631 0 0 -0.23699999999996571 0 0 -0.2379999999999684 0 0 -0.23899999999997101 0 0 -0.2399999999999736 0 0 -0.24099999999997629 0 0 -0.2419999999999789 0 0 -0.24299999999998159 0 0 -0.2439999999999842 0 0 -0.24499999999998681 0 0 -0.24599999999998939 0 0 -0.24699999999999209 0 0 -0.2479999999999947 0 0 -0.24899999999999739 0 0 -0.20299999999987611 0 0 -0.1879999999998366 0 0 -0.18899999999983921 0 0 -0.18999999999984191 0 0 -0.19099999999984449 0 0 -0.1919999999998471 0 0 -0.19299999999984971 0 0 -0.1939999999998524 0 0 -0.19499999999985501 0 0 -0.1959999999998577 0 0 -0.19699999999986029 0 0 -0.19799999999986301 0 0 -0.19899999999986559 0 0 -0.1999999999998682 0 0 -0.20099999999987081 0 0 -0.2019999999998735 0 0 -0.1239999999996748 0 0 -0.20399999999987881 0 0 -0.20499999999988139 0 0 -0.205999999999884 0 0 -0.20699999999988669 0 0 -0.2079999999998893 0 0 -0.20899999999989191 0 0 -0.2099999999998946 0 0 -0.21099999999989719 0 0 -0.21199999999989991 0 0 -0.21299999999990249 0 0 -0.2139999999999051 0 0 -0.21499999999990771 0 0 -0.2159999999999104 0 0 -0.21699999999991301 0 0 -0.045999999999900919 0 0 -0.03099999999994377 0 0 -0.031999999999941367 0 0 -0.032999999999938787 0 0 -0.033999999999935943 0 0 -0.034999999999933022 0 0 -0.035999999999930102 0 0 -0.036999999999927188 0 0 -0.037999999999924268 0 0 -0.038999999999921348 0 0 -0.039999999999918427 0 0 -0.040999999999915507 0 0 -0.041999999999912593 0 0 -0.042999999999909673 0 0 -0.043999999999906753 0 0 -0.044999999999903832 0 0 -0.02999999999994565 0 0 -0.046999999999897998 0 0 -0.047999999999895078 0 0 -0.048999999999892158 0 0 -0.049999999999889237 0 0 -0.050999999999886317 0 0 -0.051999999999883403 0 0 -0.052999999999880483 0 0 -0.053999999999877563 0 0 -0.054999999999874642 0 0 -0.055999999999871722 0 0 -0.056999999999868801 0 0 -0.057999999999865881 0 0 -0.058999999999862961 0 0 -0.059999999999860047 0 0 -0.060999999999857127 0 0 -0.014999999999969531 0 0 -0.25 0 0 -0.00099999999999810158 0 0 -0.001999999999996204 0 0 -0.0029999999999943271 0 0 -0.0039999999999924488 0 0 -0.004999999999990571 0 0 -0.0059999999999886811 0 0 -0.0069999999999867156 0 0 -0.007999999999984719 0 0 -0.008999999999982581 0 0 -0.0099999999999804221 0 0 -0.010999999999978201 0 0 -0.011999999999975971 0 0 -0.01299999999997375 0 0 -0.01399999999997158 0 0 -0.061999999999854213 0 0 -0.01599999999996761 0 0 -0.0169999999999659 0 0 -0.01799999999996427 0 0 -0.018999999999962731 0 0 -0.019999999999961209 0 0 -0.020999999999959669 0 0 -0.02199999999995814 0 0 -0.022999999999956611 0 0 -0.023999999999955082 0 0 -0.024999999999953549 0 0 -0.02599999999995202 0 0 -0.02699999999995048 0 0 -0.027999999999948951 0 0 -0.028999999999947419 0 0 -0.1089999999997172 0 0 -0.093999999999760914 0 0 -0.094999999999758 0 0 -0.095999999999755073 0 0 -0.096999999999752159 0 0 -0.097999999999749246 0 0 -0.098999999999746333 0 0 -0.099999999999743419 0 0 -0.10099999999974051 0 0 -0.10199999999973761 0 0 -0.10299999999973471 0 0 -0.10399999999973179 0 0 -0.1049999999997288 0 0 -0.1059999999997259 0 0 -0.106999999999723 0 0 -0.1079999999997201 0 0 -0.092999999999763827 0 0 -0.1099999999997143 0 0 -0.1109999999997113 0 0 -0.1119999999997084 0 0 -0.1129999999997055 0 0 -0.1139999999997026 0 0 -0.1149999999996997 0 0 -0.1159999999996968 0 0 -0.11699999999969379 0 0 -0.11799999999969089 0 0 -0.11899999999968799 0 0 -0.11999999999968509 0 0 -0.1209999999996822 0 0 -0.1219999999996793 0 0 -0.1229999999996764 0 0 -0.077999999999807557 0 0 -0.062999999999851286 0 0 -0.063999999999848373 0 0 -0.064999999999845445 0 0 -0.065999999999842532 0 0 -0.066999999999839618 0 0 -0.067999999999836705 0 0 -0.068999999999833792 0 0 -0.069999999999830878 0 0 -0.070999999999827965 0 0 -0.071999999999825051 0 0 -0.072999999999822124 0 0 -0.07399999999981921 0 0 -0.074999999999816297 0 0 -0.075999999999813383 0 0 -0.07699999999981047 0 0 0 0 0 -0.078999999999804643 0 0 -0.07999999999980173 0 0 -0.080999999999798802 0 0 -0.081999999999795889 0 0 -0.082999999999792975 0 0 -0.083999999999790062 0 0 -0.084999999999787149 0 0 -0.085999999999784235 0 0 -0.086999999999781322 0 0 -0.087999999999778394 0 0 -0.088999999999775481 0 0 -0.089999999999772567 0 0 -0.090999999999769654 0 0 -0.091999999999766741 
</DataArray>
</Points>
<Cells>
<DataArray type="UInt32" Name="connectivity" format="ascii">
17 18 2 3 3 4 4 5 5 6 6 7 7 8 8 9 9 10 10 11 11 12 12 13 13 14 14 15 15 0 0 17 1 2 18 19 19 20 20 21 21 22 22 23 23 24 24 25 25 26 26 27 27 28 28 29 29 30 30 31 31 48 48 96 49 50 34 35 35 36 36 37 37 38 38 39 39 40 40 41 41 42 42 43 43 44 44 45 45 46 46 47 47 32 32 49 96 97 50 51 51 52 52 53 53 54 54 55 55 56 56 57 57 58 58 59 59 60 60 61 61 62 62 16 16 1 80 81 65 66 66 67 67 68 68 69 69 70 70 71 71 72 72 73 73 74 74 75 75 76 76 77 77 78 78 63 63 80 64 65 81 82 82 83 83 84 84 85 85 86 86 87 87 88 88 89 89 90 90 91 91 92 92 93 93 94 94 159 112 113 97 98 98 99 99 100 100 101 101 102 102 103 103 104 104 105 105 106 106 107 107 108 108 109 109 110 110 95 95 112 33 34 113 114 114 115 115 116 116 117 117 118 118 119 119 120 120 121 121 122 122 123 123 124 124 125 125 79 79 64 143 144 128 129 129 130 130 131 131 132 132 133 133 134 134 135 135 136 136 137 137 138 138 139 139 140 140 141 141 126 126 143 127 128 144 145 145 146 146 147 147 148 148 149 149 150 150 151 151 152 152 153 153 154 154 155 155 156 156 157 157 174 174 221 175 176 160 161 161 162 162 163 163 164 164 165 165 166 166 167 167 168 168 169 169 170 170 171 171 172 172 173 173 158 158 175 221 222 176 177 177 178 178 179 179 180 180 181 181 182 182 183 183 184 184 185 185 186 186 187 187 188 188 142 142 127 206 207 191 192 192 193 193 194 194 195 195 196 196 197 197 198 198 199 199 200 200 201 201 202 202 203 203 204 204 189 189 206 190 191 207 208 208 209 209 210 210 211 211 212 212 213 213 214 214 215 215 216 216 217 217 218 218 219 219 111 111 33 237 238 222 223 223 224 224 225 225 226 226 227 227 228 228 229 229 230 230 231 231 232 232 233 233 234 234 235 235 220 220 237 236 160 238 239 239 240 240 241 241 242 242 243 243 244 244 245 245 246 246 247 247 248 248 249 249 250 250 205 205 190 
</DataArray>
<DataArray type="UInt32" Name="offsets" format="ascii">
2 4 6 8 10 12 14 16 18 20 22 24 26 28 30 32 34 36 38 40 42 44 46 48 50 52 54 56 58 60 62 64 66 68 70 72 74 76 78 80 82 84 86 88 90 92 94 96 98 100 102 104 106 108 110 112 114 116 118 120 122 124 126 128 130 132 134 136 138 140 142 144 146 148 150 152 154 156 158 160 162 164 166 168 170 172 174 176 178 180 182 184 186 188 190 192 194 196 198 200 202 204 206 208 210 212 214 216 218 220 222 224 226 228 230 232 234 236 238 240 242 244 246 248 250 252 254 256 258 260 262 264 266 268 270 272 274 276 278 280 282 284 286 288 290 292 294 296 298 300 302 304 306 308 310 312 314 316 318 320 322 324 326 328 330 332 334 336 338 340 342 344 346 348 350 352 354 356 358 360 362 364 366 368 370 372 374 376 378 380 382 384 386 388 390 392 394 396 398 400 402 404 406 408 410 412 414 416 418 420 422 424 426 428 430 432 434 436 438 440 442 444 446 448 450 452 454 456 458 460 462 464 466 468 470 472 474 476 478 480 482 484 486 488 490 492 494 496 498 500 
</DataArray>
<DataArray type="UInt32" Name="types" format="ascii">
3 3 3 3 3 3 3 3 3 3 3 3 3 3 3 3 3 3 3 3 3 3 3 3 3 3 3 3 3 3 3 3 3 3 3 3 3 3 3 3 3 3 3 3 3 3 3 3 3 3 3 3 3 3 3 3 3 3 3 3 3 3 3 3 3 3 3 3 3 3 3 3 3 3 3 3 3 3 3 3 3 3 3 3 3 3 3 3 3 3 3 3 3 3 3 3 3 3 3 3 3 3 3 3 3 3 3 3 3 3 3 3 3 3 3 3 3 3 3 3 3 3 3 3 3 3 3 3 3 3 3 3 3 3 3 3 3 3 3 3 3 3 3 3 3 3 3 3 3 3 3 3 3 3 3 3 3 3 3 3 3 3 3 3 3 3 3 3 3 3 3 3 3 3 3 3 3 3 3 3 3 3 3 3 3 3 3 3 3 3 3 3 3 3 3 3 3 3 3 3 3 3 3 3 3 3 3 3 3 3 3 3 3 3 3 3 3 3 3 3 3 3 3 3 3 3 3 3 3 3 3 3 3 3 3 3 3 3 3 3 3 3 3 3 3 3 3 3 3 3 
</DataArray>
</Cells>
<CellData Scalars="pressure_p0,water_content,conductivity_richards," Vectors="velocity_p0," Tensors="">
<DataArray type="Float64" Name="pressure_p0" format="ascii">
-3327.8337934987399 -4067.0374379558007 -4020.6381587715327 -3973.7877409731891 -3926.493912084371 -3878.7648547723434 -3830.6092132944686 -3782.0360996620375 -3733.0550995003136 -3683.6762775829866 -3633.9101830184254 -3583.7678540644056 -3533.2608225472673 -3482.4011178606074 -3431.2012705179022 -3379.6743152326435 -4112.9782994374436 -3275.6937556431358 -3223.2687623217626 -3170.5738854291117 -3117.6247083908288 -3064.4373258078949 -3011.0283424200688 -2957.4148713554082 -2903.614531631762 -2849.6454448752379 -2795.5262312197628 -2741.2760043509625 -2686.9143656566066 -2632.4613974450349 -2577.9376551920259 -2523.3641587756765 -4743.4175210139892 -5258.1389855718862 -5227.4308380224138 -5196.2150773060512 -5164.489286940031 -5132.2512520154878 -5099.4989672143984 -5066.2306449151574 -5032.4447233815599 -4998.1398750295884 -4963.3150147660399 -4927.9693083927141 -4892.1021810694474 -4855.7133258289523 -4818.8027121359855 -4781.3705944829999 -2468.7623826579847 -4704.944342167817 -4665.9522193319181 -4626.4426334967575 -4586.417393901007 -4545.8786466569327 -4504.8288833449715 -4463.2709495660292 -4421.2080534394572 -4378.6437740342308 -4335.5820697202234 -4292.0272864260505 -4247.984165789243 -4203.4578531841025 -4158.4539056118865 -319.3072845172951 -852.15821226102798 -810.48218076571243 -769.61567486992249 -729.57827227304551 -690.38855466995767 -652.06402626697309 -614.6210295740002 -578.07465841144494 -542.43866804728441 -507.72538234495062 -473.94559775124043 -441.10848387818214 -409.22148032334178 -378.2901892140336 -348.31826272956039 -894.62327445882818 -291.25664341949158 -264.16339718341055 -238.02212269993902 -212.82474757452405 -188.56035507834093 -165.21495003069904 -142.77116553977623 -121.2078769627376 -100.49966375610222 -80.616007065807679 -61.519989240189936 -43.165929679219651 -25.494181233823888 -8.4101638009201274 -1610.3562015639768 -2414.1542449708741 -2359.5620954636083 -2305.0087022676107 -2250.5172374338836 -2196.1112611974495 -2141.8147049223639 -2087.6518526801547 -2033.6473214138261 -1979.8260396388678 -1926.2132246321385 -1872.8343580588971 -1819.7151599877993 -1766.8815612433002 -1714.3596740445394 -1662.1757608796033 -5288.342130087839 -1558.9274584319919 -1507.9160396102502 -1457.3484603223469 -1407.2512021746095 -1357.6506703733044 -1308.5731488245694 -1260.044753069315 -1212.0913810066545 -1164.7386613607937 -1118.0118998479786 -1071.9360230019611 -1026.5355196183737 -981.83437978055554 -937.85603143151889 -6454.3297708175778 -6511.4254631958929 -6508.4842841861773 -6505.4298603006382 -6502.2600048431386 -6498.9724637679337 -6495.5649155206374 -6492.0349708897229 -6488.3801728698654 -6484.5979965384049 -6480.6858489463411 -6476.6410690252333 -6472.4609275114399 -6468.1426268891782 -6463.6833013539199 -6459.0800167976549 -6514.2555168446197 -6449.4294927498886 -6444.3760437302881 -6439.1662167828599 -6433.7967369390881 -6428.2642613887547 -6422.5653796644838 -6416.6966138617736 -6410.6544188963453 -6404.4351828007093 -6398.0352270618514 -6391.4508070019783 -6384.6781122043103 -6377.7132669858765 -6370.5523309193995 -6363.1912994062623 -6544.60915665824 -6555.3004420175694 -6555.1440481092422 -6554.9098011095311 -6554.5975136204461 -6554.2069357228556 -6553.7377549301 -6553.1895961302616 -6552.562021517293 -6551.8545305111838 -6551.0665596673998 -6550.1974825759016 -6549.2466097500292 -6548.2131885056115 -6547.0964028306762 -6545.895373246185 -6355.6261043026698 -6543.2367462022466 -6541.7770710795485 -6540.2289963871153 -6538.5913229408725 -6536.8627870932578 -6535.0420605457439 -6533.1277501569675 -6531.1183977472319 -6529.0124799001533 -6526.8084077622461 -6524.5045268413123 -6522.0991168045111 -6519.5903912770209 -6516.9764976422521 -5683.0683640720317 -5978.4574841920203 -5961.5228162744534 -5944.2169345833936 -5926.5345157164775 -5908.4702490892105 -5890.0188410438786 -5871.1750190884904 -5851.9335362668708 -5832.2891756609788 -5812.2367550263934 -5791.7711315618071 -5770.8872068132378 -5749.5799317135406 -5727.8443117576626 -5705.6754123140054 -5995.0262705761752 -5660.0183686261089 -5636.5207041955382 -5612.5707314804176 -5588.1638996528427 -5563.2957524828389 -5537.9619345981846 -5512.1581978770537 -5485.8804079722931 -5459.1245509658766 -5431.8867401518692 -5404.1632229460174 -5375.950387919871 -5347.2447719570364 -5318.0430675290463 -6203.2637859897823 -6347.8526146010918 -6339.8666371690997 -6331.663917547753 -6323.2401408116875 -6314.5909324930781 -6305.7118595717038 -6296.5984315332626 -6287.2461014982255 -6277.6502674234198 -6267.8062733785864 -6257.7094109001737 -6247.3549204246201 -6236.7379928033642 -6225.8537709018437 -6214.6973512847526 -6555.3791077462611 -6191.5480843920905 -6179.5452151617355 -6167.2501083162761 -6154.6576573707698 -6141.7627215872935 -6128.5601283261904 -6115.044675501169 -6101.2111341403215 -6087.0542510551713 -6072.5687516197395 -6057.7493426616638 -6042.5907154672877 -6027.0875489026066 -6011.2345126519558 
</DataArray>
<DataArray type="Float64" Name="velocity_p0" NumberOfComponents="3" format="ascii">
0 0 1.1997624515317116e-06 0 0 9.2565021034042053e-07 0 0 9.4234191334756426e-07 0 0 9.5925418358779788e-07 0 0 9.7638838373800158e-07 0 0 9.9374584971517331e-07 0 0 1.0113278888158828e-06 0 0 1.0291357777181331e-06 0 0 1.0471707603342791e-06 0 0 1.0654340455027045e-06 0 0 1.0839268045064657e-06 0 0 1.1026501684033674e-06 0 0 1.1216052251533805e-06 0 0 1.1407930165268645e-06 0 0 1.16021453477606e-06 0 0 1.1798707190497214e-06 0 0 9.0917768686239862e-07 0 0 1.219890553279611e-06 0 0 1.2402557797401111e-06 0 0 1.2608588159135668e-06 0 0 1.2817002711406362e-06 0 0 1.3027806734783211e-06 0 0 1.3241004636326388e-06 0 0 1.3456599884110772e-06 0 0 1.3674594936547657e-06 0 0 1.3894991166076709e-06 0 0 1.411778877674653e-06 0 0 1.4342986715191024e-06 0 0 1.4570582574421644e-06 0 0 1.480057248985477e-06 0 0 1.5032951026892073e-06 0 0 1.5267711059355458e-06 0 0 6.8738733762559979e-07 0 0 5.0935072131976014e-07 0 0 5.1997013544524189e-07 0 0 5.3076076355260084e-07 0 0 5.4172430342691138e-07 0 0 5.528624502902066e-07 0 0 5.6417689646952167e-07 0 0 5.7566933105402818e-07 0 0 5.8734143954057309e-07 0 0 5.991949034670319e-07 0 0 6.1123140003158803e-07 0 0 6.2345260169637199e-07 0 0 6.3586017577529262e-07 0 0 6.4845578400322225e-07 0 0 6.612410820852479e-07 0 0 6.7421771922428929e-07 0 0 1.5504843637981354e-06 0 0 7.0075157197503816e-07 0 0 7.1431204888943305e-07 0 0 7.2807038633658379e-07 0 0 7.4202819302202089e-07 0 0 7.561870677400556e-07 0 0 7.7054859868572428e-07 0 0 7.8511436272363127e-07 0 0 7.9988592461246129e-07 0 0 8.1486483617810705e-07 0 0 8.300526354335099e-07 0 0 8.4545084564062593e-07 0 0 8.6106097430790007e-07 0 0 8.7688451212078834e-07 0 0 8.9292293179699111e-07 0 0 2.7989417408317989e-06 0 0 2.4108139675073713e-06 0 0 2.4390762584136631e-06 0 0 2.4672013464460118e-06 0 0 2.495153097084236e-06 0 0 2.5228922845488646e-06 0 0 2.5503763561220472e-06 0 0 2.5775591858536556e-06 0 0 2.6043908196759084e-06 0 0 2.6308172149540474e-06 0 0 2.6567799788163311e-06 0 0 2.682216111330946e-06 0 0 2.7070577618331504e-06 0 0 2.7312320096168536e-06 0 0 2.7546606839779278e-06 0 0 2.7772602434965133e-06 0 0 2.3824477407902303e-06 0 0 2.8196109076631378e-06 0 0 2.8391684054648063e-06 0 0 2.8575103026138567e-06 0 0 2.8745288585923687e-06 0 0 2.8901137245750421e-06 0 0 2.9041537115093992e-06 0 0 2.9165393414736077e-06 0 0 2.927166505355014e-06 0 0 2.9359417441864188e-06 0 0 2.9427900646535769e-06 0 0 2.9476671170203811e-06 0 0 2.9505801778168343e-06 0 0 2.9516327174086089e-06 0 0 2.9512196330211345e-06 0 0 1.9604510677211085e-06 0 0 1.5744337848129567e-06 0 0 1.5986180655774857e-06 0 0 1.6230356740776394e-06 0 0 1.6476848316312437e-06 0 0 1.6725634933283111e-06 0 0 1.6976693268376745e-06 0 0 1.722999689435454e-06 0 0 1.7485516031013441e-06 0 0 1.7743217275112628e-06 0 0 1.8003063307423755e-06 0 0 1.8265012574880168e-06 0 0 1.852901894562869e-06 0 0 1.8795031334596651e-06 0 0 1.9062993296963071e-06 0 0 1.9332842586715045e-06 0 0 4.989008211508749e-07 0 0 1.9877922240425609e-06 0 0 2.0152994581268215e-06 0 0 2.0429637023084919e-06 0 0 2.0707750240140681e-06 0 0 2.0987225532571904e-06 0 0 2.1267944038977743e-06 0 0 2.1549775881490195e-06 0 0 2.1832579237858313e-06 0 0 2.2116199334781873e-06 0 0 2.2400467356457224e-06 0 0 2.2685199262111056e-06 0 0 2.2970194506142219e-06 0 0 2.3255234654493801e-06 0 0 2.3540081891010864e-06 0 0 6.9766170580006842e-08 0 0 4.1455584298401367e-08 0 0 4.3081661770214387e-08 0 0 4.4740302475887792e-08 0 0 4.6432579803894192e-08 0 0 4.8159575520443151e-08 0 0 4.992237993280852e-08 0 0 5.1722092045667882e-08 0 0 5.355981971156314e-08 0 0 5.5436679774769412e-08 0 0 5.7353798207802296e-08 0 0 5.9312310242048514e-08 0 0 6.1313360490803338e-08 0 0 6.3358103065664926e-08 0 0 6.5447701685595607e-08 0 0 6.7583329779215882e-08 0 0 3.9861004880036809e-08 0 0 7.1997417212960425e-08 0 0 7.4278272775831363e-08 0 0 7.6609950411968013e-08 0 0 7.8993673375492304e-08 0 0 8.143067508957766e-08 0 0 8.3922199197322793e-08 0 0 8.6469499604149415e-08 0 0 8.9073840514802084e-08 0 0 9.1736496459728847e-08 0 0 9.4458752317544141e-08 0 0 9.7241903326329207e-08 0 0 1.0008725509064596e-07 0 0 1.0299612357925317e-07 0 0 1.0596983511529991e-07 0 0 1.0900972636052103e-07 0 0 1.902067828165462e-08 0 0 1.6667039037242728e-09 0 0 2.779375725305428e-09 0 0 3.8943517159847943e-09 0 0 5.0125544504898235e-09 0 0 6.1349074923199493e-09 0 0 7.262335674960861e-09 0 0 8.395765382043579e-09 0 0 9.5361248259580694e-09 0 0 1.0684344325895824e-08 0 0 1.1841356583839843e-08 0 0 1.3008096958957344e-08 0 0 1.4185503739688617e-08 0 0 1.5374518414251967e-08 0 0 1.6576085938233732e-08 0 0 1.779115499961641e-08 0 0 1.1211714429046245e-07 0 0 2.0265612721863123e-08 0 0 2.1526919768912199e-08 0 0 2.2805565634665432e-08 0 0 2.4102521544410711e-08 0 0 2.5418763982163771e-08 0 0 2.6755274932221537e-08 0 0 2.8113042117197568e-08 0 0 2.9493059230884096e-08 0 0 3.0896326167573642e-08 0 0 3.2323849246176303e-08 0 0 3.3776641429557949e-08 0 0 3.5255722539246313e-08 0 0 3.6762119464593088e-08 0 0 3.8296866367491272e-08 0 0 3.6133459087923782e-07 0 0 2.5578371098351911e-07 0 0 2.6193825944370726e-07 0 0 2.6821165276205707e-07 0 0 2.7460553324996677e-07 0 0 2.8112154860773023e-07 0 0 2.8776135170730587e-07 0 0 2.9452660037214989e-07 0 0 3.0141895715522369e-07 0 0 3.0844008911449538e-07 0 0 3.1559166758599671e-07 0 0 3.2287536795458482e-07 0 0 3.3029286942335999e-07 0 0 3.3784585478006839e-07 0 0 3.455360101627714e-07 0 0 3.5336502482115233e-07 0 0 2.4974637067367514e-07 0 0 3.6944640309318325e-07 0 0 3.7770215860806764e-07 0 0 3.8610355671248862e-07 0 0 3.946522985916373e-07 0 0 4.0335008707663543e-07 0 0 4.1219862639241908e-07 0 0 4.2119962190305781e-07 0 0 4.3035477985323922e-07 0 0 4.3966580710779347e-07 0 0 4.4913441088705976e-07 0 0 4.5876229849931574e-07 0 0 4.6855117706826925e-07 0 0 4.785027532572297e-07 0 0 4.886187329872178e-07 0 0 1.7215780785566002e-07 0 0 1.1529344616344139e-07 0 0 1.185399994819137e-07 0 0 1.2185818194639481e-07 0 0 1.2524938140322235e-07 0 0 1.2871499578335521e-07 0 0 1.3225643303666999e-07 0 0 1.3587511105743982e-07 0 0 1.3957245760362897e-07 0 0 1.4334991021015564e-07 0 0 1.472089160945367e-07 0 0 1.5115093205683217e-07 0 0 1.5517742437290754e-07 0 0 1.5928986868142241e-07 0 0 1.6348974986556225e-07 0 0 1.6777856192673335e-07 0 0 5.5541438310611295e-10 0 0 1.7662899949428765e-07 0 0 1.8119365739525361e-07 0 0 1.8585331067365738e-07 0 0 1.9060949685479151e-07 0 0 1.9546376171718864e-07 0 0 2.0041765912906206e-07 0 0 2.0547275088179626e-07 0 0 2.1063060651800353e-07 0 0 2.1589280315507597e-07 0 0 2.2126092530505739e-07 0 0 2.2673656468912844e-07 0 0 2.3232132005022485e-07 0 0 2.3801679695969019e-07 0 0 2.4382460762162367e-07 
</DataArray>
<DataArray type="Float64" Name="water_content" format="ascii">
0.23258222483614782 0.2237629767285983 0.22425784743947291 0.22476456267917386 0.22528342588312561 0.22581475013061636 0.22635885853869359 0.2269160846750643 0.22748677299101766 0.22807127927544546 0.22866997113109716 0.22928322847427185 0.22991144405921699 0.230555024028577 0.23121438849131004 0.23188997212957169 0.22327965637913644 0.23329161238410723 0.23401861713043692 0.23476373875551892 0.23552749504040713 0.2363104226839684 0.23711307816205893 0.23793603863101725 0.23877990287787154 0.23964529231977288 0.24053285205528641 0.24144325197028776 0.24237718790133281 0.24333538285948134 0.24431858831766801 0.24532758556481549 0.21724045312178739 0.21298951091375964 0.2132286999187315 0.21347359851493536 0.21372433616206649 0.21398104551877739 0.21424386254488351 0.21451292660777888 0.21478838059325628 0.21507037102093762 0.21535904816452947 0.21565456617713091 0.2159570832218321 0.2162667616078548 0.21658376793249812 0.21690827322916875 0.24636318712997915 0.21758048798588023 0.21792856311668035 0.21828486890458107 0.21864960101830244 0.21902296059615073 0.21940515444577258 0.21979639525282657 0.22019690179901874 0.220606899189973 0.22102661909343341 0.22145629998832345 0.22189618742521636 0.22234653429880133 0.22280760113296441 0.35198414648114273 0.30078206970292454 0.30347666255940736 0.3062595376462377 0.30913397906190387 0.31210334296366266 0.31517104252815731 0.31834052806601171 0.32161526113215766 0.32499868119849173 0.32849416310915897 0.33210496309981979 0.33583415060108845 0.33968452232131341 0.34365849415511923 0.34775796520319036 0.29817255816874505 0.35633734453012361 0.36081668677681455 0.36541977054991842 0.37014221013510695 0.37497704429248302 0.37991394670826156 0.38493814662636333 0.39002890044408389 0.3951572191811169 0.40028224937301105 0.40534490907254384 0.41025487201668975 0.41485595516970064 0.41852701542880411 0.26736156585703641 0.24742623827989274 0.24851761859334309 0.24963824361584 0.25078906659805056 0.25197108032143256 0.2531853190144141 0.25443286036232099 0.25571482761402031 0.25703239178793097 0.25838677397960419 0.25977924777249123 0.26121114175274568 0.262683842127925 0.26419879544820302 0.26575751142713355 0.21275590514109932 0.2690126036116357 0.27071234172555741 0.27246257253656347 0.27426516687182745 0.27612207725393484 0.27803534109542083 0.28000708384225831 0.282039522016447 0.28413496609534006 0.28629582315007351 0.28852459914683981 0.29082390079203535 0.29319643677458851 0.29564501822493455 0.2048075625950278 0.20446416193108488 0.20448176165172915 0.20450004929851093 0.20451903915175951 0.20453874597374155 0.20455918501411005 0.20458037201552112 0.20460232321942054 0.20462505537200165 0.20464858573033684 0.20467293206868459 0.20469811268497429 0.20472414640747172 0.20475105260162701 0.20477885117710892 0.20444723633290393 0.20483720787535051 0.20486780860451104 0.20489938694322052 0.20493196563448018 0.20496556801180199 0.2050002180076409 0.20503594016204385 0.20507275963152016 0.20511070219813937 0.2051497942788609 0.20519006293510306 0.20523153588255627 0.20527424150124823 0.20531820884586749 0.20536346765635299 0.20426626400320336 0.20420276506587376 0.20420369302742392 0.20420508298000972 0.2042069360961582 0.2042092539398695 0.20421203846722683 0.20421529202715882 0.20421901736235434 0.20422321761032974 0.20422789630464872 0.20423305737629457 0.20423870515519538 0.20424484437190155 0.20425148015941638 0.20425861805517953 0.2054100483687577 0.20427442435636248 0.20428310587883702 0.20429231574870885 0.20430206156071193 0.20431235132913678 0.20432319349088909 0.20433459690870304 0.20434657087450997 0.20435912511296203 0.20437226978511247 0.20438601549225205 0.20440037327990279 0.20441535464196942 0.20443097152504969 0.20984436608519069 0.20782203422213918 0.20793465699344488 0.20805015194920939 0.20816858375005226 0.20829001843942968 0.20841452347589123 0.20854216776645329 0.20867302170113622 0.20880715718871407 0.20894464769372756 0.20908556827481395 0.20922999562440869 0.20937800810987783 0.20952968581614145 0.20968511058985154 0.20771222032632547 0.21000753781136175 0.2101747131818395 0.21034598156546178 0.21052143433943843 0.21070116494436184 0.21088526894130535 0.21107384407110133 0.2112669903158933 0.21146480996306283 0.21166740767163475 0.21187489054127118 0.21208736818396823 0.2123049527985765 0.21252775924827033 0.20636283722987586 0.20545798212639405 0.20550730079127022 0.20555803695582661 0.20561022395498177 0.20566389587849782 0.20571908758367646 0.20577583470839661 0.20583417368450463 0.20589414175157095 0.20595577697102452 0.20601911824067937 0.20608420530966737 0.20615107879379196 0.20621978019131842 0.20629035189921702 0.20420229831384784 0.20643728042830173 0.20651372668982698 0.20659222217834267 0.20667281404507765 0.20675555044794552 0.20684048057148138 0.20692765464739182 0.2070171239757424 0.20710894094680837 0.20720315906361464 0.20729983296519314 0.20739901845058673 0.20750077250362939 0.20760515331853469 
</DataArray>
<DataArray type="Float64" Name="conductivity_richards" format="ascii">