<?xml version="1.0"?>
<VTKFile type="UnstructuredGrid" version="0.1" byte_order="LittleEndian">
<UnstructuredGrid>
<Piece NumberOfPoints="2028" NumberOfCells="724">
<Points>
<DataArray type="Float64" NumberOfComponents="3" format="ascii">
0 3.7000000000000002 0 0.56249999999824107 3.9749999999991399 0 0 0.69999999999999996 0 0 1.6319639930219929 0 0.59999999999999998 0.69999999999999996 0 0.59999999999999998 0.69999999999999996 0 0 1.6319639930219929 0 0.94999999999923723 1.2749999999987469 0 1.243750000001385 0.69999999999999996 0 0.59999999999999998 0.69999999999999996 0 0.94999999999923723 1.2749999999987469 0 1.626949751997165 1.3978044304614949 0 1.887500000003292 0.69999999999999996 0 1.243750000001385 0.69999999999999996 0 0.94999999999923723 1.2749999999987469 0 1.626949751997165 1.3978044304614949 0 1.243750000001385 0.69999999999999996 0 0.68142292217753131 2.106313194182027 0 1.299999999998378 1.8499999999973351 0 0.94999999999923723 1.2749999999987469 0 1.299999999998378 1.8499999999973351 0 1.626949751997165 1.3978044304614949 0 0.94999999999923723 1.2749999999987469 0 1.299999999998378 1.8499999999973351 0 1.186467289461244 2.488259157846338 0 1.649999999999066 2.4249999999984651 0 1.299999999998378 1.8499999999973351 0 0.68142292217753131 2.106313194182027 0 1.186467289461244 2.488259157846338 0 0 1.6319639930219929 0 0.68142292217753131 2.106313194182027 0 0.94999999999923723 1.2749999999987469 0 0 2.430303940964651 0 0.68142292217753131 2.106313194182027 0 0 1.6319639930219929 0 0.68142292217753131 2.106313194182027 0 0 2.430303940964651 0 0.70993008501830757 2.9054181396964478 0 0 3.1141786369756268 0 0.70993008501830757 2.9054181396964478 0 0 2.430303940964651 0 0.45714634023723411 3.4614941897304652 0 0.70993008501830757 2.9054181396964478 0 0 3.1141786369756268 0 0 3.7000000000000002 0 0.45714634023723411 3.4614941897304652 0 0 3.1141786369756268 0 0.45714634023723411 3.4614941897304652 0 0 3.7000000000000002 0 0.56249999999824107 3.9749999999991399 0 0.45714634023723411 3.4614941897304652 0 0.56249999999824107 3.9749999999991399 0 1.013301616169622 3.6128741719811099 0 0.70993008501830757 2.9054181396964478 0 0.45714634023723411 3.4614941897304652 0 1.013301616169622 3.6128741719811099 0 1.013301616169622 3.6128741719811099 0 1.451787781083937 3.11022608666643 0 0.70993008501830757 2.9054181396964478 0 1.451787781083937 3.11022608666643 0 1.013301616169622 3.6128741719811099 0 1.593428957229921 3.8897035774451321 0 1.186467289461244 2.488259157846338 0 0.70993008501830757 2.9054181396964478 0 1.451787781083937 3.11022608666643 0 0.70993008501830757 2.9054181396964478 0 1.186467289461244 2.488259157846338 0 0.68142292217753131 2.106313194182027 0 1.649999999999066 2.4249999999984651 0 1.186467289461244 2.488259157846338 0 1.451787781083937 3.11022608666643 0 0.59999999999999998 0.69999999999999996 0 0.94999999999923723 1.2749999999987469 0 2.2687831884271348 2.397628317379688 0 1.649999999999066 2.4249999999984651 0 2 3 0 2.6000000000000818 2.8399999999999781 0 2.2687831884271348 2.397628317379688 0 2 3 0 1.649999999999066 2.4249999999984651 0 1.451787781083937 3.11022608666643 0 2 3 0 1.451787781083937 3.11022608666643 0 2.08333333333292 3.599999999997022 0 2 3 0 1.593428957229921 3.8897035774451321 0 2.08333333333292 3.599999999997022 0 1.451787781083937 3.11022608666643 0 2.4236693135559251 3.5256579194055688 0 2.1666666666662731 4.1999999999971616 0 2.08333333333292 3.599999999997022 0 2.4236693135559251 3.5256579194055688 0 2 3 0 2.6000000000000818 2.8399999999999781 0 2.08333333333292 3.599999999997022 0 2 3 0 2.4236693135559251 3.5256579194055688 0 2.6000000000000818 2.8399999999999781 0 2.9420158813362729 3.5139475164392531 0 2.4236693135559251 3.5256579194055688 0 2.4236693135559251 3.5256579194055688 0 2.9420158813362729 3.5139475164392531 0 2.75 4 0 2.9420158813362729 3.5139475164392531 0 3.412636880282601 3.6134558579332841 0 3.1249999999889848 4 0 3.1249999999889848 4 0 2.75 4 0 2.9420158813362729 3.5139475164392531 0 2.6000000000000818 2.8399999999999781 0 3.2848100522576571 3.06994577157805 0 2.9420158813362729 3.5139475164392531 0 3.2848100522576571 3.06994577157805 0 2.6000000000000818 2.8399999999999781 0 3.2000000000001432 2.679999999999962 0 2.2687831884271348 2.397628317379688 0 2.6000000000000818 2.8399999999999781 0 2.8857059848027808 2.304389417342541 0 2.8857059848027808 2.304389417342541 0 2.6000000000000818 2.8399999999999781 0 3.2000000000001432 2.679999999999962 0 3.5028943452390711 2.1825773809523441 0 3.16379900756549 1.750659825629856 0 2.8857059848027808 2.304389417342541 0 2.8857059848027808 2.304389417342541 0 3.16379900756549 1.750659825629856 0 2.5341028426591712 1.9138806300960609 0 2.5341028426591712 1.9138806300960609 0 3.16379900756549 1.750659825629856 0 2.730231246675086 1.4599417336750831 0 2.730231246675086 1.4599417336750831 0 2.23284951060374 1.369095413116082 0 2.5341028426591712 1.9138806300960609 0 2.5341028426591712 1.9138806300960609 0 2.2687831884271348 2.397628317379688 0 2.8857059848027808 2.304389417342541 0 2.5341028426591712 1.9138806300960609 0 1.942890303101708 1.90249985684108 0 2.2687831884271348 2.397628317379688 0 1.942890303101708 1.90249985684108 0 1.649999999999066 2.4249999999984651 0 2.2687831884271348 2.397628317379688 0 1.649999999999066 2.4249999999984651 0 1.942890303101708 1.90249985684108 0 1.299999999998378 1.8499999999973351 0 1.942890303101708 1.90249985684108 0 1.626949751997165 1.3978044304614949 0 1.299999999998378 1.8499999999973351 0 2.23284951060374 1.369095413116082 0 1.626949751997165 1.3978044304614949 0 1.942890303101708 1.90249985684108 0 2.23284951060374 1.369095413116082 0 1.942890303101708 1.90249985684108 0 2.5341028426591712 1.9138806300960609 0 2.23284951060374 1.369095413116082 0 1.887500000003292 0.69999999999999996 0 1.626949751997165 1.3978044304614949 0 1.887500000003292 0.69999999999999996 0 2.23284951060374 1.369095413116082 0 2.5312500000049418 0.69999999999999996 0 2.5312500000049418 0.69999999999999996 0 2.730231246675086 1.4599417336750831 0 3.047698899035677 1.175177397439602 0 2.23284951060374 1.369095413116082 0 2.730231246675086 1.4599417336750831 0 2.5312500000049418 0.69999999999999996 0 3.047698899035677 1.175177397439602 0 2.730231246675086 1.4599417336750831 0 3.16379900756549 1.750659825629856 0 2.5312500000049418 0.69999999999999996 0 3.047698899035677 1.175177397439602 0 3.1750000000065048 0.69999999999999996 0 0.94999999999923723 1.2749999999987469 0 1.299999999998378 1.8499999999973351 0 3.047698899035677 1.175177397439602 0 3.638214240926366 1.265285427893069 0 3.1750000000065048 0.69999999999999996 0 3.1750000000065048 0.69999999999999996 0 3.638214240926366 1.265285427893069 0 3.8187500000045098 0.69999999999999996 0 0.56249999999824107 3.9749999999991399 0 1.1249999999964171 4.2499999999982494 0 3.8187500000045098 0.69999999999999996 0 3.638214240926366 1.265285427893069 0 4.2198317920941601 1.108273596938623 0 3.638214240926366 1.265285427893069 0 3.047698899035677 1.175177397439602 0 3.16379900756549 1.750659825629856 0 3.638214240926366 1.265285427893069 0 3.16379900756549 1.750659825629856 0 3.757799744899315 1.759341836734688 0 3.757799744899315 1.759341836734688 0 3.16379900756549 1.750659825629856 0 3.5028943452390711 2.1825773809523441 0 4.0559490150232032 2.028653202947901 0 3.5028943452390711 2.1825773809523441 0 3.8000000000002032 2.5199999999999458 0 3.757799744899315 1.759341836734688 0 3.5028943452390711 2.1825773809523441 0 4.0559490150232032 2.028653202947901 0 3.757799744899315 1.759341836734688 0 4.25 1.5 0 3.638214240926366 1.265285427893069 0 4.0559490150232032 2.028653202947901 0 4.6250000000004974 1.8500000000004651 0 4.25 1.5 0 3.757799744899315 1.759341836734688 0 4.0559490150232032 2.028653202947901 0 4.25 1.5 0 4.6250000000004974 1.8500000000004651 0 4.0559490150232032 2.028653202947901 0 4.4000000000001336 2.3599999999999639 0 4.6250000000004974 1.8500000000004651 0 4.4000000000001336 2.3599999999999639 0 5 2.2000000000000002 0 4.7733688274428578 1.2511819424194319 0 4.25 1.5 0 4.6250000000004974 1.8500000000004651 0 4.2198317920941601 1.108273596938623 0 4.25 1.5 0 4.7733688274428578 1.2511819424194319 0 4.25 1.5 0 4.2198317920941601 1.108273596938623 0 3.638214240926366 1.265285427893069 0 3.8187500000045098 0.69999999999999996 0 4.2198317920941601 1.108273596938623 0 4.4625000000026009 0.69999999999999996 0 5.1062500000012143 0.69999999999999996 0 4.4625000000026009 0.69999999999999996 0 4.7733688274428578 1.2511819424194319 0 4.4625000000026009 0.69999999999999996 0 4.2198317920941601 1.108273596938623 0 4.7733688274428578 1.2511819424194319 0 4.7733688274428578 1.2511819424194319 0 5.5000000000008269 1.1999999999983459 0 5.1062500000012143 0.69999999999999996 0 5.5000000000008269 1.1999999999983459 0 4.7733688274428578 1.2511819424194319 0 5.2500000000007052 1.6999999999985891 0 5.1062500000012143 0.69999999999999996 0 5.5000000000008269 1.1999999999983459 0 5.75 0.69999999999999996 0 5.75 0.69999999999999996 0 5.5000000000008269 1.1999999999983459 0 6.1230253171455891 1.2440604005832661 0 6.4375000000000027 0.69999999999999996 0 5.75 0.69999999999999996 0 6.1230253171455891 1.2440604005832661 0 5.8758020027701336 1.829281458631685 0 6.1230253171455891 1.2440604005832661 0 5.5000000000008269 1.1999999999983459 0 6.6325887022434813 1.7109098098422979 0 6.1230253171455891 1.2440604005832661 0 5.8758020027701336 1.829281458631685 0 6.3749999999999796 2.350000000000005 0 6.6325887022434813 1.7109098098422979 0 5.8758020027701336 1.829281458631685 0 6.3749999999999796 2.350000000000005 0 5.8758020027701336 1.829281458631685 0 5.75 2.5 0 5.4251604005540912 2.1458562917259631 0 5.75 2.5 0 5.8758020027701336 1.829281458631685 0 5.4251604005540912 2.1458562917259631 0 5.2500000000007052 1.6999999999985891 0 5 2.2000000000000002 0 5.2499999999996163 2.499999999999539 0 5.4251604005540912 2.1458562917259631 0 5 2.2000000000000002 0 5.875802002770
[...]
<PointData Scalars="A_conc,B_conc,region_id," Vectors="" Tensors="">
<DataArray type="Float64" Name="A_conc" format="ascii">
0.41485774996589952 0.41050230467833276 0.18970579888022601 0.5457943119967591 0.18966036453253293 0.19056212293550256 0.54387715370413459 0.51023990034728495 -0.12769891443741335 -0.13396806599906105 0.4253162644032375 0.56613074695845444 -0.12472657508857657 -0.13289622780644261 0.42998702599171473 0.56535292780154212 -0.1298182860313038 0.40392282921086226 0.39677638997369002 0.44815990753971041 0.57811994501578812 0.5596299026431979 0.50168349817079705 0.39118317934264912 0.35807626553446392 0.33723672459266196 0.38966116841303799 0.40665042738406587 0.35954623449870071 0.45263787473233419 0.4075414412382557 0.44527896782499732 0.42536842843992273 0.40462759830568634 0.44911127426896486 0.39764550233731455 0.43062356263998902 0.38791718596482261 0.44602933282340679 0.39391153660506334 0.42415930080674819 0.45317478431872116 0.40347779101961695 0.4477530716385596 0.43287237692392722 0.44580486262765212 0.45526163390395674 0.4395754130338021 0.44018895127997404 0.45786488177876022 0.44036676114938256 0.45694098622191798 0.45006190578848215 0.39791433656132696 0.45927393901752656 0.45749403637633684 0.46159737465868966 0.38250887341863193 0.39076240425746966 0.3908229760291555 0.46228583687670177 0.48823377198620432 0.35953811299992733 0.39295752880317847 0.35063614032946688 0.38662068291159635 0.35946084834100356 0.39882170802796013 0.33472611730434676 0.36031696984460532 0.35064036165041795 0.13854089959949673 0.53232871300987727 0.48354951241384936 0.50704958894516883 0.33433952018864022 0.31471269420632592 0.48422676826014666 0.3307075400884158 0.33551221058841452 0.34998744493467571 0.31652393275650748 0.36596923184609975 0.45642008946177198 0.3165957870845969 0.49483991777801378 0.46818857034168088 0.38136391792157454 0.56573027845866608 0.4924073819437888 0.52773066026797544 0.54910474450754643 0.48625552409619038 0.41940511402724989 0.53684370988481833 0.49595825277774896 0.54582346248508529 0.40543303587170187 0.58865308396974525 0.56625524485213541 0.55894652857982119 0.57559967872702822 0.55588918977071011 0.56148618160184383 0.58788200063489171 0.59154735390862134 0.59147696873249123 0.56721155306474835 0.56606640877173742 0.3913124826940706 0.52988183708799164 0.59477204121516902 0.53787950379064342 0.3517245261324346 0.33696806168412569 0.48291490779187785 0.31314617232272146 0.4676080683147541 0.46755723705265878 0.31222621849672411 0.31454406121164508 0.47703652254882267 0.49526706049235109 0.50557098629822006 0.50682375076972241 0.49725923994912108 0.53749521539145306 0.55121079540663664 0.5139122040665256 0.51532166179297867 0.52490319721405565 0.54393351571285942 0.54979946470198005 0.55174959159196257 0.50290392666896566 0.49844283635660541 0.5513599352586257 0.56348596657540539 0.50910460319700324 0.56360276170811807 0.51546061760601303 0.50741220494048556 0.52530607785712469 0.5612718844204011 0.55632655774081297 0.5717019289759141 0.5554111196084196 0.56249508364207934 0.54719904063863423 0.55390353239770451 0.56949747116011251 0.54442206494979783 0.5697408811538941 0.55319709417061413 0.51774813706658906 -0.12547061372405049 0.56775079235073944 -0.12368527155605967 0.51368380001707181 -0.1150361856211541 -0.11088658713399541 0.56858445373505295 0.33370128109063341 0.51193875174387271 0.57150143705049461 -0.11406283301331284 0.40826586111535396 0.49263207692083549 0.51880806155768189 -0.10758620017476828 0.28820836202397149 -0.10246992080646544 0.44989139844134551 0.39806273415049276 0.29150824505956624 0.3627178730260569 -0.10387931390616921 -0.10595332517212126 0.36354491745237161 -0.098489820755113228 0.41009095373339333 0.40604648762388379 -0.09921895765311918 0.365341508077699 0.18537900029253426 0.42640773148490613 0.41317887721674107 0.51279720293494979 0.4349047087556896 0.47739534259874639 0.40885750571971224 0.41082264422214476 0.47656469554933717 0.48034938640786401 0.43715774133956359 0.45450273530225493 0.33109489396993969 0.4088027371009455 0.48081993259743899 0.41123559084820249 0.40603111642133061 0.38279591417147224 0.43801382878963618 0.39312945734470262 0.31830073860918606 0.33348710405586524 0.40819501318552082 0.3935065433389634 0.33254960481238172 0.34039949928558327 0.40977548859074381 0.34845091464183325 0.34143312979051138 0.3491415412413878 0.31015284506296631 0.26652810396666554 0.41288603993745893 0.39392792700925944 0.27230672236979209 0.43128147840512304 0.2559013754123961 0.44839810111440931 0.25600974810958116 0.37891801879609316 -0.058560905160381746 0.15368213597268693 -0.059114076210516238 -0.026020491491301107 -0.027226314675063711 0.074041931246303164 -0.063421376688623243 0.16252890911129705 0.098172593758092785 0.08042566302922001 -0.01720608804704124 -0.028949265168915043 -0.029039849512269459 0.15563950559430381 0.28490573829830401 0.016393361793134661 -0.0094805581074258148 0.027168476496468065 0.030049682829609927 -0.03049535635724869 -0.046193538737936635 0.061533637738461898 0.049135325043957782 -0.054761421454821414 0.81073759971733461 0.073085263923698407 0.11067031321157665 0.63140135275722986 0.076059354988721281 0.80002036611139549 0.24850066715250071 0.63141993404137753 0.62997003876264324 0.24708620708117132 0.62995824127080624 0.24331556641570654 0.49966843984733378 0.24944071904372989 0.62495555244659906 0.50296037938881066 0.71145546277148264 0.51802453064190634 0.39845190939034325 0.48549915849446268 0.54074214436544277 0.82000859129140335 0.1075683043594149 0.75016251096942987 0.73112173425423965 0.49537734801617805 0.6515392994134932 0.32847782398891046 0.18746668798639549 0.44680377601812887 0.35842866446520172 0.37740715570728534 0.3908388179604898 0.39251080192139698 0.33706866789975182 0.40596605741760339 0.40295947261049792 0.35473400745136952 0.35251237426874998 0.34002327712033287 0.63559333267855578 0.35289790132183568 0.30425540709516125 0.40393633840309046 0.30761907870221195 0.34798583444858627 0.40514783967287521 0.30304487236108202 0.28688202591514878 0.30731063308748985 0.30984236812381216 0.23044641835002036 0.52218517633782746 0.24386709458257136 0.48968505996821049 0.38917668549350498 0.25385020006377096 0.40808954617016518 0.59512394104742694 0.54624902703548084 0.56638362704936218 0.60831617963857754 0.65409397826104076 0.57694521468357474 0.64585877024733573 0.60801331920598578 0.55568797196570296 0.53943308683390012 0.41158836089989198 0.47876641831119376 0.51844016161373618 0.52723427641409104 0.58564515313408494 0.64389796203544714 0.60661502637503228 0.53562059690373176 0.4371031803336658 0.48239823101570822 0.42051153522785389 0.57516755188644519 0.47027226538471772 0.48631477349538388 0.34806474291168588 0.52958812303572045 0.21040333107665082 0.42852052924883355 0.080693094448356331 0.17805194545786407 0.33840736182288972 0.49278029935271356 0.38850433118082095 0.57906569156394483 0.33513957226855817 0.36728440474348284 0.32694187025804505 0.066299247125056499 0.33842038544754566 0.2960028584778569 0.2948209541995192 0.33961548628986743 0.33970127906684816 0.29260669742901796 0.078557403636986808 0.0086927242457399394 0.18796126705138211 0.29787353770445907 0.29736943609310279 0.33489368515684376 0.3441825406123874 0.33469221239434715 0.30253296963729992 0.3628784191741477 0.34280350094991663 0.37160330672028663 0.3432342036927627 0.36235538877139301 0.3344198788151716 0.44168976633058321 0.36246122308852241 0.51212968763995026 0.34177251789457685 0.33260262629637083 0.43449728950744432 0.33217342948735734 0.37169165749824412 0.43491516022281712 0.37385362005571288 0.44067911340420651 0.48614643271935537 0.44127598931224948 0.40581293346789338 0.34715104915586886 0.28551214859687962 0.45779243791247776 0.33809659089318389 0.50653832525576503 0.3859557964610576 0.36580982190407157 0.33505075036407928 0.43571392909919604 0.33255207105596185 0.38636624431471772 0.50886508187400514 0.55442201155537996 0.55273147921081422 0.49924722479738504 0.39037980997459026 0.46135634834922701 0.31404461276663798 0.32418499477652546 0.47096648303671901 0.31384283345920228 0.46201369800278069 0.53191406063259805 0.33889003911648918 0.36690407088933069 0.50911922603753856 0.58449171027538627 0.56099970801653976 0.50238258776991684 0.55569406518142017 0.58676118145267631 0.51107935580544184 0.36402566785098667 0.47630926047244676 0.51379028156091655 0.48018741835164119 0.57641742731175993 0.4860193990695475 0.56538891063848729 0.57370927718833575 0.57873050885236388 0.56995815834736008 0.59337460439959577 0.35285703422364356 0.35205739656144236 0.36428021769969327 0.40263457783675455 0.30701422349104046 0.40302094390826448 0.40209964150473015 0.33815091307217171 0.31707476449418037 0.43126657721650269 0.50066210947853329 0.52736464860651466 0.3069186863888595 0.29499461517236081 0.36497565662257153 0.37833832823401475 0.31571187060597022 0.35439376782263304 0.38010283724243848 0.41946788474021113 0.27327197388858526 0.39837998150739601 0.36967329276574118 0.28250064239747363 0.55816027810883695 0.510046576709413 0.5249912952063237 0.50634767372451062 0.52169455689829314 0.4941673843952642 0.41883097060128183 0.20092059706067109 0.27408802870566201 0.18416779101845127 0.47642724062568814 0.44605387050603773 0.45792887803256455 0.53236331389743174 0.1698450685240544 0.15513080303563573 0.54599165668433924 0.5506034551475939 0.5760308043954887 0.36043232776533196 0.28373348017231986 0.37830649733529131 0.14463445289256768 0.55645136773906589 0.20399484269265675 0.20268726066871284 0.29866474283961336 0.29667272571787529 0.30611197294163944 0.21428067480586899 0.20399175348570242 0.29664749086599401 0.21703656157143358 0.32099133431069343 0.32869111963822134 0.1997197655467661 0.23849938056801681 0.32260854329055899 0.20050837913323585 0.50460686922225106 0.19138648153230811 0.18776128718186899 0.18574706789482873 0.42978562773160994 0.50579487257335298 0.17804724106950856 0.54283059650282506 0.45440933005582218 0.44649296639117331 0.1889705362870765 0.18100781976604505 0.18592136212334898 0.4605687809664597 0.20700531686549983 0.43507184429415735 0.38346984304480597 0.24147006174405872 0.24904648554155262 0.3770900197423776 0.23323293405217943 0.53306515610858063 0.59646517431426349 0.45097586788142752 0.46497409548362661 0.5659831160367027 0.61470483941004828 0.44270454523844999 0.61977531914329897 0.40138949038874705 0.6579307307321105 0.59518845312728741 0.54977838737339557 0.61397765732898302 0.66025851060764618 0.65471067573795683 0.68586002455557382 0.55574593275915496 0.58569156237928544 0.53009849999868774 0.43884109404398663 0.55864928704596628 0.62658476923729256 0.52948621803919094 0.64075218134657319 0.5842190270290325 0.64267109581775295 0.6177624986032344 0.55360153989590433 0.47788077931776185 0.68338747360001695 0.60718288356651728 0.51950316103203142 0.61124236209855587 0.50012862499206467 0.66135975576099215 0.52190172889359698 0.62251061545822262 0.26352346559682649 0.48652737121312312 0.40017841401364823 0.4122499104113459 0.46905333195066462 0.40661926932060627 0.49211698782700813 0.48107519107481389 0.3177378445818772 0.32139864167283166 0.31417613988110044 0.46143212387956567 0.5332237237783356 0.50666725788092581 0.20587843049631038 0.21069971164892815 0.28472906955411459 0.52770055626885437 0.4919567407589121 0.18053350778198232 0.17796834768751166 0.64833070103806512 0.48013561028821189 0.48394827346162772 0.55159042628403754 0.47009371320794208 0.57399764151552712 0.49080361962953617 0.61784859544521409 0.56653050358163837 0.42999823444277235 0.44572551366619878 0.25629003336304579 0.42257058096002043 0.25635390410271935 0.1637814375235242 0.50079526454552115 0.46158983917223617 0.17619638532781562 0.61776016536072176 0.01556315641903651 0.56063962285932945 -0.018305199031305754 0.15545783804260624 0.56936083325186559 0.011842179010703878 0.62360764976616057 0.25061077566788703 0.30947999354338424 0.59134274380715546 0.57764317641998131 0.30370909725135431 0.58945744017810575 0.39698969399601913 0.13106355452352444 0.28267983389942897 0.41875782256795818 0.11272868565610301 0.36281695250813278 0.017219868518051872 0.36464341717374466 0.40671454651760902 0.082219701208228357 0.35464545543854331 0.37389448443105416 0.44940964199113681 0.5138538916209322 0.42916445482944732 0.55624290541233212 0.52218389639744345 0.45657240502981844 0.42162473316906868 0.3561127169698271 0.47520915932026969 0.54421998051315923 0.50074414502622289 0.32550882214491833 0.43067239322006123 0.54078019670218858 0.52874126599848748 0.46981108927041398 0.46883481737466243 0.4437635154479172 0.52352450321919031 0.41941470565065253 0.41816961889063387 0.39099479585382824 0.42695444618047751 0.36179849383291629 0.3679417632593891 0.3699224276212123 0.37115906491375839 0.34771547528978392 0.518577930498616 0.51704958568821258 0.53249703797230397 0.34663779228859243 0.39540860753000118 0.35713263579601479 0.38764981794009606 0.36941324203965192 0.36351657829097866 0.38569351762906784 0.35592532620665052 0.35203089729495135 0.40960870808885785 0.3634091601523905 0.42070456254619731 0.36380733601100546 0.42892263760063182 0.37441017974181201 0.40085147768355667 0.24587684921061531 0.089019487628805113 0.35207526287380347 0.35134669741300756 0.28625493307639577 0.53930812254366767 0.10155927670848897 0.4108716121648206 0.42935154114103075 0.38167771058908201 0.3650936402420652 0.4228007057444178 0.46668998222428237 0.33972558310507595 0.32401935139564986 0.51313334687791468 0.53620670420047056 0.44984346874216774 0.45510187746972725 0.37710615300050759 0.33878617302458469 0.44729582827836495 0.36250613050407993 0.41414729529853272 0.34193554294197859 0.35420889083969764 0.36131301170752328 0.46096297094644573 0.42814280270786842 0.46047410534050137 0.36154380613173243 0.38051828384204944 0.45219813829203509 0.38655654968431929 0.37825384445497284 0.42793856514307371 0.36758091320161623 0.39925068052338625 0.38189031422427949 0.40506756576046643 0.36556400244942833 0.39247541514440565 0.39491431727000553 0.37648539795347113 0.37972682392585116 0.45065483574751364 0.3788965365109766 0.39123160077875385 0.43738479470228653 0.39626685497896491 0.50775150905538591 0.59499723628269074 0.55369506433248317 0.37695679703464413 0.56931231615640154 0.43769524766664697 0.49832093460717175 0.55777844304333979 0.38615553206013753 0.39536012569667761 0.48974717389827621 0.37283218930057366 0.55287643077688375 0.521390506593709 0.52516587564030193 0.51668002699099669 0.52332009771281629 0.54130126888815888 0.55804066485683357 0.54319713895515065 0.51502113381722237 0.55760943964031862 0.49503558862334512 0.56319307444238476 0.50164976577589571 0.55793284893268646 0.52878446713733418 0.46239112561491591 0.44579221703767707 0.41111116673257991 0.49341085378646488 0.46592443298487568 0.48070224632461939 0.46739204959564618 0.45387447628622624 0.46763666873462373 0.41802038704558958 0.41793457020160546 0.40072267625523489 0.4102199067303724 0.44227238927404328 0.38492038161929099 0.44939911402376087 0.42593433442851802 0.46127846249455623 0.53963962751353411 0.50818299310849357 0.36540488028365498 0.35326113961181244 0.31671877425290174 0.31790949851160771 0.45991568982157033 0.42711360321995656 0.45281832474921158 0.43415857598659291 0.48501568781810217 0.39914821272551193 0.40138529734186656 0.41179984948397158 0.35134666935713282 0.35060389019386634 0.41838304866046783 0.41796583231399342 0.45225966474803142 0.41266291897044016 0.41281203440917696 0.46133738470051538 0.45727285400009693 0.47191498707160057 0.460809786180717 0.46448523219176219 0.45506393072009499 0.46589581681873271 0.45022072305022864 0.46012828101738923 0.4695181003398643 0.41320389727331192 0.45490452937112957 0.46113733054464501 0.40946112398679441 0.40728181279787556 0.45538935223275517 0.41282214530565448 0.45999838668434256 0.40901537328802129 0.40748076719036419 0.46221257298063123 0.4554215939960945 0.50128051595185352 0.45904007293960658 0.46737705998152063 0.48799347487929867 0.40105233292878045 0.48479504755883474 0.45838093340082975 0.50195219922561729 0.46915084481656388 0.39919171359862571 0.48942129340345525 0.39553969070397416 0.3415754363998586 0.38682997729855234 0.39131050756943547 0.39003017182051697 0.34376493666655178 0.34833357606705823 0.39044885498157522 0.38646252934575698 0.34278493690660333 0.32795173149341705 0.50339415157076339 0.45104380384500581 0.33637657632537765 0.41455102980478264 0.34655469324113303 0.54449645506202882 0.43499927858569098 0.31823621982557665 0.33125051018192181 0.46902130169468753 0.50135671410721339 0.33488312911998169 0.36219272158705984 0.44961045796704135 0.31544259584697115 0.31670540314150092 0.51146537871438802 0.41991647090076223 0.43239057529522218 -0.12181221582270743 -0.1142664060050619 0.35072728872495357 0.36320554606294286 0.40219426726545715 0.40329439227819663 -0.09013435822374917 0.452771958035735 0.59510833919252337 -0.11598011383069361 0.20475126476602706 0.43627244381115576 0.14160340599410068 -0.054111295519850743 -0.053738605869638308 0.079038117735214283 0.15269230873982101 -0.059141870367433444 0.089339877037172666 0.55631149057418028 0.21288464643953858 -0.048882183253492306 0.16412985988460693 0.086507977725528179 -0.044893996604275649 0.078359161478412293 -0.041827102730860058 0.35059733128452558 0.34981298754625034 0.50027613914212943 0.53639665993300623 0.50164290404793421 0.48751730325384152 0.35363380528725014 0.34985364111874301 0.34963183647149904 0.35294121642844917 0.40374813931963671 0.39534719479245828 0.38332712246443967 0.44187031637789037 0.48327087841535044 0.49058643357057147 0.27799094305735084 0.2698540425660339 0.31411653003810841 0.31543389384728188 0.42980781156305586 0.366158047619844 0.39381635521883424 0.37171234428930877 0.31273563563592643 0.31410715168422298 0.26953754105662941 0.26475422311804353 0.11003609440481536 0.37965021267006721 0.22932316778996487 0.20982101981027251 0.49224067999356014 0.5076025429333062 0.314755735631015 0.34379269019251657 0.21332788286687029 0.20821911702834972 0.26471280765852129 0.26387350790275738 0.64308809690474023 0.52893235948472206 0.31226895150966305 0.31984844920757804 0.29582278618777397 0.28312332894950532 0.2989857056055204 0.29782689286946579 0.29592323204657467 0.29850391911614982 0.33121238228115674 0.43129242190095313 0.2788619320063242 0.46217737445019691 0.29725532307592711 0.28997553542906257 0.50858996091371855 0.51882561738048361 -0.040553659711639024 0.28970783857999771 0.62003963156509778 0.59810214875810741 0.28842632879252489 0.29496810935239176 0.22329187797408834 0.20304449191787727 0.29067931601766617 0.2875307322035765 0.20539844693363207 0.20830767807067074 0.028282662721658962 -0.009011329238070168 0.24242479523010019 0.23366114573684171 0.51882337325973304 0.52555893318629887 0.51686218952337948 0.48300111751538433 0.20100706978825419 0.20493656917027972 0.59537843011482594 0.5484301591539853 0.23372357932374413 0.2305723913114005 0.47758194729302422 0.40340138591181757 0.20294857875661695 0.19643313704480536 0.52519158588599768 0.52538082950886567 -0.013842835450838803 0.044681293916158875 -0.015830015500367355 0.17122782783180807 -0.057667626147725574 0.059010832768164226 -0.017061218238828949 0.074705480993468049 0.052024155198876848 -0.023642423421021026 -0.016622222662722411 0.079234956173653462 0.20081101332740725 0.1967934817491738 -0.020483169717171883 0.11846780482028076 0.088975692371962997 0.12247052021657621 -0.026520943360140534 0.057630459803325353 0.021253760756894179 0.14925503946571253 0.099097567031238301 0.023690760093718663 0.086246508508622297 -0.0056756078559483617 0.16432051540372028 0.19227240748989788 0.068476334237821887 0.20138277692483222 0.1689041962998877 0.38778806599476734 0.19690514610483881 0.19467566203015005 0.23068582500322574 0.22892557230644567 0.39686257447892653 0.24076272905685425 0.55193104401273008 0.53508534513654205 0.47239662935564614 0.499637748844391