<?xml version="1.0"?>
<VTKFile type="UnstructuredGrid" version="0.1" byte_order="LittleEndian">
<UnstructuredGrid>
<Piece NumberOfPoints="2028" NumberOfCells="724">
<Points>
<DataArray type="Float64" NumberOfComponents="3" format="ascii">
0 0.69999999999999996 0 0.59999999999999998 0.69999999999999996 0 0 1.6319639930219929 0 0.59999999999999998 0.69999999999999996 0 0 1.6319639930219929 0 0.94999999999923723 1.2749999999987469 0 0.59999999999999998 0.69999999999999996 0 0.94999999999923723 1.2749999999987469 0 0 1.6319639930219929 0 0.68142292217753131 2.106313194182027 0 0.94999999999923723 1.2749999999987469 0 0 1.6319639930219929 0 0.68142292217753131 2.106313194182027 0 0 2.430303940964651 0 1.299999999998378 1.8499999999973351 0 0.94999999999923723 1.2749999999987469 0 0.68142292217753131 2.106313194182027 0 1.299999999998378 1.8499999999973351 0 0.94999999999923723 1.2749999999987469 0 0.68142292217753131 2.106313194182027 0 1.299999999998378 1.8499999999973351 0 1.186467289461244 2.488259157846338 0 1.299999999998378 1.8499999999973351 0 1.649999999999066 2.4249999999984651 0 1.299999999998378 1.8499999999973351 0 1.186467289461244 2.488259157846338 0 1.649999999999066 2.4249999999984651 0 1.299999999998378 1.8499999999973351 0 0.94999999999923723 1.2749999999987469 0 1.626949751997165 1.3978044304614949 0 1.243750000001385 0.69999999999999996 0 0.94999999999923723 1.2749999999987469 0 1.626949751997165 1.3978044304614949 0 1.243750000001385 0.69999999999999996 0 1.887500000003292 0.69999999999999996 0 1.626949751997165 1.3978044304614949 0 0.59999999999999998 0.69999999999999996 0 1.243750000001385 0.69999999999999996 0 0.94999999999923723 1.2749999999987469 0 0.45714634023723411 3.4614941897304652 0 1.013301616169622 3.6128741719811099 0 0.56249999999824107 3.9749999999991399 0 0 3.7000000000000002 0 0.56249999999824107 3.9749999999991399 0 0 3.7000000000000002 0 0.45714634023723411 3.4614941897304652 0 0.56249999999824107 3.9749999999991399 0 0 3.1141786369756268 0 0.45714634023723411 3.4614941897304652 0 0.70993008501830757 2.9054181396964478 0 0 3.7000000000000002 0 0 3.1141786369756268 0 0.45714634023723411 3.4614941897304652 0 0.45714634023723411 3.4614941897304652 0 0.70993008501830757 2.9054181396964478 0 1.013301616169622 3.6128741719811099 0 0.68142292217753131 2.106313194182027 0 0.70993008501830757 2.9054181396964478 0 0 2.430303940964651 0 0 3.1141786369756268 0 0.70993008501830757 2.9054181396964478 0 0 2.430303940964651 0 0.68142292217753131 2.106313194182027 0 0.70993008501830757 2.9054181396964478 0 1.186467289461244 2.488259157846338 0 1.186467289461244 2.488259157846338 0 1.451787781083937 3.11022608666643 0 1.649999999999066 2.4249999999984651 0 0.70993008501830757 2.9054181396964478 0 1.186467289461244 2.488259157846338 0 1.451787781083937 3.11022608666643 0 0.70993008501830757 2.9054181396964478 0 1.451787781083937 3.11022608666643 0 1.013301616169622 3.6128741719811099 0 1.451787781083937 3.11022608666643 0 1.013301616169622 3.6128741719811099 0 1.593428957229921 3.8897035774451321 0 2.08333333333292 3.599999999997022 0 2.4236693135559251 3.5256579194055688 0 2.1666666666662731 4.1999999999971616 0 1.451787781083937 3.11022608666643 0 2.08333333333292 3.599999999997022 0 1.593428957229921 3.8897035774451321 0 1.451787781083937 3.11022608666643 0 2.08333333333292 3.599999999997022 0 2 3 0 2 3 0 2.6000000000000818 2.8399999999999781 0 2.4236693135559251 3.5256579194055688 0 2.08333333333292 3.599999999997022 0 2 3 0 2.08333333333292 3.599999999997022 0 2 3 0 2.4236693135559251 3.5256579194055688 0 2 3 0 2.2687831884271348 2.397628317379688 0 2.6000000000000818 2.8399999999999781 0 2 3 0 2.6000000000000818 2.8399999999999781 0 2 3 0 1.649999999999066 2.4249999999984651 0 1.451787781083937 3.11022608666643 0 2 3 0 1.649999999999066 2.4249999999984651 0 2 3 0 1.649999999999066 2.4249999999984651 0 2.2687831884271348 2.397628317379688 0 2.2687831884271348 2.397628317379688 0 2.8857059848027808 2.304389417342541 0 2.6000000000000818 2.8399999999999781 0 2.8857059848027808 2.304389417342541 0 2.6000000000000818 2.8399999999999781 0 3.2000000000001432 2.679999999999962 0 2.6000000000000818 2.8399999999999781 0 3.2000000000001432 2.679999999999962 0 3.2848100522576571 3.06994577157805 0 2.6000000000000818 2.8399999999999781 0 3.2000000000001432 2.679999999999962 0 2.6000000000000818 2.8399999999999781 0 2.9420158813362729 3.5139475164392531 0 2.4236693135559251 3.5256579194055688 0 2.6000000000000818 2.8399999999999781 0 2.9420158813362729 3.5139475164392531 0 3.2848100522576571 3.06994577157805 0 2.9420158813362729 3.5139475164392531 0 3.412636880282601 3.6134558579332841 0 3.1249999999889848 4 0 2.9420158813362729 3.5139475164392531 0 2.75 4 0 3.1249999999889848 4 0 2.9420158813362729 3.5139475164392531 0 2.4236693135559251 3.5256579194055688 0 2.75 4 0 2.23284951060374 1.369095413116082 0 1.887500000003292 0.69999999999999996 0 2.5312500000049418 0.69999999999999996 0 2.23284951060374 1.369095413116082 0 1.887500000003292 0.69999999999999996 0 1.626949751997165 1.3978044304614949 0 1.299999999998378 1.8499999999973351 0 1.626949751997165 1.3978044304614949 0 1.942890303101708 1.90249985684108 0 2.23284951060374 1.369095413116082 0 1.626949751997165 1.3978044304614949 0 1.942890303101708 1.90249985684108 0 1.649999999999066 2.4249999999984651 0 2.2687831884271348 2.397628317379688 0 1.942890303101708 1.90249985684108 0 1.299999999998378 1.8499999999973351 0 1.649999999999066 2.4249999999984651 0 1.942890303101708 1.90249985684108 0 2.2687831884271348 2.397628317379688 0 1.942890303101708 1.90249985684108 0 2.5341028426591712 1.9138806300960609 0 2.23284951060374 1.369095413116082 0 1.942890303101708 1.90249985684108 0 2.5341028426591712 1.9138806300960609 0 2.23284951060374 1.369095413116082 0 2.5341028426591712 1.9138806300960609 0 2.730231246675086 1.4599417336750831 0 2.2687831884271348 2.397628317379688 0 2.8857059848027808 2.304389417342541 0 2.5341028426591712 1.9138806300960609 0 2.8857059848027808 2.304389417342541 0 3.16379900756549 1.750659825629856 0 3.5028943452390711 2.1825773809523441 0 2.8857059848027808 2.304389417342541 0 2.5341028426591712 1.9138806300960609 0 3.16379900756549 1.750659825629856 0 2.5341028426591712 1.9138806300960609 0 3.16379900756549 1.750659825629856 0 2.730231246675086 1.4599417336750831 0 3.16379900756549 1.750659825629856 0 3.047698899035677 1.175177397439602 0 2.730231246675086 1.4599417336750831 0 3.047698899035677 1.175177397439602 0 2.730231246675086 1.4599417336750831 0 2.5312500000049418 0.69999999999999996 0 2.23284951060374 1.369095413116082 0 2.730231246675086 1.4599417336750831 0 2.5312500000049418 0.69999999999999996 0 3.047698899035677 1.175177397439602 0 2.5312500000049418 0.69999999999999996 0 3.1750000000065048 0.69999999999999996 0 3.047698899035677 1.175177397439602 0 3.1750000000065048 0.69999999999999996 0 3.638214240926366 1.265285427893069 0 3.1750000000065048 0.69999999999999996 0 3.638214240926366 1.265285427893069 0 3.8187500000045098 0.69999999999999996 0 3.16379900756549 1.750659825629856 0 3.047698899035677 1.175177397439602 0 3.638214240926366 1.265285427893069 0 3.638214240926366 1.265285427893069 0 3.8187500000045098 0.69999999999999996 0 4.2198317920941601 1.108273596938623 0 3.8187500000045098 0.69999999999999996 0 4.2198317920941601 1.108273596938623 0 4.4625000000026009 0.69999999999999996 0 3.638214240926366 1.265285427893069 0 4.2198317920941601 1.108273596938623 0 4.25 1.5 0 4.2198317920941601 1.108273596938623 0 4.7733688274428578 1.2511819424194319 0 4.25 1.5 0 4.2198317920941601 1.108273596938623 0 4.7733688274428578 1.2511819424194319 0 4.4625000000026009 0.69999999999999996 0 4.7733688274428578 1.2511819424194319 0 4.4625000000026009 0.69999999999999996 0 5.1062500000012143 0.69999999999999996 0 4.4000000000001336 2.3599999999999639 0 5 2.2000000000000002 0 4.6250000000004974 1.8500000000004651 0 4.4000000000001336 2.3599999999999639 0 5 2.2000000000000002 0 4.7733688274428578 1.2511819424194319 0 4.6250000000004974 1.8500000000004651 0 4.25 1.5 0 4.6250000000004974 1.8500000000004651 0 4.25 1.5 0 4.6250000000004974 1.8500000000004651 0 4.25 1.5 0 4.0559490150232032 2.028653202947901 0 4.25 1.5 0 4.0559490150232032 2.028653202947901 0 3.757799744899315 1.759341836734688 0 4.6250000000004974 1.8500000000004651 0 4.0559490150232032 2.028653202947901 0 4.4000000000001336 2.3599999999999639 0 4.0559490150232032 2.028653202947901 0 3.757799744899315 1.759341836734688 0 3.5028943452390711 2.1825773809523441 0 4.0559490150232032 2.028653202947901 0 3.5028943452390711 2.1825773809523441 0 3.8000000000002032 2.5199999999999458 0 3.638214240926366 1.265285427893069 0 4.25 1.5 0 3.757799744899315 1.759341836734688 0 3.16379900756549 1.750659825629856 0 3.638214240926366 1.265285427893069 0 3.757799744899315 1.759341836734688 0 3.16379900756549 1.750659825629856 0 3.757799744899315 1.759341836734688 0 3.5028943452390711 2.1825773809523441 0 2.8857059848027808 2.304389417342541 0 3.5028943452390711 2.1825773809523441 0 3.2000000000001432 2.679999999999962 0 3.2000000000001432 2.679999999999962 0 3.8000000000002032 2.5199999999999458 0 3.5028943452390711 2.1825773809523441 0 3.2000000000001432 2.679999999999962 0 3.8000000000002032 2.5199999999999458 0 3.2000000000001432 2.679999999999962 0 3.2848100522576571 3.06994577157805 0 3.8000000000002032 2.5199999999999458 0 3.2848100522576571 3.06994577157805 0 3.8000000000002032 2.5199999999999458 0 3.8190056356267248 3.2454749759848052 0 3.412636880282601 3.6134558579332841 0 3.5 4 0 3.1249999999889848 4 0 3.2848100522576571 3.06994577157805 0 3.412636880282601 3.6134558579332841 0 3.8190056356267248 3.2454749759848052 0 2.9420158813362729 3.5139475164392531 0 3.2848100522576571 3.06994577157805 0 3.412636880282601 3.6134558579332841 0 3.412636880282601 3.6134558579332841 0 3.874999999992375 3.7500000000050839 0 3.5 4 0 3.412636880282601 3.6134558579332841 0 3.819005635626
[...]
<PointData Scalars="A_conc,B_conc,region_id," Vectors="" Tensors="">
<DataArray type="Float64" Name="A_conc" format="ascii">
0.1861219467623268 0.18031310547295173 0.42896472474924524 0.18152119181824442 0.42636286357082792 0.40225157574155096 0.13835874735049641 0.41958888490872931 0.34628112872984834 0.26830008954001994 0.34752577518017025 0.34217464636658917 0.26586574960414511 0.26723802992079421 0.26577600373762206 0.34921768552641691 0.26750527779859845 0.26561467604451244 0.34795893499648228 0.27150114248454704 0.26412155590122838 0.21893017253981426 0.26481922796678048 0.20283785605590623 0.26421814157095364 0.21888848060164612 0.20305286506290957 0.4783470486825967 0.47112654253776926 0.46064045177177526 -0.082870796800223245 0.41202345466582907 0.50310876267879834 -0.076658062868528165 -0.069015120865308602 0.49825273101949158 -0.094576355564736245 -0.08525868887979858 0.41664254607219731 0.4637543985145024 0.48625152022947321 0.43962846695758762 0.29562803657049291 0.27628166632513984 0.45074743835472764 0.46325527708174208 0.44033605577367868 0.30683987231296866 0.40601784450104789 0.20836689874486003 0.4928225661613328 0.32306310592020132 0.43361967717450545 0.40846563243270195 0.20634331071763012 0.422063922808666 0.26128851605055509 0.23562329712215213 0.2771386022417896 0.27211935786909408 0.22701712256109322 0.26925446676385878 0.26154839269044722 0.23561220644082112 0.22222692403104255 0.2260960179774299 0.21285715171635855 0.20856851871667184 0.24227462056415239 0.22589776217963481 0.21275623150023784 0.20373709560282915 0.22026832805133317 0.42353721643111647 0.22153910484868825 0.44036945641039282 0.50077174464263929 0.5093485223760128 0.49386634949766417 0.53354623888332398 0.21793509384904713 0.39107338663429753 0.50302379618565651 0.22639542404109272 0.36062188521579019 0.17582311345068652 0.32981918787700337 0.23819188808640612 0.46659752860955644 0.36125906901285865 0.17549128665075711 0.49200289113588119 0.33254090527519053 0.46616869355657586 0.19718133587266734 0.31421065786390584 0.18708190169554328 0.19660589466771644 0.19388236528912184 0.19307520215345669 0.20853606716496745 0.21277133444700672 0.19109286155371602 0.20868515370167753 0.19500531309476168 0.33709378470718382 0.31505533308371569 0.31382591247052216 0.30033458574026839 0.18616286199873616 0.29947790888827297 0.18814429905939856 0.19016949689004167 0.21226303010958675 0.20152671710711353 0.37359436435996773 0.1941313724391425 0.19316508918028877 0.23635391303689962 0.46494868948778106 0.4694859303667645 0.23579245739707028 0.46431389330949319 0.36332787016296664 0.45069804185941426 0.41963436425062373 0.47357545232822945 0.45649521298545409 0.50815090612984881 0.47254763331952165 0.46120429083883224 0.48591208445020989 0.50990045005286866 0.43360581674148302 -0.061859283673911122 -0.053405829325413781 0.43544848375169165 -0.064866351606030243 0.48987261097836859 0.47175594787593994 0.44907275885280495 0.42681806778019798 0.40845725793880117 0.45135644674483272 0.42393702980116826 0.34493794969716923 0.33151991423668348 0.44356955944809578 0.4824130844385196 0.34720175421339206 0.44365476822373434 0.33610627381206065 0.43695808546685533 0.39296069301955511 0.408466479021247 0.42239679025642834 0.36757357080116915 0.4137211864668438 0.36368937153012931 0.35263439662290247 0.33581069463162611 0.32362308607719148 0.39245313631575662 0.33308591154442502 0.32100050598585861 0.30148274094415595 0.33302261824191376 0.37378810622995379 0.32094871459634344 0.37864451047667219 0.30694908153895178 0.33752518205750054 0.29500765601914325 0.34059518014036083 0.34553493338595498 0.32302754454418164 0.4494401274928605 -0.041497907255478528 0.42473927600099587 0.45397354729745021 -0.049007094754453764 0.31252525733124598 -0.08786697112038111 -0.079844335193037505 0.31181646987557876 -0.07939726637040237 0.3733744755200753 -0.078232837742663833 0.37238396350856112 -0.069736190040546528 0.29171738221022081 0.34414927610777152 0.3005031173266085 0.37030086292184877 -0.068671124445131307 0.25258527156367566 -0.073745905047412227 0.22377201681427053 -0.069328011358464295 0.2990735314913982 0.31263649947229089 0.23309406621272913 0.32194726585341904 0.32906607160498236 0.22374309323398553 0.22781403079739301 0.14615816906639573 -0.071053429946123056 0.11654769054021645 -0.027982099962968788 -0.017123278927382031 0.19099547045356724 0.1898343844907556 0.21102819044701968 0.21594380611336117 0.18930136445694759 0.33448477721481118 0.259027610343814 0.21393213366124259 0.19227675522340226 0.21296414500460251 0.19560556570480292 0.20618249206257713 0.24462547773057924 0.20559454214437092 0.24481800765970821 0.25405668669591641 0.21052727609446747 0.25499340829877837 0.21559737209856877 0.25531470734986544 0.25402468543863443 0.30474360403134437 0.27269689678200165 0.28629397289329772 0.20322355937827491 0.29402748982928795 0.21752053745882369 0.24004767401372926 0.29102866099195285 0.29152828014295651 0.24043354335919617 0.30521239387304949 0.25296483672930753 0.30530476928715922 0.30219181185563271 0.29265191945362395 0.18969979670645704 0.19315222109186375 0.19211396538533901 0.29177883715878966 0.19159556919859014 0.19815279196535743 0.2045552422497679 0.36587700244263721 0.2246005513290189 0.33950001018039111 0.24285691192734329 0.36488379698408158 0.38547980908695445 0.38409682959204705 0.46543816083817097 0.33828453439268835 0.42929784403273852 0.36598413304646182 0.43592532976252046 0.33857727802247523 0.43016683227965619 0.38381058229513854 0.28499993316662064 0.38316459616039944 0.383315540034876 0.31212156918975653 0.28557324176727555 0.31174570351999864 0.28738164843005298 0.20854491888168639 0.23887564279625637 0.24147655377447716 0.21644278419180105 0.20239560943878068 0.21766945090536585 0.22980247987382593 0.21675181775400076 0.21731172498087056 0.23624879486965997 0.21818524447169496 0.31083333092100313 0.20984134768273491 0.25748508429136774 0.200991932996648 0.25111349056641663 0.20015920363213649 0.22160761553572741 0.2003956352108445 0.25187379062914467 0.20363636054556644 0.1820745275111631 0.18721234413496371 0.20247281066985437 0.19542298697367658 0.21832153426784018 0.19210446863071665 0.19100596646212256 0.24757295810503635 0.31482546597277372 0.23124593339929647 0.27227349098828113 0.20449707395261216 0.20614835896672465 0.2449925517492656 0.36275006537000659 0.31571302858444317 0.29801600846245985 0.28687866842124909 0.23878081783606084 0.25637003771312522 0.23416801581513649 0.2029259260622801 0.31175608839784541 0.19631201826130312 0.16291262728148637 0.31609213096768635 0.1569535836747511 0.49442413226140958 0.16475366171164518 0.17976179364985895 0.1659626743398534 0.17001881255881962 0.2334106952240208 0.17880369730342943 0.17958850331076079 0.23399628649841661 0.20403602126135442 0.17907636728316695 0.16549452862556416 0.17254429061713922 0.16530398372845745 0.17962908924408055 0.18070247284650989 0.16819440914307809 0.092692983891767902 0.2956303538065217 0.12832343980953953 0.25778759729627165 0.10504919643710335 0.16529645141760124 0.16678334782023435 0.20244949730742656 0.33513978138179101 0.068802158521208467 0.18210037832668491 0.18764491208151707 0.20621801035471171 0.17940363012226673 0.19944564853789173 0.17993844175919116 0.19897515233768664 0.17388306036259377 0.18183421064147812 0.17314765183008185 0.20717710606348599 0.49092852578751428 0.44790795478742207 0.48009865466724233 0.48009096674750973 0.43958854419046445 0.51924471590561394 0.46317806873789064 0.34292355333462154 0.20918050673485911 0.53468473442829922 0.34719725895127357 0.48657806357709643 0.4885696886971555 0.46813221963154245 0.10628861024113652 0.11072746553986995 0.42361187299881142 0.50408776304880398 0.39006964455401527 0.47903591153009184 0.36022154170169823 0.46739473606850918 0.32238482163946913 0.26658134642520481 0.4669319252772573 0.33035744348198343 0.36434965837495914 0.3342125586265785 0.28055731895994063 0.47214361414013656 0.10626453901090512 0.10298782018798858 0.28953140650245363 0.46155864122694229 0.27025367737898187 0.12505046196163708 0.11796063129976249 0.45722292188820829 0.51093627776510608 0.34480197017054542 0.36803934128701166 0.32885390230681849 0.51217162721095377 0.34226471193596159 0.36418169789668742 0.32851493292952311 0.19247380758162375 0.35899742534828438 0.11833162511082977 0.11633467285738776 0.1055794179102674 0.3813891305352492 0.34260551614284446 0.10151407118825523 0.1038605104986943 0.38330821294165673 0.096728763169632553 0.38731135446596932 0.29325091517235186 0.51869301325727002 0.11131216842383111 0.38801206189695786 -0.0039992790799559053 0.10289458745167647 0.13864136093605034 0.076429245199352305 0.029147676852260378 0.0028913152762492242 0.083227344707442349 0.0045302115156357244 0.54314803390568434 0.099371370594919156 0.15400750250898831 0.007391232649629923 0.26189056634722568 0.072278871086461638 0.028092585275480916 0.032984497400539527 0.11923398069005568 0.013875433371003772 -0.017511306854902643 0.19616616364313336 0.00011358680809781582 0.27335712255158257 0.30129268602634157 0.30506827810678938 0.35151254360385958 0.34159670189597258 0.30030565664357189 0.19568224919996233 0.18951573474373784 0.24189181584272981 0.28958899272135086 0.36927407997625489 0.30372699719780688 0.27409445804173954 0.56480361252100708 0.16776103487025956 0.32625601524965192 0.29481140879908918 0.55834654312833043 0.13398717044580047 0.6029375747970831 0.40984455904838668 0.26897473348744533 0.57481208895268354 0.57725694185956455 0.33015890914898294 0.33358767534835976 0.56468544178295521 0.59589199857682373 0.37145576868196695 0.60746546443085303 0.36479028790149959 0.43820909371441014 0.51736501682419456 0.39002325933155718 0.4601632299483116 0.37469568358733246 0.49142822192539404 0.25415479419926518 0.33334685193273905 0.55750495905794439 0.19447429017485562 0.41902838253862829 0.4201068953890752 0.49843489645063299 0.40231397116755452 0.51778704630975259 0.42004313841463176 0.41979160347437983 0.52823740852978096 0.51482670549317477 0.22064956906345873 0.53164348345356283 0.19114721237339938 0.3786553800171612 0.4194353958065537 0.416383021738916 0.40031682248513106 0.50642415506682581 0.49628764792337127 0.56295354650266793 0.34083378828873157 0.52003228427543913 0.3138759021284997 0.39647062550311646 0.52045639399518928 0.53081324545759057 0.50339206168378337 0.46071264108858317 0.52247731109709739 0.4409168597197109 0.44984426532043104 0.51920465173439057 0.41952514703512706 0.42532409072481608 0.25785636298017539 0.23454076519924932 0.16992391102990589 0.27320525694886655 0.23671990132041798 0.45482991265467149 0.40365249147216503 0.41598288154446766 0.24217971356026818 0.40984628351102043 0.33586045978864498 0.41394020646610652 0.34009774076765908 0.51126763321834623 0.12999660640027835 0.12069026242947062 0.18542526622432592 0.12346229855890056 0.18705618506747956 0.22157105746653269 0.24114923523983672 0.20869190046233335 0.33754774494985512 0.10247814274021518 0.1064998212112984 0.18063793423308386 0.36671116883983457 0.21815015831335605 0.38107130639015085 0.21955567317698749 0.32139440370645395 0.1077980756406199 0.23322291666453515 0.099341916763961202 0.22450141643241758 0.10169884360619601 0.10135938262702138 0.23001035386934901 0.083713984131678104 0.29597751967195035 0.11108496367376616 0.11746972252674723 0.098060857805875506 0.26510136620618313 0.099066480807997112 0.2702591570015625 0.22611272872141711 0.091724945339698744 0.11761742818681808 0.12082709524428888 0.16601623561051845 0.21982050124614219 0.10727293676318046 0.23149372580363234 0.17318490941170436 0.41222471582420933 0.45013234414668452 0.54771206617108925 0.43610210247188852 0.46224359364340561 0.10576583747797688 0.12204053386215517 0.38344543364504891 0.32413628300278752 0.48859158977216588 0.51412110162211566 0.27803274227884112 0.29533466438462325 0.53212343405303475 0.23403767620235949 0.49436471286148176 0.53292367497749382 0.3427277948310074 0.53833060395297394 0.55403403690779707 0.48785246631647294 0.65664680845118062 0.34702711468469649 0.11673933279107314 0.15609288899138318 0.1569329820102455 0.64299542647013408 0.12330421226531794 0.17351639786672488 0.42235431520621808 0.41628541411559744 0.029448305831141726 0.15697780599118888 0.16144732933280126 0.42122951134354725 0.20495386308413516 0.031416545765931461 0.41683177429235363 0.027538137886862803 0.30457646459549331 0.11909591219811121 0.11505712901424485 0.16828052583906947 0.11814632065784643 0.16844090370753459 0.1603954539678398 0.21940064314772287 0.10681710062483432 0.20017467956333981 0.1292714504329002 0.11917221115788355 0.15702250080102947 0.11813908739739738 0.11378077307233729 0.24121028056498267 0.18889587760952495 0.1803463404760553 0.16759824090281017 0.16023075920954358 0.19235621496766189 0.13592365883868585 0.18086909835614495 0.19262936219401774 0.13996541108941654 0.17272260482905938 0.19753805808016503 0.15872277066933205 0.19231942269144689 0.20300570133443643 0.24582696575065424 0.37309959207234678 0.3195431395448452 0.24052661784022192 0.23451236625261951 0.24835671828507083 0.35042360176502513 0.35898263319472401 0.30204177615492739 0.024367246588930521 0.30364082753750549 0.26986404256218383 0.076323226524603591 0.13799507060282945 0.19100483415237976 0.30234157963805802 0.43185632977112876 0.41946662213570751 0.3597981938141529 0.29554900193871408 0.43926742776200395 0.29501806997671803 0.27358674516036396 0.27758630825781727 0.29242633219006031 0.26387898259775411 0.26857689958292874 0.26150988420218685 0.27444518831287706 0.26158865635169132 0.41768052480450674 0.43578242144416601 0.24967892550095808 0.26823912852076909 0.42221190442672568 0.30013215513872649 0.26886885057612986 0.25954976328280982 0.26062333531975329 0.25958582386839429 0.2641630791341939 0.25950919240905601 0.3660615808983998 0.4744815915046518 0.44858111051399902 0.28020668369624363 0.28024919186937125 0.25969352793691708 0.26358319940164776 0.25941256129371182 0.35931645610490226 0.44933865801152489 0.42601418358265847 0.4219581920407392 0.3301636151590811 0.4076657247066266 0.5654423868062145 0.1612379181287639 0.17013300712886717 0.4163358670665237 0.30635791666219475 0.44025272254839293 0.45057827481001711 0.48132604331925921 0.45037793701966433 0.26968913881617901 0.43855863608219603 0.41830134892594351 0.4195610975654262 0.62846065232883175 0.31250240343568741 0.58628880051920729 0.47645537721605402 0.22487353322827167 0.11339392910560718 0.47222510974364962 0.22798385460175127 0.47572793828327375 0.43962532317656855 0.50594800990208288 0.46935967026615522 0.44734257030342156 0.49899641991765165 0.46122505951748594 0.48029819512142641 0.42711542874883751 0.45176728961169466 0.48724237582213786 0.47938980479893389 0.50931933946787178 0.19879774942338566 0.51207867780765015 0.37133418606242652 0.19756036294854387 0.41853288923573101 0.25136013040611938 0.44425871719293125 0.26321329911824076 0.40197884398421979 0.24365030865118836 0.38836398194088712 0.39335350123966512 0.25949625035350044 0.2595536195596152 0.42840696130459621 0.30703405677164741 0.28891813805350319 0.27730288544215259 0.30545974031130674 0.27608923910446559 0.31342190855073415 0.30592422373272488 0.26063564411852419 0.26159409154892355 0.28495049300891701 0.27074807479403884 0.35147233460225125 0.33438702671176135 0.29428881116993011 0.28871482691608347 0.26159754046775158 0.26251575599935667 0.27031317805943172 0.35181503348747123 0.32659472974813164 0.26489220186341256 0.2559922443028696 0.31534478485570744 0.27335655765923322 0.25289006271079389 0.34575047753111848 0.2624973218153509 0.26348129178204854 0.33528350387122369 0.28763650363002857 0.3447846330815505 0.3784098870857624 0.3809130013178656 0.33788564449831582 0.43983987970023131 0.38926516946184991 0.52254416115835201 0.49077549907147189 0.51230735408178618 0.5362880796914139 0.40058411585745607 0.34110205221637824 0.42757766066276987 0.35020737529245355 0.3895830468666589 0.40828260378270009 0.3524362111913612 0.35690364975537026 0.16885979817589783 0.1977311006272057 0.22852861278155107 0.23370071820787389 0.23335808207542835 0.23118169798724314 0.24148983409370459 0.28522908977849692 0.29808767676821379 0.2986814369742839 0.29795331508685474 0.29851723288669435 0.33373417719136989 0.22914052036193908 0.34039143518318332 0.3593036356608178 0.27489956546152755 0.28158654801089361 0.14949490749506242 0.20818872624938534 0.34190223852698653 0.14733693928279964 0.22822758463033294 0.3420715325028425 0.26440658025194153 0.27504514714343775 0.28761640372310099 0.34822320035900117 0.2865353204391346 0.35318551526055519 0.30441206637201973 0.36482080378890636 0.27777308177495769 0.26320548725062515 0.27785907766702206 0.35475481875611314 0.27738328168753379 0.28001582891456417 0.27296186067522504 0.26282134392048889 0.39966924092513145 0.45957851790008208 0.51226626888188342 0.2622821982782555 0.29612513629746118 0.39791325707099706 0.26061211672536866 0.39976375205209264 0.26444128338073397 0.2652117164228377 0.29587814737557117 0.42419754425545442 0.50512458504840796 0.4461427314175595 0.47047590539126766 0.47097370532923943 0.44441163825599633 0.47088631038887602 0.26757032450817131 0.27631669381264651 0.49929466756846114 0.38507288286613484 0.41555433622345817 0.50184810638634947 0.38306549912206544 0.49903418833264246 0.29936241760310617 0.35114809341295578 0.49989456607019966 0.26492413327990005 0.26793039974883509 0.27196778027744112 0.27242364034751887 0.3176399403078069 0.27227286511550697 0.31771337976943664 0.31118225634680463 0.36708086557571962 0.33854987328687564 0.31015548494891954 0.27860140041691961 0.27619518448342373 0.31065935686227431 0.3048448227547651 0.33095210733921759 0.36387257339531159 0.367785414392578 0.3816439530918378 0.30915360796546815 0.33296605336114299 0.39394957866968111 0.30280498958288049 0.38961514909459466 0.30466298263130642 0.31147280995967458 0.30962225142981092 0.31816070126790463 0.27207514219981432 0.28927401339232223 0.31265458259049123 0.27375885242829345 0.26962793051756251 0.30946435252000609 0.27236810444414494 0.33767330617207214 0.2392412277210216 0.40217009490098854 0.38746101955414597 0.38018809398253645 0.33179816685665486 0.25884137509086341 0.31829568230305155 0.25039476168808961 0.26046862051266467 0.29615564930783372 0.25707979090638639 0.26308526048047925 0.26570597546084446 0.29618134407890034 0.25707614901313214 0.29340759313139159 0.25706196239561135 0.29343375712544545 0.29696774969793877 0.38598573650425716 0.30605095517839048 0.30118728270164796 0.2389269790386353 0.37690420106442102 0.40253790417682633 0.24426020946504515 0.26407459377217568 0.3576043908052256 0.51396163257679051 0.43269054962822467 -0.02322620858765707 0.44472830369168503 -0.075802715467801332 -0.087917014307244065 0.44199439149113451 -0.074224252385138051 0.28843126436008831 0.16254900838391359 -0.066875939272040774 -0.061857052255561741 0.29664788768223765 0.1720775477021784 -0.065890328950867175 -0.08434601568896255 0.26707673359259032 -0.078187679097277668 0.41135269817904346 0.24583242343547132 0.28198966549143323 0.18314950435765642 0.27783743636584823 -0.083188742868399571 -0.013050599935636401 0.18108886324341888 0.13645322813816774 -0.021727072602926077 0.18698775667170323 0.010742248141933867 0.30349209972623437 0.14763543754723968 -0.07478701776770294 -0.0091934027713677004 0.12508361178773358 -0.026230935331173721 0.24795351154175055 0.19801602106557498 0.007947382365977437 0.25169648362758967 0.0023976793513162276 0.21287219082215456 0.095011940037676421 0.012794390201265477 0.23561895161479768 0.093189734256161033 0.2547937290874871 0.34310608089998434 0.19874649834377262 0.3551588391417404 0.38615763127148234 0.046230788047959749 0.34992421627105835 0.19688126520407495 0.35987924731563697 0.59433548918482693 0.38996314933678994 0.36814793528149015 0.60790475254774912 0.2007426216365959 0.59245540831541321 0.67876245947599667 0.58175702994380174 0.61627490641459937 0.4614