<?xml version="1.0"?>
<VTKFile type="UnstructuredGrid" version="0.1" byte_order="LittleEndian">
<UnstructuredGrid>
<Piece NumberOfPoints="2028" NumberOfCells="724">
<Points>
<DataArray type="Float64" NumberOfComponents="3" format="ascii">
0 3.7000000000000002 0 0.56249999999824107 3.9749999999991399 0 0 0.69999999999999996 0 0 1.6319639930219929 0 0.59999999999999998 0.69999999999999996 0 0.59999999999999998 0.69999999999999996 0 0 1.6319639930219929 0 0.94999999999923723 1.2749999999987469 0 1.243750000001385 0.69999999999999996 0 0.59999999999999998 0.69999999999999996 0 0.94999999999923723 1.2749999999987469 0 1.626949751997165 1.3978044304614949 0 1.887500000003292 0.69999999999999996 0 1.243750000001385 0.69999999999999996 0 0.94999999999923723 1.2749999999987469 0 1.626949751997165 1.3978044304614949 0 1.243750000001385 0.69999999999999996 0 0.68142292217753131 2.106313194182027 0 1.299999999998378 1.8499999999973351 0 0.94999999999923723 1.2749999999987469 0 1.299999999998378 1.8499999999973351 0 1.626949751997165 1.3978044304614949 0 0.94999999999923723 1.2749999999987469 0 1.299999999998378 1.8499999999973351 0 1.186467289461244 2.488259157846338 0 1.649999999999066 2.4249999999984651 0 1.299999999998378 1.8499999999973351 0 0.68142292217753131 2.106313194182027 0 1.186467289461244 2.488259157846338 0 0 1.6319639930219929 0 0.68142292217753131 2.106313194182027 0 0.94999999999923723 1.2749999999987469 0 0 2.430303940964651 0 0.68142292217753131 2.106313194182027 0 0 1.6319639930219929 0 0.68142292217753131 2.106313194182027 0 0 2.430303940964651 0 0.70993008501830757 2.9054181396964478 0 0 3.1141786369756268 0 0.70993008501830757 2.9054181396964478 0 0 2.430303940964651 0 0.45714634023723411 3.4614941897304652 0 0.70993008501830757 2.9054181396964478 0 0 3.1141786369756268 0 0 3.7000000000000002 0 0.45714634023723411 3.4614941897304652 0 0 3.1141786369756268 0 0.45714634023723411 3.4614941897304652 0 0 3.7000000000000002 0 0.56249999999824107 3.9749999999991399 0 0.45714634023723411 3.4614941897304652 0 0.56249999999824107 3.9749999999991399 0 1.013301616169622 3.6128741719811099 0 0.70993008501830757 2.9054181396964478 0 0.45714634023723411 3.4614941897304652 0 1.013301616169622 3.6128741719811099 0 1.013301616169622 3.6128741719811099 0 1.451787781083937 3.11022608666643 0 0.70993008501830757 2.9054181396964478 0 1.451787781083937 3.11022608666643 0 1.013301616169622 3.6128741719811099 0 1.593428957229921 3.8897035774451321 0 1.186467289461244 2.488259157846338 0 0.70993008501830757 2.9054181396964478 0 1.451787781083937 3.11022608666643 0 0.70993008501830757 2.9054181396964478 0 1.186467289461244 2.488259157846338 0 0.68142292217753131 2.106313194182027 0 1.649999999999066 2.4249999999984651 0 1.186467289461244 2.488259157846338 0 1.451787781083937 3.11022608666643 0 0.59999999999999998 0.69999999999999996 0 0.94999999999923723 1.2749999999987469 0 2.2687831884271348 2.397628317379688 0 1.649999999999066 2.4249999999984651 0 2 3 0 2.6000000000000818 2.8399999999999781 0 2.2687831884271348 2.397628317379688 0 2 3 0 1.649999999999066 2.4249999999984651 0 1.451787781083937 3.11022608666643 0 2 3 0 1.451787781083937 3.11022608666643 0 2.08333333333292 3.599999999997022 0 2 3 0 1.593428957229921 3.8897035774451321 0 2.08333333333292 3.599999999997022 0 1.451787781083937 3.11022608666643 0 2.4236693135559251 3.5256579194055688 0 2.1666666666662731 4.1999999999971616 0 2.08333333333292 3.599999999997022 0 2.4236693135559251 3.5256579194055688 0 2 3 0 2.6000000000000818 2.8399999999999781 0 2.08333333333292 3.599999999997022 0 2 3 0 2.4236693135559251 3.5256579194055688 0 2.6000000000000818 2.8399999999999781 0 2.9420158813362729 3.5139475164392531 0 2.4236693135559251 3.5256579194055688 0 2.4236693135559251 3.5256579194055688 0 2.9420158813362729 3.5139475164392531 0 2.75 4 0 2.9420158813362729 3.5139475164392531 0 3.412636880282601 3.6134558579332841 0 3.1249999999889848 4 0 3.1249999999889848 4 0 2.75 4 0 2.9420158813362729 3.5139475164392531 0 2.6000000000000818 2.8399999999999781 0 3.2848100522576571 3.06994577157805 0 2.9420158813362729 3.5139475164392531 0 3.2848100522576571 3.06994577157805 0 2.6000000000000818 2.8399999999999781 0 3.2000000000001432 2.679999999999962 0 2.2687831884271348 2.397628317379688 0 2.6000000000000818 2.8399999999999781 0 2.8857059848027808 2.304389417342541 0 2.8857059848027808 2.304389417342541 0 2.6000000000000818 2.8399999999999781 0 3.2000000000001432 2.679999999999962 0 3.5028943452390711 2.1825773809523441 0 3.16379900756549 1.750659825629856 0 2.8857059848027808 2.304389417342541 0 2.8857059848027808 2.304389417342541 0 3.16379900756549 1.750659825629856 0 2.5341028426591712 1.9138806300960609 0 2.5341028426591712 1.9138806300960609 0 3.16379900756549 1.750659825629856 0 2.730231246675086 1.4599417336750831 0 2.730231246675086 1.4599417336750831 0 2.23284951060374 1.369095413116082 0 2.5341028426591712 1.9138806300960609 0 2.5341028426591712 1.9138806300960609 0 2.2687831884271348 2.397628317379688 0 2.8857059848027808 2.304389417342541 0 2.5341028426591712 1.9138806300960609 0 1.942890303101708 1.90249985684108 0 2.2687831884271348 2.397628317379688 0 1.942890303101708 1.90249985684108 0 1.649999999999066 2.4249999999984651 0 2.2687831884271348 2.397628317379688 0 1.649999999999066 2.4249999999984651 0 1.942890303101708 1.90249985684108 0 1.299999999998378 1.8499999999973351 0 1.942890303101708 1.90249985684108 0 1.626949751997165 1.3978044304614949 0 1.299999999998378 1.8499999999973351 0 2.23284951060374 1.369095413116082 0 1.626949751997165 1.3978044304614949 0 1.942890303101708 1.90249985684108 0 2.23284951060374 1.369095413116082 0 1.942890303101708 1.90249985684108 0 2.5341028426591712 1.9138806300960609 0 2.23284951060374 1.369095413116082 0 1.887500000003292 0.69999999999999996 0 1.626949751997165 1.3978044304614949 0 1.887500000003292 0.69999999999999996 0 2.23284951060374 1.369095413116082 0 2.5312500000049418 0.69999999999999996 0 2.5312500000049418 0.69999999999999996 0 2.730231246675086 1.4599417336750831 0 3.047698899035677 1.175177397439602 0 2.23284951060374 1.369095413116082 0 2.730231246675086 1.4599417336750831 0 2.5312500000049418 0.69999999999999996 0 3.047698899035677 1.175177397439602 0 2.730231246675086 1.4599417336750831 0 3.16379900756549 1.750659825629856 0 2.5312500000049418 0.69999999999999996 0 3.047698899035677 1.175177397439602 0 3.1750000000065048 0.69999999999999996 0 0.94999999999923723 1.2749999999987469 0 1.299999999998378 1.8499999999973351 0 3.047698899035677 1.175177397439602 0 3.638214240926366 1.265285427893069 0 3.1750000000065048 0.69999999999999996 0 3.1750000000065048 0.69999999999999996 0 3.638214240926366 1.265285427893069 0 3.8187500000045098 0.69999999999999996 0 0.56249999999824107 3.9749999999991399 0 1.1249999999964171 4.2499999999982494 0 3.8187500000045098 0.69999999999999996 0 3.638214240926366 1.265285427893069 0 4.2198317920941601 1.108273596938623 0 3.638214240926366 1.265285427893069 0 3.047698899035677 1.175177397439602 0 3.16379900756549 1.750659825629856 0 3.638214240926366 1.265285427893069 0 3.16379900756549 1.750659825629856 0 3.757799744899315 1.759341836734688 0 3.757799744899315 1.759341836734688 0 3.16379900756549 1.750659825629856 0 3.5028943452390711 2.1825773809523441 0 4.0559490150232032 2.028653202947901 0 3.5028943452390711 2.1825773809523441 0 3.8000000000002032 2.5199999999999458 0 3.757799744899315 1.759341836734688 0 3.5028943452390711 2.1825773809523441 0 4.0559490150232032 2.028653202947901 0 3.757799744899315 1.759341836734688 0 4.25 1.5 0 3.638214240926366 1.265285427893069 0 4.0559490150232032 2.028653202947901 0 4.6250000000004974 1.8500000000004651 0 4.25 1.5 0 3.757799744899315 1.759341836734688 0 4.0559490150232032 2.028653202947901 0 4.25 1.5 0 4.6250000000004974 1.8500000000004651 0 4.0559490150232032 2.028653202947901 0 4.4000000000001336 2.3599999999999639 0 4.6250000000004974 1.8500000000004651 0 4.4000000000001336 2.3599999999999639 0 5 2.2000000000000002 0 4.7733688274428578 1.2511819424194319 0 4.25 1.5 0 4.6250000000004974 1.8500000000004651 0 4.2198317920941601 1.108273596938623 0 4.25 1.5 0 4.7733688274428578 1.2511819424194319 0 4.25 1.5 0 4.2198317920941601 1.108273596938623 0 3.638214240926366 1.265285427893069 0 3.8187500000045098 0.69999999999999996 0 4.2198317920941601 1.108273596938623 0 4.4625000000026009 0.69999999999999996 0 5.1062500000012143 0.69999999999999996 0 4.4625000000026009 0.69999999999999996 0 4.7733688274428578 1.2511819424194319 0 4.4625000000026009 0.69999999999999996 0 4.2198317920941601 1.108273596938623 0 4.7733688274428578 1.2511819424194319 0 4.7733688274428578 1.2511819424194319 0 5.5000000000008269 1.1999999999983459 0 5.1062500000012143 0.69999999999999996 0 5.5000000000008269 1.1999999999983459 0 4.7733688274428578 1.2511819424194319 0 5.2500000000007052 1.6999999999985891 0 5.1062500000012143 0.69999999999999996 0 5.5000000000008269 1.1999999999983459 0 5.75 0.69999999999999996 0 5.75 0.69999999999999996 0 5.5000000000008269 1.1999999999983459 0 6.1230253171455891 1.2440604005832661 0 6.4375000000000027 0.69999999999999996 0 5.75 0.69999999999999996 0 6.1230253171455891 1.2440604005832661 0 5.8758020027701336 1.829281458631685 0 6.1230253171455891 1.2440604005832661 0 5.5000000000008269 1.1999999999983459 0 6.6325887022434813 1.7109098098422979 0 6.1230253171455891 1.2440604005832661 0 5.8758020027701336 1.829281458631685 0 6.3749999999999796 2.350000000000005 0 6.6325887022434813 1.7109098098422979 0 5.8758020027701336 1.829281458631685 0 6.3749999999999796 2.350000000000005 0 5.8758020027701336 1.829281458631685 0 5.75 2.5 0 5.4251604005540912 2.1458562917259631 0 5.75 2.5 0 5.8758020027701336 1.829281458631685 0 5.4251604005540912 2.1458562917259631 0 5.2500000000007052 1.6999999999985891 0 5 2.2000000000000002 0 5.2499999999996163 2.499999999999539 0 5.4251604005540912 2.1458562917259631 0 5 2.2000000000000002 0 5.875802002770
[...]
<PointData Scalars="A_conc,B_conc,region_id," Vectors="" Tensors="">
<DataArray type="Float64" Name="A_conc" format="ascii">
0.35359472288888394 0.34008090148034653 0.19228319325794543 0.49563078809863037 0.18928618204675363 0.19031721099507073 0.49337381305222661 0.46564178455061372 -0.11180499369393548 -0.12012263396300432 0.43481531842843374 0.54601115169366654 -0.10074951766582131 -0.10891641959861302 0.43425430769920059 0.54878922148530818 -0.11136400076343095 0.33418246804653112 0.33219479628042858 0.40572139174950539 0.5477080250256402 0.52281341104424328 0.501942895014591 0.32851327956568371 0.28386026387901447 0.26670151942475356 0.32792346357220553 0.3371190119721757 0.28438977961217426 0.40370091052823376 0.33613922999224843 0.40430130079896137 0.3397146092329133 0.33294749315197469 0.39995933732258176 0.32667646122122246 0.34792015916538344 0.3038844482738719 0.35078944398287104 0.30102208061335373 0.33988371218287111 0.43762880143357469 0.29415532117661591 0.37324929358953457 0.47989775145393876 0.45083451068414404 0.38698599709983666 0.46588668357556628 0.45744994366130931 0.45986953330870428 0.46668051204845612 0.45892801276351425 0.48580096666192502 0.29061758063438586 0.44183062507324872 0.4507946664172644 0.45352056434082744 0.29533103763504931 0.2859548959271408 0.29996111311946738 0.46387038963810012 0.51429804190614969 0.28885020175306553 0.3103964790223796 0.27672019856308866 0.30343198736392241 0.28638980667304548 0.3274560157478098 0.26966698641823666 0.28933457582898792 0.27689395278669449 0.14083314791065665 0.48574121022235334 0.39380658465299262 0.41857381193188631 0.25681946578399495 0.24564529997041562 0.39300461141322612 0.25819741837655674 0.27000254295356307 0.2766309538930864 0.25157505300248273 0.29178341597352958 0.41641952537772714 0.24148043204257053 0.5185514387279998 0.44073532012321326 0.29366332181567695 0.55049877444460615 0.53658859415402804 0.54115581967524007 0.5242171503793478 0.40606887796832014 0.31816656898218593 0.5343689679929835 0.41237416817385347 0.52246222720010282 0.31130216244010656 0.54035337789130722 0.53349510418424917 0.54092571772950082 0.53373520788672335 0.55567323628862242 0.52018966188872473 0.51194829280199283 0.54980915949310727 0.54923763976284246 0.55992491997802774 0.52638663795440588 0.30556037276351927 0.4459082001873132 0.54197581188932764 0.45485711866136908 0.27608823251905212 0.26387487364136053 0.39280274728553305 0.24435128744187537 0.37751726568940852 0.37645765259182157 0.24647370492579485 0.24861718223896029 0.3813746273588916 0.40328367739594706 0.41563037003488518 0.41606001384366603 0.40406545099772212 0.45805646209012696 0.46771269889457745 0.40243558765738319 0.42329141819335064 0.43635052895640075 0.48389134625008651 0.45877832408978897 0.47708724837482802 0.41639799335580607 0.4061272517398159 0.477464451846354 0.51293233007873218 0.41923062375755538 0.51741354137440088 0.42774744807577458 0.41539917977973162 0.43401806507939822 0.5164585280464955 0.5395601270924153 0.51152150920197159 0.51410786184022794 0.53631612802291218 0.48230658951729832 0.51468391802523417 0.5084994899807429 0.48088112910758779 0.50763729488191733 0.46290963612779734 0.48470984258104932 -0.098432967586078918 0.54137761798234574 -0.095037697633121754 0.48139275942728404 -0.086164845143994348 -0.076328929709041954 0.51201134867591058 0.33201165027201407 0.47468974245324558 0.51636423789573493 -0.082794910382451459 0.37594250071976204 0.41815742397071515 0.39717806849003179 -0.10056754816140047 0.30542243315865697 -0.093613990957252952 0.40684961946661574 0.3328995680388242 0.30649466712124512 0.37370987875691519 -0.093990839988098929 -0.094289226383451968 0.37357078282934947 -0.086054082763783263 0.33990391165799355 0.33285336947262351 -0.085863354652893797 0.37332810335542055 0.22617128121555061 0.3585903049233522 0.38043070283953656 0.39251901948601214 0.35750389880074152 0.37595299629337847 0.31520131557707431 0.32298054263702636 0.38485879796281697 0.3853372733544323 0.34566953960964553 0.36246609701180399 0.26347243305414925 0.32357574136135775 0.38477215229928968 0.32495075224865788 0.31445215989674247 0.29280966342535875 0.36032135941937737 0.31181668338730367 0.25510814800381199 0.26667972558074793 0.32336251049334575 0.31219514651718644 0.26555239285644366 0.27169744862925194 0.32435765525619237 0.2777063998233163 0.27272628342709482 0.27839916512250895 0.24853710825755096 0.31363481659614822 0.30371178894394174 0.32454039032145754 0.30658006441361102 0.31728350347059392 0.30582823078106519 0.3298708039601127 0.29389806355352621 0.33771938721386069 -0.070557824043372533 0.19493386300075224 -0.069117493067534855 -0.026393740902481099 -0.031148709748881891 0.097453723745893367 -0.072377691962998272 0.20185005838527786 0.12573436013176184 0.10278640542273565 -0.0060075474992594986 -0.028504719378348801 -0.01894328251360301 0.18304708391972219 0.29033422957310839 0.021693127704952454 0.0048592735233734261 0.043141338506813585 0.049008892223286513 -0.015031983025502063 -0.025861026803748504 0.091372963086198522 0.069022312040732572 -0.033818489189604228 0.69074811371820888 0.087414572210576261 0.13953684354337009 0.5086738562115718 0.096522188234247727 0.66921685983185542 0.16098445552496685 0.4757766805328939 0.50549001902840307 0.1603779834311142 0.50480352025594244 0.15740199110479344 0.39024154720267973 0.15546210968225391 0.50643513818978669 0.3792556718746995 0.66326758640172723 0.40564600515026039 0.26078110931264753 0.38552482643503239 0.42936064590945772 0.70574898739121816 0.12491577207850661 0.70423742519243782 0.67870557034424939 0.37233588039264598 0.53375365978091005 0.35975995493704388 0.26166588142760688 0.37357955192852632 0.3833508698291036 0.30464631575137502 0.34687664486361458 0.32935768460628484 0.26646540784767253 0.33302984659555479 0.32988105882374574 0.31301847917999587 0.31071147164823032 0.24051914138200997 0.57488493523902795 0.25575011738070064 0.23802385262596035 0.30665057646644894 0.23863825815536374 0.26829025255977512 0.30777980520665577 0.23698762392780404 0.22385683699009185 0.24034776275896091 0.24039515135550357 0.15701558811560173 0.37006038162998145 0.17860729971362257 0.38826081527190232 0.25721590780353137 0.15330519946771323 0.28313762152338551 0.47574391595591653 0.43495635825588325 0.45299038274086378 0.48626733503213637 0.6068790636580973 0.45986840443161997 0.60215182627144037 0.54801766669611174 0.48124667522002007 0.49355991872081773 0.4737756234079803 0.49444421907986724 0.50786069791324628 0.44736605803159768 0.45485895571994517 0.57302402916857731 0.4843989045247985 0.5173122679756722 0.35514726147377651 0.41116123673486599 0.35026124558006583 0.53181343758228961 0.35725349295634173 0.50265962675020759 0.42398522225872842 0.52729606856347011 0.2815816702535307 0.49843779378645425 0.14042310460555726 0.26258281549308371 0.41536447082341044 0.52520028299052846 0.44870442622717349 0.54586460827651961 0.39794979409521369 0.44302719349399056 0.39763898199627418 0.13107397791404515 0.26195988262997127 0.23238252818643618 0.23488367233745183 0.26586738232601814 0.26274670008136991 0.23366669884360822 0.13556200611558822 0.031631545529527218 0.26204973262381065 0.23738588275883618 0.23772787393861292 0.26287894830926789 0.2698351874366044 0.26291960089927113 0.24336766483432776 0.28116462963891442 0.2692904345258057 0.28936030179593963 0.26959306152077761 0.28102750532658433 0.26241009681164229 0.33784675999745756 0.27425770875589972 0.40219316338716676 0.26326105400244654 0.25937538775233904 0.33042813941297783 0.25850566752987469 0.28655574000659068 0.33144261871769315 0.30213600908512139 0.35834293712527437 0.38171108651457175 0.33658947196961042 0.308192108400899 0.26659135022481856 0.22100926183054972 0.38244767869756618 0.26009673362849678 0.40096869159824994 0.31282139864316733 0.29373173320793672 0.26698486915269765 0.34463295931655064 0.26561873655432877 0.31005965356259796 0.40286840684783431 0.45503446007700921 0.45672776191444647 0.41863869935048159 0.30925621407247417 0.36833645551693489 0.25010661053042671 0.25790748433220123 0.38025037985798826 0.24765454557816552 0.36967993783912606 0.44720482297815289 0.26683503552508242 0.28957876679612349 0.42182526579841834 0.51688495758732456 0.5104144349721208 0.41870361334381162 0.45913532617046798 0.51703251223003566 0.40280457091347527 0.27338353017069317 0.37216889738904257 0.40422212823097714 0.37219296799397539 0.4814037863428785 0.37413024092219105 0.47705853306188528 0.48075161017236434 0.48457938708783277 0.47994721269104551 0.54570959659135765 0.3110607333803867 0.31019665340293057 0.26028177492601662 0.28255781062039625 0.215904206446143 0.33008083926188303 0.32921433151241097 0.27083512645241331 0.25307026551825401 0.32526024433803052 0.40580539031562024 0.45321824100366642 0.21780810061108846 0.21910577181157867 0.26042687596615816 0.29946931955866196 0.24029140445432751 0.24866304040082368 0.2595180469570601 0.28385101021530468 0.18768692273085527 0.27656300285813679 0.24978718467398056 0.19271303593588238 0.49742473650922525 0.47967310591105666 0.40347568430026864 0.38998505010505519 0.49046263345083513 0.42571334100689817 0.28181956824592386 0.12325436330902319 0.19034179992971353 0.079180458444591678 0.35807128774875607 0.36871098955441456 0.37369840239410984 0.48133046744586544 0.078143434954325797 0.075306185911577325 0.48568397093635218 0.49410861663991346 0.64185790402296428 0.25038652864878569 0.19514532006443569 0.28176231390841167 0.073600329628608838 0.4951892461410059 0.15521706535530724 0.15776908005016246 0.21551202809067208 0.22066509772273438 0.21789062289206568 0.16106662177983408 0.15709246783033889 0.22024436658166738 0.16336520069528854 0.26196477281926361 0.25240351888921059 0.14911283758309796 0.19791098543855995 0.26235983569784999 0.1506365506054215 0.36639416827582372 0.13602251304894786 0.13545875403448998 0.12706414731941679 0.31212955474654203 0.37209888874994806 0.11808630005985099 0.40626487582954862 0.32340391321565304 0.31484065454009064 0.14132886708945841 0.13739415307445174 0.13808871832160216 0.32654758148851404 0.15179304566031851 0.31159094358425693 0.26545184863177751 0.1728540634258553 0.18263852746896014 0.26132857988026376 0.16974774035829468 0.3687834573298675 0.46379959992433323 0.30792619699290419 0.32095969692986892 0.43551136415467984 0.50146624973240361 0.31158827892207552 0.49204734582062476 0.26686569612907507 0.54426486932390317 0.46199459814543831 0.37791892434908025 0.47497356047883316 0.54837747756165522 0.60769515480155079 0.58870972288270318 0.37634879493203638 0.41642226929847909 0.36134127892234291 0.27565800031736926 0.3922535831781499 0.54357834140001515 0.56415422059308218 0.56826271476536472 0.44670181766299449 0.58638441279773357 0.50485160446422572 0.41248322191197573 0.33757425283356346 0.63360256558239747 0.47095352425031256 0.55482568817665123 0.575385423543889 0.5519094183589629 0.59561719749996878 0.55418790486658842 0.67055856778294542 0.18317960443166934 0.43024480338927151 0.32740550336433522 0.3387644542419373 0.44393540171775281 0.32918512164830704 0.48431647509967701 0.49248857177585736 0.2540095162213693 0.2570953294936788 0.24029962340126532 0.4186897878304649 0.59212587433549446 0.5601997828747618 0.29196409415329316 0.29120304228677213 0.37053307729258056 0.59522393401322293 0.55864450149288725 0.25796280584129061 0.25503363273106644 0.57023047667859672 0.51010059542462605 0.52996512670351315 0.51111316923449679 0.51654936158189857 0.51763018211973955 0.52537544239887535 0.53168662149336587 0.49985822125653839 0.48525920729264227 0.48684415717341029 0.33471889835650953 0.48872945306294996 0.33258762915576601 0.23859014956401606 0.55598364814048817 0.50974344983981645 0.25936202714011869 0.59000873789492114 0.11058890657206751 0.5533720312431698 0.074962290657199115 0.26669995805423491 0.56820853068983068 0.094318803417271196 0.60914527544293406 0.29638989211572475 0.3658606997717101 0.56974343604150079 0.55125056303136588 0.35592531562369606 0.56827346663191991 0.44145239814086484 0.1923257878641409 0.33645504456414771 0.47012863742927624 0.16728662751538642 0.43201014668504817 0.058550156697839868 0.43498091721144477 0.47154645268470202 0.13786804383737444 0.40023888763165971 0.44096155794839098 0.46734096127987695 0.48615419248664649 0.48386616821119316 0.52775824512644165 0.49499944901238291 0.47606945191435751 0.47584653132993582 0.49507111246825947 0.38962527768657579 0.61698611926181346 0.41188856555246484 0.46773995004852603 0.4219392931485344 0.49924378205029402 0.47907735107828708 0.37991583940924983 0.47088601284869797 0.47750767474923084 0.49752677972254195 0.43383443448716769 0.42507601218092744 0.32294220476635582 0.43192628455376825 0.31799004278816051 0.30695233242882042 0.32659965572222949 0.32660115185782262 0.30716171659242797 0.44121334279490471 0.51130527782490343 0.50114827240021509 0.30661450946534469 0.34622793570497212 0.31549341614460064 0.34087283096446325 0.32464313419165941 0.32023359813600799 0.33854770192827988 0.31503831033033186 0.31106599792081818 0.32756222491347953 0.41067390076916976 0.42408471207479442 0.30330467773237435 0.41769572347728523 0.31836963067177243 0.46985375123137879 0.31366379914358872 0.14091667470474523 0.31021296299794959 0.30940721671948929 0.34250568626673816 0.46586600512477777 0.18245315018513034 0.30653706102881673 0.32181547994335363 0.33471972906375175 0.32338606197721642 0.33724443694907308 0.38217458209925559 0.39152797826464275 0.33414073149619467 0.44335625036591414 0.45667557151249427 0.39608684288678625 0.39012290829205931 0.33270127922001574 0.2986708533807641 0.39469740703281292 0.31967635391494076 0.36306936060966621 0.30235388043972233 0.31193265587288893 0.31669595162513992 0.40276566724210722 0.37607384926418685 0.40164733402122288 0.31788938722144588 0.3321025518362048 0.38798159654612663 0.33974105546621741 0.33471661714042694 0.36695330861528119 0.32241300766997055 0.35092681425619343 0.33520990570294501 0.35305187050389825 0.32296463317314761 0.34619986515605106 0.34479697448609614 0.3313596042967798 0.33631322772804251 0.39628404738733813 0.33480699270620218 0.34534924736734468 0.38307965092284141 0.34494739752307302 0.34835248451063655 0.47760679576299792 0.44343753633036936 0.23609627586579421 0.45093686298201885 0.30202070157178762 0.34347893998941109 0.44644637445971863 0.23779908188405882 0.27504936578573957 0.33886856943825494 0.24762231230791543 0.50060251194151217 0.43587643051653668 0.46364626734672915 0.43482642827754225 0.44092079499322512 0.48268692460677537 0.51127098936855808 0.47281178052062073 0.54181964532010618 0.55785477921989068 0.54004872320362585 0.54693030633754125 0.52816894916645296 0.48722485546862926 0.51065194617417065 0.43958993499179533 0.36738791271098048 0.33227925004378073 0.48606270295242021 0.48475240843267164 0.49205197368544934 0.50596722338406641 0.37123170430002672 0.45791725477338108 0.34420800461498924 0.34412421136989807 0.32788352965635004 0.34150467215697322 0.39795992552656317 0.33348280506265748 0.39947156982942555 0.3636219814588042 0.41145385041169086 0.47686408666478519 0.42364439243108148 0.32367407466030917 0.31194992782112735 0.25322400040745685 0.25424670922732662 0.4105114463017806 0.36415647592253531 0.39102281366171826 0.38538304569523757 0.4255490772136345 0.35405281157951235 0.30443907102204348 0.30847312494050511 0.30940425635834734 0.30856347487820129 0.34477471780124652 0.34318015278178643 0.37882005338027913 0.33830085333973803 0.33869982484075023 0.3870146771242266 0.49776466136536773 0.41262720255015595 0.3766943636572313 0.50100046680068122 0.49785080862663411 0.42897777323393665 0.49381443383435664 0.44568980431452626 0.43200021473691824 0.33871185762725531 0.38051720803946615 0.38699885999770128 0.33551677167985283 0.3362416371085104 0.37965816905487265 0.34875904940993696 0.38369968823117989 0.33778668130765527 0.33607136931543113 0.38802123534104077 0.37979565705504909 0.44858164917180882 0.37852859566515457 0.38660606646406631 0.43675409824798167 0.35346771923919273 0.42627944091791969 0.37731322603345385 0.451079306760167 0.39924616780355721 0.35092986047944902 0.43987635163604888 0.34588891108712982 0.30314097231727777 0.33996845404775766 0.34307172042608108 0.3429690382886621 0.30406558369600134 0.30754184089090147 0.34318301202968743 0.33976036308941238 0.30367911358979482 0.28508327256258287 0.45397040519973658 0.39342260666629064 0.29696143941505238 0.36569258359212475 0.30558750274441721 0.46433360148973968 0.4121954821485958 0.32778475867225959 0.28513337438475733 0.42517938214212225 0.4541569084073066 0.29021957802154963 0.31038445734306436 0.4052487712359461 0.25211362249036728 0.25321067180012158 0.43128180112979647 0.32265446374620588 0.44469695130155679 -0.10896921113241749 -0.099141179995127393 0.30925784154587549 0.32086284739616255 0.30997904978402552 0.30589165658132078 -0.058549874046419433 0.44792747393797044 0.56140344925394259 -0.098826573179725194 0.24725946139607327 0.44449000331117422 0.20400153094485893 -0.071583601595369084 -0.068907552939660305 0.12922792490615717 0.21543350251470297 -0.074372658843809905 0.16873970764466481 0.48416307139659043 0.24906092571570193 -0.061029186588502295 0.22983123014905915 0.12708056792960004 -0.056666605811621189 0.11762906634358448 -0.05628351100295783 0.30855269462974616 0.30764246274451701 0.42818698698607172 0.50340851131597597 0.39177143334249009 0.42238978472530836 0.31201157654921485 0.3076102760468683 0.30748917805338249 0.31115051410393757 0.31127636538240455 0.30634584639433138 0.44990035681907475 0.45807667409232555 0.46250769455314283 0.46392113370825661 0.22435188097173894 0.21572881417613352 0.25094499404972892 0.25210388457689287 0.44424728028523142 0.32074862457213138 0.30414422385951562 0.28416569032957628 0.24971101873830148 0.25093421020499201 0.21570070407900274 0.21100808818071307 0.16743097372399413 0.43920011211313154 0.17434367469566361 0.16243938456336007 0.46326313412687947 0.47018850883831292 0.25208187553549161 0.27473280590029697 0.16446116942803746 0.16089510971484114 0.21095630140588287 0.2101203971598862 0.60212701189399498 0.39135518801802233 0.24936503723821335 0.2558921061906963 0.22937612607225555 0.24898444991500962 0.23780362744055722 0.23813781065829162 0.23200563045898481 0.23716446021440857 0.3287405246625178 0.39691753868085999 0.21510404975493538 0.38724222871006836 0.23048967660676706 0.22508856776244598 0.4711007247075612 0.47682117826044884 -0.021135489018223867 0.28571377707165019 0.54951994769120383 0.51303068061182355 0.22442388386616435 0.23111229069552125 0.17107392849605235 0.15207190074889929 0.22595226370028762 0.22388066115107202 0.15625905378035126 0.16082972892307312 0.045291831762915458 0.0061536515368241611 0.17906140073851423 0.17087552830952599 0.47678571801157144 0.47999356697099982 0.45040990132540132 0.41018638543560731 0.1516442255848692 0.15580487834576734 0.5139323002415731 0.48031809542754406 0.17115091888976239 0.16868902254041751 0.40347360079688288 0.33439917819787857 0.15253436529116812 0.14739770753483616 0.47960513572458086 0.47793831365486661 -0.015177566601065184 0.079139615287877954 -0.022622687298035633 0.23736937914943187 -0.070587042442712689 0.098709184328634722 -0.019030668564407986 0.12223921250791382 0.088925587561079267 -0.027151824834403215 -0.0098722535880535391 0.12776537723873971 0.1515211478177094 0.14793128751818152 -0.013634187968426411 0.17903725779590174 0.13896250942020166 0.18324522917171779 -0.019972559462582921 0.12542131472049425 0.048328697387012613 0.23964426127150465 0.16861052253650893 0.050899593286242939 0.15135846932438851 -0.0016226018470605855 0.25561643046432403 0.28836829028780769 0.12458644687028533 0.29615909399128448 0.26090226663449623 0.50763111743163825 0.14807432325162573 0.14604340191858839 0.16881319834614333 0.16743927259111549 0.33391791364523316 0.20849087209109921 0.49353513953227729 0.49669375026084583 0.3160508626980108 0.3319256