<?xml version="1.0"?>
<VTKFile type="UnstructuredGrid" version="0.1" byte_order="LittleEndian">
<UnstructuredGrid>
<Piece NumberOfPoints="6" NumberOfCells="3">
<Points>
<DataArray type="Float64" NumberOfComponents="3" format="ascii">
0.000000000000000e+00 0.000000000000000e+00 0.000000000000000e+00 3.000000000000000e+00 0.000000000000000e+00 0.000000000000000e+00 0.000000000000000e+00 3.000000000000000e+00 0.000000000000000e+00 0.000000000000000e+00 0.000000000000000e+00 3.000000000000000e+00 3.000000000000000e+00 0.000000000000000e+00 3.000000000000000e+00 0.000000000000000e+00 3.000000000000000e+00 3.000000000000000e+00 
</DataArray>
</Points>
<Cells>
<DataArray type="Int32" Name="connectivity" format="ascii">
0 1 2 4 0 2 3 4 2 3 4 5 
</DataArray>
<DataArray type="Int32" Name="offsets" format="ascii">
4 8 12 
</DataArray>
<DataArray type="UInt8" Name="types" format="ascii">
10 10 10 
</DataArray>
</Cells>
<CellData Scalars="A_conc,B_conc,A_conc_immobile,B_conc_immobile," Vectors="" Tensors="">
<DataArray type="Float64" Name="A_conc" format="ascii">
8.534831753795733e-01 8.533409513083816e-05 9.473987720107235e-21 
</DataArray>
<DataArray type="Float64" Name="B_conc" format="ascii">
1.107306263772750e+00 1.107121742730708e-04 1.229152049859132e-20 
</DataArray>
<DataArray type="Float64" Name="A_conc_immobile" format="ascii">
1.706738791655103e-02 8.533693958275506e-03 9.474303517582068e-19 
</DataArray>
<DataArray type="Float64" Name="B_conc_immobile" format="ascii">
2.214317293112590e-02 1.107158646556291e-02 1.229193021319622e-18 
</DataArray>
</CellData>
</Piece>
</UnstructuredGrid>
</VTKFile>
