<?xml version="1.0"?>
<VTKFile type="UnstructuredGrid" version="0.1" byte_order="LittleEndian">
<UnstructuredGrid>
<Piece NumberOfPoints="6" NumberOfCells="3">
<Points>
<DataArray type="Float64" NumberOfComponents="3" format="ascii">
0.000000000000000e+00 0.000000000000000e+00 0.000000000000000e+00 3.000000000000000e+00 0.000000000000000e+00 0.000000000000000e+00 0.000000000000000e+00 3.000000000000000e+00 0.000000000000000e+00 0.000000000000000e+00 0.000000000000000e+00 3.000000000000000e+00 3.000000000000000e+00 0.000000000000000e+00 3.000000000000000e+00 0.000000000000000e+00 3.000000000000000e+00 3.000000000000000e+00 
</DataArray>
</Points>
<Cells>
<DataArray type="Int32" Name="connectivity" format="ascii">
0 1 2 4 0 2 3 4 2 3 4 5 
</DataArray>
<DataArray type="Int32" Name="offsets" format="ascii">
4 8 12 
</DataArray>
<DataArray type="UInt8" Name="types" format="ascii">
10 10 10 
</DataArray>
</Cells>
<CellData Scalars="A_conc,B_conc,A_conc_immobile,B_conc_immobile," Vectors="">
<DataArray type="Float64" Name="A_conc" format="ascii">
8.442921727264985e-05 2.813088318745916e-05 3.123155421775810e-21 
</DataArray>
<DataArray type="Float64" Name="B_conc" format="ascii">
4.274538359979944e-04 1.424228995237437e-04 1.581211822851365e-20 
</DataArray>
<DataArray type="Float64" Name="A_conc_immobile" format="ascii">
5.630302367836877e-03 2.813182087731418e-03 3.123259526262490e-19 
</DataArray>
<DataArray type="Float64" Name="B_conc_immobile" format="ascii">
2.850546792573548e-02 1.424276469220786e-02 1.581264529560741e-18 
</DataArray>
</CellData>
</Piece>
</UnstructuredGrid>
</VTKFile>
