<?xml version="1.0"?>
<VTKFile type="UnstructuredGrid" version="0.1" byte_order="LittleEndian">
<UnstructuredGrid>
<Piece NumberOfPoints="1160" NumberOfCells="390">
<Points>
<DataArray type="Float64" NumberOfComponents="3" format="ascii">
0.0000000000 0.0000000000 0.0000000000 0.1000000000 0.0000000000 0.0000000000 0.1000000000 0.0000000000 0.0000000000 0.2000000000 0.0000000000 0.0000000000 0.2000000000 0.0000000000 0.0000000000 0.3000000000 0.0000000000 0.0000000000 0.3000000000 0.0000000000 0.0000000000 0.4000000000 0.0000000000 0.0000000000 0.4000000000 0.0000000000 0.0000000000 0.5000000000 0.0000000000 0.0000000000 0.5000000000 0.0000000000 0.0000000000 0.6000000000 0.0000000000 0.0000000000 0.6000000000 0.0000000000 0.0000000000 0.7000000000 0.0000000000 0.0000000000 0.7000000000 0.0000000000 0.0000000000 0.8000000000 0.0000000000 0.0000000000 0.8000000000 0.0000000000 0.0000000000 0.9000000000 0.0000000000 0.0000000000 0.9000000000 0.0000000000 0.0000000000 1.0000000000 0.0000000000 0.0000000000 0.0000000000 0.0000000000 0.0000000000 0.0000000000 0.0000100000 0.0000000000 0.1000000000 0.0000100000 0.0000000000 0.0000000000 0.0000000000 0.0000000000 0.1000000000 0.0000100000 0.0000000000 0.1000000000 0.0000000000 0.0000000000 0.1000000000 0.0000000000 0.0000000000 0.1000000000 0.0000100000 0.0000000000 0.2000000000 0.0000100000 0.0000000000 0.1000000000 0.0000000000 0.0000000000 0.2000000000 0.0000100000 0.0000000000 0.2000000000 0.0000000000 0.0000000000 0.2000000000 0.0000000000 0.0000000000 0.2000000000 0.0000100000 0.0000000000 0.3000000000 0.0000100000 0.0000000000 0.2000000000 0.0000000000 0.0000000000 0.3000000000 0.0000100000 0.0000000000 0.3000000000 0.0000000000 0.0000000000 0.3000000000 0.0000000000 0.0000000000 0.3000000000 0.0000100000 0.0000000000 0.4000000000 0.0000100000 0.0000000000 0.3000000000 0.0000000000 0.0000000000 0.4000000000 0.0000100000 0.0000000000 0.4000000000 0.0000000000 0.0000000000 0.4000000000 0.0000000000 0.0000000000 0.4000000000 0.0000100000 0.0000000000 0.5000000000 0.0000100000 0.0000000000 0.4000000000 0.0000000000 0.0000000000 0.5000000000 0.0000100000 0.0000000000 0.5000000000 0.0000000000 0.0000000000 0.5000000000 0.0000000000 0.0000000000 0.5000000000 0.0000100000 0.0000000000 0.6000000000 0.0000100000 0.0000000000 0.5000000000 0.0000000000 0.0000000000 0.6000000000 0.0000100000 0.0000000000 0.6000000000 0.0000000000 0.0000000000 0.6000000000 0.0000000000 0.0000000000 0.6000000000 0.0000100000 0.0000000000 0.7000000000 0.0000100000 0.0000000000 0.6000000000 0.0000000000 0.0000000000 0.7000000000 0.0000100000 0.0000000000 0.7000000000 0.0000000000 0.0000000000 0.7000000000 0.0000000000 0.0000000000 0.7000000000 0.0000100000 0.0000000000 0.8000000000 0.0000100000 0.0000000000 0.7000000000 0.0000000000 0.0000000000 0.8000000000 0.0000100000 0.0000000000 0.8000000000 0.0000000000 0.0000000000 0.8000000000 0.0000000000 0.0000000000 0.8000000000 0.0000100000 0.0000000000 0.9000000000 0.0000100000 0.0000000000 0.8000000000 0.0000000000 0.0000000000 0.9000000000 0.0000100000 0.0000000000 0.9000000000 0.0000000000 0.0000000000 0.9000000000 0.0000000000 0.0000000000 0.9000000000 0.0000100000 0.0000000000 1.0000000000 0.0000100000 0.0000000000 0.9000000000 0.0000000000 0.0000000000 1.0000000000 0.0000100000 0.0000000000 1.0000000000 0.0000000000 0.0000000000 0.0000000000 0.0000100000 0.0000000000 0.0000000000 0.0001221059 0.0000000000 0.1000000000 0.0001221059 0.0000000000 0.0000000000 0.0000100000 0.0000000000 0.1000000000 0.0001221059 0.0000000000 0.1000000000 0.0000100000 0.0000000000 0.1000000000 0.0000100000 0.0000000000 0.1000000000 0.0001221059 0.0000000000 0.2000000000 0.0001221059 0.0000000000 0.1000000000 0.0000100000 0.0000000000 0.2000000000 0.0001221059 0.0000000000 0.2000000000 0.0000100000 0.0000000000 0.2000000000 0.0000100000 0.0000000000 0.2000000000 0.0001221059 0.0000000000 0.3000000000 0.0001221059 0.0000000000 0.2000000000 0.0000100000 0.0000000000 0.3000000000 0.0001221059 0.0000000000 0.3000000000 0.0000100000 0.0000000000 0.3000000000 0.0000100000 0.0000000000 0.3000000000 0.0001221059 0.0000000000 0.4000000000 0.0001221059 0.0000000000 0.3000000000 0.0000100000 0.0000000000 0.4000000000 0.0001221059 0.0000000000 0.4000000000 0.0000100000 0.0000000000 0.4000000000 0.0000100000 0.0000000000 0.4000000000 0.0001221059 0.0000000000 0.5000000000 0.0001221059 0.0000000000 0.4000000000 0.0000100000 0.0000000000 0.5000000000 0.0001221059 0.0000000000 0.5000000000 0.0000100000 0.0000000000 0.5000000000 0.0000100000 0.0000000000 0.5000000000 0.0001221059 0.0000000000 0.6000000000 0.0001221059 0.0000000000 0.5000000000 0.0000100000 0.0000000000 0.6000000000 0.0001221059 0.0000000000 0.6000000000 0.0000100000 0.0000000000 0.6000000000 0.0000100000 0.0000000000 0.6000000000 0.0001221059 0.0000000000 0.7000000000 0.0001221059 0.0000000000 0.6000000000 0.0000100000 0.0000000000 0.7000000000 0.0001221059 0.0000000000 0.7000000000 0.0000100000 0.0000000000 0.7000000000 0.0000100000 0.0000000000 0.7000000000 0.0001221059 0.0000000000 0.8000000000 0.0001221059 0.0000000000 0.7000000000 0.0000100000 0.0000000000 0.8000000000 0.0001221059 0.0000000000 0.8000000000 0.0000100000 0.0000000000 0.8000000000 0.0000100000 0.0000000000 0.8000000000 0.0001221059 0.0000000000 0.9000000000 0.0001221059 0.0000000000 0.8000000000 0.0000100000 0.0000000000 0.9000000000 0.0001221059 0.0000000000 0.9000000000 0.0000100000 0.0000000000 0.9000000000 0.0000100000 0.0000000000 0.9000000000 0.0001221059 0.0000000000 1.0000000000 0.0001221059 0.0000000000 0.9000000000 0.0000100000 0.0000000000 1.0000000000 0.0001221059 0.0000000000 1.0000000000 0.0000100000 0.0000000000 0.0000000000 0.0001221059 0.0000000000 0.0000000000 0.0002771482 0.0000000000 0.1000000000 0.0002771482 0.0000000000 0.0000000000 0.0001221059 0.0000000000 0.1000000000 0.0002771482 0.0000000000 0.1000000000 0.0001221059 0.0000000000 0.1000000000 0.0001221059 0.0000000000 0.1000000000 0.0002771482 0.0000000000 0.2000000000 0.0002771482 0.0000000000 0.1000000000 0.0001221059 0.0000000000 0.2000000000 0.0002771482 0.0000000000 0.2000000000 0.0001221059 0.0000000000 0.2000000000 0.0001221059 0.0000000000 0.2000000000 0.0002771482 0.0000000000 0.3000000000 0.0002771482 0.0000000000 0.2000000000 0.0001221059 0.0000000000 0.3000000000 0.0002771482 0.0000000000 0.3000000000 0.0001221059 0.0000000000 0.3000000000 0.0001221059 0.0000000000 0.3000000000 0.0002771482 0.0000000000 0.4000000000 0.0002771482 0.0000000000 0.3000000000 0.0001221059 0.0000000000 0.4000000000 0.0002771482 0.0000000000 0.4000000000 0.0001221059 0.0000000000 0.4000000000 0.0001221059 0.0000000000 0.4000000000 0.0002771482 0.0000000000 0.5000000000 0.0002771482 0.0000000000 0.4000000000 0.0001221059 0.0000000000 0.5000000000 0.0002771482 0.0000000000 0.5000000000 0.0001221059 0.0000000000 0.5000000000 0.0001221059 0.0000000000 0.5000000000 0.0002771482 0.0000000000 0.6000000000 0.0002771482 0.0000000000 0.5000000000 0.0001221059 0.0000000000 0.6000000000 0.0002771482 0.0000000000 0.6000000000 0.0001221059 0.0000000000 0.6000000000 0.0001221059 0.0000000000 0.6000000000 0.0002771482 0.0000000000 0.7000000000 0.0002771482 0.0000000000 0.6000000000 0.0001221059 0.0000000000 0.7000000000 0.0002771482 0.0000000000 0.7000000000 0.0001221059 0.0000000000 0.7000000000 0.0001221059 0.0000000000 0.7000000000 0.0002771482 0.0000000000 0.8000000000 0.0002771482 0.0000000000 0.7000000000 0.0001221059 0.0000000000 0.8000000000 0.0002771482 0.0000000000 0.8000000000 0.0001221059 0.0000000000 0.8000000000 0.0001221059 0.0000000000 0.8000000000 0.0002771482 0.0000000000 0.9000000000 0.0002771482 0.0000000000 0.8000000000 0.0001221059 0.0000000000 0.9000000000 0.0002771482 0.0000000000 0.9000000000 0.0001221059 0.0000000000 0.9000000000 0.0001221059 0.0000000000 0.9000000000 0.0002771482 0.0000000000 1.0000000000 0.0002771482 0.0000000000 0.9000000000 0.0001221059 0.0000000000 1.0000000000 0.0002771482 0.0000000000 1.0000000000 0.0001221059 0.0000000000 0.0000000000 0.0002771482 0.0000000000 0.0000000000 0.0004915718 0.0000000000 0.1000000000 0.0004915718 0.0000000000 0.0000000000 0.0002771482 0.0000000000 0.1000000000 0.0004915718 0.0000000000 0.1000000000 0.0002771482 0.0000000000 0.1000000000 0.0002771482 0.0000000000 0.1000000000 0.0004915718 0.0000000000 0.2000000000 0.0004915718 0.0000000000 0.1000000000 0.0002771482 0.0000000000 0.2000000000 0.0004915718 0.0000000000 0.2000000000 0.0002771482 0.0000000000 0.2000000000 0.0002771482 0.0000000000 0.2000000000 0.0004915718 0.0000000000 0.3000000000 0.0004915718 0.0000000000 0.2000000000 0.0002771482 0.0000000000 0.3000000000 0.0004915718 0.0000000000 0.3000000000 0.0002771482 0.0000000000 0.3000000000 0.0002771482 0.0000000000 0.3000000000 0.0004915718 0.0000000000 0.4000000000 0.0004915718 0.0000000000 0.3000000000 0.0002771482 0.0000000000 0.4000000000 0.0004915718 0.0000000000 0.4000000000 0.0002771482 0.0000000000 0.4000000000 0.0002771482 0.0000000000 0.4000000000 0.0004915718 0.0000000000 0.5000000000 0.0004915718 0.0000000000 0.4000000000 0.0002771482 0.0000000000 0.5000000000 0.0004915718 0.0000000000 0.5000000000 0.0002771482 0.0000000000 0.5000000000 0.0002771482 0.0000000000 0.5000000000 0.0004915718 0.0000000000 0.6000000000 0.0004915718 0.0000000000 0.5000000000 0.0002771482 0.0000000000 0.6000000000 0.0004915718 0.0000000000 0.6000000000 0.0002771482 0.0000000000 0.6000000000 0.0002771482 0.0000000000 0.6000000000 0.0004915718 0.0000000000 0.7000000000 0.0004915718 0.0000000000 0.6000000000 0.0002771482 0.0000000000 0.7000000000 0.0004915718 0.0000000000 0.7000000000 0.0002771482 0.0000000000 0.7000000000 0.0002771482 0.0000000000 0.7000000000 0.0004915718 0.0000000000 0.8000000000 0.0004915718 0.0000000000 0.7000000000 0.0002771482 0.0000000000 0.8000000000 0.0004915718 0.0000000000 0.8000000000 0.0002771482 0.0000000000 0.8000000000 0.0002771482 0.0000000000 0.8000000000 0.0004915718 0.0000000000 0.900000000
[...]
<PointData Scalars="Ba-133_conc,region_id," Vectors="" Tensors="">
<DataArray type="Float64" Name="Ba-133_conc" format="ascii">
672.0984950654 608.8067705081 608.8058290515 539.9801908181 539.9804653515 469.6275307672 469.6268581224 397.0000921251 397.0001699447 324.7851283082 324.7846196965 252.9585996592 252.9585731141 183.6085217285 183.6081486897 117.0616674815 117.0616000688 54.8703362505 54.8697869746 -0.1210795958 671.9065520282 933.2062888383 905.0767348884 672.3367302135 905.2069847975 609.0615564672 608.3442845829 905.6927903449 901.1659909467 609.0678577277 900.8281761051 540.2723600606 539.5846368950 901.5237839244 885.6214847196 540.2704977485 885.4160802602 469.9439293160 469.2986023248 886.0943826368 861.8374732321 469.9394001155 861.7385530041 397.3365637017 396.7558741601 862.4109777494 830.6077252215 397.3302173457 830.6436831552 325.1363048792 324.6319256104 831.2920433584 791.7449452467 325.1270045550 791.9132305375 253.3192506531 252.9143675041 792.5231887555 746.0478829442 253.3077731397 746.3695803822 183.9726506874 183.6742154716 746.9243685691 694.4648171393 183.9585124070 694.9373664580 117.4243335934 117.2522959635 695.4313242502 636.5059905837 117.4049257554 637.0771609154 55.2376616780 55.6856409770 637.2917931778 429.4221070680 55.2068465019 430.6692964127 0.1196403122 945.6976748910 7.0972449635 12.2612582789 937.3174461929 19.3598591261 909.0670651396 916.4191466129 12.2242633160 24.4792769713 909.4832928073 31.9620591687 906.1186909481 913.7238381218 24.2940350957 36.0200471358 905.9007344396 44.0120906923 890.5961135078 898.8189387002 35.7831746520 48.5053886401 890.6638614716 56.7844603177 866.8669635183 875.5526965346 48.1365893697 61.1905585972 867.1504960261 69.6277027730 835.5679755122 844.5951614446 60.6936532559 73.9219912375 836.1036462477 82.3676523042 796.5583889502 805.7833395279 73.2937376613 86.4143817132 797.3400823975 94.7185365261 750.6002648645 759.8818743033 85.6541246111 98.4947168003 751.6473301767 106.5072863040 698.6804262304 707.8631926758 97.6101740550 105.3768387435 699.9894078292 112.9567549815 640.3316088358 649.3221194812 104.4270612915 221.3721991936 641.8628231881 230.0684727040 429.3385930666 6.6465588776 0.3704761637 -3.8504888248 7.0973829369 -4.2165932518 9.7064409660 8.4789999038 -3.6453074370 -4.8391719778 9.9829126383 -5.6334555430 21.8313732739 20.5452023139 -4.8278487601 -5.7307288081 21.9584629985 -6.4853515072 33.2516880019 32.0421823845 -5.7641747813 -6.5177132021 33.3709249212 -7.1975172503 45.6377481059 44.5165579313 -6.5634357298 -7.2797874767 45.7062005694 -7.8582894677 58.2723918702 57.2751978263 -7.3361782606 -7.9539686794 58.2906354425 -8.4092305946 71.0066524469 70.1652485183 -8.0213714187 -8.5232899865 70.9696192364 -8.8349608997 83.5542804212 82.8983420279 -8.6020099333 -9.0187977618 83.4574335589 -9.1619326489 95.7404148599 95.2917199957 -9.0922925166 -8.3898216924 95.5854463899 -8.4221734045 102.7741651753 102.6139940469 -8.6581243347 -21.3484857344 102.5014534474 -21.0201702998 219.3293893243 0.2876685794 -0.0509165080 0.1426833955 0.3056562730 0.1518011059 -3.6853721846 -3.5879803544 0.1231458917 0.8045348118 -3.5801456477 0.8639069608 -4.6085158857 -4.4758577405 0.7774753173 0.8867053212 -4.5480936281 0.9521405408 -5.5791391592 -5.4634473717 0.8722219099 0.9766219536 -5.5088504058 1.0235523364 -6.3993651287 -6.3109749411 0.9671154720 1.0580436595 -6.3284012194 1.0792674171 -7.2021060151 -7.1447532240 1.0480258169 1.1273263682 -7.1295540014 1.1195241580 -7.9229126900 -7.9013669454 1.1172941770 1.1783919142 -7.8504769487 1.1387947539 -8.5434782981 -8.5617082585 1.1689003148 1.2150515830 -8.4724269627 1.1392806806 -9.0984956294 -9.1584380841 1.2003916038 1.0923144178 -9.0305109403 0.9950702411 -8.4718587474 -8.6015749607 1.1207707234 2.6446176362 -8.4649231681 2.4267756569 -21.7900156226 -0.0484693296 0.0026376788 0.0008905844 -0.0488264456 0.0012701420 0.1348731546 0.1294292077 0.0024617359 -0.0508307601 0.1278291523 -0.0530935258 0.7643611700 0.7469877143 -0.0471726963 -0.0876310022 0.7564735991 -0.0961190684 0.8539390914 0.8393828635 -0.0869331568 -0.0938907787 0.8486241025 -0.1002549700 0.9568917971 0.9486032264 -0.0944128434 -0.1019985303 0.9527738219 -0.1046294658 1.0471868747 1.0448242988 -0.1030452291 -0.1087468835 1.0427555881 -0.1067718166 1.1272523368 1.1315942549 -0.1098505940 -0.1136485495 1.1225560536 -0.1066843925 1.1900940716 1.2018176888 -0.1150116879 -0.1180178784 1.1852173412 -0.1052652867 1.2408956546 1.2599289160 -0.1184184985 -0.0997469919 1.2344729111 -0.0836491362 1.1209573937 1.1531212254 -0.1075853567 -0.2627482583 1.1287981589 -0.2299230723 2.7553778199 0.0025374711 -0.0000472236 -0.0005697014 0.0025544853 -0.0005916127 0.0008647222 0.0010691252 -0.0006462960 0.0020569961 0.0014048843 0.0022032893 -0.0484967351 -0.0469033969 0.0016671829 0.0093907738 -0.0469436882 0.0104484096 -0.0836895333 -0.0813412052 0.0089295394 0.0109366252 -0.0831028924 0.0122761107 -0.0919664364 -0.0902791696 0.0108874058 0.0115765940 -0.0914404820 0.0123852201 -0.1017817661 -0.1011279211 0.0116988228 0.0124911870 -0.1014484854 0.0125941989 -0.1101146248 -0.1104596039 0.0126520264 0.0131587165 -0.1097528473 0.0124478121 -0.1168111922 -0.1183139157 0.0133620316 0.0139078979 -0.1164966454 0.0122492361 -0.1233619950 -0.1260017208 0.0139820313 0.0115080112 -0.1227421399 0.0091404805 -0.1053119802 -0.1100929532 0.0125479957 0.0315062441 -0.1074378198 0.0267357083 -0.2795234707 -0.0000601153 -0.0000071884 0.0000408294 -0.0000592511 0.0000444684 -0.0005473480 -0.0005516572 0.0000456337 -0.0000265051 -0.0005780397 -0.0000224349 0.0018736166 0.0017330725 0.0000187983 -0.0006573574 0.0017418083 -0.0007701054 0.0086328459 0.0081842267 -0.0005620087 -0.0011343521 0.0084876945 -0.0014312151 0.0103063757 0.0098859651 -0.0011081547 -0.0012311905 0.0102686733 -0.0015064318 0.0113017516 0.0110293375 -0.0012496435 -0.0013331300 0.0112997247 -0.0015183785 0.0124833721 0.0123695802 -0.0013700775 -0.0014365939 0.0124956090 -0.0015087935 0.0134418803 0.0135045338 -0.0014822422 -0.0015616223 0.0134623723 -0.0014980070 0.0145583520 0.0148071721 -0.0016009237 -0.0012840802 0.0145289353 -0.0010845806 0.0123136357 0.0128832972 -0.0014119382 -0.0036448118 0.0126496382 -0.0031880606 0.0337598055 -0.0000042159 0.0000008410 -0.0000017502 -0.0000050025 -0.0000018633 0.0000375659 0.0000370316 -0.0000016287 -0.0000053367 0.0000398839 -0.0000074239 -0.0000194380 -0.0000111096 -0.0000094282 0.0000317416 -0.0000071927 0.0000417514 -0.0005610622 -0.0005005734 0.0000176731 0.0001103499 -0.0005320562 0.0001601896 -0.0009854755 -0.0008893455 0.0000963778 0.0001325733 -0.0009758760 0.0002006228 -0.0011259098 -0.0010394108 0.0001300243 0.0001432897 -0.0011236082 0.0002054525 -0.0012728570 -0.0012077899 0.0001464820 0.0001585087 -0.0012767010 0.0002082776 -0.0014164476 -0.0013734729 0.0001635899 0.0001782517 -0.0014226313 0.0002123149 -0.0015923961 -0.0015755045 0.0001855111 0.0001533651 -0.0015944485 0.0001637826 -0.0013611067 -0.0013824999 0.0001587058 0.0004243261 -0.0013949994 0.0004209538 -0.0038481862 0.0000004340 -0.0000000494 0.0000000166 0.0000005654 -0.0000000297 -0.0000014397 -0.0000013550 -0.0000000535 0.0000005153 -0.0000015726 0.0000008301 -0.0000044290 -0.0000045218 0.0000007849 -0.0000008791 -0.0000056744 -0.0000010635 0.0000223080 0.0000166134 0.0000007287 -0.0000078181 0.0000186169 -0.0000133096 0.0000809292 0.0000640164 -0.0000047997 -0.0000124793 0.0000772959 -0.0000246934 0.0001025938 0.0000831898 -0.0000109454 -0.0000140020 0.0001014521 -0.0000277852 0.0001199525 0.0001019868 -0.0000136415 -0.0000159101 0.0001200736 -0.0000293455 0.0001400388 0.0001238915 -0.0000160080 -0.0000186692 0.0001408060 -0.0000313394 0.0001649781 0.0001513628 -0.0000195281 -0.0000177428 0.0001662060 -0.0000275728 0.0001505111 0.0001390794 -0.0000157265 -0.0000446099 0.0001503830 -0.0000579401 0.0004192060 -0.0000000179 0.0000000013 0.0000000025 -0.0000000298 0.0000000099 0.0000000181 0.0000000156 0.0000000099 -0.0000000250 0.0000000095 -0.0000000461 0.0000003225 0.0000002837 -0.0000000307 -0.0000000159 0.0000004301 -0.0000000831 -0.0000004189 -0.0000001337 -0.0000001366 0.0000003401 -0.0000000604 0.0000006832 -0.0000041512 -0.0000023440 0.0000000134 0.0000008782 -0.0000034566 0.0000022991 -0.0000067706 -0.0000037672 0.0000005386 0.0000010640 -0.0000063966 0.0000031205 -0.0000085901 -0.0000053107 0.0000008700 0.0000012678 -0.0000083884 0.0000035594 -0.0000109038 -0.0000075664 0.0000011504 0.0000015861 -0.0000108278 0.0000040447 -0.0000137853 -0.0000104403 0.0000015777 0.0000017848 -0.0000139375 0.0000041561 -0.0000143013 -0.0000105514 0.0000011927 0.0000037349 -0.0000132732 0.0000072765 -0.0000372422 0.0000000005 -0.0000000000 -0.0000000001 0.0000000010 -0.0000000006 -0.0000000000 -0.0000000003 -0.0000000004 0.0000000007 0.0000000017 0.0000000010 -0.0000000098 -0.0000000065 0.0000000003 0.0000000016 -0.0000000151 0.0000000087 -0.0000000027 -0.0000000042 0.0000000063 -0.0000000072 -0.0000000303 -0.0000000127 0.0000000931 -0.0000000024 0.0000000107 -0.0000000267 0.0000000320 -0.0000001140 0.0000001942 -0.0000000799 0.0000000033 -0.0000000304 0.0000001303 -0.0000002116 0.0000002513 -0.0000001107 -0.0000000051 -0.0000000441 0.0000002026 -0.0000002766 0.0000004389 0.0000000268 -0.0000000213 -0.0000000709 0.0000004006 -0.0000003479 0.0000006861 0.0000002241 -0.0000000531 -0.0000001121 0.0000006798 -0.0000004254 0.0000009452 0.0000003647 -0.0000000412 -0.0000001674 0.0000007320 -0.0000006411 0.0000020781 -0.0000000000 0.0000000000 -0.0000000000 -0.0000000000 0.0000000000 0.0000000001 0.0000000001 0.0000000000 -0.0000000000 -0.0000000000 -0.0000000000 0.0000000003 0.0000000002 -0.0000000000 0.0000000000 0.0000000004 -0.0000000002 -0.0000000008 -0.0000000012 -0.0000000000 0.0000000002 0.0000000003 -0.0000000001 -0.0000000009 0.0000000005 -0.0000000000 -0.0000000008 0.0000000015 0.0000000010 0.0000000122 0.0000000211 -0.0000000010 -0.0000000039 0.0000000156 0.0000000022 0.0000000328 0.0000000489 -0.0000000042 -0.0000000052 0.0000000366 0.0000000039 0.0000000309 0.0000000534 -0.0000000063 -0.0000000041 0.0000000356 0.0000000090 0.0000000185 0.0000000486 -0.0000000060 -0.0000000008 0.0000000223 0.0000000181 -0.0000000095 0.0000000327 -0.0000000038 -0.0000000070 0.0000000089 0.0000000214 0.0000000148 0.0000000000 -0.0000000000 -0.0000000000 0.0000000000 -0.0000000000 -0.0000000000 -0.0000000000 -0.0000000000 0.0000000000 -0.0000000000 0.0000000000 -0.0000000000 -0.0000000000 0.0000000000 -0.0000000000 -0.0000000000 0.0000000000 0.0000000001 0.0000000001 0.0000000000 -0.0000000000 0.0000000001 -0.0000000000 0.0000000002 0.0000000002 -0.0000000000 0.0000000001 0.0000000002 0.0000000001 -0.0000000011 -0.0000000009 -0.0000000001 0.0000000004 -0.0000000010 0.0000000007 -0.0000000045 -0.0000000037 0.0000000002 0.0000000008 -0.0000000043 0.0000000014 -0.0000000064 -0.0000000056 0.0000000007 0.0000000009 -0.0000000065 0.0000000016 -0.0000000066 -0.0000000061 0.0000000009 0.0000000008 -0.0000000069 0.0000000012 -0.0000000054 -0.0000000053 0.0000000007 0.0000000016 -0.0000000056 0.0000000022 -0.0000000138 -0.0000000000 0.0000000000 0.0000000000 -0.0000000000 0.0000000000 -0.0000000000 -0.0000000000 0.0000000000 -0.0000000000 -0.0000000000 -0.0000000000 0.0000000000 0.0000000000 -0.0000000000 -0.0000000000 0.0000000000 -0.0000000000 -0.0000000000 -0.0000000000 -0.0000000000 0.0000000000 -0.0000000000 0.0000000000 -0.0000000000 -0.0000000000 0.0000000000 0.0000000000 -0.0000000000 0.0000000000 0.0000000000 0.0000000000 0.0000000000 -0.0000000000 -0.0000000000 -0.0000000000 0.0000000002 0.0000000001 -0.0000000000 -0.0000000000 0.0000000002 -0.0000000001 0.0000000004 0.0000000003 -0.0000000000 -0.0000000001 0.0000000004 -0.0000000002 0.0000000005 0.0000000003 -0.0000000001 -0.0000000001 0.0000000005 -0.0000000002 0.0000000005 0.0000000003 -0.0000000000 -0.0000000001 0.0000000005 -0.0000000003 0.0000000011 0.0000000000 0.0000000000 -0.0000000000 0.0000000000 -0.0000000000 0.0000000000 0.0000000000 -0.0000000000 0.0000000000 0.0000000000 0.0000000000 -0.0000000000 -0.0000000000 0.0000000000 0.0000000000 -0.0000000000 0.0000000000 -0.0000000000 -0.0000000000 0.0000000000 -0.0000000000 -0.0000000000 -0.0000000000 0.0000000000 0.0000000000 -0.0000000000 -0.0000000000 0.0000000000 -0.0000000000 0.0000000000 0.0000000000 -0.0000000000 0.0000000000 0.0000000000 0.0000000000 -0.0000000000 -0.0000000000 -0.0000000000 0.0000000000 -0.0000000000 0.0000000000 -0.0000000000 -0.0000000000 0.0000000000 0.0000000000 -0.0000000000 0.0000000000 -0.0000000000 -0.0000000000 0.0000000000 0.0000000000 -0.0000000000 0.0000000000 -0.0000000000 -0.0000000000 0.0000000000 0.0000000000 -0.0000000000 0.0000000000 -0.0000000000 -0.0000000000 -0.0000000000 0.0000000000 -0.0000000000 0.0000000000 -0.0000000000 -0.0000000000 0.0000000000 0.0000000000 -0.0000000000 0.0000000000 0.0000000000 0.0000000000 0.0000000000 -0.0000000000 0.0000000000 -0.0000000000 0.0000000000 0.0000000000 -0.0000000000 0.0000000000 0.0000000000 -0.0000000000 -0.0000000000 -0.0000000000 -0.0000000000 0.0000000000 -0.0000000000 0.0000000000 -0.0000000000 -0.0000000000 0.0000000000 0.0000000000 -0.0000000000 0.0000000000 0.0000000000 -0.0000000000 0.0000000000 -0.0000000000 -0.0000000000 -0.0000000000 0.0000000000 0.0000000000 0.0000000000 -0.0000000000 0.0000000000 -0.0000000000 0.0000000000 0.0000000000 -0.0000000000 -0.0000000000 0.0000000000 -0.0000000000 0.0000000000 0.0000000000 -0.0000000000 -0.0000000000 0.0000000000 -0.0000000000 0.0000000000 -0.0000000000 0.0000000000 -0.0000000000 -0.0000000000 -0.0000000000 0.0000000000 0.0000000000 -0.0000000000 -0.0000000000 0.0000000000 -0.0000000000 0.0000000000 0.0000000000 -0.0000000000 0.0000000000 0.0000000000 0.0000000000 -0.0000000000 -0.0000000000 0.0000000000 0.0000000000 -0.0000000000 0.0000000000 0.0000000000 -0.0000000000 0.0000000000 -0.0000000000 -0.0000000000 -0.0000000000 0.0000000000 0.0000000000 -0.0000000000 -0.0000000000 0.0000000000 -0.0000000000 0.0000000000 0.0000000000 -0.0000000000 0.0000000000 0.0000000000 0.0000000000 -0.0000000000 -0.0000000000 -0.0000000000 0.0000000000 -0.0000000000 0.0000000000 -0.0000000000 -0.0000000000 0.0000000000 0.0000000000 -0.0000000000 0.0000000000 -0.0000000000 -0.0000000000 0.0000000000 0.0000000000 -0.0000000000 0.0000000000 -0.0000000000 0.0000000000 -0.0000000000 0.0000000000 0.0000000000 -0.0000000000 -0.0000000000 -0.0000000000 -0.0000000000 0.0000000000 -0.0000000000 0.0000000000 -0.0000000000 -0.0000000000 0.0000000000 -0.0000000000 -0.0000000000 -0.0000000000 0.0000000000 0.0000000000 0.0000000000 -0.0000000000 0.0000000000 -0.0000000000 0.0000000000 0.0000000000 -0.0000000000 0.0000000000 0.0000000000 0.0000000000 -0.0000000000 -0.0000000000 -0.0000000000 0.0000000000 -0.0000000000 0.0000000000 -0.0000000000 -0.0000000000 0.0000000000 0.0000000000 -0.0000000000 0.0000000000 0.0000000000 -0.0000000000 0.0000000000 -0.0000000000 -0.0000000000 -0.0000000000 0.0000000000 0.0000000000 0.0000000000 -0.0000000000 0.0000000000 -0.0000000000 0.0000000000 0.0000000000 -0.0000000000 -0.0000000000 0.0000000000 -0.0000000000 0.0000000000 -0.0000000000 0.0000000000 0.0000000000 -0.0000000000 0.0000000000 0.0000000000 0.0000000000 0.0000000000 -0.0000000000 0.0000000000 -0.0000000000 0.0000000000 0.0000000000 -0.0000000000 -0.0000000000 0.0000000000 -0.0000000000 -0.0000000000 -0.0000000000 -0.0000000000 0.0000000000 -0.0000000000 0.0000000000 -0.0000000000 -0.0000000000 0.0000000000 0.0000000000 -0.0000000000 0.0000000000 0.0000000000 -0.0000000000 0.0000000000 -0.0000000000 -0.0000000000 -0.0000000000 0.0000000000 0.0000000000 -0.0000000000 -0.0000000000 0.0000000000 -0.0000000000 0.0000000000 0.0000000000 -0.0000000000 0.0000000000 0.0000000000 0.0000000000 -0.0000000000 -0.0000000000 -0.0000000000 0.0000000000 -0.0000000000 0.0000000000 -0.0000000000 -0.0000000000 0.0000000000 0.0000000000 -0.0000000000 0.0000000000 -0.0000000000 
</DataArray>
<DataArray type="Int32" Name="region_id" format="ascii">
2 2 2 2 2 2 2 2 2 2 2 2 2 2 2 2 2 2 2 2 1 1 1 1 1 1 1 1 1 1 1 1 1 1 1 1 1 1 1 1 1 1 1 1 1 1 1 1 1 1 1 1 1 1 1 1 1 1 1 1 1 1 1 1 1 1 1 1 1 1 1 1 1 1 1 1 1 1 1 1 1 1 1 1 1 1 1 1 1 1 1 1 1 1 1 1 1 1 1 1 1 1 1 1 1 1 1 1 1 1 1 1 1 1 1 1 1 1 1 1 1 1 1 1 1 1 1 1 1 1 1 1 1 1 1 1 1 1 1 1 1 1 1 1 1 1 1 1 1 1 1 1 1 1 1 1 1 1 1 1 1 1 1 1 1 1 1 1 1 1 1 1 1 1 1 1 1 1 1 1 1 1 1 1 1 1 1 1 1 1 1 1 1 1 1 1 1 1 1 1 1 1 1 1 1 1 1 1 1 1 1 1 1 1 1 1 1 1 1 1 1 1 1 1 1 1 1 1 1 1 1 1 1 1 1 1 1 1 1 1 1 1 1 1 1 1 1 1 1 1 1 1 1 1 1 1 1 1 1 1 1 1 1 1 1 1 1 1 1 1 1 1 1 1 1 1 1 1 1 1 1 1 1 1 1 1 1 1 1 1 1 1 1 1 1 1 1 1 1 1 1 1 1 1 1 1 1 1 1 1 1 1 1 1 1 1 1 1 1 1 1 1 1 1 1 1 1 1 1 1 1 1 1 1 1 1 1 1 1 1 1 1 1 1 1 1 1 1 1 1 1 1 1 1 1 1 1 1 1 1 1 1 1 1 1 1 1 1 1 1 1 1 1 1 1 1 1 1 1 1 1 1 1 1 1 1 1 1 1 1 1 1 1 1 1 1 1 1 1 1 1 1 1 1 1 1 1 1 1 1 1 1 1 1 1 1 1 1 1 1 1 1 1 1 1 1 1 1 1 1 1 1 1 1 1 1 1 1 1 1 1 1 1 1 1 1 1 1 1 1 1 1 1 1 1 1 1 1 1 1 1 1 1 1 1 1 1 1 1 1 1 1 1 1 1 1 1 1 1 1 1 1 1 1 1 1 1 1 1 1 1 1 1 1 1 1 1 1 1 1 1 1 1 1 1 1 1 1 1 1 1 1 1 1 1 1 1 1 1 1 1 1 1 1 1 1 1 1 1 1 1 1 1 1 1 1 1 1 1 1 1 1 1 1 1 1 1 1 1 1 1 1 1 1 1 1 1 1 1 1 1 1 1 1 1 1 1 1 1 1 1 1 1 1 1 1 1 1 1 1 1 1 1 1 1 1 1 1 1 1 1 1 1 1 1 1 1 1 1 1 1 1 1 1 1 1 1 1 1 1 1 1 1 1 1 1 1 1 1 1 1 1 1 1 1 1 1 1 1 1 1 1 1 1 1 1 1 1 1 1 1 1 1 1 1 1 1 1 1 1 1 1 1 1 1 1 1 1 1 1 1 1 1 1 1 1 1 1 1 1 1 1 1 1 1 1 1 1 1 1 1 1 1 1 1 1 1 1 1 1 1 1 1 1 1 1 1 1 1 1 1 1 1 1 1 1 1 1 1 1 1 1 1 1 1 1 1 1 1 1 1 1 1 1 1 1 1 1 1 1 1 1 1 1 1 1 1 1 1 1 1 1 1 1 1 1 1 1 1 1 1 1 1 1 1 1 1 1 1 1 1 1 1 1 1 1 1 1 1 1 1 1 1 1 1 1 1 1 1 1 1 1 1 1 1 1 1 1 1 1 1 1 1 1 1 1 1 1 1 1 1 1 1 1 1 1 1 1 1 1 1 1 1 1 1 1 1 1 1 1 1 1 1 1 1 1 1 1 1 1 1 1 1 1 1 1 1 1 1 1 1 1 1 1 1 1 1 1 1 1 1 1 1 1 1 1 1 1 1 1 1 1 1 1 1 1 1 1 1 1 1 1 1 1 1 1 1 1 1 1 1 1 1 1 1 1 1 1 1 1 1 1 1 1 1 1 1 1 1 1 1 1 1 1 1 1 1 1 1 1 1 1 1 1 1 1 1 1 1 1 1 1 1 1 1 1 1 1 1 1 1 1 1 1 1 1 1 1 1 1 1 1 1 1 1 1 1 1 1 1 1 1 1 1 1 1 1 1 1 1 1 1 1 1 1 1 1 1 1 1 1 1 1 1 1 1 1 1 1 1 1 1 1 1 1 1 1 1 1 1 1 1 1 1 1 1 1 1 1 1 1 1 1 1 1 1 1 1 1 1 1 1 1 1 1 1 1 1 1 1 1 1 1 1 1 1 1 1 1 1 1 1 1 1 1 1 1 1 1 1 1 1 1 1 1 1 1 1 1 1 1 1 1 1 1 1 1 1 1 1 1 1 1 1 1 1 1 1 1 1 1 1 1 1 1 1 1 1 1 1 1 1 1 1 1 1 1 1 1 1 1 1 1 1 1 1 1 1 1 1 1 1 1 1 1 1 1 1 1 1 1 1 1 1 1 1 1 1 1 1 1 1 1 1 1 1 1 1 1 1 1 1 1 1 1 1 1 1 1 1 1 1 1 1 1 1 1 1 1 1 1 1 1 1 1 1 1 1 1 1 
</DataArray>
</PointData>
</Piece>
</UnstructuredGrid>
</VTKFile>
