<?xml version="1.0"?>
<VTKFile type="UnstructuredGrid" version="0.1" byte_order="LittleEndian">
<UnstructuredGrid>
<Piece NumberOfPoints="1160" NumberOfCells="390">
<Points>
<DataArray type="Float64" NumberOfComponents="3" format="ascii">
0 0.037627845084982139 0 0 0.02712913039350634 0 0.10000000000000001 0.037627845084982139 0 0 0.014048877707311129 0 0 0.01007997645382676 0 0.10000000000000001 0.014048877707311129 0 0 0.01007997645382676 0 0 0.0072101992457088487 0 0.10000000000000001 0.01007997645382676 0 0 0.00027714824767246312 0 0 0.0001221058858762623 0 0.10000000000000001 0.00027714824767246312 0 0 0.019537864299142921 0 0 0.014048877707311129 0 0.10000000000000001 0.019537864299142921 0 0 0.0072101992457088487 0 0 0.0051351601405289276 0 0.10000000000000001 0.0072101992457088487 0 0 0.00049157175393484403 0 0 0.00027714824767246312 0 0.10000000000000001 0.00049157175393484403 0 0 0.02712913039350634 0 0 0.019537864299142921 0 0.10000000000000001 0.02712913039350634 0 0 0 0 0.10000000000000001 0 0 0 0.0051351601405289276 0 0 0.0036347696815094469 0 0.10000000000000001 0.0051351601405289276 0 0 1.0000000000000001e-05 0 0 0.0001221058858762623 0 0.10000000000000001 0.0001221058858762623 0 0 0.0036347696815094469 0 0 0.0025498882091243972 0 0.10000000000000001 0.0036347696815094469 0 0 0.052147564491031792 0 0 0.037627845084982139 0 0.10000000000000001 0.052147564491031792 0 0 0.00078811928474293897 0 0 0.00049157175393484403 0 0.10000000000000001 0.00078811928474293897 0 0 0.001198244413521618 0 0 0.00078811928474293897 0 0.10000000000000001 0.001198244413521618 0 0 0.001198244413521618 0 0 0.001765447234118425 0 0.10000000000000001 0.001765447234118425 0 0 1.0000000000000001e-05 0 0 0 0 0.10000000000000001 1.0000000000000001e-05 0 0 0.0025498882091243972 0 0 0.001765447234118425 0 0.10000000000000001 0.0025498882091243972 0 0 0.052147564491031792 0 0 0.072228323778986164 0 0.10000000000000001 0.072228323778986164 0 0 0.10000000000000001 0 0 0.072228323778986164 0 0.10000000000000001 0.10000000000000001 0 0 0.072228323778986164 0 0.10000000000000001 0.10000000000000001 0 0.10000000000000001 0.072228323778986164 0 0 0.014048877707311129 0 0.10000000000000001 0.014048877707311129 0 0.10000000000000001 0.019537864299142921 0 0 0.019537864299142921 0 0.10000000000000001 0.019537864299142921 0 0.10000000000000001 0.02712913039350634 0 0 0.0051351601405289276 0 0.10000000000000001 0.0072101992457088487 0 0.10000000000000001 0.0051351601405289276 0 0 0.001198244413521618 0 0.10000000000000001 0.001198244413521618 0 0.10000000000000001 0.001765447234118425 0 0 0.001765447234118425 0 0.10000000000000001 0.0025498882091243972 0 0.10000000000000001 0.001765447234118425 0 0 0.00027714824767246312 0 0.10000000000000001 0.00027714824767246312 0 0.10000000000000001 0.00049157175393484403 0 0 0.0036347696815094469 0 0.10000000000000001 0.0036347696815094469 0 0.10000000000000001 0.0051351601405289276 0 0 0.01007997645382676 0 0.10000000000000001 0.014048877707311129 0 0.10000000000000001 0.01007997645382676 0 0 1.0000000000000001e-05 0 0.10000000000000001 0.0001221058858762623 0 0.10000000000000001 1.0000000000000001e-05 0 0 0.052147564491031792 0 0.10000000000000001 0.072228323778986164 0 0.10000000000000001 0.052147564491031792 0 0 0.0001221058858762623 0 0.10000000000000001 0.00027714824767246312 0 0.10000000000000001 0.0001221058858762623 0 0 0.02712913039350634 0 0.10000000000000001 0.02712913039350634 0 0.10000000000000001 0.037627845084982139 0 0 0.00078811928474293897 0 0.10000000000000001 0.00078811928474293897 0 0.10000000000000001 0.001198244413521618 0 0 0.0025498882091243972 0 0.10000000000000001 0.0025498882091243972 0 0.10000000000000001 0.0036347696815094469 0 0 0 0 0.10000000000000001 1.0000000000000001e-05 0 0.10000000000000001 0 0 0 0.0072101992457088487 0 0.10000000000000001 0.01007997645382676 0 0.10000000000000001 0.0072101992457088487 0 0 0.037627845084982139 0 0.10000000000000001 0.052147564491031792 0 0.10000000000000001 0.037627845084982139 0 0 0.00049157175393484403 0 0.10000000000000001 0.00049157175393484403 0 0.10000000000000001 0.00078811928474293897 0 0.10000000000000001 0.00078811928474293897 0 0.10000000000000001 0.001198244413521618 0 0.20000000000000001 0.001198244413521618 0 0.10000000000000001 0.00078811928474293897 0 0.20000000000000001 0.001198244413521618 0 0.20000000000000001 0.00078811928474293897 0 0.10000000000000001 0.0036347696815094469 0 0.20000000000000001 0.0051351601405289276 0 0.20000000000000001 0.0036347696815094469 0 0.10000000000000001 0.0072101992457088487 0 0.10000000000000001 0.0051351601405289276 0 0.20000000000000001 0.0072101992457088487 0 0.10000000000000001 0.0051351601405289276 0 0.20000000000000001 0.0072101992457088487 0 0.20000000000000001 0.0051351601405289276 0 0.10000000000000001 0.01007997645382676 0 0.10000000000000001 0.0072101992457088487 0 0.20000000000000001 0.01007997645382676 0 0.10000000000000001 0.0072101992457088487 0 0.20000000000000001 0.0072101992457088487 0 0.20000000000000001 0.01007997645382676 0 0.10000000000000001 0.00027714824767246312 0 0.10000000000000001 0.00049157175393484403 0 0.20000000000000001 0.00049157175393484403 0 0.10000000000000001 0.00027714824767246312 0 0.20000000000000001 0.00027714824767246312 0 0.20000000000000001 0.00049157175393484403 0 0.10000000000000001 0.0036347696815094469 0 0.10000000000000001 0.0051351601405289276 0 0.20000000000000001 0.0051351601405289276 0 0.10000000000000001 0.001198244413521618 0 0.10000000000000001 0.001765447234118425 0 0.20000000000000001 0.001765447234118425 0 0.10000000000000001 0.0025498882091243972 0 0.20000000000000001 0.0036347696815094469 0 0.20000000000000001 0.0025498882091243972 0 0.10000000000000001 0.014048877707311129 0 0.10000000000000001 0.01007997645382676 0 0.20000000000000001 0.014048877707311129 0 0.10000000000000001 0.0025498882091243972 0 0.10000000000000001 0.0036347696815094469 0 0.20000000000000001 0.0036347696815094469 0 0.10000000000000001 0.001765447234118425 0 0.20000000000000001 0.001765447234118425 0 0.20000000000000001 0.0025498882091243972 0 0.10000000000000001 0.001198244413521618 0 0.20000000000000001 0.001198244413521618 0 0.20000000000000001 0.001765447234118425 0 0.10000000000000001 0.00049157175393484403 0 0.10000000000000001 0.00078811928474293897 0 0.20000000000000001 0.00078811928474293897 0 0.10000000000000001 0.00049157175393484403 0 0.20000000000000001 0.00078811928474293897 0 0.20000000000000001 0.00049157175393484403 0 0.10000000000000001 0.0025498882091243972 0 0.10000000000000001 0.001765447234118425 0 0.20000000000000001 0.0025498882091243972 0 0.10000000000000001 0.02712913039350634 0 0.10000000000000001 0.037627845084982139 0 0.20000000000000001 0.037627845084982139 0 0.10000000000000001 0 0 0.20000000000000001 0 0 0.10000000000000001 0.052147564491031792 0 0.20000000000000001 0.072228323778986164 0 0.20000000000000001 0.052147564491031792 0 0.10000000000000001 1.0000000000000001e-05 0 0.10000000000000001 0 0 0.20000000000000001 1.0000000000000001e-05 0 0.10000000000000001 0 0 0.20000000000000001 1.0000000000000001e-05 0 0.20000000000000001 0 0 0.10000000000000001 0.037627845084982139 0 0.20000000000000001 0.037627845084982139 0 0.20000000000000001 0.052147564491031792 0 0.10000000000000001 0.052147564491031792 0 0.10000000000000001 0.037627845084982139 0 0.20000000000000001 0.052147564491031792 0 0.10000000000000001 0.02712913039350634 0 0.20000000000000001 0.037627845084982139 0 0.20000000000000001 0.02712913039350634 0 0.10000000000000001 0.0001221058858762623 0 0.10000000000000001 1.0000000000000001e-05 0 0.20000000000000001 0.0001221058858762623 0 0.10000000000000001 1.0000000000000001e-05 0 0.20000000000000001 0.0001221058858762623 0 0.20000000000000001 1.0000000000000001e-05 0 0.10000000000000001 0.019537864299142921 0 0.20000000000000001 0.02712913039350634 0 0.20000000000000001 0.019537864299142921 0 0.10000000000000001 0.019537864299142921 0 0.10000000000000001 0.02712913039350634 0 0.20000000000000001 0.02712913039350634 0 0.10000000000000001 0.014048877707311129 0 0.20000000000000001 0.019537864299142921 0 0.20000000000000001 0.014048877707311129 0 0.10000000000000001 0.00027714824767246312 0 0.10000000000000001 0.0001221058858762623 0 0.20000000000000001 0.00027714824767246312 0 0.10000000000000001 0.01007997645382676 0 0.20000000000000001 0.014048877707311129 0 0.20000000000000001 0.01007997645382676 0 0.10000000000000001 0.0001221058858762623 0 0.20000000000000001 0.0001221058858762623 0 0.20000000000000001 0.00027714824767246312 0 0.10000000000000001 0.014048877707311129 0 0.10000000000000001 0.019537864299142921 0 0.20000000000000001 0.019537864299142921 0 0.10000000000000001 0.072228323778986164 0 0.20000000000000001 0.10000000000000001 0 0.20000000000000001 0.072228323778986164 0 0.10000000000000001 0.10000000000000001 0 0.10000000000000001 0.072228323778986164 0 0.20000000000000001 0.10000000000000001 0 0.10000000000000001 0.072228323778986164 0 0.10000000000000001 0.052147564491031792 0 0.20000000000000001 0.072228323778986164 0 0.20000000000000001 0.10000000000000001 0 0.20000000000000001 0.072228323778986164 0 0.29999999999999999 0.10000000000000001 0 0.20000000000000001 0.072228323778986164 0 0.20000000000000001 0.052147564491031792 0 0.29999999999999999 0.072228323778986164 0 0.20000000000000001 0.001198244413521618 0 0.20000000000000001 0.00078811928474293897 0 0.29999999999999999 0.001198244413521618 0 0.20000000000000001 0.0001221058858762623 0 0.20000000000000001 0.00027714824767246312 0 0.29999999999999999 0.00027714824767246312 0 0.20000000000000001 0.001198244413521618 0 0.20000000000000001 0.001765447234118425 0 0.29999999999999999 0.001765447234118425 0 0.20000000000000001 1.0000000000000001e-05 0 0.20000000000000001 0 0 0.29999999999999999 1.0000000000000001e-05 0 0.20000000000000001 0.0072101992457088487 0 0.20000000000000001 0.01007997645382676 0 0.29999999999999999 0.01007997645382676 0 0
[...]
<PointData Scalars="Ba-133_conc,region_id," Vectors="" Tensors="">
<DataArray type="Float64" Name="Ba-133_conc" format="ascii">
1.2868174251375767e-72 -6.6256075736323057e-72 -5.3404449472203875e-73 -8.2620741121494337e-43 2.3732852370792723e-43 7.5211635192068782e-43 1.5721343345554149e-35 1.852476859409293e-34 -1.0364632466086014e-34 -0.77380218765672171 -6.9981870682029781 4.456884265738152 1.100338469104434e-51 -1.7784628999728935e-51 1.7930372839863194e-53 6.8611084737269225e-28 -3.9140354650649558e-27 8.1047067868796648e-28 0.075282235781828022 -0.25660677736008297 -0.12685123498181372 4.4519996177525097e-62 -8.6154096037225218e-62 -3.0957134220901945e-62 3226.4911058418584 3509.662008897938 -1.9964657666375284e-21 6.2257285148281615e-21 4.4871072622307776e-22 540.14115288703124 -8.6218706970125876 -113.47028631477474 4.3782103701859255e-16 -7.8413924746291298e-16 -4.8320391904505974e-16 3.4425198323985081e-83 -1.1815486677407517e-82 -1.1832423914522159e-83 -0.0021811450661623263 0.012444388413347404 0.00082680890116813605 1.2140352735562654e-05 -9.3125649137977475e-05 2.0605719343258062e-05 1.0494455371614329e-07 5.1497315836967022e-09 -6.8120066586443213e-08 577.84404855971832 3224.7635646213548 844.40232104249719 -8.3582561510069605e-12 -3.4569473397512938e-12 1.9065403906736166e-11 -7.0253161648446947e-94 2.1162639507942237e-94 -7.5076516098896447e-95 3.6164291495303732e-106 -1.1589354656916239e-105 -1.3848256616330918e-106 -6.5428215794128716e-100 8.9622847003194143e-101 -1.01094702757961e-100 -2.3081254632885236e-47 9.0235892013372094e-47 -7.055095184243283e-48 8.4253421461426673e-58 -4.7451945751314495e-57 -8.4615084448013031e-57 -2.6610580306035078e-24 1.2385810378004583e-24 6.837840306211541e-25 1.4792203465826471e-06 2.4962722379330747e-06 -1.1682565786611038e-06 -2.4643898774933821e-10 7.7751828542413141e-10 -2.7504810942750554e-09 -0.3351573971334123 3.0976447294722194 -0.21557558461249962 1.5412917472737676e-18 -2.4556032105261073e-18 -1.1238385447820819e-19 1.0394404610121194e-39 9.228702334701839e-39 -3.0262447733699983e-38 576.20441925764896 -143.41841107318959 843.07089167749155 -1.8770357476803199e-88 2.1001657695351313e-89 -3.0901556118816406e-89 -8.3199566197045893 6.3110759878941716 -98.535761326021643 -3.0553080358942267e-67 -3.4796884716290307e-67 -7.7062769761014581e-68 -0.00048042016149748928 8.7065895713095092e-05 0.00019061259089644687 -6.4976296854268167e-14 2.725758926866789e-13 -4.336840799270154e-14 3224.7564695975302 844.39419044125987 3508.3632463461618 3.3730118905612287e-31 -3.9069980155226277e-31 6.3117852347745365e-31 -1.4575799879574252e-77 7.4406848970438444e-79 -3.2194954552058548e-78 0.027667749437674621 -0.053433847310379035 -0.00079243548368447786 -0.00014301652054260516 0.00014470330820398684 -0.0001978020263561739 -0.00074991256624952669 -0.00092473376910273946 0.0065439224679156799 -4.6731223945220593e-18 1.0885999906490407e-17 -3.1399611951134647e-17 1.5711120147879935e-26 -1.9118715517510595e-26 -1.522242822768545e-26 -1.2228952594361817e-23 -1.2995673132245021e-23 6.5493624083388848e-23 -1.3910818765281153e-33 3.7857913350193946e-33 2.0224737985758197e-34 6.0577881586047137e-30 -1.1564640381397406e-29 -1.2684128204715295e-31 2.3147846895352844 0.00081614426755666767 -0.81483518430502899 2.7269759428580143 7.1112364748519727 -1.5575059842054817 -2.3022514090898577e-20 -1.3464823680262031e-20 3.2547682435408182e-20 1.0220443727639669e-06 -3.0953086830753248e-07 1.480666176930271e-07 9.4186678612384921e-13 -7.3069472246618603e-13 1.04634683834975e-12 7.4508954145248108e-42 -4.1240793367862087e-41 8.2163229168065045e-42 1.1862695553363774e-14 -2.0617197008574087e-16 -5.5872992289808698e-15 -1.0812968520709526e-08 4.0705010086591511e-09 3.8293477398330064e-09 1.1185810558901219e-05 -1.8494832703390487e-05 5.1277281418805364e-07 -0.022293766715368951 -0.0070680423537213873 0.027599067705997703 -0.030222786308221533 0.073340917108467713 -0.40082314618894704 6.4671131986690408e-11 -3.6795747340007559e-10 5.8444643037384653e-11 1.5688677535835413e-70 -6.167400465538064e-71 -2.8969733768721754e-71 3510.1027748248257 3661.2915646507631 4.6850215875093767e-87 7.0282358165324516e-88 -2.1534160662169388e-87 844.34309738613797 3508.4569064905891 1047.1346236675488 3508.4992322198204 1047.1333922623546 3660.1299547845219 3.6138553546253057e-76 -2.5928336834144127e-76 1.3735586210671173e-76 -1.0444404137091161e-81 3.1727460386405132e-81 -5.5167369019415063e-82 6.328063206150286e-66 8.3682108829028656e-66 -6.2899285009902748e-66 -111.58646049298194 811.01825209734739 -138.66771133354416 842.60333467665748 -171.11751552394284 1045.4919938686928 8.2571783378746453e-56 7.2660049399111571e-56 -4.1480339546722389e-55 2.0386853457149301e-60 -2.1684618067816001e-60 -4.0318115604284405e-61 1.3201712060492866e-46 -5.2135024988003247e-46 7.7604679513776632e-46 3.2050420249740648 -90.907423925241588 9.5836856327167688 -1.6478323207084405e-37 1.0283708764060386e-37 7.7744318929262745e-38 -98.424464967477959 -122.75222404633335 14.325263115109422 1.6292094489590006e-50 8.9076971874463841e-51 -1.0716475617670417e-50 1.6372702211320207e-98 5.6695173323251485e-100 -4.7433862036037199e-99 -9.5640392531091814e-105 2.9484901725031711e-104 -2.3990231217291382e-105 -5.8440278701646795e-93 1.8180624363395149e-92 -2.3811116665942e-93 -4.9706776734464911e-104 1.5676227374056637e-103 1.5727540323431899e-104 -2.930281506561882e-92 9.5647152753294887e-92 7.8268059847354667e-93 9.8254689633628617e-05 0.0016511903482011954 -0.00091659680746160386 -113.96733938824451 9.2572920645539458 10.974380125413363 -1.1904888559561827e-06 -8.2978377286536124e-07 2.1355854678796715e-06 1047.1009742275562 3660.1268926798725 1276.7248675964875 -9.0283833325113324e-33 -5.9362109934404839e-33 1.0313305169815327e-32 0.0094875079206604481 -0.21907044878547532 0.054698226343461068 1.6546910288382923e-80 -4.8624297420648227e-81 1.0724806547705004e-81 -1.232390414126623e-49 3.4095208298746404e-49 -3.7888486713059337e-50 -4.7697382463816032e-10 4.5006800619541157e-10 -4.712089887219187e-10 5.6534420958701901 -0.6492046766305376 -1.0560011019040982 -1.7750856540844466e-70 9.6914837960430986e-70 2.9598080538993376e-71 7.8152415844518905e-20 -4.4687587786113383e-19 8.0997304395825333e-20 -2.398517997210439e-27 2.6849849196372515e-25 -1.1307212775139805e-25 -1.1720114017508957e-59 -1.1884197583053993e-60 6.2148514669849938e-60 -2.036178138435536e-14 6.1808559573778628e-14 4.7516725488503249e-15 1.1683441425505627e-40 -1.3741233759985647e-40 -5.6764979253600639e-41 -136.33565864427487 1011.217006214932 -165.26578421906603 3.591644909719533e-45 -1.0722264898752949e-45 -7.1282719032684616e-45 -6.9295079420345807e-37 3.0013629972725e-36 -5.6330883752576621e-37 0.004441374476895011 0.014558614021881786 -0.0053136547296105136 2.6003916089587481e-86 2.0199406143065932e-87 -2.1183566974666961e-87 -4.9989950871390361e-56 -6.1967377765936768e-55 1.6100404338929561e-54 -8.8094362384951301e-17 3.7727795730161237e-17 1.4472868380294573e-17 -2.4171638784564669e-06 -9.9471374576722894e-05 2.6619880267962255e-05 4.8766748652801537e-12 -6.2539325618373121e-12 -2.2238790003008612e-13 -7.1461590327054251e-30 3.1612766431710057e-29 -8.6801073037072265e-29 2.1261912355570926e-75 -1.1853510684743944e-78 -6.3722085028616133e-77 -1.8576723368750787e-08 -1.3247104751914292e-08 8.2513494262846934e-08 1.302986037919776e-22 -1.2264826632034947e-22 1.7905934868602964e-22 4.3220606556097248e-65 3.353996208647168e-65 1.2535546135811038e-65 1045.210639967155 -199.10140941561178 1275.1983164678081 6.9795103234974105 8.6999641610632281 -2.0799384843005355 3660.0654472515416 3615.8322889768328 1276.7437225050819 -0.36608057375782427 -0.55644525236415165 0.17037621136079867 -121.88466437772357 16.145448745837424 -148.75397957074725 3661.0844407123082 3616.3289063725565 3.8593281235526097e-10 3.0706222934317597e-09 -1.9953662601972609e-09 -1.4053344233569197e-58 9.2165392172999571e-59 2.7292751774788054e-59 -4.9738574920451637e-54 8.9488477186459563e-55 1.5339289260948584e-53 2.1752776232486381e-32 -1.3454599140211273e-31 2.6630741802585009e-32 -4.745626326969012e-69 2.7508745263060261e-69 9.0409875383348993e-70 4.2598097121693134e-08 -7.2655153262655173e-08 1.9138605469713326e-07 1274.7320512881151 1524.6641004420403 -224.75735853575819 -1.9419097807624513e-64 -4.3163749173803326e-64 2.1303310221840875e-64 -0.31630911111530374 0.042127303338250273 0.067704352975958504 -0.5270141024734204 0.21780094386790649 -0.6881426158883549 -1.2424319351815026e-79 4.1901970762930952e-80 2.1663392556200823e-80 -1.4286479766230832e-74 1.109049181791802e-74 -5.2209447340184946e-75 -163.01139235306533 1240.5053454078122 -192.11675522521219 -1.6709581286423609e-28 -1.1434846385542892e-29 9.7531532769369746e-29 -3.5350619226482441e-25 1.098811313307559e-24 -5.247284674040329e-27 -3.8553146965905235e-14 -4.8044168285957159e-14 8.9074580118429026e-14 1.1488949322434463e-12 -2.9917368489889457e-11 8.2740494352767966e-12 5.3120211928458812e-45 1.650500614885683e-44 -4.7765152447252436e-44 -7.1121408702163274e-49 -4.7649862684594535e-50 3.7246015426402321e-49 3.0742028844843136e-36 7.3171597794990789e-36 -4.8790699525487018e-36 1.2011868518561334e-39 7.8369868710789638e-41 -4.6149170502976405e-40 -147.82415047458542 17.933498404962474 -176.2186605416351 10.982448778379904 -139.84350283245857 12.802304723240621 8.4965799372385717 10.547667437761328 -2.3725199056833888 7.0342468028283474 -0.94958345324219462 -1.2150654324107182 4.4108831807412364e-19 -5.8565165658651336e-19 -3.247949341967276e-19 -1.5559916635176523e-16 4.6855754354938401e-16 -6.7618243322876216e-17 -1.8692581769851307e-85 8.6438490290826211e-86 -2.674828026580298e-86 3615.9054512304037 1276.6840555053045 1525.8992439246204 3615.9186587138888 3357.1687486499322 1525.8909683258507 5.8971732893462382e-22 -6.0168319446553754e-22 -9.0492254349541728e-23 3616.5347177234435 3357.0596243399204 0.0042122783086269086 -0.00052571809273610265 -0.0013304573415026972 0.012834558434242827 -0.008188666048371358 0.019675581498557866 -1.1435045690425062e-05 3.767096547404112e-07 4.5140055662663736e-06 -7.5497418664234749e-05 6.4145023408442858e-05 -0.00015510558351510277 -7.2138665338361524e-91 2.3228569637695579e-91 9.3621842487673286e-92 3.7753303733228318e-103 -1.1695117557297149e-102 9.5121365417453228e-104 -6.5133720219897564e-97 -2.0987572869060759e-98 1.8644047120226131e-97 8.9236708300595785e-98 -1.0417959643839518e-98 8.7645807183150315e-99 -1.9693690867646175e-96 1.2031903569136277e-97 9.6291819948433379e-98 1.6806797025572095e-35 -5.5936823230644832e-36 -1.3632320991515566e-35 -3.2529239668732564e-28 -7.5419783002593141e-29 7.3526330270634996e-28 0.017707637994532226 0.025905911586020968 -0.010883846265636573 10.340256221245639 12.458141083967485 -2.6481504899415698 3356.9900390363637 2885.2755574299463 -1.8605458892710112e-11 2.104658946907213e-11 -5.0153912675997231e-11 -5.8078779992742043e-85 -4.7663247430624311e-88 7.56201898381903e-86 -4.898256240501802e-44 6.1577606019820039e-44 -2.7799624592147529e-44 1523.9855913686206 1778.999907323969 -244.5118253769669 1.6850967449893408e-16 -4.1197220130625097e-16 1.1181536869845675e-15 -5.0311935572800647e-74 -1.7913398847756755e-75 2.0455167953652447e-74 3.1317515715165317e-22 7.6934407046201609e-22 -2.8700817021323192e-21 3357.164078661564 1779.6826947377142 2886.1533313940431 -8.048185280206698e-54 -3.0771975556250644e-53 4.7882475488909143e-53 -7.177518547488223e-64 -8.4468464503538628e-64 -3.2219566567923887e-64 -0.66421440009246557 -0.86290266618976241 0.26823821959028954 1.4071640686728431e-07 2.7684614990463569e-07 -1.2378693017861329e-07 -0.0001269421750424221 -0.00021058165864767893 9.2993331470733886e-05 -175.16424295019155 -202.89766870112879 18.951838364508799 -3.82526667225263e-79 1.1373674242350862e-79 1.0166228927304281e-80 -2.4574060423209574e-25 -7.8621835400493642e-25 9.9456566701601365e-25 2.1488814674318263e-18 4.0884592328149131e-19 -1.4230590846881624e-18 3357.1903474650358 1525.8396095926696 1779.6966452972276 8.7754051203657397 -1.1497377589388846 -1.4448884314256596 -0.00095646517244243206 0.0058630314094896396 -0.0017083589650485438 2.6985154573188068e-06 -1.8706130984328988e-05 6.1333564850287839e-06 4.9453205241473675e-39 -1.5013835163463224e-39 -3.9908647792590229e-40 4.1619938506137617e-69 -1.8615782153955226e-68 8.1551403190346154e-70 0.057165818936318259 -0.4060012407243665 0.084907124226646216 -8.7531168475008259e-10 8.3582017798311423e-09 -3.1458710230840209e-09 -4.5112035459494064e-13 4.8612911435682312e-15 1.9856729180160551e-13 13.01442694107593 -167.94796732125343 14.420651501696092 5.8581217401086782e-49 -7.2825578921390337e-48 1.632875703154874e-48 -1.896781132057552e-31 1.2021491693312384e-31 -4.6687423083674559e-32 4.3449459322113516e-58 5.7892657525120654e-59 -1.1667246532511639e-58 1492.4679571912845 -190.01512767296316 -216.47730832392287 1.1184704495959893e-102 -3.4487130235191584e-102 -1.3041414579238865e-103 -2.1227835144752113e-90 6.7036634887285004e-91 -1.3552759066021816e-92 -4.7646491272835841e-27 9.8952842328954036e-27 4.007157410739409e-27 -453.01220511854723 11.021375737586995 -232.06310503344463 -2.6312594799104151e-20 1.2325049378434032e-20 -1.1629113468982414e-20 8.5446958419966442e-15 -3.9379574169696234e-15 4.0440365302985594e-15 -7.613110064738561e-52 6.8573403474444481e-52 -3.227553174266775e-52 -3.4699609121491097e-10 1.5486886263819707e-10 -1.6896215249728103e-10 -350.63431259472623 2704.5954297629764 2540.8992348593838 -4.4002921434260267e-34 2.242038384952192e-34 -1.6158006550596603e-34 2.1034202843560094e-42 -1.2220163330838029e-42 7.0830128972151158e-43 1.8070735149744204e-06 -7.5879057281520636e-07 8.3959240488298966e-07 7.5088852520729477 2701.1710007289958 437.3517396313934 35.682196898094297 -2.2396263270824295 15.624895904281471 -0.0013064347813781605 0.00047806760984199802 -0.00054161796649268448 -2.7131787624782492e-62 -3.4424076441382879e-62 2.7258272845341627e-62 3.0796011148791033e-73 3.6311320938984262e-73 -1.5826923968604487e-73 5.4920679169032445 435.38618370133287 0.14447866369293003 -0.044515951469093519 0.054064253232528302 -1.3668430280931534e-84 5.5998574630150527e-85 -1.9625804444032597e-86 -3.6838555236131181 0.70695707844148792 -1.4414549012069193 1.0367980711063413e-96 -3.4713499403772646e-96 -1.3740391511676351e-98 -2.8505114865794127e-102 -3.1745744175754784e-103 2.2079774821029065e-103 -2.1100582844856993e-90 3.9119739358069156e-91 -4.0583989680525241e-92 0.3375794749625014 -1.0678068309279853 0.12521339836229634 1.373307173789119e-12 6.1015971118985813e-13 -3.9803906602052e-12 -412.59427209520862 -224.69377493352749 2577.0042088448436 -1.4835726006815487e-30 5.1478519148901928e-30 -7.5244477705288149e-31 -6.8087264814724178e-68 4.6019627456963436e-67 -1.3569645785433642e-67 -1.3042371655520209e-79 -5.8331451975021241e-79 -1.0059396920368702e-78 3.5743332183132373e-05 1.4248408247456351e-05 -9.5338340005929716e-05 -0.008833145890963871 0.02208049502765692 -0.0031616438279348357 -3.5938846346262738 -1.8069228081283462 15.964949898991803 2.0126601387426934e-38 1.2617816067831695e-38 -8.3607314067105066e-38 2701.2429716610272 2539.15347502133 437.30469662364357 -1.1762775752444182e-17 -5.2375361223326652e-18 3.5036990213922922e-17 2.3859110676581095e-57 5.5582887811673468e-57 -2.5966140676412162e-56 1.2156418904381044e-23 -3.8206897656577909e-23 5.5818731585952012e-24 -2.6088009870494868e-47 -2.5120843069394294e-47 1.5121107916198387e-46 26.681671713247098 -248.46639595512858 16.658652446087167 -1.9730507828300401e-08 5.4840245213142972e-08 -8.6317213578234681e-09 -1.7679687610944592e-47 1.0047764930168857e-46 -1.547675098635194e-47 1.0882023365858338e-10 -2.3988414843222223e-10 -1.2021467457761623e-10 -7.7675785543964338e-43 1.3181198805936739e-42 4.593198838608565e-43 -193.36919226806944 2542.3336837483316 2419.7837904322218 9.4599188328990935e-13 4.0106006932007895e-13 -2.6964418095908539e-12 -6.4514736759650442e-63 -1.880442258481715e-62 3.3249277218966654e-63 -6.0513916975607947e-68 1.5070454419808864e-67 1.1102927429667142e-67 -1.6143592834397611 -1.9858301564626333 16.441787909759409 1.2080649995034276e-06 -5.5676442004052821e-07 6.7811839300903438e-07 -1.3905888826999291e-08 4.0129923729575869e-08 -6.3157511969315365e-09 -1.421778160381556 14.822419868039066 16.536273059015773 2539.2438993007481 959.30683307533343 2419.0177472214887 1.2687857535423641e-38 -5.3433194682766171e-38 8.2937367925624643e-39 1.4124857495933451e-34 -2.7652672351049871e-34 -1.0303069142813728e-34 2.4026409401607096e-57 -1.7266203896903071e-56 1.3202517054719976e-57 2539.132165982508 437.37190260281653 959.36555609384141 -220.00819458276504 -242.95927478329631 2436.8337372051487 4.4571174077711265e-52 -5.112522473793587e-52 -1.6761878734479211e-52 2.4432854673082967e-05 1.2639472043332586e-05 -7.7745516057696354e-05 12.22300109679342 16.880044143584108 -256.65859730257904 -233.18194149332297 6.5602422829686846 -247.84157211049143 -1.4569718081696683 0.42796945085109117 -1.4573746770065423 0.17432089106463483 -1.0560289241037717 0.15504038175153839 7.8252074279027627e-24 3.501489100210821e-24 -2.4267721812997173e-23 -1.7290816442336789e-20 7.9790839686687131e-21 -7.3917770268245944e-21 6.826358471362025e-85 1.3146790082476414e-85 -2.4326117744687047e-84 -2.6388783439073463e-15 5.7965105381322116e-15 2.6631922003047884e-15 -7.8098409869291355e-18 -3.3006912163174872e-18 2.2721182998407844e-17 -0.0054150731302083522 0.02033556183738491 -0.0035086667952605672 0.068898210270716922 -0.030207904411259905 0.05501709785543412 0.00035061185001019013 -0.00077082542469926842 -0.00050522764857722027 435.4837808977727 957.32802339366606 -2.9179529062263961e-75 -1.0227220135726764e-75 -9.1263124568533642e-74 -4.2131411863840766e-80 -2.2237721110736231e-79 -1.2634535567347705e-78 -9.3597264406850193e-31 3.250682382470023e-30 -4.8097174866792252e-31 6.3297313139867125e-27 -3.0233353945460554e-27 2.5253512131287543e-27 -1.028211981858155e-90 2.4026280531786575e-90 -8.7495599930746372e-90 -1.5667363816899872e-96 1.0899359355954714e-96 -7.3323782873160466e-96 -1.9201605552408095e-102 4.1009565801128902e-102 -1.2965805709192048e-101 1.2899616695996677e-97 2.0743227061589846e-97 -2.6769105216907303e-96 12.91692737535171 -248.96059598688254 -241.19228385449702 0.00025325864772734124 -0.00056973160110625621 -0.00035544416673983538 -2.4218878210910182 16.620034339856108 15.563080227811623 8.3426235514666241e-07 -3.8135864720523241e-07 4.6014478687886872e-07 -4.1905872246446054e-52 2.3663485809453346e-52 4.7672836249921255e-53 -1.4740139887591397e-73 -1.9170534438470411e-73 9.3112676782248901e-74 -1.478495861155013 0.42742988620822403 -1.2381853105195282 6.3869330954899893e-63 2.5699959469284347e-63 -6.1776023963093921e-63 1.2274621748625528e-85 3.6449105674211902e-85 -7.4271669350544754e-85 0.057952471367769966 -0.024241709610563815 0.041580307201842283 959.36884423711933 2419.0044068955049 1587.3652889598675 8.9813151564934272e-43 -4.9704633303378892e-43 2.1560358320362152e-43 -233.2908508192339 2421.1509359008323 2243.7107449492755 -1.7831708953597616e-34 9.1376194657700164e-35 -6.5031889713477645e-35 7.2404422923146421e-11 -1.5975936942488108e-10 -7.9823236412911536e-11 4.0408612679209846e-27 -1.9419301994563247e-27 1.6411405660050771e-27 -1.7230695181306666e-15 3.780896349607168e-15 1.7400444917083208e-15 5.1441883848861894e-21 -1.1120557471281372e-20 -4.7899623316337266e-21 -0.0041889556080301526 0.014896195061989345 -0.0025084631040397935 0.16070995805874502 0.12084473283301661 -0.84739787351408413 -5.0565042918778913e-18 1.4753573751674114e-17 -2.1591365573300755e-18 957.42560208627344 1585.4855726768021 -6.0918438284640462e-31 -3.0807205035274612e-31 2.1348147615152419e-30 2.0652792969223866e-80 4.0071075573824336e-80 8.09548402681608e-80 1.7293460096286701e-05 -5.401756524188871e-05 8.6748594690243895e-06 5.0218028640103065e-24 -1.