<?xml version="1.0"?>
<VTKFile type="UnstructuredGrid" version="0.1" byte_order="LittleEndian">
<UnstructuredGrid>
<Piece NumberOfPoints="1160" NumberOfCells="390">
<Points>
<DataArray type="Float64" NumberOfComponents="3" format="ascii">
0 0.037627845084982139 0 0 0.02712913039350634 0 0.10000000000000001 0.037627845084982139 0 0 0.014048877707311129 0 0 0.01007997645382676 0 0.10000000000000001 0.014048877707311129 0 0 0.01007997645382676 0 0 0.0072101992457088487 0 0.10000000000000001 0.01007997645382676 0 0 0.00027714824767246312 0 0 0.0001221058858762623 0 0.10000000000000001 0.00027714824767246312 0 0 0.019537864299142921 0 0 0.014048877707311129 0 0.10000000000000001 0.019537864299142921 0 0 0.0072101992457088487 0 0 0.0051351601405289276 0 0.10000000000000001 0.0072101992457088487 0 0 0.00049157175393484403 0 0 0.00027714824767246312 0 0.10000000000000001 0.00049157175393484403 0 0 0.02712913039350634 0 0 0.019537864299142921 0 0.10000000000000001 0.02712913039350634 0 0 0 0 0.10000000000000001 0 0 0 0.0051351601405289276 0 0 0.0036347696815094469 0 0.10000000000000001 0.0051351601405289276 0 0 1.0000000000000001e-05 0 0 0.0001221058858762623 0 0.10000000000000001 0.0001221058858762623 0 0 0.0036347696815094469 0 0 0.0025498882091243972 0 0.10000000000000001 0.0036347696815094469 0 0 0.052147564491031792 0 0 0.037627845084982139 0 0.10000000000000001 0.052147564491031792 0 0 0.00078811928474293897 0 0 0.00049157175393484403 0 0.10000000000000001 0.00078811928474293897 0 0 0.001198244413521618 0 0 0.00078811928474293897 0 0.10000000000000001 0.001198244413521618 0 0 0.001198244413521618 0 0 0.001765447234118425 0 0.10000000000000001 0.001765447234118425 0 0 1.0000000000000001e-05 0 0 0 0 0.10000000000000001 1.0000000000000001e-05 0 0 0.0025498882091243972 0 0 0.001765447234118425 0 0.10000000000000001 0.0025498882091243972 0 0 0.052147564491031792 0 0 0.072228323778986164 0 0.10000000000000001 0.072228323778986164 0 0 0.10000000000000001 0 0 0.072228323778986164 0 0.10000000000000001 0.10000000000000001 0 0 0.072228323778986164 0 0.10000000000000001 0.10000000000000001 0 0.10000000000000001 0.072228323778986164 0 0 0.014048877707311129 0 0.10000000000000001 0.014048877707311129 0 0.10000000000000001 0.019537864299142921 0 0 0.019537864299142921 0 0.10000000000000001 0.019537864299142921 0 0.10000000000000001 0.02712913039350634 0 0 0.0051351601405289276 0 0.10000000000000001 0.0072101992457088487 0 0.10000000000000001 0.0051351601405289276 0 0 0.001198244413521618 0 0.10000000000000001 0.001198244413521618 0 0.10000000000000001 0.001765447234118425 0 0 0.001765447234118425 0 0.10000000000000001 0.0025498882091243972 0 0.10000000000000001 0.001765447234118425 0 0 0.00027714824767246312 0 0.10000000000000001 0.00027714824767246312 0 0.10000000000000001 0.00049157175393484403 0 0 0.0036347696815094469 0 0.10000000000000001 0.0036347696815094469 0 0.10000000000000001 0.0051351601405289276 0 0 0.01007997645382676 0 0.10000000000000001 0.014048877707311129 0 0.10000000000000001 0.01007997645382676 0 0 1.0000000000000001e-05 0 0.10000000000000001 0.0001221058858762623 0 0.10000000000000001 1.0000000000000001e-05 0 0 0.052147564491031792 0 0.10000000000000001 0.072228323778986164 0 0.10000000000000001 0.052147564491031792 0 0 0.0001221058858762623 0 0.10000000000000001 0.00027714824767246312 0 0.10000000000000001 0.0001221058858762623 0 0 0.02712913039350634 0 0.10000000000000001 0.02712913039350634 0 0.10000000000000001 0.037627845084982139 0 0 0.00078811928474293897 0 0.10000000000000001 0.00078811928474293897 0 0.10000000000000001 0.001198244413521618 0 0 0.0025498882091243972 0 0.10000000000000001 0.0025498882091243972 0 0.10000000000000001 0.0036347696815094469 0 0 0 0 0.10000000000000001 1.0000000000000001e-05 0 0.10000000000000001 0 0 0 0.0072101992457088487 0 0.10000000000000001 0.01007997645382676 0 0.10000000000000001 0.0072101992457088487 0 0 0.037627845084982139 0 0.10000000000000001 0.052147564491031792 0 0.10000000000000001 0.037627845084982139 0 0 0.00049157175393484403 0 0.10000000000000001 0.00049157175393484403 0 0.10000000000000001 0.00078811928474293897 0 0.10000000000000001 0.00078811928474293897 0 0.10000000000000001 0.001198244413521618 0 0.20000000000000001 0.001198244413521618 0 0.10000000000000001 0.00078811928474293897 0 0.20000000000000001 0.001198244413521618 0 0.20000000000000001 0.00078811928474293897 0 0.10000000000000001 0.0036347696815094469 0 0.20000000000000001 0.0051351601405289276 0 0.20000000000000001 0.0036347696815094469 0 0.10000000000000001 0.0072101992457088487 0 0.10000000000000001 0.0051351601405289276 0 0.20000000000000001 0.0072101992457088487 0 0.10000000000000001 0.0051351601405289276 0 0.20000000000000001 0.0072101992457088487 0 0.20000000000000001 0.0051351601405289276 0 0.10000000000000001 0.01007997645382676 0 0.10000000000000001 0.0072101992457088487 0 0.20000000000000001 0.01007997645382676 0 0.10000000000000001 0.0072101992457088487 0 0.20000000000000001 0.0072101992457088487 0 0.20000000000000001 0.01007997645382676 0 0.10000000000000001 0.00027714824767246312 0 0.10000000000000001 0.00049157175393484403 0 0.20000000000000001 0.00049157175393484403 0 0.10000000000000001 0.00027714824767246312 0 0.20000000000000001 0.00027714824767246312 0 0.20000000000000001 0.00049157175393484403 0 0.10000000000000001 0.0036347696815094469 0 0.10000000000000001 0.0051351601405289276 0 0.20000000000000001 0.0051351601405289276 0 0.10000000000000001 0.001198244413521618 0 0.10000000000000001 0.001765447234118425 0 0.20000000000000001 0.001765447234118425 0 0.10000000000000001 0.0025498882091243972 0 0.20000000000000001 0.0036347696815094469 0 0.20000000000000001 0.0025498882091243972 0 0.10000000000000001 0.014048877707311129 0 0.10000000000000001 0.01007997645382676 0 0.20000000000000001 0.014048877707311129 0 0.10000000000000001 0.0025498882091243972 0 0.10000000000000001 0.0036347696815094469 0 0.20000000000000001 0.0036347696815094469 0 0.10000000000000001 0.001765447234118425 0 0.20000000000000001 0.001765447234118425 0 0.20000000000000001 0.0025498882091243972 0 0.10000000000000001 0.001198244413521618 0 0.20000000000000001 0.001198244413521618 0 0.20000000000000001 0.001765447234118425 0 0.10000000000000001 0.00049157175393484403 0 0.10000000000000001 0.00078811928474293897 0 0.20000000000000001 0.00078811928474293897 0 0.10000000000000001 0.00049157175393484403 0 0.20000000000000001 0.00078811928474293897 0 0.20000000000000001 0.00049157175393484403 0 0.10000000000000001 0.0025498882091243972 0 0.10000000000000001 0.001765447234118425 0 0.20000000000000001 0.0025498882091243972 0 0.10000000000000001 0.02712913039350634 0 0.10000000000000001 0.037627845084982139 0 0.20000000000000001 0.037627845084982139 0 0.10000000000000001 0 0 0.20000000000000001 0 0 0.10000000000000001 0.052147564491031792 0 0.20000000000000001 0.072228323778986164 0 0.20000000000000001 0.052147564491031792 0 0.10000000000000001 1.0000000000000001e-05 0 0.10000000000000001 0 0 0.20000000000000001 1.0000000000000001e-05 0 0.10000000000000001 0 0 0.20000000000000001 1.0000000000000001e-05 0 0.20000000000000001 0 0 0.10000000000000001 0.037627845084982139 0 0.20000000000000001 0.037627845084982139 0 0.20000000000000001 0.052147564491031792 0 0.10000000000000001 0.052147564491031792 0 0.10000000000000001 0.037627845084982139 0 0.20000000000000001 0.052147564491031792 0 0.10000000000000001 0.02712913039350634 0 0.20000000000000001 0.037627845084982139 0 0.20000000000000001 0.02712913039350634 0 0.10000000000000001 0.0001221058858762623 0 0.10000000000000001 1.0000000000000001e-05 0 0.20000000000000001 0.0001221058858762623 0 0.10000000000000001 1.0000000000000001e-05 0 0.20000000000000001 0.0001221058858762623 0 0.20000000000000001 1.0000000000000001e-05 0 0.10000000000000001 0.019537864299142921 0 0.20000000000000001 0.02712913039350634 0 0.20000000000000001 0.019537864299142921 0 0.10000000000000001 0.019537864299142921 0 0.10000000000000001 0.02712913039350634 0 0.20000000000000001 0.02712913039350634 0 0.10000000000000001 0.014048877707311129 0 0.20000000000000001 0.019537864299142921 0 0.20000000000000001 0.014048877707311129 0 0.10000000000000001 0.00027714824767246312 0 0.10000000000000001 0.0001221058858762623 0 0.20000000000000001 0.00027714824767246312 0 0.10000000000000001 0.01007997645382676 0 0.20000000000000001 0.014048877707311129 0 0.20000000000000001 0.01007997645382676 0 0.10000000000000001 0.0001221058858762623 0 0.20000000000000001 0.0001221058858762623 0 0.20000000000000001 0.00027714824767246312 0 0.10000000000000001 0.014048877707311129 0 0.10000000000000001 0.019537864299142921 0 0.20000000000000001 0.019537864299142921 0 0.10000000000000001 0.072228323778986164 0 0.20000000000000001 0.10000000000000001 0 0.20000000000000001 0.072228323778986164 0 0.10000000000000001 0.10000000000000001 0 0.10000000000000001 0.072228323778986164 0 0.20000000000000001 0.10000000000000001 0 0.10000000000000001 0.072228323778986164 0 0.10000000000000001 0.052147564491031792 0 0.20000000000000001 0.072228323778986164 0 0.20000000000000001 0.10000000000000001 0 0.20000000000000001 0.072228323778986164 0 0.29999999999999999 0.10000000000000001 0 0.20000000000000001 0.072228323778986164 0 0.20000000000000001 0.052147564491031792 0 0.29999999999999999 0.072228323778986164 0 0.20000000000000001 0.001198244413521618 0 0.20000000000000001 0.00078811928474293897 0 0.29999999999999999 0.001198244413521618 0 0.20000000000000001 0.0001221058858762623 0 0.20000000000000001 0.00027714824767246312 0 0.29999999999999999 0.00027714824767246312 0 0.20000000000000001 0.001198244413521618 0 0.20000000000000001 0.001765447234118425 0 0.29999999999999999 0.001765447234118425 0 0.20000000000000001 1.0000000000000001e-05 0 0.20000000000000001 0 0 0.29999999999999999 1.0000000000000001e-05 0 0.20000000000000001 0.0072101992457088487 0 0.20000000000000001 0.01007997645382676 0 0.29999999999999999 0.01007997645382676 0 0
[...]
<PointData Scalars="Ba-133_conc,region_id," Vectors="" Tensors="">
<DataArray type="Float64" Name="Ba-133_conc" format="ascii">
3.4287476146658203e-71 -1.7598911279101236e-70 -1.4057233716750903e-71 -1.4118247511981138e-41 4.165556666812821e-42 1.2805785772615122e-41 2.3041513519740033e-34 2.6431049087395164e-33 -1.4880631775055821e-33 -0.64811686724672457 -9.7058802276559586 4.4889444449831419 2.1969199177572355e-50 -3.5574082244559542e-50 3.8736013175423535e-52 8.056526845908514e-27 -4.6290414780273445e-26 9.6565601795073879e-27 0.071895202748345072 -0.37870785803672508 -0.14945380572922151 1.0358572933876212e-60 -1.9971769181110092e-60 -7.1456739479567991e-61 2583.6388522472703 2533.2655077079953 -1.900297810041e-20 5.9546906670181445e-20 4.1173117186502897e-21 849.28269092279004 -10.514061451718327 -136.42361042489068 3.2700854509052549e-15 -5.9110835293133092e-15 -3.5765427236375795e-15 1.0385691394056135e-81 -3.5631295089658632e-81 -3.5421334649694186e-82 -0.003469791612538979 0.0224606232023934 0.00095369824870913207 3.0037918081217654e-05 -0.00025451082069548878 5.7628708917925486e-05 4.1610687814544042e-07 2.3729023540547791e-08 -2.7132023012891244e-07 876.58623256746785 2583.0210593084189 1160.8164765087149 -4.7123523965385561e-11 -1.6494555623684277e-11 1.066048954370727e-10 -2.3856385257922291e-92 7.1875264818748554e-93 -2.5363206196483078e-93 1.3737328557837974e-104 -4.4019435909213987e-104 -5.2418881122701251e-105 -2.3515112542482192e-98 3.2125028046574061e-99 -3.6111670818553809e-99 -4.2732782524984221e-46 1.6668013676182199e-45 -1.2891433908325385e-46 1.7929967598100141e-56 -1.0088251283330669e-55 -1.8232980042854442e-55 -2.8352233488300412e-23 1.3268370795019607e-23 6.9676853811382825e-24 4.7521572452079998e-06 8.5621086055384863e-06 -3.7959759818248807e-06 -1.0609311383964724e-09 3.6716756108502387e-09 -1.3152732076776392e-08 -0.44607633347194492 3.8996052064618993 -0.20103875013326147 1.3094624047522594e-17 -2.0660573025488245e-17 -1.0092279308671444e-18 1.6837504849683809e-38 1.4432400904479846e-37 -4.7482832461630256e-37 875.37181968931168 -155.86644348823356 1160.3755803060053 -6.0113383025679213e-87 6.6888737461102019e-88 -9.8065426274432807e-88 -10.323838136625243 5.3228225504177056 -126.69714523046852 -7.5924917781762423e-66 -8.5921455954820012e-66 -1.9291025266643089e-66 -0.0010063073917708557 9.0762369697856851e-05 0.00040279834893164004 -4.2845482893028564e-13 1.7728739530772532e-12 -2.769817713004635e-13 2583.033793009286 1160.7852566883498 2532.9787736637181 4.3826925893152216e-30 -5.1064509513655318e-30 8.2917933707421953e-30 -4.129696747787137e-76 2.0633429221407819e-77 -9.0127144540039443e-77 0.037736336711067693 -0.085212454277078575 -0.001941097359653134 -0.00036503418605035798 0.00036302595139173411 -0.00052758003953543335 -0.0014752628156210188 -0.0019917433555084749 0.01450329534228594 -4.0273424225198056e-17 9.1463847568291796e-17 -2.6159848927588241e-16 1.8416583006683292e-25 -2.2143095167525207e-25 -1.7957288553961926e-25 -1.2717931159698503e-22 -1.3845560638671533e-22 6.926695560342092e-22 -1.9856332260589377e-32 5.3855187824302465e-32 2.9731159926850747e-33 7.8357569927878175e-29 -1.5062400936664849e-28 -1.310963527605312e-30 3.3495757161067652 -0.030429675985347956 -0.97359587256094116 3.4690811590269957 8.8357566778784165 -1.3952249854862022 -2.2275988250098139e-19 -1.2579443874040294e-19 3.0770425902437607e-19 3.9755039901789964e-06 -1.2069842634009903e-06 6.0842199304743524e-07 6.091361675044491e-12 -4.6575131465167746e-12 6.5350239733431904e-12 1.2730164786834348e-40 -7.0095606467514088e-40 1.3879970299246006e-40 8.8344652960708637e-14 -1.8140519422083282e-15 -4.0861405938743021e-14 -5.0446202336803274e-08 2.0497938220823335e-08 1.7387239015426236e-08 3.5067134650504744e-05 -6.2137115594370642e-05 2.120575754628908e-06 -0.045697495567766949 -0.010780631121970632 0.046253681277058652 -0.054387224624788628 0.095838048078413576 -0.62400162744389109 3.6123280029690647e-10 -2.0382428463327145e-09 3.1073872341931519e-10 4.1527160884854779e-69 -1.6310357029858786e-69 -7.6474259367362092e-70 2533.1761098613943 2385.8458474832451 1.4955967415499418e-85 2.2370974035851831e-86 -6.8586725781960108e-86 1160.7607323874779 2532.9771388511399 1328.6738024638341 2532.9593053979343 1328.6615751213424 2385.9242755327796 1.0202141975683939e-74 -7.3028364875886241e-75 3.8704613608126146e-75 -3.1375489224306912e-80 9.532808680816315e-80 -1.6534747869131022e-80 1.5670798624757872e-64 2.0698816642203987e-64 -1.5494629115800205e-64 -134.99789898452758 1140.9765848109776 -150.34802556828208 1159.665289002483 -166.83898523317444 1328.2827730386196 1.7713359144073777e-54 1.5683541595097772e-54 -8.8965202454413374e-54 4.7158153844916857e-59 -5.0063457086171234e-59 -9.2681117570577764e-60 2.4528729875101586e-45 -9.5963907139041399e-45 1.4194555820032638e-44 3.8220095669334291 -122.8087808138316 9.9996894980962896 -2.5709441616875368e-36 1.5950772242976832e-36 1.2400145198742999e-36 -126.35094239424596 -142.42869319845687 12.040573159354272 3.2636925535171363e-49 1.7617752081072683e-49 -2.134789890351409e-49 5.867477032258265e-97 2.0153588862490503e-98 -1.6956313827374407e-97 -3.6222963842199066e-103 1.1167924722581928e-102 -9.0515484253733639e-104 -1.9780149207229211e-91 6.1542041781558489e-91 -8.0369848990437058e-92 -1.8620882417862671e-102 5.8739070689477702e-102 5.9968834282086208e-103 -9.8022561856309614e-91 3.2011511965769124e-90 2.6895943129250486e-91 0.00020643690048584431 0.0046129540799901359 -0.0024000657818492744 -139.42241151338663 10.223337142993239 9.9939238229282861 -5.262788447957237e-06 -3.143472461441446e-06 8.481346803342541e-06 1328.6317003867537 2385.9465029796775 1497.9067481287875 -1.3281416138270825e-31 -8.325926682902277e-32 1.4704609470290771e-31 0.018936000056667034 -0.41689886957556649 0.088765271506287366 4.9125965694241918e-79 -1.4418534949753198e-79 3.312025918866421e-80 -2.4652307490154298e-48 6.7684789464387109e-48 -7.406122776606626e-49 -2.4625704898518454e-09 2.4706468062481474e-09 -2.679208592710718e-09 8.0111632334124501 -0.82733272091009102 -1.1373282947285712 -4.5989421961533541e-69 2.5363902775031581e-68 8.2848058190572722e-70 7.5402270883195857e-19 -4.2265156682537389e-18 7.4034257166669106e-19 -4.3457858475664444e-26 3.1816837371695061e-24 -1.3172580505862706e-24 -2.6726164105483211e-58 -3.0105437157104744e-59 1.4385945735582534e-58 -1.5120248757291122e-13 4.5082921284526607e-13 3.9631079679104572e-14 1.9760569392014451e-39 -2.2860638268803365e-39 -9.7366526836492316e-40 -148.8785293712254 1312.3604015702165 -161.19392172865423 6.6007862303129789e-44 -1.9110680082826805e-44 -1.3225609074782382e-43 -1.0626122236255955e-35 4.67615957869023e-35 -8.9051512363285727e-36 0.010177913129449774 0.031216021645108501 -0.011115251554544486 8.2095683365664645e-85 6.8157418382018397e-86 -6.8780443029721438e-86 -1.176037765845866e-54 -1.2739423272045301e-53 3.4441751208475952e-53 -7.4036258162752338e-16 3.0929282977482727e-16 1.4844820795050962e-16 -1.2798499439370191e-05 -0.00032745934375419974 8.7403117441432721e-05 3.0968120814860369e-11 -4.1517381903657134e-11 -9.2969459610423648e-13 -9.9093828173692551e-29 4.1124344256142353e-28 -1.1169612810073138e-27 5.9364472021626608e-74 3.781066529135921e-76 -2.0230112833673483e-75 -8.2469014548052968e-08 -6.5252171842888341e-08 3.9472359664750592e-07 1.3948738323485954e-21 -1.2898837639951275e-21 1.8390080264063302e-21 1.059081872004001e-63 8.3750930105561263e-64 2.9734444227729849e-64 1327.7027943422499 -173.21017393673023 1497.8864898579154 8.7703385242067604 9.5493433834096191 -1.6285492126362573 2385.9622265369339 2155.3612479853505 1497.8776557622373 -0.58002205233889115 -0.7946828937962449 0.21641385890293349 -141.55525031756582 11.229147384735869 -155.53397006302868 2385.9100306443884 2154.9853324209403 1.9376858270402617e-09 1.7698287009185205e-08 -1.1071717628425265e-08 -3.2364804823850523e-57 2.1418116549338061e-57 6.2176366234597436e-58 -1.0671906168616689e-52 1.7188410718162116e-53 3.3048542403247614e-52 3.1784551884331362e-31 -1.918823630550862e-30 3.7108609577604618e-31 -1.2674205432702094e-67 7.293830964827355e-68 2.3884648708084385e-68 2.1637674792157755e-07 -3.4475584158132832e-07 8.8862336911100845e-07 1497.1830124066464 1659.0353711844016 -173.48075282527435 -4.85653780867334e-63 -1.068532506696401e-62 5.2343380144737517e-63 -0.55865181140811038 0.07525399735178892 0.09902537687693834 -0.77016061547051518 0.24323114451007063 -0.87421480121694461 -3.7514918259148699e-78 1.264218796628549e-78 6.489103889432183e-79 -4.056386045593472e-73 3.1282043871078551e-73 -1.4714623723857869e-73 -159.90028292741957 1487.0908969664858 -167.79645743797028 -2.1777976277889296e-27 -6.2665992363652503e-29 1.2437339563018666e-27 -4.1883942321842065e-24 1.2776518789090345e-23 4.4285434363640923e-26 -3.290987604124808e-13 -3.4753332977087468e-13 6.6825193424784401e-13 4.5851136058792214e-12 -1.936426621012165e-10 5.4565354064377456e-11 9.3846507741757747e-44 3.0605449751785294e-43 -8.7402769628892151e-43 -1.4036687244952061e-47 -1.3541281213189661e-48 7.4743650292877401e-48 4.8883219898470848e-35 1.1137255461063715e-34 -7.5805426611495377e-35 2.0599092114316428e-38 1.2053808359115219e-39 -7.7973852307542422e-39 -154.62876765659729 10.021054531591671 -165.29796970800581 10.556160099770816 -154.38979531964287 10.077986804231008 9.4449510722872745 10.220886152506354 -1.4453413084328961 8.91061334712853 -1.0959364296260796 -1.1126735852807028 4.1641207559258464e-18 -5.2695557022160515e-18 -3.1849251583045351e-18 -1.2631455380672764e-15 4.0024965639221017e-15 -6.0545946204032077e-16 -5.9966307593443826e-84 2.7538731028553965e-84 -8.5014280363664669e-85 2155.3603058620647 1497.8549990703909 1658.5881608450222 2155.3686181706298 1859.6828418735254 1658.5514588463341 6.1966397303214616e-21 -6.6140154588750497e-21 -8.6090105920064439e-22 2154.9547638657691 1859.0103261857525 0.011397024153001954 -0.0014911152412053702 -0.0032670916588043264 0.028467748121577811 -0.016048715856527559 0.038996703939759382 -4.642453067603308e-05 1.9110907603107033e-06 1.733168955223929e-05 -0.00025733112008359554 0.00020413046944462595 -0.00048390971567399997 -2.4530319666195735e-89 7.8966744998880549e-90 3.1549881125362991e-90 1.4360777736565983e-101 -4.4489879694390541e-101 3.5754586349085788e-102 -2.3448532119964671e-95 -7.3621991251126556e-97 6.6621293891096683e-96 3.163606109482914e-96 -3.7398924031247205e-97 3.2263547699915556e-97 -6.9778788709586022e-95 4.3495089897401591e-96 3.1905663464270703e-96 2.6154091385929951e-34 -8.2931344435692192e-35 -2.2350894163230977e-34 -4.1296765997763707e-27 -1.0904167382896906e-27 9.7384186032436017e-27 0.036256317565749936 0.046952415432761165 -0.01945458135355577 10.153649373599313 10.524957647135672 -1.164961263657772 1859.005915478182 1527.084124006642 -1.2602261346232259e-10 1.3485851078057689e-10 -3.1290152417228988e-10 -1.832668933313401e-83 1.9962740297205516e-86 2.3025513294855509e-84 -9.1387030809988886e-43 1.1230999695281521e-42 -4.6038205272511114e-43 1658.2201500854458 1800.648762323317 -166.08523810283199 1.580289841781235e-15 -3.5106629994438523e-15 9.3115122223226788e-15 -1.405061391679987e-72 -4.4727522902929405e-74 5.6366068517207414e-73 2.8883747495734081e-21 8.4050386407235952e-21 -3.0594740278487769e-20 1859.7015713598653 1799.6417116323887 1527.9733891227725 -1.6748279075804046e-52 -6.641922346051785e-52 1.0141943363513284e-51 -1.7622051107286491e-62 -2.0406699660422766e-62 -8.2049657015733249e-63 -0.86250586787357841 -0.97523410124631671 0.25653297350292814 6.8008807956599686e-07 1.2220216401748503e-06 -5.6376607606738801e-07 -0.00041122501724269185 -0.00061362541051696387 0.0002786254165579496 -164.33171939431767 -169.82730995433977 7.8369969864386473 -1.135697830685448e-77 3.3710012107525794e-78 2.7821888591919881e-79 -3.8747500363392079e-24 -9.0932814367088695e-24 1.1928384405749324e-23 2.1265785921572522e-17 3.6162634469539751e-18 -1.3550908030700063e-17 1859.6791872373951 1658.533143460051 1799.6903908058989 9.9368562223735726 -1.1377940805681053 -1.1202334157788036 -0.0025528471326855787 0.01480871904741418 -0.0038479618288949553 1.128968245103529e-05 -7.2464400515059678e-05 2.2163509353829454e-05 8.3312022371146101e-38 -2.5785734077772444e-38 -6.3219032064780746e-39 1.0721670875335871e-67 -4.8860847327533888e-67 2.0611652227964492e-68 0.092688590529806492 -0.64868361840785937 0.11015542003423155 -5.3704837517534192e-09 4.6608388259210611e-08 -1.6743484139537255e-08 -3.4176288638790611e-12 7.2093416966623367e-14 1.4495844007989295e-12 10.821632849517909 -166.6362732731927 9.593923106845665 1.2536079955640246e-47 -1.4556000236948973e-46 3.2245559354992301e-47 -2.6070642769039834e-30 1.7140247223216903e-30 -7.0256362465958985e-31 9.938168770292898e-57 1.4938715783279366e-57 -2.7279033983714624e-57 1655.1035878797668 -166.66937439904549 -168.35279498413337 4.1885493154499434e-101 -1.2914956985126667e-100 -5.0858877440058312e-102 -7.1006520103680465e-89 2.2416329189336542e-89 -5.8698522387422312e-91 -5.5652114452367495e-26 1.1184991135009801e-25 4.953431723486232e-26 -164.45583988805984 -20.054463133161871 -109.11251231531951 -2.3508645939208447e-19 1.1363235800305674e-19 -1.1318908715979476e-19 5.8395954006235136e-14 -2.7739312845179302e-14 3.0013940298056137e-14 -1.5135810476488028e-50 1.4475629268120478e-50 -7.2605281251825546e-51 -1.738512612767375e-09 7.9685337353503081e-10 -9.1584468061667026e-10 -70.544903331820066 1924.7154751382943 2052.1723496989034 -6.1350068476387901e-33 3.2372767642589583e-33 -2.4787723296885568e-33 3.5418694089871872e-41 -2.1432189451413441e-41 1.3276721293908078e-41 6.2534309703490111e-06 -2.6780997659585945e-06 3.1262256984667639e-06 4.6391628163941814 1922.3529153890584 270.30368106070017 8.0217796125204686 3.7550604335601085 6.4576170622749292 -0.002874951594746366 0.0010521141010062032 -0.0012780594957106271 -6.8104263912906907e-61 -8.7611747631079686e-61 6.8568554570375987e-61 9.6269393562228306e-72 1.0431048607034522e-71 -5.2338618216614322e-72 3.3483633787962086 269.02810298271237 0.18097468268975039 -0.05105477459003082 0.073587980372610357 -4.1228458017411667e-83 1.6257661479344967e-83 -5.8917794106543903e-84 -2.08365473505788 0.18117866176897104 -0.96395872745322342 3.5850687595660763e-95 -1.1651812822954733e-94 -2.0799417647303186e-95 -1.0432730414561691e-100 -4.8482466507342031e-101 2.0991177392818465e-101 -6.8230303202897636e-89 2.0548275245862035e-89 -2.1216110635238901e-89 0.24820169676082815 -1.0055069990022953 0.1241036151307459 8.0893024698285315e-12 4.0765903841159245e-12 -2.4496475581837179e-11 -129.28237207033135 -95.2591527976642 2092.5344932064631 -1.8799492619334386e-29 6.7960633692633466e-29 -1.0849820071479184e-29 -1.735574103518933e-66 1.2130281684151479e-65 -3.7647900524747215e-66 -3.1688188018917238e-78 -1.5715723713163317e-77 -3.4962815810779204e-77 9.8172146199484818e-05 4.4389715625554202e-05 -0.0002749979665649345 -0.014095082359731937 0.038437614256028263 -0.005795472936173305 -0.24342796035595068 -0.7016213785760409 9.1929031389284024 3.1188711142333074e-37 2.227119617059429e-37 -1.3481267299043455e-36 1922.3848669287916 2050.2563987301974 270.29010179133167 -9.2640475123325215e-17 -4.6856411517793796e-17 2.8804793239873722e-16 5.285924082825778e-56 1.3901903831992853e-55 -5.9589776150027751e-55 1.2319196484315578e-22 -4.0391898538911525e-22 6.4328711876909892e-23 -4.8617760431818909e-46 -5.338890958220936e-46 2.9280892145563388e-45 -2.0961937045417023 -128.65555557837155 4.6117361520703319 -8.2527668836961312e-08 2.3948894025841567e-07 -4.0867848837872495e-08 -3.4043614232185383e-46 2.0009050066623568e-45 -3.3703025829882528e-46 5.8412225012477145e-10 -1.2431091872948195e-09 -6.8487015336023376e-10 -1.4016611221510798e-41 2.2846150404902577e-41 8.8330295899321296e-42 -55.22623389897911 2053.0611714590691 2044.7674561693455 5.7916741470386882e-12 2.8268975413679969e-12 -1.7375319834394136e-11 -1.6884867608762577e-61 -4.9095570464040655e-61 9.0427025302260955e-62 -1.5959114295528e-66 4.0395880425548042e-66 2.9023938807225598e-66 -0.09242360381882439 -0.70751706412485849 10.432034188413104 4.2861887281793062e-06 -2.0477303321543157e-06 2.6615525485389576e-06 -6.0298618001688051e-08 1.8462723406057231e-07 -3.172237087531998e-08 1.9500994289562208 5.4535890830228615 7.9869844121096287 2050.3081488959187 554.45535306660076 2043.2494178706704 2.0261732097102656e-37 -8.8743827801241913e-37 1.501267906506533e-37 2.1029122985199764e-33 -3.9755585378662159e-33 -1.628623073060293e-33 5.5474155917881369e-56 -4.0600505533056106e-55 3.7686631130671301e-56 2050.2471565411224 270.32673988924194 554.48707122097892 -92.135919706603104 -122.78893561491927 2076.9160802920715 9.6548950840318546e-51 -1.0500312235687851e-50 -3.8906536375086467e-51 6.8931912208899856e-05 4.1877451080794745e-05 -0.00023777296595152179 1.2577867065672537 4.6745215771030741 -154.07137618094956 -110.14975149400846 -8.6123713944311362 -138.04170592418049 -0.82769066900314747 0.10542233946763906 -1.075920537233489 0.12147841743254204 -1.0911119449323776 0.15310653806547034 8.2112209188703032e-23 4.1906528059799921e-23 -2.6585069938327369e-22 -1.6005812155731917e-19 7.633379044215016e-20 -7.4852124674180961e-20 2.1234657878958185e-83 5.7994803086866487e-84 -8.2658785340744576e-83 -1.9350380780335195e-14 4.1077856700034903e-14 2.067921388424717e-14 -6.3858163936295778e-17 -3.0907940820201487e-17 1.9451490498233591e-16 -0.0087009109847317398 0.037823411969789916 -0.0068182569412348114 0.083770777721589987 -0.035217369514738049 0.077878504446571198 0.00079772686557004816 -0.0017053977208225366 -0.0012533017271603359 269.12978679764649 553.24280806485672 1.8622392509056076e-74 5.4187629285040438e-73 -3.1118582007365353e-72 -8.2251049292699007e-79 -5.6619875608467495e-78 -4.1777299189295503e-77 -1.2244458950023075e-29 4.4301466087594745e-29 -7.1546843990160958e-30 7.3966491581585933e-26 -3.6518393416791182e-26 3.23053711570512e-26 -3.3498042073802945e-89 8.7679543525418295e-89 -3.1499795463173713e-88 -5.2347860090410385e-95 3.9042243936288969e-95 -2.8098742284501507e-94 -7.1850221176944461e-101 1.6637440832794396e-100 -5.2398015992507431e-100 4.6596781222756242e-96 9.79205332644515e-96 -1.0796738113190849e-94 -4.851026672986027 -138.91732949777983 -156.47586328917112 0.00061982158399304847 -0.0013584071090260788 -0.00094564338675911608 0.91094376785152575 7.7838768622421366 9.5343305020517519 3.1304670102306893e-06 -1.4817629935771385e-06 1.9060003650859101e-06 -8.9308905235879787e-51 5.2554585507506708e-51 8.7797342151461765e-52 -4.1855466850211728e-72 -5.1866134828257644e-72 2.3762037366318346e-72 -1.0747870668782018 0.20329129522976153 -1.0903206076851228 1.5613045965723394e-61 4.9878030604252373e-62 -1.5121853203725772e-61 3.6726795658175336e-84 1.2810579431321851e-83 -2.7002954490711603e-83 0.079759179150354992 -0.032085570571456154 0.065245806712898258 554.49365085445675 2043.2383086453026 860.26197734677214 1.608868610292159e-41 -9.2172226986512598e-42 4.3032310971701037e-42 -93.151138495877575 2045.6855030353295 1998.6650266182842 -2.6461086800279427e-33 1.4027209654547994e-33 -1.0574579158919133e-33 4.0673419691384078e-10 -8.6709142222428915e-10 -4.7549716638110288e-10 4.878501760498595e-26 -2.4236385015103526e-26 2.1675050848163764e-26 -1.3143085522597394e-14 2.7886418006135753e-14 1.4044167482653864e-14 5.0983221767139796e-20 -1.0666113256063623e-19 -5.0232815706871857e-20 -0.0074039389825209861 0.030032540633118398 -0.0053047723474867105 0.14003998087261224 0.13863078924406402 -0.99163311586824676 -4.2918495605951526e-17 1.3106446518730596e-16 -2.0965693772771429e-17 553.32609547097411 859.07264699836333 -8.2413152613886322e-30 -4.7167086310929693e-30 3.0053531558021527e-29 8.995635621094695e-79 -9.4925747921384949e-79 3.0352580325511637e-78 5.1996536237931583e-05 -0.00017543344676051157 3.0532457034735976e-05 5.4525291895500907e-23 -1.7792411660591462e-22 2.8466392