<?xml version="1.0"?>
<VTKFile type="UnstructuredGrid" version="0.1" byte_order="LittleEndian">
<UnstructuredGrid>
<Piece NumberOfPoints="1160" NumberOfCells="390">
<Points>
<DataArray type="Float64" NumberOfComponents="3" format="ascii">
0 0 0 0.10000000000000001 0 0 0 0.02712913039350634 0 0 0.037627845084982139 0 0.10000000000000001 0.037627845084982139 0 0 0.037627845084982139 0 0 0.052147564491031792 0 0.10000000000000001 0.052147564491031792 0 0 0.019537864299142921 0 0 0.02712913039350634 0 0.10000000000000001 0.02712913039350634 0 0 0.014048877707311129 0 0 0.019537864299142921 0 0.10000000000000001 0.019537864299142921 0 0 0.01007997645382676 0 0 0.014048877707311129 0 0.10000000000000001 0.014048877707311129 0 0 0.0072101992457088487 0 0 0.01007997645382676 0 0.10000000000000001 0.01007997645382676 0 0 0.0051351601405289276 0 0 0.0072101992457088487 0 0.10000000000000001 0.0072101992457088487 0 0 0.0036347696815094469 0 0 0.0051351601405289276 0 0.10000000000000001 0.0051351601405289276 0 0 0.001765447234118425 0 0 0.0025498882091243972 0 0.10000000000000001 0.0025498882091243972 0 0 0.0025498882091243972 0 0 0.0036347696815094469 0 0.10000000000000001 0.0036347696815094469 0 0 0 0 0 1.0000000000000001e-05 0 0.10000000000000001 1.0000000000000001e-05 0 0 1.0000000000000001e-05 0 0 0.0001221058858762623 0 0.10000000000000001 0.0001221058858762623 0 0 0.0001221058858762623 0 0 0.00027714824767246312 0 0.10000000000000001 0.00027714824767246312 0 0 0.00027714824767246312 0 0 0.00049157175393484403 0 0.10000000000000001 0.00049157175393484403 0 0 0.00049157175393484403 0 0 0.00078811928474293897 0 0.10000000000000001 0.00078811928474293897 0 0 0.00078811928474293897 0 0 0.001198244413521618 0 0.10000000000000001 0.001198244413521618 0 0 0.001198244413521618 0 0 0.001765447234118425 0 0.10000000000000001 0.001765447234118425 0 0 0.0036347696815094469 0 0.10000000000000001 0.0051351601405289276 0 0.10000000000000001 0.0036347696815094469 0 0 0.0051351601405289276 0 0.10000000000000001 0.0072101992457088487 0 0.10000000000000001 0.0051351601405289276 0 0 0.0025498882091243972 0 0.10000000000000001 0.0036347696815094469 0 0.10000000000000001 0.0025498882091243972 0 0 0.001765447234118425 0 0.10000000000000001 0.0025498882091243972 0 0.10000000000000001 0.001765447234118425 0 0 0.001198244413521618 0 0.10000000000000001 0.001765447234118425 0 0.10000000000000001 0.001198244413521618 0 0 0.00078811928474293897 0 0.10000000000000001 0.001198244413521618 0 0.10000000000000001 0.00078811928474293897 0 0 0.00049157175393484403 0 0.10000000000000001 0.00078811928474293897 0 0.10000000000000001 0.00049157175393484403 0 0 0.00027714824767246312 0 0.10000000000000001 0.00049157175393484403 0 0.10000000000000001 0.00027714824767246312 0 0 1.0000000000000001e-05 0 0.10000000000000001 0.0001221058858762623 0 0.10000000000000001 1.0000000000000001e-05 0 0 0 0 0.10000000000000001 1.0000000000000001e-05 0 0.10000000000000001 0 0 0 0.0001221058858762623 0 0.10000000000000001 0.00027714824767246312 0 0.10000000000000001 0.0001221058858762623 0 0 0.01007997645382676 0 0.10000000000000001 0.014048877707311129 0 0.10000000000000001 0.01007997645382676 0 0 0.0072101992457088487 0 0.10000000000000001 0.01007997645382676 0 0.10000000000000001 0.0072101992457088487 0 0 0.014048877707311129 0 0.10000000000000001 0.019537864299142921 0 0.10000000000000001 0.014048877707311129 0 0 0.019537864299142921 0 0.10000000000000001 0.02712913039350634 0 0.10000000000000001 0.019537864299142921 0 0 0.02712913039350634 0 0.10000000000000001 0.037627845084982139 0 0.10000000000000001 0.02712913039350634 0 0 0.037627845084982139 0 0.10000000000000001 0.052147564491031792 0 0.10000000000000001 0.037627845084982139 0 0 0.052147564491031792 0 0.10000000000000001 0.072228323778986164 0 0.10000000000000001 0.052147564491031792 0 0 0.072228323778986164 0 0.10000000000000001 0.10000000000000001 0 0.10000000000000001 0.072228323778986164 0 0 0.052147564491031792 0 0 0.072228323778986164 0 0.10000000000000001 0.072228323778986164 0 0 0.072228323778986164 0 0 0.10000000000000001 0 0.10000000000000001 0.10000000000000001 0 0.20000000000000001 0.052147564491031792 0 0.20000000000000001 0.072228323778986164 0 0.29999999999999999 0.072228323778986164 0 0.20000000000000001 0.072228323778986164 0 0.20000000000000001 0.10000000000000001 0 0.29999999999999999 0.10000000000000001 0 0.10000000000000001 0.072228323778986164 0 0.10000000000000001 0.10000000000000001 0 0.20000000000000001 0.10000000000000001 0 0.10000000000000001 0.052147564491031792 0 0.10000000000000001 0.072228323778986164 0 0.20000000000000001 0.072228323778986164 0 0.10000000000000001 0.072228323778986164 0 0.20000000000000001 0.10000000000000001 0 0.20000000000000001 0.072228323778986164 0 0.10000000000000001 0.037627845084982139 0 0.20000000000000001 0.052147564491031792 0 0.20000000000000001 0.037627845084982139 0 0.10000000000000001 0.052147564491031792 0 0.20000000000000001 0.072228323778986164 0 0.20000000000000001 0.052147564491031792 0 0.10000000000000001 0.037627845084982139 0 0.10000000000000001 0.052147564491031792 0 0.20000000000000001 0.052147564491031792 0 0.10000000000000001 0.02712913039350634 0 0.10000000000000001 0.037627845084982139 0 0.20000000000000001 0.037627845084982139 0 0.10000000000000001 0.019537864299142921 0 0.10000000000000001 0.02712913039350634 0 0.20000000000000001 0.02712913039350634 0 0.10000000000000001 0.014048877707311129 0 0.10000000000000001 0.019537864299142921 0 0.20000000000000001 0.019537864299142921 0 0.10000000000000001 0.0072101992457088487 0 0.10000000000000001 0.01007997645382676 0 0.20000000000000001 0.01007997645382676 0 0.10000000000000001 0.01007997645382676 0 0.10000000000000001 0.014048877707311129 0 0.20000000000000001 0.014048877707311129 0 0.10000000000000001 0 0 0.10000000000000001 1.0000000000000001e-05 0 0.20000000000000001 1.0000000000000001e-05 0 0.10000000000000001 1.0000000000000001e-05 0 0.10000000000000001 0.0001221058858762623 0 0.20000000000000001 0.0001221058858762623 0 0.10000000000000001 0.0001221058858762623 0 0.10000000000000001 0.00027714824767246312 0 0.20000000000000001 0.00027714824767246312 0 0.10000000000000001 0.00027714824767246312 0 0.10000000000000001 0.00049157175393484403 0 0.20000000000000001 0.00049157175393484403 0 0.10000000000000001 0.00049157175393484403 0 0.10000000000000001 0.00078811928474293897 0 0.20000000000000001 0.00078811928474293897 0 0.10000000000000001 0.001198244413521618 0 0.10000000000000001 0.001765447234118425 0 0.20000000000000001 0.001765447234118425 0 0.10000000000000001 0.00078811928474293897 0 0.10000000000000001 0.001198244413521618 0 0.20000000000000001 0.001198244413521618 0 0.10000000000000001 0.001765447234118425 0 0.10000000000000001 0.0025498882091243972 0 0.20000000000000001 0.0025498882091243972 0 0.10000000000000001 0.0025498882091243972 0 0.10000000000000001 0.0036347696815094469 0 0.20000000000000001 0.0036347696815094469 0 0.10000000000000001 0.0036347696815094469 0 0.10000000000000001 0.0051351601405289276 0 0.20000000000000001 0.0051351601405289276 0 0.10000000000000001 0.0051351601405289276 0 0.10000000000000001 0.0072101992457088487 0 0.20000000000000001 0.0072101992457088487 0 0.10000000000000001 0.0025498882091243972 0 0.20000000000000001 0.0036347696815094469 0 0.20000000000000001 0.0025498882091243972 0 0.10000000000000001 0.001765447234118425 0 0.20000000000000001 0.0025498882091243972 0 0.20000000000000001 0.001765447234118425 0 0.10000000000000001 0.001198244413521618 0 0.20000000000000001 0.001765447234118425 0 0.20000000000000001 0.001198244413521618 0 0.10000000000000001 0.00049157175393484403 0 0.20000000000000001 0.00078811928474293897 0 0.20000000000000001 0.00049157175393484403 0 0.10000000000000001 0.00078811928474293897 0 0.20000000000000001 0.001198244413521618 0 0.20000000000000001 0.00078811928474293897 0 0.10000000000000001 1.0000000000000001e-05 0 0.20000000000000001 0.0001221058858762623 0 0.20000000000000001 1.0000000000000001e-05 0 0.10000000000000001 0 0 0.20000000000000001 1.0000000000000001e-05 0 0.20000000000000001 0 0 0.10000000000000001 0.0001221058858762623 0 0.20000000000000001 0.00027714824767246312 0 0.20000000000000001 0.0001221058858762623 0 0.10000000000000001 0.00027714824767246312 0 0.20000000000000001 0.00049157175393484403 0 0.20000000000000001 0.00027714824767246312 0 0.10000000000000001 0.0051351601405289276 0 0.20000000000000001 0.0072101992457088487 0 0.20000000000000001 0.0051351601405289276 0 0.10000000000000001 0.0036347696815094469 0 0.20000000000000001 0.0051351601405289276 0 0.20000000000000001 0.0036347696815094469 0 0.10000000000000001 0.01007997645382676 0 0.20000000000000001 0.014048877707311129 0 0.20000000000000001 0.01007997645382676 0 0.10000000000000001 0.0072101992457088487 0 0.20000000000000001 0.01007997645382676 0 0.20000000000000001 0.0072101992457088487 0 0.10000000000000001 0.02712913039350634 0 0.20000000000000001 0.037627845084982139 0 0.20000000000000001 0.02712913039350634 0 0.10000000000000001 0.019537864299142921 0 0.20000000000000001 0.02712913039350634 0 0.20000000000000001 0.019537864299142921 0 0.10000000000000001 0.014048877707311129 0 0.20000000000000001 0.019537864299142921 0 0.20000000000000001 0.014048877707311129 0 0.20000000000000001 0.02712913039350634 0 0.20000000000000001 0.037627845084982139 0 0.29999999999999999 0.037627845084982139 0 0.20000000000000001 0.037627845084982139 0 0.20000000000000001 0.052147564491031792 0 0.29999999999999999 0.052147564491031792 0 0.20000000000000001 0.019537864299142921 0 0.20000000000000001 0.02712913039350634 0 0.29999999999999999 0.02712913039350634 0 0.20000000000000001 0.014048877707311129 0 0.20000000000000001 0.019537864299142921 0 0.29999999999999999 0.019537864299142921 0 0.20000000000000001 0.01007997645382676 0 0.20000000000000001 0.014048877707311129 0 0.29999999999999999 0.014048877707311129 0 0.20000000000000001 0.0072101992457088487 0 
[...]
<PointData Scalars="Ba-133_conc,region_id," Vectors="" Tensors="">
<DataArray type="Float64" Name="Ba-133_conc" format="ascii">
520.53658052778462 467.19805986994072 -3.8414074738455308e-64 7.7372010887150773e-65 -2.6979782530129732e-65 -1.6556632933510956e-74 4.8472435736129829e-75 -1.4892651431585443e-75 -1.9399883735705956e-54 1.0511034790048727e-54 -6.5531263903207238e-55 -1.4282079302748033e-44 8.5940230032401595e-45 3.1355609650656417e-46 9.0876691498157636e-37 -2.248094754039536e-36 1.9396492846957633e-36 1.3655297553125414e-28 1.6802684156591199e-29 -8.3895713653258767e-29 -8.0918154583793491e-22 1.2667987311422738e-22 1.8854855809231985e-22 2.9919881567187902e-16 -8.8914706376981599e-17 8.0847271398385921e-18 6.4730878646853487e-09 -9.0505272755363329e-09 1.6696524084277566e-08 -7.4901275517267984e-12 3.5658680085093036e-12 -3.3361771297412054e-12 520.78818887522095 822.40799629038679 764.25863223543581 832.49364808130406 10.003067646441236 34.744936472444934 9.4298945507242102 0.50570957633868163 -3.8351160214518827 0.32871510243832774 -0.047745338233477937 0.15540425082088366 -0.036737137605894268 0.0049285579016352145 -0.0013447166494081908 0.00072897044001123774 -0.00014796064095481259 -0.00010906503046195602 1.2399651948145263e-06 1.4800508746953608e-06 -2.9576955374738166e-06 3.2171720084219853e-14 -4.5391682417573544e-15 -4.3267373298331437e-14 -2.6553429707556114e-19 1.3505418877967036e-19 2.1083038302718035e-20 -2.4213849016429244e-10 -8.6099358782441033e-11 7.7522998985587327e-10 7.690092931105202e-08 1.4517238641478295e-07 -7.4037702718263971e-07 -2.3631318915098781e-05 7.5770079408458819e-06 3.0429460960615462e-05 0.0023158315031337226 -0.00091435333709371906 -0.0012732716492087784 -0.043034501002927383 0.0037058886955241245 0.1311049162992193 0.40055776342125943 0.16366245646076757 -3.6754138974148085 822.87012275088898 42.390984871729081 764.55552835889478 520.78237908540711 764.26731827511344 467.41338967797998 10.101620197539638 -4.2569548600347531 31.022558291818505 2.3251095789045821e-33 1.3168843762702883e-32 -4.5310239893348234e-32 1.2957595829244072e-25 -1.6416266563988021e-25 2.8735803499387806e-25 -1.0864757088096101e-40 -2.6893028177642956e-41 4.1075282610787244e-40 9.4026222674285325e-51 -1.1390111945634439e-49 -5.1730697251342577e-50 -1.112760389315865e-59 -3.1371591894119532e-60 -1.1688539661933016e-59 -1.3214720931566458e-69 4.6900064684675662e-71 -2.4587942156384713e-70 -3.9920738690648607e-80 4.1243774393103146e-81 -5.7556872051357698e-81 -3.1122044759928414e-91 4.1062080083105388e-92 -4.4033060819748507e-92 -2.2495161800611336e-85 6.7908834300862016e-86 -2.2329290484946806e-86 -8.116672319770632e-97 2.5357491268762921e-97 -9.2391459084674993e-98 2.7633557102792839e-83 -8.4424797896050849e-84 2.6006153276607306e-84 9.9704068803335715e-95 -3.1571596185424149e-95 1.1010727431638875e-95 1.9851790426413366e-95 -6.4377263400617986e-96 -1.6000407077192123e-96 5.5677026500651539e-84 -1.7891578843176044e-84 -7.2499206248789317e-85 7.474595384122784e-90 2.5403463126435899e-91 -2.1528792091809786e-90 3.1100925245349415e-68 1.1811682108132352e-68 -2.2218760157755717e-68 9.5159488101685201e-79 1.4203822332447908e-79 -4.3548197082127024e-79 4.2228014157778838e-73 -1.389421810434329e-73 -7.3151347101410511e-74 8.6192134135362019e-63 -3.3832094712974533e-63 -1.5854108451651648e-63 4.4172152180209436e-53 -4.620511563647023e-53 -8.6230923420242161e-54 1.2576486055492906e-43 6.7722537333244468e-44 -8.2465124056092108e-44 2.8754105442428561e-27 -1.0568646340206775e-27 1.566055622922463e-28 -1.0560102489965551e-34 1.9070815640024575e-35 2.0764943938363878e-35 467.40614341873794 764.27192280836073 750.84517897495971 772.42127607851296 34.545072918234773 44.909703627419255 29.166797662862766 -3.5036199746913321 -5.2664179090308698 -3.4657952336916651 0.093105253722878811 0.86242558552067428 0.10099269109644034 0.011520256616158334 -0.065248675252723376 3.9540957880431811e-05 -5.9415549388156629e-06 6.3810841460349912e-07 -0.0005409571684597789 -0.0010393842357457443 0.0016869879108734663 -3.0470834331488265e-07 4.9089483780274974e-08 4.5774049864784259e-08 8.90160567212696e-11 -1.6202372587273591e-12 -3.9108216049449586e-11 -1.0176245832024528e-15 -5.6473423073417375e-16 1.3951127178534188e-15 -3.7194886357719402e-21 3.091455400035547e-21 -3.0106572663466077e-21 2.4307658797192616e-09 -1.8080182628797795e-09 2.5813721639452626e-09 -1.9885149511394951e-06 6.9504472113052506e-07 7.0613550988258912e-07 -5.161196325810861e-05 -3.1498458075565573e-05 5.6346454541780387e-05 0.10719534134252558 -0.092809261368577242 0.69243107915971158 0.000773238977763931 0.0051034663696449987 -0.030016109073987898 764.6799462488857 52.6891934272168 751.26533038558193 467.40461696071657 750.84536530342973 411.71319741202944 31.433516403450088 -6.3342149560322571 41.24654210504368 -3.3568549429615393 0.97973478819288873 -4.9003653986013838 -1.1200742057317175e-18 -1.2350124645921957e-18 6.184612104016299e-18 -8.7105878650380568e-14 1.9913452397969623e-13 -5.6082839092237458e-13 -2.3244727628396713e-31 1.437632902849077e-31 1.1262725432170502e-31 2.3741120347608834e-24 -3.7923397933190082e-26 -4.5721114948250644e-24 2.1810063813496693e-58 2.8973844717967785e-58 -2.1395380323926279e-58 1.0672221973233446e-48 9.4215856528079641e-49 -5.345102858733618e-48 5.9049319282486902e-40 -2.3276784402639095e-39 3.4148471600493049e-39 5.0400163142362628e-62 -8.782331541877998e-63 2.1214048738240684e-63 2.0748432866301987e-72 -6.0587629445578313e-73 1.6407518289802921e-73 -3.6557389933761024e-53 -2.3632588555832876e-52 1.3445378351526284e-52 2.5804901038219219e-42 -9.6501320396312837e-43 -2.6620002367541042e-43 -3.1784531495273801e-34 2.916181851331312e-34 -1.5093952602948638e-34 -7.8316124246463688e-27 -4.1610653697328025e-27 7.8204852131646116e-27 5.5434439712916366e-20 -1.6626942599003536e-21 -2.1466123714057713e-20 -1.944549531524508e-14 3.7113561553297742e-15 2.9605260989148381e-15 -3.3580850946409198e-07 3.6340799363205479e-07 -4.5314167290029652e-07 4.3864096942326463e-10 -1.5452170068874041e-10 5.6313500646147316e-11 411.70984239005429 750.84927244644439 727.77105384027379 759.40700344353536 44.522330473778929 53.851020122928794 39.426427803743891 -5.3077081429409469 -5.6494537797012985 -4.5757188385981342 0.76676611200796574 0.89326090062430241 0.56025877812850011 -0.036033950274854315 -0.099306991107773399 -7.353844413568297e-05 -2.7949023461931023e-05 8.3359924362883287e-05 -0.010422057738626632 -4.5065400126105294e-07 0.0051638270513146185 1.5873406398451664e-38 -4.0716913999738197e-39 -3.2924063104322267e-38 -9.1296669054878745e-49 2.0421525192160731e-47 -6.4037467531564884e-48 1.4213339051189761e-57 3.4814435043758463e-58 1.2120053321311019e-57 -9.0092874113847942e-31 -8.4441919244302283e-31 4.2127149074275653e-30 -3.7201173318923625e-24 1.2631369193879345e-23 -3.2860684454871452e-23 1.3134584297452331e-17 -1.1343887119139597e-17 1.4659760136281601e-17 -1.6531886182722563e-12 6.2629290035530548e-13 5.6042710281713413e-13 1.2383638365681715e-08 3.0329855183800088e-10 -1.9855600457659052e-08 -3.5083609074302787e-06 -3.4306454213215843e-06 2.1373122502353446e-05 5.4225548671908231e-05 -0.00013781104194678895 -0.00034098054649014784 751.28369681592926 61.80076174162123 728.16932117601618 411.71045949180865 727.77277735467453 355.23362699687505 41.408517441849426 -6.5811871483250526 50.129991950289487 -4.7032229993714205 1.0197906733872977 -5.4913672899523354 0.66886645029207015 -0.1876690188008249 0.75431690857293898 -0.023736056862821684 0.022759582437576472 -0.043495363812472085 4.9973267375237955e-78 -4.7133203787235614e-79 5.3520725117047142e-79 1.7366679508131996e-67 -9.0857493883223659e-69 6.178441799055198e-69 3.8523591454405985e-89 -4.818510169682131e-90 4.6043837098111362e-90 -2.2715865762802552e-82 7.3043407024237975e-83 2.8107275783953593e-83 -8.0876648600187213e-94 2.6097226344629414e-94 6.1622029795201642e-95 -3.0581616235523251e-88 -8.5303826632796982e-90 8.4125094347086212e-89 -3.9129032141342003e-77 -5.3337550799379984e-78 1.7454046495649038e-77 -1.2729111244472622e-66 -4.4839176955732103e-67 9.5517721640505371e-67 -1.703788590770641e-71 5.7223408385359691e-72 2.8508386510707252e-72 -2.7460618526978741e-61 1.5332606649950434e-61 4.9528316092150013e-62 -1.1526435092446352e-42 -5.2158546104207217e-42 2.9758561265469752e-42 -2.968069142433568e-51 2.0360533767789968e-51 5.4483510946158142e-52 -0.010488488368258487 0.0040101084248189492 0.0058756018792646232 -0.00071972181629007827 2.1125597492905113e-05 0.00019051868506693065 0.62251666941277761 -0.095004792066216773 -0.099483124451316143 -5.2409939076159979 0.840621820072325 0.89755772308361281 355.22914478425741 727.77762271174538 699.03142359404069 736.54944874155672 53.359849593665579 63.05973560155406 48.538427184314905 -5.7778486078655433 -5.9832407881639122 -4.9971282149148292e-10 -3.3711668389127848e-10 7.3556094947204048e-10 3.2579239725843993e-06 2.2676178056507701e-07 -1.851344973974041e-06 -2.0177473465418805e-14 1.9364584941380065e-14 -1.6976237642438359e-14 2.0917201947651922e-19 -7.3776600423568256e-20 8.0098614412957445e-21 3.2204697442246273e-33 1.0424813045919194e-34 -1.14765374297679e-33 -1.0282914869721527e-25 1.86985442133544e-26 1.7990415503086448e-26 1.8852853439040881e-38 7.6494304875716293e-38 -2.066703982672159e-37 -6.4054439857915516e-47 5.2808258116766752e-48 2.0203477213092737e-46 -7.0930727902509729e-57 -1.4972050912404177e-56 7.1099051036261717e-57 4.7966090050416277e-30 -6.7847445374633267e-30 9.0971399130195056e-30 -6.8080951650023913e-23 3.5488005285882745e-23 8.9141492805085793e-24 5.526276058855147e-17 -4.4519184563437553e-18 -6.9820538886931297e-17 -2.5472728376749761e-12 -1.6951678178287144e-12 9.8000637752627202e-12 -1.7537927510275025e-09 2.5591143398742563e-08 -8.872376860497388e-08 1.2797359868768975e-05 -1.8142657669189185e-05 4.7471691475676034e-05 -0.00021950803712699157 -3.7827360703388777e-05 -0.00043715141844848971 728.22943769153801 71.057561320889036 699.40595575824932 355.22737846737817 699.03543664095787 298.5657141200586 50.242020726481954 -6.7133783397208004 59.346735293052078 -5.2655739196277418 0.95334241174765999 -5.9206060694098888 -0.041980024033203084 0.027533173796901397 -0.05141222162490678 0.73303675486429332 -0.18369883139647253 0.8184439576794782 -4.7829244078807117e-71 1.4080618344915265e-71 6.9924719924695671e-73 -9.8315922594974647e-61 1.974822939912565e-61 3.4222509535624495e-62 1.9943343044889016e-51 8.8496537678769755e-51 -2.6631337597418965e-51 -5.7153211048385375e-41 6.277466198516839e-42 1.2030711242979189e-41 -1.1955293872087812e-25 9.247320664750484e-26 -4.6029099587071322e-26 1.2163422078666932e-32 -4.076349714597552e-33 -6.6738434023794944e-34 -1.3204253358387163e-19 -1.4731980125604026e-19 2.2209292760053841e-19 1.1688705736262877e-13 1.2938028245184064e-14 -6.6139544935416004e-14 -3.9588611652570152e-09 1.9673957586029271e-10 1.4744032024031985e-09 8.2676909616855073e-06 -1.1470826329651281e-06 -2.4276324591059108e-06 -0.0010011750883616925 0.0001651285682207023 0.00018398565145580039 -0.015190053134081323 0.0048985113993970765 0.0068483206882282077 0.71485621383207254 -0.10179451097471483 -0.10422619172988555 298.56311917459294 699.04044264321738 665.18223533433547 707.90547201339814 62.465817458947335 71.962030449502549 58.033382107636456 -6.1357831157683558 -6.2512176609434471 -5.776638648221998 0.86439451831683245 0.91142938977639698 -2.3850159689154272e-56 -2.558873448880948e-56 -1.2868168773571306e-56 -8.7462902321504951e-47 -4.099460693262199e-46 5.7662635974827602e-46 -2.3492479913334697e-37 2.6268006884796911e-37 -5.8728447872903405e-38 2.3709973977477623e-29 -5.9628634862785888e-30 -2.4617810582125932e-29 -1.1692366156091466e-22 -4.7542171770242286e-23 3.2693907588164979e-22 1.2248614283868846e-17 8.6971957905869617e-17 -2.9271457927795526e-16 4.9381041718662664e-12 -8.5605236860112975e-12 2.1054354318754386e-11 -6.5506180999786309e-08 5.9156228495671462e-08 -1.2568623632739257e-07 4.1313709967688408e-05 -2.6286102270610341e-05 5.3424346097771301e-05 -0.00052167072020172661 -0.00015861589155766474 -7.0971128107961748e-05 -0.048754239991243897 0.030388481288392239 -0.060593411183209413 0.80310418863362698 -0.17653126153962245 0.87316363926255636 -5.6983463021568035 0.87124702917401076 -6.3013339015546865 699.50385538473301 79.884590018652446 665.52555419925807 298.56188933434152 665.18788302641883 242.69005752996426 59.402974790094042 -6.7492906883041179 68.31642130332007 -1.1098488125462039e-76 1.1408810884145517e-78 1.1512386395882611e-77 -4.102327882940624e-66 -5.8747834118964875e-68 1.5420440854966861e-66 -8.452452623395765e-88 5.7818582545446414e-89 2.5505727394854204e-89 -2.1806614006962854e-93 7.0724492779512242e-94 -1.0277460045251874e-94 -6.0965594881290616e-82 1.9215834831381921e-82 -1.0623061851937865e-83 467.15857875680899 411.46306762591769 411.45435129499333 354.97237694277669 354.95654237483012 298.29243836944283 298.28635504304441 242.41184737426266 242.40368543725572 187.96247788216237 187.96175165340907 135.75549112036984 135.75613512542469 86.354139098526346 86.36047873902929 40.34238626805557 2.2136501366772271e-87 4.5280789755461239e-89 -5.6811071436994907e-88 1.6547097935920782e-81 -5.2486855516104221e-82 -1.9625651358772595e-82 5.8681302729399751e-93 -1.8628019643378899e-93 -4.3149442975737092e-94 8.8239454156152126e-61 -1.5409620422499753e-60 -1.1138375326801035e-61 1.1892381190846655e-70 -4.0352327325026927e-71 -1.9852730855892529e-71 67.328253573267006 -6.4307721588315454 -6.4103507260882306 674.01924611219181 71.268383200810149 80.430266775978296 242.68732395160734 665.19353896999019 626.42469390021415 -6.276351580887737 0.87503665842541634 0.90603905146740826 0.79627405097965964 -0.1099389087461079 -0.10875868061454819 -0.022917260261404022 0.0062894132462221223 0.0083805630345916201 -0.0009646140883062688 0.00019209765056466219 0.00015212123847097042 9.8590265797257657e-06 -2.0652649989400476e-06 -2.4699268997526397e-06 -5.9957411506945875e-09 1.1063692229844366e-09 1.6774980940412591e-09 -1.2856568323934323e-18 4.5866571446928179e-20 4.6613988252256156e-19 2.9965865124571218e-13 -3.960555933167261e-14 -9.3073861954518584e-14 3.9808733916789531e-25 7.2774698160369634e-26 -2.0677897759478465e-25 -1.2232072816525033e-33 -8.9424481698512458e-33 6.7150460128632464e-33 -1.0133608982835322e-40 6.1580414738526561e-41 -2.7206053799183314e-42 5.4736164890724745e-50 -1.0727435608965328e-50 -1.0423630945106006e-50 -6.0845023756505423 0.7611581876473752 -6.5815218308350172 68.313289145210263 -6.6479456211594217 76.913687385499131 665.66227658203843 88.151159523906273 626.72917869758498 242.68439797663268 626.43258853949385 188.24436553625094 -0.058657292051016684 0.03333014930240856 -0.069460704503491344 0.85645156338830553 -0.16356337325392015 0.91828791370656981 -0.0001708973995067955 -0.0004013475982664432 0.00037604167733167168 -1.0553037048038547e-07 7.446137816816283e-08 -1.3949823714749986e-07 4.9422711185107213e-05 -2.8541661129980335e-05 5.5114772646161957e-05 -1.8434097488402384e-16 2.0978272972515231e-16 -4.3670914438864745e-16 1.6018087161101794e-11 -1.3413728363703366e-11 2.5817687187387021e-11 1.6767949785327855e-29 3.033669758170142e-29 -1.0691685066652572e-28 1.0564336871611931e-22 -2.9037850381052913e-22 7.0793463376201856e-22 6.7176126913503011e-46 -9.1966195598631181e-46 -5.5673194240295503e-46 -6.5926332381389737e-37 -3.0206427261890315e-38 1.2729967298835035e-36 3.0281051122604744e-56 1.5250913343999777e-55 -3.7753601126292052e-56 8.4045048315754911e-66 3.4564110673111316e-66 -6.4041293642854403e-66 2.8316118654043338e-76 3.3008998021537238e-77 -1.2435800850371126e-76 0.8742154751880733 -0.11554255921384346 -0.11083377453436902 -6.68802729338422 0.86884479387428637 0.87938039445307747 76.291903354473831 -6.6160576003797438 -6.4536179228226791 635.09135180514807 79.638463483508389 88.271029633839433 188.24321276982846 626.43840205513266 583.39302342030157 -0.00094240183509197554 0.00018223495285705184 0.00013756628135057301 -0.03023648957914778 0.0078435045579888524 0.0098628991038696347 1.1006931868949738e-05 -2.4077947538696512e-06 -2.7577343752975061e-06 -7.0250898575581798e-09 1.5172730696798084e-09 1.8897638824097808e-09 3.8693656625434717e-13 -7.9569634073809081e-14 -1.040653803579894e-13 -2.0970228374650928e-18 3.7485461606666859e-19 5.5758013679355017e-19 1.1183771699200158e-24 -1.3563844207866312e-25 -3.0635711000533456e-25 -5.2470293324842415e-32 -4.0782610714085119e-34 1.6109994577576802e-32 6.8024506066902244e-50 -7.5877803986806353e-50 3.0503807000349548e-51 1.2684219269979776e-40 7.6329882137401711e-41 -6.3726720947915925e-41 -4.8677013063565226e-29 8.3288964269878619e-29 -1.6165444549754435e-28 4.7289077702395688e-22 -4.8860346147406648e-22 8.9353635150911442e-22 2.1629843487760177e-11 -1.6450204250381911e-11 3.0341550065937809e-11 -3.3478610521263931e-16 2.8300923533797106e-16 -5.155608034380057e-16 -1.2613967623063818e-07 8.7056233699719379e-08 -1.6282587869909082e-07 5.3616100917575067e-05 -3.0830314592673222e-05 6.0058708817343809e-05 76.845622234329483 -6.4075272964780075 84.943481137320802 626.90575004646155 95.665772605081457 583.65184403867431 188.2401940416091 583.40279206013884 136.03551807283421 -6.3752048464311599 0.62231103938199139 -6.7508993735513716 0.90006391212094783 -0.14423176579050676 0.94721997395596191 -0.067352888493645624 0.035750169977704277 -0.078200002964745594 0.00023360538141737632 -0.00066239286139546227 0.00085107821070746765 7.7941484469858784e-57 3.9297149058551579e-55 1.156324290220696e-55 -1.3451083053137263e-37 -1.192350391541948e-36 2.8164233850447568e-36 1.6915434261286773e-45 4.6776791584351247e-46 -3.6593689234086638e-45 2.6180170035853775e-65 -6.3012204485114526e-67 -1.8410314577703246e-65 6.7205928024531132e-76 1.9490003700538932e-77 -1.5003612541007072e-76 2.0805879072479962e-60 -1.1739788477997976e-60 2.6672706846234363e-62 3.0206194048426323e-70 -8.1592687803487433e-71 -2.0823450331634776e-71 3.6819251103560013e-81 -1.1781725904187642e-81 -8.624036403291917e-83 1.305609091559894e-92 -4.2839744542459142e-93 1.678716089610138e-94 5.066404736165408e-87 -1.9127903678237002e-88 -5.5446674990547013e-88 -5.9730184130490293e-93 1.6584321296748722e-93 3.7481566454500225e-94 -1.7669504174195543e-81 4.6611717952657996e-82 1.6849025691786695e-82 -1.2819011311455054e-60 6.6424506390686802e-60 -8.6157757160203033e-61 -5.1881028835126633e-71 2.7057149734786037e-71 1.0114308017242069e-71 0.94185970724157475 -0.11908403916572952 -0.11256982046951614 -6.998723707597331 0.84326759930694817 0.83466095311016641 84.724170545426858 -6.6858630440935212 -6.3891678221629462 591.75641899170785 87.385185901824272 95.377955418329023 136.03490289544951 583.40897652658543 537.04040815754286 -0.00091093989284631331 0.00017230697882342159 0.00011664933847700046 -0.038434716438082953 0.0093888923333746207 0.011445145116012438 1.2694210737302802e-05 -2.7595925829022373e-06 -3.1654851760101407e-06 -8.4945451104600097e-09 1.8241876054527979e-09 2.2961311638404952e-09 4.7251633904056118e-13 -1.010352649568416e-13 -1.27725024633111e-13 -2.5960764366358886e-18 5.5513706089276721e-19 6.6095165411891369e-19 1.5160853064798476e-24 -3.1552048835991369e-25 -3.4948121637067704e-25 -9.3621948268240562e-32 1.672653644936205e-32 1.9486850519807083e-32 -1.4506494261690526e-49 -6.7585280077925048e-50 4.1608079440539609e-50 5.2660859693559197e-40 -4.3704506172293853e-41 -1.0622988786144934e-40 40.340726897366885 -0.20156982850398225 0.00069494150762742309 -0.00096346154464428278 0.0014174831092970538 -0.076046173054346286 0.037763039445257204 -0.087658726138961224 0.92805364646052091 -0.12115955016739829 0.96888092401944959 -6.5583752591925464 0.45147024581356554 -6.8313788867610938 84.805145880105655 -6.0255217918050539 92.291994438756078 136.03070475707958 537.05227801034141 86.63008492363214 583.86806009132363 102.32944521619942