<?xml version="1.0"?>
<VTKFile type="UnstructuredGrid" version="0.1" byte_order="LittleEndian">
<UnstructuredGrid>
<Piece NumberOfPoints="1160" NumberOfCells="390">
<Points>
<DataArray type="Float64" NumberOfComponents="3" format="ascii">
0 0.037627845084982139 0 0 0.02712913039350634 0 0.10000000000000001 0.037627845084982139 0 0 0.014048877707311129 0 0 0.01007997645382676 0 0.10000000000000001 0.014048877707311129 0 0 0.01007997645382676 0 0 0.0072101992457088487 0 0.10000000000000001 0.01007997645382676 0 0 0.00027714824767246312 0 0 0.0001221058858762623 0 0.10000000000000001 0.00027714824767246312 0 0 0.019537864299142921 0 0 0.014048877707311129 0 0.10000000000000001 0.019537864299142921 0 0 0.0072101992457088487 0 0 0.0051351601405289276 0 0.10000000000000001 0.0072101992457088487 0 0 0.00049157175393484403 0 0 0.00027714824767246312 0 0.10000000000000001 0.00049157175393484403 0 0 0.02712913039350634 0 0 0.019537864299142921 0 0.10000000000000001 0.02712913039350634 0 0 0 0 0.10000000000000001 0 0 0 0.0051351601405289276 0 0 0.0036347696815094469 0 0.10000000000000001 0.0051351601405289276 0 0 1.0000000000000001e-05 0 0 0.0001221058858762623 0 0.10000000000000001 0.0001221058858762623 0 0 0.0036347696815094469 0 0 0.0025498882091243972 0 0.10000000000000001 0.0036347696815094469 0 0 0.052147564491031792 0 0 0.037627845084982139 0 0.10000000000000001 0.052147564491031792 0 0 0.00078811928474293897 0 0 0.00049157175393484403 0 0.10000000000000001 0.00078811928474293897 0 0 0.001198244413521618 0 0 0.00078811928474293897 0 0.10000000000000001 0.001198244413521618 0 0 0.001198244413521618 0 0 0.001765447234118425 0 0.10000000000000001 0.001765447234118425 0 0 1.0000000000000001e-05 0 0 0 0 0.10000000000000001 1.0000000000000001e-05 0 0 0.0025498882091243972 0 0 0.001765447234118425 0 0.10000000000000001 0.0025498882091243972 0 0 0.052147564491031792 0 0 0.072228323778986164 0 0.10000000000000001 0.072228323778986164 0 0 0.10000000000000001 0 0 0.072228323778986164 0 0.10000000000000001 0.10000000000000001 0 0 0.072228323778986164 0 0.10000000000000001 0.10000000000000001 0 0.10000000000000001 0.072228323778986164 0 0 0.014048877707311129 0 0.10000000000000001 0.014048877707311129 0 0.10000000000000001 0.019537864299142921 0 0 0.019537864299142921 0 0.10000000000000001 0.019537864299142921 0 0.10000000000000001 0.02712913039350634 0 0 0.0051351601405289276 0 0.10000000000000001 0.0072101992457088487 0 0.10000000000000001 0.0051351601405289276 0 0 0.001198244413521618 0 0.10000000000000001 0.001198244413521618 0 0.10000000000000001 0.001765447234118425 0 0 0.001765447234118425 0 0.10000000000000001 0.0025498882091243972 0 0.10000000000000001 0.001765447234118425 0 0 0.00027714824767246312 0 0.10000000000000001 0.00027714824767246312 0 0.10000000000000001 0.00049157175393484403 0 0 0.0036347696815094469 0 0.10000000000000001 0.0036347696815094469 0 0.10000000000000001 0.0051351601405289276 0 0 0.01007997645382676 0 0.10000000000000001 0.014048877707311129 0 0.10000000000000001 0.01007997645382676 0 0 1.0000000000000001e-05 0 0.10000000000000001 0.0001221058858762623 0 0.10000000000000001 1.0000000000000001e-05 0 0 0.052147564491031792 0 0.10000000000000001 0.072228323778986164 0 0.10000000000000001 0.052147564491031792 0 0 0.0001221058858762623 0 0.10000000000000001 0.00027714824767246312 0 0.10000000000000001 0.0001221058858762623 0 0 0.02712913039350634 0 0.10000000000000001 0.02712913039350634 0 0.10000000000000001 0.037627845084982139 0 0 0.00078811928474293897 0 0.10000000000000001 0.00078811928474293897 0 0.10000000000000001 0.001198244413521618 0 0 0.0025498882091243972 0 0.10000000000000001 0.0025498882091243972 0 0.10000000000000001 0.0036347696815094469 0 0 0 0 0.10000000000000001 1.0000000000000001e-05 0 0.10000000000000001 0 0 0 0.0072101992457088487 0 0.10000000000000001 0.01007997645382676 0 0.10000000000000001 0.0072101992457088487 0 0 0.037627845084982139 0 0.10000000000000001 0.052147564491031792 0 0.10000000000000001 0.037627845084982139 0 0 0.00049157175393484403 0 0.10000000000000001 0.00049157175393484403 0 0.10000000000000001 0.00078811928474293897 0 0.10000000000000001 0.00078811928474293897 0 0.10000000000000001 0.001198244413521618 0 0.20000000000000001 0.001198244413521618 0 0.10000000000000001 0.00078811928474293897 0 0.20000000000000001 0.001198244413521618 0 0.20000000000000001 0.00078811928474293897 0 0.10000000000000001 0.0036347696815094469 0 0.20000000000000001 0.0051351601405289276 0 0.20000000000000001 0.0036347696815094469 0 0.10000000000000001 0.0072101992457088487 0 0.10000000000000001 0.0051351601405289276 0 0.20000000000000001 0.0072101992457088487 0 0.10000000000000001 0.0051351601405289276 0 0.20000000000000001 0.0072101992457088487 0 0.20000000000000001 0.0051351601405289276 0 0.10000000000000001 0.01007997645382676 0 0.10000000000000001 0.0072101992457088487 0 0.20000000000000001 0.01007997645382676 0 0.10000000000000001 0.0072101992457088487 0 0.20000000000000001 0.0072101992457088487 0 0.20000000000000001 0.01007997645382676 0 0.10000000000000001 0.00027714824767246312 0 0.10000000000000001 0.00049157175393484403 0 0.20000000000000001 0.00049157175393484403 0 0.10000000000000001 0.00027714824767246312 0 0.20000000000000001 0.00027714824767246312 0 0.20000000000000001 0.00049157175393484403 0 0.10000000000000001 0.0036347696815094469 0 0.10000000000000001 0.0051351601405289276 0 0.20000000000000001 0.0051351601405289276 0 0.10000000000000001 0.001198244413521618 0 0.10000000000000001 0.001765447234118425 0 0.20000000000000001 0.001765447234118425 0 0.10000000000000001 0.0025498882091243972 0 0.20000000000000001 0.0036347696815094469 0 0.20000000000000001 0.0025498882091243972 0 0.10000000000000001 0.014048877707311129 0 0.10000000000000001 0.01007997645382676 0 0.20000000000000001 0.014048877707311129 0 0.10000000000000001 0.0025498882091243972 0 0.10000000000000001 0.0036347696815094469 0 0.20000000000000001 0.0036347696815094469 0 0.10000000000000001 0.001765447234118425 0 0.20000000000000001 0.001765447234118425 0 0.20000000000000001 0.0025498882091243972 0 0.10000000000000001 0.001198244413521618 0 0.20000000000000001 0.001198244413521618 0 0.20000000000000001 0.001765447234118425 0 0.10000000000000001 0.00049157175393484403 0 0.10000000000000001 0.00078811928474293897 0 0.20000000000000001 0.00078811928474293897 0 0.10000000000000001 0.00049157175393484403 0 0.20000000000000001 0.00078811928474293897 0 0.20000000000000001 0.00049157175393484403 0 0.10000000000000001 0.0025498882091243972 0 0.10000000000000001 0.001765447234118425 0 0.20000000000000001 0.0025498882091243972 0 0.10000000000000001 0.02712913039350634 0 0.10000000000000001 0.037627845084982139 0 0.20000000000000001 0.037627845084982139 0 0.10000000000000001 0 0 0.20000000000000001 0 0 0.10000000000000001 0.052147564491031792 0 0.20000000000000001 0.072228323778986164 0 0.20000000000000001 0.052147564491031792 0 0.10000000000000001 1.0000000000000001e-05 0 0.10000000000000001 0 0 0.20000000000000001 1.0000000000000001e-05 0 0.10000000000000001 0 0 0.20000000000000001 1.0000000000000001e-05 0 0.20000000000000001 0 0 0.10000000000000001 0.037627845084982139 0 0.20000000000000001 0.037627845084982139 0 0.20000000000000001 0.052147564491031792 0 0.10000000000000001 0.052147564491031792 0 0.10000000000000001 0.037627845084982139 0 0.20000000000000001 0.052147564491031792 0 0.10000000000000001 0.02712913039350634 0 0.20000000000000001 0.037627845084982139 0 0.20000000000000001 0.02712913039350634 0 0.10000000000000001 0.0001221058858762623 0 0.10000000000000001 1.0000000000000001e-05 0 0.20000000000000001 0.0001221058858762623 0 0.10000000000000001 1.0000000000000001e-05 0 0.20000000000000001 0.0001221058858762623 0 0.20000000000000001 1.0000000000000001e-05 0 0.10000000000000001 0.019537864299142921 0 0.20000000000000001 0.02712913039350634 0 0.20000000000000001 0.019537864299142921 0 0.10000000000000001 0.019537864299142921 0 0.10000000000000001 0.02712913039350634 0 0.20000000000000001 0.02712913039350634 0 0.10000000000000001 0.014048877707311129 0 0.20000000000000001 0.019537864299142921 0 0.20000000000000001 0.014048877707311129 0 0.10000000000000001 0.00027714824767246312 0 0.10000000000000001 0.0001221058858762623 0 0.20000000000000001 0.00027714824767246312 0 0.10000000000000001 0.01007997645382676 0 0.20000000000000001 0.014048877707311129 0 0.20000000000000001 0.01007997645382676 0 0.10000000000000001 0.0001221058858762623 0 0.20000000000000001 0.0001221058858762623 0 0.20000000000000001 0.00027714824767246312 0 0.10000000000000001 0.014048877707311129 0 0.10000000000000001 0.019537864299142921 0 0.20000000000000001 0.019537864299142921 0 0.10000000000000001 0.072228323778986164 0 0.20000000000000001 0.10000000000000001 0 0.20000000000000001 0.072228323778986164 0 0.10000000000000001 0.10000000000000001 0 0.10000000000000001 0.072228323778986164 0 0.20000000000000001 0.10000000000000001 0 0.10000000000000001 0.072228323778986164 0 0.10000000000000001 0.052147564491031792 0 0.20000000000000001 0.072228323778986164 0 0.20000000000000001 0.10000000000000001 0 0.20000000000000001 0.072228323778986164 0 0.29999999999999999 0.10000000000000001 0 0.20000000000000001 0.072228323778986164 0 0.20000000000000001 0.052147564491031792 0 0.29999999999999999 0.072228323778986164 0 0.20000000000000001 0.001198244413521618 0 0.20000000000000001 0.00078811928474293897 0 0.29999999999999999 0.001198244413521618 0 0.20000000000000001 0.0001221058858762623 0 0.20000000000000001 0.00027714824767246312 0 0.29999999999999999 0.00027714824767246312 0 0.20000000000000001 0.001198244413521618 0 0.20000000000000001 0.001765447234118425 0 0.29999999999999999 0.001765447234118425 0 0.20000000000000001 1.0000000000000001e-05 0 0.20000000000000001 0 0 0.29999999999999999 1.0000000000000001e-05 0 0.20000000000000001 0.0072101992457088487 0 0.20000000000000001 0.01007997645382676 0 0.29999999999999999 0.01007997645382676 0 0
[...]
<PointData Scalars="Ba-133_conc,region_id," Vectors="" Tensors="">
<DataArray type="Float64" Name="Ba-133_conc" format="ascii">
1.6208578015095074e-64 -8.0241391844596793e-64 -5.5632396179862652e-65 -3.992900777635404e-36 1.655696563199159e-36 3.4282966845367449e-36 2.8597655212222235e-29 2.2539762764808631e-28 -1.3969974793983024e-28 0.49922220904942038 10.059395427115316 -3.6142524220480872 1.6112628028455441e-44 -2.6845500247423028e-44 6.1785782191214264e-46 1.9376317277232836e-22 -1.251622106910846e-21 2.9481432179083821e-22 -0.036733118879303105 0.35906467200118469 0.13851017230008991 2.096033923060401e-54 -3.853632347899865e-54 -1.2945045962747885e-54 479.25193453309339 429.02559426699867 -1.26492555032847e-16 4.2883270039426609e-16 9.8042204311864281e-18 794.77609288479334 10.471580805858466 39.425529063253869 4.6275653384385656e-12 -9.8718081358054957e-12 -4.2488187486034967e-12 1.0616653668857713e-74 -3.6248995411173042e-74 -3.2285814204681604e-75 0.0042399364893462603 -0.036526274653346548 -0.00041026314366612306 -0.00015018857682393082 0.00089346346667869021 -0.00015942765972954312 -2.6278180564786242e-07 1.5362723165494779e-06 -2.3389875501554965e-06 785.11874149480377 479.50069648261962 721.19625394216905 -1.0450080938899365e-08 8.7647642575588653e-09 1.8742482215619693e-08 -5.1471759958214859e-85 1.5541241048893147e-85 -5.0751970817365097e-86 6.0515418942892331e-97 -1.9368395838898105e-96 -2.1951177972953713e-97 -7.2735753874494591e-91 9.5647160161770949e-92 -1.0208497718289277e-91 -1.9855083860678918e-40 7.4835855447002535e-40 -4.8118384350851571e-41 1.7835521656926665e-50 -9.7869683525707096e-50 -2.2004312921420836e-49 -3.9504286580829281e-19 2.0261399154269146e-19 2.4658734009799666e-20 -3.1261481135048379e-05 1.6529348002503242e-05 1.3144932920665724e-05 1.0217486937780716e-07 1.3920675767335718e-07 -7.6668111860390645e-07 0.42688161569398386 -3.5623836726604199 0.13301000001210009 4.4072048232336878e-14 -5.8212751975478147e-14 -6.5044402267581662e-15 4.1193645492553651e-33 2.2553690395449079e-32 -7.7941352702861332e-32 785.56444312087615 46.625218849495084 721.45331507242781 -8.9361863054171641e-80 9.1656961074595708e-81 -1.272601672763594e-80 10.597986458490482 -3.9058805046046201 35.939781163029451 -2.2673175408350741e-59 -2.3651351075706189e-59 -6.4532194138067222e-60 0.0023324561561250739 -0.00097290201926908859 -0.00095132989360632728 -3.0284875650035687e-10 9.4239155988386509e-10 -9.9589133500767775e-11 479.49331762984855 721.20651555959364 429.23498840188449 2.0657652912343769e-25 -2.6395224960327443e-25 4.6538983050283593e-25 -2.8265815162341022e-69 9.6467040804661134e-71 -5.1757670282123147e-70 -0.039246284496605728 0.12805588512615104 0.0043753778881884314 -0.00034543155571415817 -0.0011362179234461897 0.001939921689694637 0.0011015246136246509 0.0050948256233598489 -0.032259471737799694 -1.1662064585797458e-13 2.697244245654617e-13 -7.6089635695538497e-13 4.7740203030811367e-21 -5.7710013796100333e-21 -4.6371777742417835e-21 -1.669361387070913e-18 -1.8261797227423619e-18 9.1724329096873685e-18 -1.7511053131843914e-27 4.7721808134690834e-27 2.5633462172514142e-28 3.8040616245901347e-24 -7.3085792611187212e-24 -6.6420895912606559e-26 -3.4244441183830454 0.088727960319364432 0.81061000282732865 -3.2460433810001774 -4.8824739127410561 0.84234260521208137 -1.4340431812890973e-15 -8.0536656162033907e-16 1.9824353075809998e-15 3.1814727045515362e-05 -2.6746494176429685e-06 -1.8685618100338597e-06 2.9240454958682695e-09 -2.1829483022352869e-09 3.1589041822660931e-09 3.3620716650146907e-35 -1.8665224166255254e-34 3.6753294238009978e-35 1.1443370300626093e-10 -1.8872545455741938e-12 -5.0338344399046007e-11 -1.9446458115395941e-06 5.989670464874933e-07 7.0096157878928775e-07 -9.1218641224175299e-05 0.0001575151517232808 -3.8279662508023902e-05 0.10461681333903639 0.010647140573658023 -0.060776413245672921 0.10460595078650901 -0.076715276875844063 0.69278013824541795 5.3777948074323168e-08 -3.4192601952475396e-07 5.2536928538282807e-08 1.7915878589346463e-62 -7.0340733792708496e-63 -3.2981431874167178e-63 428.99721427837818 377.11264195303016 2.1213865204539875e-78 3.1689321759047019e-79 -9.7136238202098032e-79 721.21065309471862 429.22994472275241 705.7302638179176 429.22916169734458 705.73156844566563 377.3499499441964 6.6214464085575138e-68 -4.7331863052634902e-68 2.516719600940955e-68 -3.0282566679656205e-73 9.2033810707334978e-73 -1.5954504890936891e-73 4.4213479852350464e-58 5.8801347374019536e-58 -4.3413699229040442e-58 39.161403305354533 728.91366754953299 48.788860729143018 721.60000550083612 56.037228982559689 706.10302587203216 2.0559471288471411e-48 1.8102486826777151e-48 -1.0294192947045162e-47 8.742275257248641e-53 -9.1341576056071889e-53 -1.7090413372819048e-53 1.0704490792489002e-39 -4.2381321621989481e-39 6.225787712606045e-39 -3.3501369064034137 34.416947954214642 -5.1302541306350413 -3.9801630068585712e-31 2.4660403973738822e-31 1.9143334491172562e-31 36.289377777570849 45.407801297252391 -5.9506661136677641 2.3507356688194884e-43 1.2713823070036366e-43 -1.5450224530921096e-43 1.7404933180503537e-89 5.9250378523249822e-91 -5.0155410068828569e-90 -1.5308135571355942e-95 4.7205039964915828e-95 -3.8074232721295373e-96 -4.0776968115864365e-84 1.2689261539273008e-83 -1.6534348726056066e-84 -7.4938995481746202e-95 2.3667238615498208e-94 2.6225977424894395e-95 -1.9207993244645455e-83 6.2876761022774734e-83 5.9448242465509984e-84 1.0520296095902167e-05 -0.013486034303524679 0.006286817459180148 43.950581457954968 -5.192103007170342 -5.3988807788339628 -5.6522439922100964e-05 -2.2499066818890325e-05 6.3938761252104441e-05 705.7356872014218 377.34661126822937 681.43408134916069 -1.3010836088313659e-26 -6.8853313586269443e-27 1.296262523089635e-26 -0.034922776039166374 0.59328006185063542 -0.096152688104509207 4.5152258927354035e-72 -1.3182608402611759e-72 3.5920654498355633e-73 -1.8083997392881848e-42 4.8330416736915971e-42 -4.9778670099195859e-43 -3.8821391770084975e-07 4.0877427174736862e-07 -5.1201235816450732e-07 -4.6758488397778759 0.72063355279311692 0.83074502104208225 -1.821256223744343e-62 1.0463201230838151e-61 4.4443784960844508e-63 5.2913686259982152e-15 -2.7684139074660028e-14 4.196274637958001e-15 -2.6036394660142981e-21 8.5675527761197042e-20 -3.3102504071960043e-20 -4.6682851321733978e-52 -7.2653906609387857e-53 2.6597408126746702e-52 -1.9938155041021491e-10 5.6649964279511754e-10 7.3143768013583659e-11 5.150614663097739e-34 -5.6068953880337533e-34 -2.6690457265987692e-34 48.355373331240202 713.74949089794393 56.859440158905798 2.8887935041714569e-38 -7.3850470368463246e-39 -5.9975291567837217e-38 -1.5402047993171305e-30 7.2142829792752971e-30 -1.4479603763708359e-30 -0.025477953425422428 -0.048715470589017797 0.023208490160367218 1.1124999661287249e-77 1.2026008185471437e-78 -1.0542303784382101e-78 -1.7643047318193754e-48 -1.2262734825610907e-47 3.930362312229412e-47 -2.247028214013668e-12 8.4889394257698427e-13 7.7136461402680748e-13 0.00010341365233848216 8.8566404875320192e-05 -0.00026485840176277244 1.5044227437044353e-08 -2.4277625173649229e-08 3.7555896508877099e-10 -5.9872502507561998e-24 2.0232770381665451e-23 -5.2559868986854655e-23 3.6935457072844248e-67 1.3529869971968305e-68 -1.9595856963254165e-68 -3.6535928777572076e-06 -3.4399932686597288e-06 2.199965056123786e-05 1.9528456677846937e-17 -1.6828597596512646e-17 2.1677703395093339e-17 2.8794931518598486e-57 2.46186176773439e-57 7.0242361239534791e-58 706.14771890161182 64.19310494369374 681.78188567811503 -4.7001099236169006 -5.3439606032345912 0.86314233025479059 377.34584969936799 324.9388654489602 681.43733004877663 0.66706699476102194 0.74402698466629091 -0.16269983462391113 45.5211160196341 -6.0746982304912986 53.453473888461446 377.10236836094202 324.6907801818158 2.597093721053162e-07 3.7149567618471064e-06 -2.1142595749129553e-06 -5.8685175993514091e-51 4.0308870817316937e-51 1.0754363667482347e-51 -1.2333942851900384e-46 9.7865361983636205e-48 3.8935147724131018e-46 3.1129897870932805e-26 -1.7060244121091992e-25 2.9725643290903766e-26 -5.7211470255345596e-61 3.1904117733913696e-61 1.0301930019569489e-61 1.3015138213520222e-05 -1.8688134375030205e-05 4.9732565897597646e-05 681.86644892233539 652.48391656048261 72.361023973078417 -1.4417447967724301e-56 -3.0382721129055719e-56 1.4411703140102315e-56 0.65049458727529241 -0.093398957252488021 -0.094613606051916793 0.7230183927827335 -0.15411487704912405 0.78912612126487891 -3.7186033509134016e-71 1.2487549448253011e-71 6.2141370557795597e-72 -2.7145206741876101e-66 2.0347694896567186e-66 -9.5523072962092479e-67 56.325595917938706 689.58096581238044 65.049137618118607 -1.092312207229728e-22 1.4991660997904595e-23 5.6732865972637376e-23 -1.1420554560544602e-19 3.2298435824647823e-19 1.281112954221757e-20 -6.5211885012470954e-10 -4.36593825690275e-10 9.5516281129529881e-10 -2.1848675695425454e-09 -1.0897350454840532e-07 3.130977752092992e-08 3.4056629889100722e-38 1.3945117718553178e-37 -3.7592893817150226e-37 -9.7585142004262555e-42 -2.202727962971251e-42 5.5826124384062581e-42 8.2451171374140124e-30 1.552173179689591e-29 -1.1621457547464195e-29 5.701688960105499e-33 1.7906120851379828e-34 -2.0271365505002182e-33 53.514237573110705 -6.0961926954582299 61.683717885537952 -5.538799893471384 52.23058939923434 -5.6212140488025062 -5.1401911400487625 -5.6565644472188819 0.77810334446778473 -5.2148149772024155 0.7807630380767917 0.81696434208089219 2.7627000377197479e-14 -2.862601618245813e-14 -2.4329038289313063e-14 -3.4638015185266823e-12 1.3403759521575105e-11 -2.3242013571959843e-12 -8.7357390759721654e-77 3.8921902370179574e-77 -1.1889410516826463e-77 324.93588901692385 681.44193203626037 652.16224120116601 324.93420766090918 272.70010902746986 652.16732648809057 8.2155087706998898e-17 -1.0443522448877181e-16 -6.4446999057067751e-18 324.68167106019416 272.44378304535383 -0.016849820612517049 0.0048691867254592033 0.0070343894314818245 -0.047212494004384056 0.027864205981473104 -0.055865636075096439 -0.0006425360704041727 1.2399721608818175e-05 0.00016204343908847715 0.00016014329063807224 -0.00028405588261290867 7.5162988661272339e-05 -5.1841047193182446e-82 1.6668813272135789e-82 6.404390902146044e-83 6.2135399392285402e-94 -1.9256352874088682e-93 1.4638252079815248e-94 -7.1307463623651118e-88 -1.9788200661039486e-89 1.9589133354906968e-88 8.955997303150071e-89 -1.1229377571347818e-89 1.0773722791775492e-89 -1.9642153035489777e-87 1.3495214137097947e-88 5.7758275006091523e-89 4.0657610716592717e-29 -1.0114804558004264e-29 -4.2534378392185254e-29 -1.8704723526720641e-22 -7.7167795331043058e-23 5.2651399674980866e-22 -0.053182417892237835 -0.063754117352323947 0.029890498992139223 -5.4598767304630593 -5.9141278765827954 0.68163892419163996 272.43917367754028 221.10919215908865 -8.0687240366641239e-08 7.2545288066329964e-08 -1.5381738513278501e-07 -2.4696911328662815e-76 2.6482427340546154e-78 2.5357696581379878e-77 -4.289249439397754e-37 4.7773420334257689e-37 -1.0279949186265406e-37 652.60380671491964 618.74237431539461 80.017792603028724 6.7920272875515931e-12 -1.1717179904716642e-11 2.8765273525121407e-11 -8.722290012455679e-66 -1.1798440829889696e-67 3.2682882094353585e-66 1.7543714014926172e-17 1.3006620054754153e-16 -4.3688500170262048e-16 272.69606823161394 618.45964904692437 221.36956168998219 -1.6741279971858798e-46 -7.9051967164953426e-46 1.1080320366757979e-45 -4.8339270845658305e-56 -5.1677700158574336e-56 -2.623270923132618e-56 0.77322081319873837 0.82570647380677309 -0.14190653869934969 4.349736543521128e-05 5.5468416055703044e-05 -2.7135585235111461e-05 -4.5743654985832002e-05 0.00047083128091324016 -0.0004349190003123442 61.688908984001735 69.56361241479236 -6.0251171585152346 -1.0405063160809851e-70 3.0619940414392493e-71 1.4725889588318076e-72 -2.0801452561282311e-19 -2.2762181479099905e-19 3.4486737354962422e-19 1.6778014548479005e-13 1.8319018244017528e-14 -9.4668620858346334e-14 272.69810170810302 652.17223966557867 618.45284506985342 -5.6317121092305946 0.78421958550604454 0.81270483900744472 0.0060517169239710702 -0.021697847070572804 0.007790508091987192 0.00014340877065430679 -0.00090694521044846479 0.00015200138585626873 2.1486764030897237e-32 -7.2243110220578579e-33 -1.1593887358403608e-33 4.0858392699639749e-61 -2.0422289511401758e-60 7.0406426585318343e-62 -0.097848095258126447 0.7259691871657683 -0.09660297354315675 -1.3140550270267403e-06 9.5208408402901176e-06 -2.7646726030204684e-06 -5.161668887534507e-09 2.5862377432840627e-10 1.9142742022455033e-09 -5.782342588246399 60.738196794849152 -5.7744405248354838 1.1878990843608646e-41 -1.0718829235349804e-40 2.2515887356210242e-41 -1.972024845337765e-25 1.535781084347826e-25 -7.6989456872237879e-26 1.7477412063864711e-50 3.9922137101253223e-51 -5.2791069698963881e-51 660.32672492801328 64.422510532088182 72.837567141605547 1.6781239496212136e-93 -5.1741976511821568e-93 -2.4586871949985666e-94 -1.3865955618643398e-81 4.3700768723563769e-82 -2.4781083491807387e-83 -1.6902924069614569e-21 2.9314399159043824e-21 1.8650336171969983e-21 186.10596309304523 -10.294224559643807 91.497173465967919 -1.5227008249142472e-15 8.4208696907469929e-16 -1.0250619842811386e-15 7.6694877674013362e-11 -4.0821788257064107e-11 5.3179861823323477e-11 -1.1486619484759039e-44 1.5053950758719824e-44 -9.8367660710625339e-45 -3.4570176866833783e-07 1.6867390478259641e-07 -2.2899437080114108e-07 193.70852225932612 306.12576496362567 447.64865173550749 -5.6112141668544945e-28 3.4849932071232502e-28 -3.3706911154632526e-28 1.0013248200733553e-35 -7.3812751644205293e-36 5.941281177956709e-36 0.00010461886068886962 -3.9879228170566895e-05 5.6379432539002638e-05 -0.063105480148897886 306.28709471252915 37.034402460334732 -13.248889363414744 0.34189526948109084 -5.51457835654712 0.0036661397089104682 -0.0019216613115125396 0.0019865263753831848 -2.0637271868502679e-54 -2.7355135404112897e-54 2.0853131553011127e-54 8.8650183707339946e-65 7.4362906051409073e-65 -5.527711641779275e-65 -0.22138506652391948 36.79553668674324 -0.19314970116890076 0.050653515902550968 -0.076037990237407899 -4.6291005469925898e-76 1.3165922942944193e-76 -3.7158688603997456e-76 1.863603120159536 -0.094972051018160336 0.74648695816852473 9.0192407837353988e-88 -2.5009572272932892e-87 -3.0290653410359641e-87 -3.8041859061487085e-93 -8.2630317471537995e-93 3.0735181995971042e-93 -1.1532358033731811e-81 1.0258877888614845e-81 -2.0196387775110092e-81 -0.18696854559938508 0.85235714409522123 -0.089592230250635882 4.2436700603247506e-09 3.2804016376251291e-09 -1.5184075014271807e-08 187.4450411269363 93.492254332976529 453.81950357803527 -9.5715660488527869e-25 4.168508756511221e-24 -9.0682761487150022e-25 -6.1807954696133112e-60 5.1406684996567218e-59 -2.0272952992961336e-59 -2.661654719477258e-72 -7.943711834592432e-71 -5.2607695352529001e-70 8.130407716786107e-05 3.4315456366686445e-05 -0.000377818043699849 0.020513279188734055 -0.049974475585669732 0.0089791326250308143 1.2912875188825133 0.64445036524722854 -6.1399446381216141 5.2596425197015533e-32 6.2786935089524701e-32 -2.7477540196940731e-31 306.27230673953864 447.26765564176821 37.04454592728699 -2.7892166642624013e-13 -2.2441108671235363e-13 1.0393615063315292e-12 7.4424517881738673e-50 3.3828363721481743e-49 -1.0408494786746225e-48 1.662444785857164e-18 -6.5624074468997326e-18 1.4066282213928484e-18 -2.45674341089068e-40 -4.6387342220287819e-40 1.8065662539430369e-39 -11.831444461415238 92.88372271849407 -5.7420667182771945 -4.9248354293376234e-06 1.6503319404445842e-05 -3.4159514905264005e-06 -2.0544114739418307e-40 1.4264671723642505e-39 -3.3129786112823899e-40 1.4645035094701975e-07 -2.7127309405600901e-07 -2.1520775858971704e-07 -5.5649679010555266e-36 7.447351133199051e-36 4.5125557928367046e-36 100.01093634823818 447.35749867704237 495.26534425034129 3.5258612697492213e-09 2.8584926929201816e-09 -1.3197181886697711e-08 -6.0447212715706152e-55 -1.7297025262584285e-54 3.5558836836895291e-55 -6.8139461521349615e-60 1.8257706913615649e-59 1.1887057272574329e-59 0.53849586895274104 0.62933602575817793 -6.5394346500367648 6.5558897250984338e-05 -3.404583811930027e-05 6.4200403736994793e-05 -3.909067788306936e-06 1.6258752965375491e-05 -3.5682226806626128e-06 0.047373144693085248 -5.4938775749861604 -5.9446701861904989 447.24926641065338 78.9282781827863 494.86373005617207 3.9601958488804602e-32 -2.0953007131637075e-31 4.8443828229857182e-32 2.6208796095157547e-28 -4.2000518429092136e-28 -2.5663533294277619e-28 1.0037515812736402e-49 -8.0328881068228031e-49 1.3193115966336624e-49 447.26287370732274 37.040924223583744 78.923246350202191 94.358377252209635 91.558635309327698 501.91928059454705 1.147006223674407e-44 -9.5494583742014793e-45 -6.0426305956157059e-45 9.8213033238139722e-06 0.000105912185272044 -0.00060511035792420293 -5.0733897039245903 -5.7977436724357494 90.291504826593837 91.901281063230087 -4.4067920818028439 89.583982082864352 0.72164732852280344 -0.022786192484980771 0.83285983716499157 -0.074193119895053353 0.93951603194459843 -0.10569075354034733 1.2952488600644888e-18 1.0855297749132859e-18 -5.074818330657232e-18 -1.2103979948571585e-15 6.6669560460387958e-16 -8.0744212229228935e-16 2.6737288905861817e-76 1.8864627937642221e-76 -1.5377034994478075e-75 -3.3845609397685365e-11 6.2319632674957697e-11 4.4633889835641961e-11 -2.2587724220932152e-13 -1.7954444176923519e-13 8.391105483795803e-13 0.012754682447627142 -0.05364407949704536 0.012079390662505855 -0.079595468626041221 0.032672831197017672 -0.083559504587415553 -0.0016777383634239847 0.0028863214800873027 0.0019913459365845576 36.792972550088017 78.681427432391757 3.360196207706549e-66 2.1117556484579503e-65 -3.756001083032613e-65 1.1515938339556375e-71 -6.2871051217648823e-72 -5.8919096144628849e-70 -7.2259990607145384e-25 3.1586854559750455e-24 -6.9661301643793249e-25 2.2550680938340414e-21 -1.2940486988401648e-21 1.4254171788249185e-21 -5.7792684143099005e-82 2.4773909952228519e-81 -8.4921929934878832e-81 -1.0335542930466981e-87 1.1797431045620835e-87 -1.1130462655794937e-86 -2.9215643923138594e-93 9.4543195028312693e-93 -2.9358912592070233e-92 1.4559331495468012e-88 6.6786188835141491e-88 -5.1493774910383636e-87 -5.0343530543540069 89.824312842191986 83.583647502233717 -0.0012915985955183015 0.0020927853407055135 0.0013299326857466099 0.2390786073585118 -6.0659059467744978 -5.960236156006947 6.4101437886339197e-05 -3.2640470510643955e-05 5.9342970584486441e-05 -9.9617050513154391e-45 7.0144252989763581e-45 2.4133401860481453e-46 -2.8352883545850292e-65 -2.6623300271106988e-65 7.0529144769878044e-66 0.85965530841215998 -0.075155076791563427 0.84093061261649615 4.2175926388208565e-55 -4.3417671936672421e-56 -4.1415607771200488e-55 3.356053284851747e-77 2.7053552188644885e-76 -6.3351997898622956e-76 -0.08599436438864555 0.034367967472341145 -0.076354993822987105 78.92669822148379 494.85793515436956 123.91479329663882 6.2310128083039195e-36 -4.1867111129157928e-36 2.5527951905268101e-36 98.65857309073445 495.00395978031747 539.47620736023532 -3.2695857221561391e-28 2.0305613013149193e-28 -1.9094852487948904e-28 1.2392847503261651e-07 -2.3072883514175185e-07 -1.811265429754674e-07 1.7326301748723082e-21 -1.0027959228595086e-21 1.1150106576497538e-21 -2.7299635721050976e-11 5.0257462601416248e-11 3.6016152428953833e-11 5.2277036169289131e-16 -9.4515896214510563e-16 -6.3767387927661668e-16 0.011877338319462336 -0.04437242635094639 0.0102099213393768 -0.096810014052758006 -0.10632429132695205 0.89845974989266719 -1.7881884076758768e-13 6.6746935408996799e-13 -1.4427824428181225e-13 78.672049486993586 123.66396790862123 -5.7401821575531348e-25 -5.2810800748118391e-25 2.5105759331520306e-24 2.2748266761312299e-71 -1.1839631875151626e-70 6.0530997789740887e-71 6.0455321312248126e-05 -0.00071104368544638657 0.00012764092967489877 1.0070898729017567e-18 -3.9901171048621548e-18 8.6275995432440183e-19 2.9050517933713449e-09 2