<?xml version="1.0"?>
<VTKFile type="UnstructuredGrid" version="0.1" byte_order="LittleEndian">
<UnstructuredGrid>
<Piece NumberOfPoints="1160" NumberOfCells="390">
<Points>
<DataArray type="Float64" NumberOfComponents="3" format="ascii">
0 0 0 0.10000000000000001 0 0 0 0.02712913039350634 0 0 0.037627845084982139 0 0.10000000000000001 0.037627845084982139 0 0 0.037627845084982139 0 0 0.052147564491031792 0 0.10000000000000001 0.052147564491031792 0 0 0.019537864299142921 0 0 0.02712913039350634 0 0.10000000000000001 0.02712913039350634 0 0 0.014048877707311129 0 0 0.019537864299142921 0 0.10000000000000001 0.019537864299142921 0 0 0.01007997645382676 0 0 0.014048877707311129 0 0.10000000000000001 0.014048877707311129 0 0 0.0072101992457088487 0 0 0.01007997645382676 0 0.10000000000000001 0.01007997645382676 0 0 0.0051351601405289276 0 0 0.0072101992457088487 0 0.10000000000000001 0.0072101992457088487 0 0 0.0036347696815094469 0 0 0.0051351601405289276 0 0.10000000000000001 0.0051351601405289276 0 0 0.001765447234118425 0 0 0.0025498882091243972 0 0.10000000000000001 0.0025498882091243972 0 0 0.0025498882091243972 0 0 0.0036347696815094469 0 0.10000000000000001 0.0036347696815094469 0 0 0 0 0 1.0000000000000001e-05 0 0.10000000000000001 1.0000000000000001e-05 0 0 1.0000000000000001e-05 0 0 0.0001221058858762623 0 0.10000000000000001 0.0001221058858762623 0 0 0.0001221058858762623 0 0 0.00027714824767246312 0 0.10000000000000001 0.00027714824767246312 0 0 0.00027714824767246312 0 0 0.00049157175393484403 0 0.10000000000000001 0.00049157175393484403 0 0 0.00049157175393484403 0 0 0.00078811928474293897 0 0.10000000000000001 0.00078811928474293897 0 0 0.00078811928474293897 0 0 0.001198244413521618 0 0.10000000000000001 0.001198244413521618 0 0 0.001198244413521618 0 0 0.001765447234118425 0 0.10000000000000001 0.001765447234118425 0 0 0.0036347696815094469 0 0.10000000000000001 0.0051351601405289276 0 0.10000000000000001 0.0036347696815094469 0 0 0.0051351601405289276 0 0.10000000000000001 0.0072101992457088487 0 0.10000000000000001 0.0051351601405289276 0 0 0.0025498882091243972 0 0.10000000000000001 0.0036347696815094469 0 0.10000000000000001 0.0025498882091243972 0 0 0.001765447234118425 0 0.10000000000000001 0.0025498882091243972 0 0.10000000000000001 0.001765447234118425 0 0 0.001198244413521618 0 0.10000000000000001 0.001765447234118425 0 0.10000000000000001 0.001198244413521618 0 0 0.00078811928474293897 0 0.10000000000000001 0.001198244413521618 0 0.10000000000000001 0.00078811928474293897 0 0 0.00049157175393484403 0 0.10000000000000001 0.00078811928474293897 0 0.10000000000000001 0.00049157175393484403 0 0 0.00027714824767246312 0 0.10000000000000001 0.00049157175393484403 0 0.10000000000000001 0.00027714824767246312 0 0 1.0000000000000001e-05 0 0.10000000000000001 0.0001221058858762623 0 0.10000000000000001 1.0000000000000001e-05 0 0 0 0 0.10000000000000001 1.0000000000000001e-05 0 0.10000000000000001 0 0 0 0.0001221058858762623 0 0.10000000000000001 0.00027714824767246312 0 0.10000000000000001 0.0001221058858762623 0 0 0.01007997645382676 0 0.10000000000000001 0.014048877707311129 0 0.10000000000000001 0.01007997645382676 0 0 0.0072101992457088487 0 0.10000000000000001 0.01007997645382676 0 0.10000000000000001 0.0072101992457088487 0 0 0.014048877707311129 0 0.10000000000000001 0.019537864299142921 0 0.10000000000000001 0.014048877707311129 0 0 0.019537864299142921 0 0.10000000000000001 0.02712913039350634 0 0.10000000000000001 0.019537864299142921 0 0 0.02712913039350634 0 0.10000000000000001 0.037627845084982139 0 0.10000000000000001 0.02712913039350634 0 0 0.037627845084982139 0 0.10000000000000001 0.052147564491031792 0 0.10000000000000001 0.037627845084982139 0 0 0.052147564491031792 0 0.10000000000000001 0.072228323778986164 0 0.10000000000000001 0.052147564491031792 0 0 0.072228323778986164 0 0.10000000000000001 0.10000000000000001 0 0.10000000000000001 0.072228323778986164 0 0 0.052147564491031792 0 0 0.072228323778986164 0 0.10000000000000001 0.072228323778986164 0 0 0.072228323778986164 0 0 0.10000000000000001 0 0.10000000000000001 0.10000000000000001 0 0.20000000000000001 0.052147564491031792 0 0.20000000000000001 0.072228323778986164 0 0.29999999999999999 0.072228323778986164 0 0.20000000000000001 0.072228323778986164 0 0.20000000000000001 0.10000000000000001 0 0.29999999999999999 0.10000000000000001 0 0.10000000000000001 0.072228323778986164 0 0.10000000000000001 0.10000000000000001 0 0.20000000000000001 0.10000000000000001 0 0.10000000000000001 0.052147564491031792 0 0.10000000000000001 0.072228323778986164 0 0.20000000000000001 0.072228323778986164 0 0.10000000000000001 0.072228323778986164 0 0.20000000000000001 0.10000000000000001 0 0.20000000000000001 0.072228323778986164 0 0.10000000000000001 0.037627845084982139 0 0.20000000000000001 0.052147564491031792 0 0.20000000000000001 0.037627845084982139 0 0.10000000000000001 0.052147564491031792 0 0.20000000000000001 0.072228323778986164 0 0.20000000000000001 0.052147564491031792 0 0.10000000000000001 0.037627845084982139 0 0.10000000000000001 0.052147564491031792 0 0.20000000000000001 0.052147564491031792 0 0.10000000000000001 0.02712913039350634 0 0.10000000000000001 0.037627845084982139 0 0.20000000000000001 0.037627845084982139 0 0.10000000000000001 0.019537864299142921 0 0.10000000000000001 0.02712913039350634 0 0.20000000000000001 0.02712913039350634 0 0.10000000000000001 0.014048877707311129 0 0.10000000000000001 0.019537864299142921 0 0.20000000000000001 0.019537864299142921 0 0.10000000000000001 0.0072101992457088487 0 0.10000000000000001 0.01007997645382676 0 0.20000000000000001 0.01007997645382676 0 0.10000000000000001 0.01007997645382676 0 0.10000000000000001 0.014048877707311129 0 0.20000000000000001 0.014048877707311129 0 0.10000000000000001 0 0 0.10000000000000001 1.0000000000000001e-05 0 0.20000000000000001 1.0000000000000001e-05 0 0.10000000000000001 1.0000000000000001e-05 0 0.10000000000000001 0.0001221058858762623 0 0.20000000000000001 0.0001221058858762623 0 0.10000000000000001 0.0001221058858762623 0 0.10000000000000001 0.00027714824767246312 0 0.20000000000000001 0.00027714824767246312 0 0.10000000000000001 0.00027714824767246312 0 0.10000000000000001 0.00049157175393484403 0 0.20000000000000001 0.00049157175393484403 0 0.10000000000000001 0.00049157175393484403 0 0.10000000000000001 0.00078811928474293897 0 0.20000000000000001 0.00078811928474293897 0 0.10000000000000001 0.001198244413521618 0 0.10000000000000001 0.001765447234118425 0 0.20000000000000001 0.001765447234118425 0 0.10000000000000001 0.00078811928474293897 0 0.10000000000000001 0.001198244413521618 0 0.20000000000000001 0.001198244413521618 0 0.10000000000000001 0.001765447234118425 0 0.10000000000000001 0.0025498882091243972 0 0.20000000000000001 0.0025498882091243972 0 0.10000000000000001 0.0025498882091243972 0 0.10000000000000001 0.0036347696815094469 0 0.20000000000000001 0.0036347696815094469 0 0.10000000000000001 0.0036347696815094469 0 0.10000000000000001 0.0051351601405289276 0 0.20000000000000001 0.0051351601405289276 0 0.10000000000000001 0.0051351601405289276 0 0.10000000000000001 0.0072101992457088487 0 0.20000000000000001 0.0072101992457088487 0 0.10000000000000001 0.0025498882091243972 0 0.20000000000000001 0.0036347696815094469 0 0.20000000000000001 0.0025498882091243972 0 0.10000000000000001 0.001765447234118425 0 0.20000000000000001 0.0025498882091243972 0 0.20000000000000001 0.001765447234118425 0 0.10000000000000001 0.001198244413521618 0 0.20000000000000001 0.001765447234118425 0 0.20000000000000001 0.001198244413521618 0 0.10000000000000001 0.00049157175393484403 0 0.20000000000000001 0.00078811928474293897 0 0.20000000000000001 0.00049157175393484403 0 0.10000000000000001 0.00078811928474293897 0 0.20000000000000001 0.001198244413521618 0 0.20000000000000001 0.00078811928474293897 0 0.10000000000000001 1.0000000000000001e-05 0 0.20000000000000001 0.0001221058858762623 0 0.20000000000000001 1.0000000000000001e-05 0 0.10000000000000001 0 0 0.20000000000000001 1.0000000000000001e-05 0 0.20000000000000001 0 0 0.10000000000000001 0.0001221058858762623 0 0.20000000000000001 0.00027714824767246312 0 0.20000000000000001 0.0001221058858762623 0 0.10000000000000001 0.00027714824767246312 0 0.20000000000000001 0.00049157175393484403 0 0.20000000000000001 0.00027714824767246312 0 0.10000000000000001 0.0051351601405289276 0 0.20000000000000001 0.0072101992457088487 0 0.20000000000000001 0.0051351601405289276 0 0.10000000000000001 0.0036347696815094469 0 0.20000000000000001 0.0051351601405289276 0 0.20000000000000001 0.0036347696815094469 0 0.10000000000000001 0.01007997645382676 0 0.20000000000000001 0.014048877707311129 0 0.20000000000000001 0.01007997645382676 0 0.10000000000000001 0.0072101992457088487 0 0.20000000000000001 0.01007997645382676 0 0.20000000000000001 0.0072101992457088487 0 0.10000000000000001 0.02712913039350634 0 0.20000000000000001 0.037627845084982139 0 0.20000000000000001 0.02712913039350634 0 0.10000000000000001 0.019537864299142921 0 0.20000000000000001 0.02712913039350634 0 0.20000000000000001 0.019537864299142921 0 0.10000000000000001 0.014048877707311129 0 0.20000000000000001 0.019537864299142921 0 0.20000000000000001 0.014048877707311129 0 0.20000000000000001 0.02712913039350634 0 0.20000000000000001 0.037627845084982139 0 0.29999999999999999 0.037627845084982139 0 0.20000000000000001 0.037627845084982139 0 0.20000000000000001 0.052147564491031792 0 0.29999999999999999 0.052147564491031792 0 0.20000000000000001 0.019537864299142921 0 0.20000000000000001 0.02712913039350634 0 0.29999999999999999 0.02712913039350634 0 0.20000000000000001 0.014048877707311129 0 0.20000000000000001 0.019537864299142921 0 0.29999999999999999 0.019537864299142921 0 0.20000000000000001 0.01007997645382676 0 0.20000000000000001 0.014048877707311129 0 0.29999999999999999 0.014048877707311129 0 0.20000000000000001 0.0072101992457088487 0 
[...]
<PointData Scalars="Ba-133_conc,region_id," Vectors="" Tensors="">
<DataArray type="Float64" Name="Ba-133_conc" format="ascii">
2689.3531753589109 3437.4971631678527 -1.2526304421391048e-73 2.4265460664246918e-74 -1.0160520105232013e-74 -1.9522525108047666e-84 5.6860698384703539e-85 -1.9653664961597946e-85 -1.8818621346127013e-63 9.6973656476674295e-64 -6.7827521381431761e-64 -4.5406845769565657e-53 2.8129380640075094e-53 4.3242207771893016e-55 7.0321636415457683e-45 -2.4935820319049817e-44 2.2757377435379857e-44 6.750186547108308e-36 5.6241544588490385e-37 -3.760070708470759e-36 -1.7411388083986942e-28 3.0675200087391835e-29 3.5882448571234526e-29 3.4660653107871472e-22 -1.1153519124115591e-22 2.5670784707635831e-23 -3.6750472440322599e-13 -8.0775101829390072e-13 1.8495713326653548e-12 -5.6187468623940391e-17 3.1548485635185776e-17 -3.5033148627461551e-17 2686.9134845011963 237.51754067580757 388.24710256002464 210.92502088356011 -3.9556179400929179 -56.368183039135779 -2.8613012618814668 -0.4737597299837854 2.3094011702863932 -0.099220895411018681 0.036337073413304576 -0.053932180849616609 0.0036715051641373272 -0.00069472225858302158 0.00029666604286974709 -1.8432305827403772e-05 2.5706525939695797e-06 4.0689628604664762e-06 1.4349319752165122e-08 6.3800349198633642e-10 -9.332002831426229e-09 9.7163220747051117e-20 -6.8253017879296082e-21 -1.5582057442347227e-19 -1.3213261187453344e-25 6.1285720218457284e-26 3.4950084616437734e-26 -5.3584670886853856e-15 -3.6499720293100221e-15 2.2643662074005498e-14 -2.9968643645950658e-11 8.9405394910013505e-11 -3.1362861182015453e-10 2.4797073688683358e-07 -1.9503284342908718e-07 4.0201699807632573e-07 -0.00012124529691304288 4.8373511439804176e-05 2.7899429541185059e-05 0.010423129845924252 -0.00021153860376141737 -0.017795064693924889 -0.14679987595207886 -0.1083653080001387 1.3202830872046025 236.40112043596761 -79.169813771717116 386.93818407036372 2686.9231783398377 388.23907633203675 3435.0802130919051 -3.82407869647141 3.718607604884808 -45.075326463530388 3.3582756690235245e-41 3.0550145837543608e-40 -9.99411727472086e-40 1.3567044324505871e-32 -1.5649855870572021e-32 2.5199577573860468e-32 -6.3969228256074854e-49 -1.9731662874562269e-49 2.5049905564735373e-48 2.0063676624114493e-59 -1.9965041309509011e-58 -1.130341041047079e-58 -6.1987474380527953e-69 -1.5564163985510754e-69 -7.0958916399281721e-69 -2.5730531897593015e-79 1.3330198785767535e-80 -5.7347356879944081e-80 -2.9093498491608728e-90 3.2681933289548046e-91 -4.8216913181783574e-91 -8.9728941352624789e-102 1.231491498224449e-102 -1.3926416375566044e-102 -1.0232903452489458e-95 3.082114993799083e-96 -1.0976471498625522e-96 -1.4988633729638307e-107 4.6768698652290348e-108 -1.7955205102664551e-108 1.4146918226931197e-93 -4.3365440281182932e-94 1.1228938010581583e-94 2.0567224327845057e-105 -6.5232199637067506e-106 2.0228631200193848e-106 3.8210665208806209e-106 -1.2395481619213269e-106 -3.1244804798108769e-107 2.6542576311847349e-94 -8.5330561533684197e-95 -3.4893426809695194e-95 2.2500315595526871e-100 7.8729002496955131e-102 -6.5397215986525745e-101 6.395779321053755e-78 2.4371608174448584e-78 -4.6027227905607109e-78 7.2783538979603311e-89 1.0960611756694792e-89 -3.3554231263955148e-89 5.2563042310207396e-83 -1.7307271409770199e-83 -9.1695816155731821e-84 2.9728988468825806e-72 -1.1700403429371448e-72 -5.5093932491665256e-73 4.4582678958755613e-62 -4.7511494721886983e-62 -8.8884944729017006e-63 4.1431455195729975e-52 2.3041352493099435e-52 -2.7462373128856834e-52 1.3868213469827328e-34 -5.0721808465014445e-35 7.0753383568442714e-36 -1.2503962908794377e-42 2.2426109370854662e-43 2.5106887549701761e-43 3435.2174436301043 388.20749747092088 539.83715644953065 360.59021653132879 -54.639484802363846 -78.041080463920508 -39.168247192013744 1.387297541091087 5.1387617440013917 0.85795155481167606 0.011269768731966076 -0.35590863913936616 -0.0057137359350569296 -0.0024111456250370763 0.008581420559752766 1.4357456843764684e-07 -4.3074969710799642e-08 1.9217444236387254e-08 -3.1451865699601876e-05 3.0877757775214914e-05 -3.9799329340322357e-05 -3.6041965148167386e-11 6.2523414368244019e-12 6.0116401185659764e-12 8.5523422490651646e-16 -1.1226254149627357e-17 -4.1152454852775441e-16 -1.256272039133643e-21 -7.6925007657798712e-22 1.8318481790099273e-21 -8.7251371413253865e-28 7.0584718390722098e-28 -6.7811605358679333e-28 7.8532059105831051e-14 -6.1997084717622886e-14 9.1077139543119771e-14 -1.2597993878246355e-09 4.6064023475122831e-10 4.2789897590136804e-10 1.9386518948461003e-06 5.3634639347162347e-08 -2.9863007794954224e-06 -0.0083232145486738726 0.027936984806006607 -0.13908612241024043 -0.00021014599989041833 -0.00022570346209234161 0.0015894520845670401 386.92379021446385 -107.78764715795604 537.87948350355373 3435.3446073966275 539.81867088696947 4269.9348156611231 -45.055123989351564 9.0156199158959893 -63.42700801360639 1.1421865690625137 -0.83139595476956873 3.2042815331599401 -6.2496019558870896e-25 -6.4382397035835966e-25 3.2766866691782571e-24 -2.8727523255004457e-19 6.9278850616814715e-19 -2.0189589295677318e-18 -5.4693879008372964e-39 3.4395499977099248e-39 2.5036761267092446e-39 2.4534911748079446e-31 -6.4959712725274095e-33 -4.6413943926986251e-31 1.2867111529207904e-67 1.7047298663224959e-67 -1.2875566491522586e-67 1.9566394880542213e-57 1.7072711812979357e-57 -9.8308393156052134e-57 3.6315912163381155e-48 -1.4529920406956567e-47 2.1802599264902638e-47 1.8607876655696049e-71 -3.4477557817639939e-72 5.2359486032508287e-73 2.779400012658948e-82 -8.1787294011027058e-83 1.7198778564413604e-83 -2.305103480098482e-62 -2.6054965030769403e-61 1.3576046106613271e-61 8.772416809674461e-51 -3.1421568071474563e-51 -9.9241538982165342e-52 -4.2707561237337799e-42 3.5622392972836147e-42 -1.7019115647183605e-42 -3.1721739598421398e-34 -2.2092869853557974e-34 3.7657244437659879e-34 1.1906531611509509e-26 -3.843866134219174e-29 -5.1151645206703256e-27 -2.5149023606923109e-20 4.2934168784482296e-21 4.7385252030742005e-21 -5.0687525490547437e-11 4.4571200498257298e-11 -4.4764405443430581e-11 4.5711862928903713e-15 -1.4737699148910809e-15 2.9324461285212805e-16 4269.8579658304989 539.83473981097961 738.93647413243036 503.58625085489501 -75.520695682670507 -106.12064263779244 -55.199147028398052 4.5786813914409432 6.790419551023593 2.2181891631346757 -0.26113498911862559 -0.51656576763946649 -0.062393490147946672 0.0023096623915717274 0.01800342218961079 -1.4141323218940479e-07 -1.2010011309692363e-07 2.9283255527637786e-07 0.00031887450790334251 2.5152619614820585e-05 -0.00019011029977009981 1.0026403752100266e-46 -3.0997092034490731e-47 -1.9675447031215672e-46 -1.0477807710230047e-57 3.8267030711263534e-56 -1.5400958219828923e-56 8.8983156151846912e-67 2.6762886209890876e-67 6.7550173969767608e-67 -2.3466611453658246e-38 -1.8402829139870874e-38 9.9783355582118583e-38 -2.6482016375546372e-31 1.2713527413495726e-30 -3.5353214795423623e-30 6.4270672809986664e-24 -6.1776605898822928e-24 9.2650196995963743e-24 -5.6091934478682506e-18 2.4717965706755461e-18 6.8210432418398058e-19 4.162378414484932e-13 -2.6497347103003233e-14 -5.065369251238479e-13 -2.2991635189920346e-09 -1.4470309865791211e-09 9.3891534861093444e-09 -9.3711849677007422e-08 4.3899220879799158e-06 -1.6539928433493052e-05 538.10534618542204 -144.49768216541415 736.51953151713155 4269.7506858346696 738.98363878946543 5069.5660862839231 -62.868624533201235 12.000066864789135 -87.301618484595082 3.0932431878463245 -1.2560914276300137 4.4652940035361501 -0.12355220200457995 0.068508149128074403 -0.21295113445532171 0.0010248580052489348 -0.0013551622998972236 0.0037184470835434826 4.0919070441539686e-88 -3.2266890147696725e-89 2.9321412058692837e-89 3.8116958790826144e-77 -9.6553199390030261e-79 -3.2231447697729488e-79 1.2416186972214527e-99 -1.4290760949379913e-100 1.1670883039726655e-100 -1.0477664608274228e-92 3.3748172725251542e-93 1.3740069745420029e-93 -1.5082012942698864e-104 4.8690987605383593e-105 1.2435997435837602e-105 -8.9050068441635909e-99 -2.9547400338572181e-100 2.5709785614203976e-99 -2.8877966343177689e-87 -4.1770720379526619e-88 1.346127860204149e-87 -2.5119033292699025e-76 -9.25965506759834e-77 1.9650732564672754e-76 -2.0467689736026028e-81 6.90924653223346e-82 3.6021311264372749e-82 -8.900414105569231e-71 5.2032535981484352e-71 1.7174175537468025e-71 -6.1177554038440139e-52 -1.8420632241127343e-50 9.4616875526699577e-51 -3.0882241392950448e-60 2.0039849625364587e-60 6.072790038228457e-61 0.00085335230033176731 -9.6945961663102517e-05 -0.00029746988869099576 -1.5337517722850569e-06 3.2515361547905859e-08 6.4618381069662963e-07 -0.098267487780719351 0.012289928953673569 0.02491414629914877 3.1146432674050804 -0.42591918116767669 -0.6895108913025465 5069.6566174353293 738.94277106515585 994.70648347313681 693.01246103148321 -103.06538092518424 -141.57986006441288 -76.676604116271051 6.2597076136786782 9.1877049039517509 -2.2830912480807258e-15 -3.5922430857945096e-15 6.3754515948659926e-15 2.8666589771002315e-10 4.2303080684779046e-11 -1.9569205739714091e-10 -3.48997777579136e-20 2.4893396261135278e-20 -1.7491954683137136e-20 4.9841720272717975e-26 -1.5683351404514009e-26 -7.1142227755430538e-28 3.6033463634289665e-41 2.6409186205870767e-42 -1.4087785588026647e-41 -4.9121786837424204e-33 7.7128995585312157e-34 9.9846837535867136e-34 1.5497257815466289e-46 4.5596400359409626e-46 -1.3401417879569248e-45 -1.1780183749857161e-55 2.3777209459409221e-56 3.6155987558806191e-55 -3.9040824923487208e-66 -8.7828193173830432e-66 4.3723033569772139e-66 9.9760958946313264e-38 -1.6276053163622056e-37 2.4986491607713465e-37 -6.7072339304355308e-30 4.0151544418186112e-30 -7.7443186149752873e-31 2.9754746608354379e-23 -5.0704935457995426e-24 -2.8729287400104777e-23 -1.0325680776331082e-17 -3.9701100501504276e-18 2.92871223895096e-17 1.4196781187019562e-13 6.7507496358644439e-13 -2.503108916097732e-12 4.4397873259284011e-09 -8.3388555411050247e-09 2.2614600106103608e-08 -1.1945650340720275e-05 1.1035377777611675e-05 -2.7488542825724672e-05 736.67796516515978 -189.32451396056231 991.78836233599668 5069.6757947772621 994.73536136381597 5707.3853092816344 -86.611857085874135 15.889903542863868 -118.15479354975095 4.2883935883932756 -1.6997282739835644 6.1830729444598793 0.003133567577344596 -0.0022537441364102683 0.0054947969960909221 -0.19539802738127671 0.098861494059290844 -0.29727965962527025 -6.4239934022872923e-81 1.9136969002158909e-81 1.857246583389625e-82 -3.5621444870898967e-70 8.1315548748246572e-71 1.6263845583393766e-71 1.0954476894407827e-60 9.6228498593032662e-60 -2.5186008683408342e-60 -1.8587504668990887e-49 1.3710451667998733e-50 4.2264707333325155e-50 -7.2228917269583024e-33 4.3909419622409554e-33 -1.5935653962146445e-33 1.5149025831485109e-40 -4.495880667742949e-41 -1.3067376726200779e-41 -6.5179538191083725e-27 -3.5897454113989827e-26 4.3473185238391063e-26 1.1424734069677462e-19 2.484208516780808e-20 -7.9513121107239329e-20 -3.1882543320248001e-14 -9.1112986405578933e-17 1.4695763249947428e-14 8.1451164664462955e-10 -7.4047934930674066e-11 -3.2429653650850377e-10 -2.6548994860092342e-06 3.4235152372946394e-07 9.4279723538465886e-07 0.0012859306778472571 -0.00019063961100219533 -0.00042041007074613933 -0.14048449205593003 0.018479786734485634 0.035234352838759413 5707.4153478617936 994.68655441033184 1308.1502719113835 938.67754844851015 -137.99434159454006 -184.38708514435103 -104.83192988835135 8.5903681412964072 12.147014184907636 4.3926186516881414 -0.5934671380672315 -0.94885362110089666 -1.4742349068000966e-65 -1.7666668921395685e-65 -6.3366422022509744e-66 -1.972817023874058e-55 -7.2377063064977847e-55 1.1510046640258644e-54 -1.3433545015592902e-45 1.7343290758607213e-45 -8.6548130247795074e-46 5.596962694595852e-37 -1.9661068685082247e-37 -4.2544329098362202e-37 -1.3465896381539499e-29 -2.6303467900579577e-30 2.8944463942140819e-29 1.8107447703664538e-23 3.6998953979167749e-23 -1.4240456413757643e-22 9.198948843323447e-18 -2.5810549435842444e-17 7.2092367036908866e-17 -1.4621184706247e-12 1.7802820410296919e-12 -4.3847981698238836e-12 1.5745375049483016e-08 -1.4929699526010811e-08 3.4737088119934952e-08 -2.1377104125392e-05 1.7163012844189015e-05 -4.0392360871817437e-05 0.0047281052404470189 -0.0033049722235107032 0.0079872160378561159 -0.27779814608742015 0.13927435488848328 -0.42085293886710295 5.9579685626592491 -2.276835548969693 8.4123380437703812 991.80566324477138 -241.15984147310007 1304.8900525667352 5707.3239264834501 1308.2177318063823 5967.3993154537302 -117.25840126010326 20.464802763418973 -156.5094086457145 -9.1424853244135762e-87 -2.7067999201790102e-89 1.2371538888576718e-87 -9.0154266820749759e-76 -3.5929221968683191e-77 3.7205040127405662e-76 -2.7413810574948797e-98 1.6369939064625295e-99 1.4374064371297303e-99 -4.5268868132767574e-104 1.4681288704369676e-104 -1.6330360690548171e-105 -3.1411470155995838e-92 9.9232002370176492e-93 -1.3450864442077425e-94 3438.4055285325921 4273.1948748381237 4272.6927848490595 5072.6921062250085 5073.0174196503631 5710.3117381997727 5710.1395409832085 5969.2591855512474 5969.4632007086602 5639.6413120255074 5639.6956609579738 4580.2176408705182 4580.4769889865102 2912.9372107339327 2913.1291732376653 1164.0706428379513 5.8610284366319995e-98 1.5419046907741042e-99 -1.5906813140349134e-98 6.9419562881978803e-92 -2.1992402812108898e-92 -8.8869177198777415e-93 9.9870595207417275e-104 -3.159399660096989e-104 -8.1783086855127917e-105 1.9977927182578282e-70 -4.9956857398917853e-70 -2.7326073168959313e-71 1.2780782563043643e-80 -4.39837807118909e-81 -2.2930075542585624e-81 -140.51685766445553 11.547379852083418 15.625693109988855 1243.3453848584991 -180.42987579602641 -233.20408578686965 5967.5285799330532 1308.1138037857511 1677.687960413956 6.1012347903199391 -0.82731507440656615 -1.277344325392249 -0.20347744184259187 0.026905193038994718 0.050200181814089188 0.0019162272874104153 -0.00028784086929187365 -0.00062455995134813168 -3.9991172970144791e-06 5.643859774398945e-07 1.4120853000158724e-06 1.2823833467670503e-09 -1.7423097214313541e-10 -4.769874949699011e-10 -5.9007113601159368e-14 6.8896873047480345e-15 2.2053580024954031e-14 -2.4028043212843972e-25 -7.3234138926470769e-27 1.0554725442772578e-25 3.5070408212366905e-19 -2.5512254406161232e-20 -1.3629804355796808e-19 1.3693487637086423e-32 4.7522462007272373e-33 -9.1130269082768689e-33 4.2807227841304182e-41 -1.1246385962194993e-40 6.5954956667556452e-41 -3.8171586207773584e-49 1.9619682807233739e-49 6.550495191773387e-51 5.5549325664674123e-59 -7.7072501349937291e-60 -1.1099532772463394e-59 8.1305588345501381 -2.9719616233888093 11.201964172729516 -155.36715898425155 25.465887915729194 -202.00059367010604 1304.6463623840846 -296.74706263088689 1674.3550869120738 5967.4790876396401 1677.7505469812704 5639.4067380909082 0.0069895032664517359 -0.004844071382744568 0.0116886411186337 -0.39500648272306621 0.19375282318573481 -0.58673520751219743 -3.259102258965145e-05 2.5971554712085052e-05 -6.1108635042294099e-05 -2.9186475958575588e-12 2.8834095115050906e-12 -6.6355174237182357e-12 2.5478048117190132e-08 -2.3044116751317974e-08 5.2896296700385459e-08 -6.6094415203500421e-23 1.0479095762735803e-22 -2.5518413419982494e-22 4.2892353108521004e-17 -4.8733818176909095e-17 1.1287163849575947e-16 5.649621701559006e-37 5.3970226328311053e-37 -2.3250133251027596e-36 3.2452327505697181e-30 -2.5720353022772744e-29 7.2349691161401434e-29 1.1172461825476001e-54 -1.8365958128026984e-54 -5.4589361569039295e-55 -4.257498444009676e-45 4.9552524837375305e-46 6.6983601173881237e-45 1.3670408630044591e-65 8.2139281982442587e-65 -2.1979048609184352e-65 1.4454659883837649e-75 6.748807569772867e-76 -1.1481159158386895e-75 1.8882935306254669e-86 2.3576294276290939e-87 -8.7659683803579586e-87 -0.29117196984361432 0.038962357073443393 0.070345510837105121 8.3242637410309168 -1.1325226607660093 -1.677156333911157 -183.93218991960998 15.143781778000159 19.434435334275939 1607.9332261810564 -229.25313921916739 -284.90411027959522 5639.535075308484 1677.6145855163193 2087.8772931735575 -6.1547423385637502e-06 8.70050566038753e-07 2.1647554805953501e-06 0.0028649246802909993 -0.00043432890325909799 -0.00092401062349767066 1.9876631240734914e-09 -2.7430943485332591e-10 -7.4285476814906677e-10 -9.1145206828510165e-14 1.207384944943804e-14 3.3899557677695028e-14 5.6589310448040002e-19 -7.2303575765008037e-20 -2.0308140445526809e-19 -4.69138803130995e-25 5.1620873266563458e-26 1.5964502822385893e-25 4.8039842508973439e-32 -2.7160092065151256e-33 -1.6066547300803956e-32 -5.0389059627619495e-40 -4.9111544120766659e-41 1.854827794598933e-40 8.3239337266640572e-59 -7.4601118563342342e-59 -3.1583481205270453e-61 2.3711225573943286e-49 2.9247310967357306e-49 -1.8211961859197362e-49 -6.5989458306207582e-37 1.8058757096688482e-36 -4.1596595767989412e-36 3.598469473615808e-29 -5.1218666661371434e-29 1.1324682361176766e-28 7.2608305410215037e-17 -7.6992539648108015e-17 1.7566622734741553e-16 -1.4966618324864025e-22 1.7409419693579102e-22 -3.8990457757764646e-22 -4.6107688960010433e-12 4.5243316953064493e-12 -1.0429300794809891e-11 3.9625544431274581e-08 -3.5812865173913028e-08 8.2115238022754343e-08 -200.61406814517861 30.328757594466996 -252.90187731671105 1673.7239404078348 -350.0758707264734 2085.0113945359954 5639.4470767379025 2087.9352378957942 4582.2132044623786 10.864009192411567 -3.7554634965277387 14.536463373021821 -0.55355986025365056 0.26455284775271121 -0.80327370289678224 0.010277653445019111 -0.0070306736861117745 0.016903276563277201 -4.9707111797275759e-05 3.9333367149967564e-05 -9.2229976647920225e-05 9.1164102708037901e-68 2.3985356433047183e-64 6.4191326201405521e-65 -2.332373039614574e-45 -6.0205772502219936e-45 1.7237805275480747e-44 3.2015843297596732e-54 9.6195619893692606e-56 -6.0051063310265706e-54 5.2607282709068127e-75 -4.7763483341618021e-77 -3.7833045472985776e-75 5.1121855411212019e-86 1.6826922617463427e-87 -1.2130405971743571e-86 5.7594830328241017e-70 -4.6914654445771779e-70 2.536845806787272e-71 3.7214985385758322e-80 -1.0103259277382375e-80 -2.7939488980857458e-81 1.7535087979879681e-91 -5.6050468541796084e-92 -5.1152810225057872e-93 2.5127156636528829e-103 -8.2266201198519156e-104 1.9484457891367593e-105 1.5215220230095012e-97 -5.2396470080018602e-99 -1.792610209607275e-98 -5.9719868302292901e-104 1.4111256330434399e-104 5.1558328617259363e-105 -4.4131257260472593e-92 9.4472891542345532e-93 4.8725497550764055e-93 -5.1614436515349515e-70 2.0787461808155996e-69 -2.7321105662484322e-70 1.9748600978171712e-81 9.7600540056388745e-82 1.7002901889995449e-82 -0.41057916591410504 0.055391646140325081 0.097653462603180238 11.119178457807561 -1.512466169730238 -2.1664013691752277 -234.20324303649591 19.258476199391254 23.430779566153394 2020.624364358232 -281.51154115123245 -334.11353913082371 4582.3759758933893 2087.7699941529963 2508.5289351253559 -9.4320333646240811e-06 1.3454799304103569e-06 3.3000707814138156e-06 0.0042371573836867066 -0.00064832312555120769 -0.0013567398244746433 3.1203571265380829e-09 -4.3243540058736171e-10 -1.1620300370723902e-09 -1.4474810047527638e-13 1.9041616372565743e-14 5.3896202682981047e-14 8.9208170406959965e-19 -1.1563075566784203e-19 -3.2292248876242774e-19 -7.3136938904668059e-25 9.5495189900015185e-26 2.4634666242344571e-25 7.8929603655207748e-32 -1.0178354885992511e-32 -2.3606460151658746e-32 -1.0665116884952428e-39 1.1165644211227308e-40 2.7572312844285454e-40 -1.0432122875294842e-58 -8.3365676910028987e-59 3.6714327130518837e-59 1.5015556111850156e-48 2.7874983889162761e-51 -3.5473521571731017e-49 1164.1579595195872 13.964075341777853 -7.5180538268286478e-05 5.9124961935965376e-05 -0.00013840472062673088 0.014915749855252729 -0.010100997579636882 0.024308849485256672 -0.76211990643774008 0.35555990903148182 -1.0910027876947246 14.159592232806951 -4.606563636055685 18.480922073610184 -251.30501846357143 34.38386815750221