<?xml version="1.0"?>
<VTKFile type="UnstructuredGrid" version="0.1" byte_order="LittleEndian">
<UnstructuredGrid>
<Piece NumberOfPoints="1160" NumberOfCells="390">
<Points>
<DataArray type="Float64" NumberOfComponents="3" format="ascii">
0 0 0 0.10000000000000001 0 0 0 0.02712913039350634 0 0 0.037627845084982139 0 0.10000000000000001 0.037627845084982139 0 0 0.037627845084982139 0 0 0.052147564491031792 0 0.10000000000000001 0.052147564491031792 0 0 0.019537864299142921 0 0 0.02712913039350634 0 0.10000000000000001 0.02712913039350634 0 0 0.014048877707311129 0 0 0.019537864299142921 0 0.10000000000000001 0.019537864299142921 0 0 0.01007997645382676 0 0 0.014048877707311129 0 0.10000000000000001 0.014048877707311129 0 0 0.0072101992457088487 0 0 0.01007997645382676 0 0.10000000000000001 0.01007997645382676 0 0 0.0051351601405289276 0 0 0.0072101992457088487 0 0.10000000000000001 0.0072101992457088487 0 0 0.0036347696815094469 0 0 0.0051351601405289276 0 0.10000000000000001 0.0051351601405289276 0 0 0.001765447234118425 0 0 0.0025498882091243972 0 0.10000000000000001 0.0025498882091243972 0 0 0.0025498882091243972 0 0 0.0036347696815094469 0 0.10000000000000001 0.0036347696815094469 0 0 0 0 0 1.0000000000000001e-05 0 0.10000000000000001 1.0000000000000001e-05 0 0 1.0000000000000001e-05 0 0 0.0001221058858762623 0 0.10000000000000001 0.0001221058858762623 0 0 0.0001221058858762623 0 0 0.00027714824767246312 0 0.10000000000000001 0.00027714824767246312 0 0 0.00027714824767246312 0 0 0.00049157175393484403 0 0.10000000000000001 0.00049157175393484403 0 0 0.00049157175393484403 0 0 0.00078811928474293897 0 0.10000000000000001 0.00078811928474293897 0 0 0.00078811928474293897 0 0 0.001198244413521618 0 0.10000000000000001 0.001198244413521618 0 0 0.001198244413521618 0 0 0.001765447234118425 0 0.10000000000000001 0.001765447234118425 0 0 0.0036347696815094469 0 0.10000000000000001 0.0051351601405289276 0 0.10000000000000001 0.0036347696815094469 0 0 0.0051351601405289276 0 0.10000000000000001 0.0072101992457088487 0 0.10000000000000001 0.0051351601405289276 0 0 0.0025498882091243972 0 0.10000000000000001 0.0036347696815094469 0 0.10000000000000001 0.0025498882091243972 0 0 0.001765447234118425 0 0.10000000000000001 0.0025498882091243972 0 0.10000000000000001 0.001765447234118425 0 0 0.001198244413521618 0 0.10000000000000001 0.001765447234118425 0 0.10000000000000001 0.001198244413521618 0 0 0.00078811928474293897 0 0.10000000000000001 0.001198244413521618 0 0.10000000000000001 0.00078811928474293897 0 0 0.00049157175393484403 0 0.10000000000000001 0.00078811928474293897 0 0.10000000000000001 0.00049157175393484403 0 0 0.00027714824767246312 0 0.10000000000000001 0.00049157175393484403 0 0.10000000000000001 0.00027714824767246312 0 0 1.0000000000000001e-05 0 0.10000000000000001 0.0001221058858762623 0 0.10000000000000001 1.0000000000000001e-05 0 0 0 0 0.10000000000000001 1.0000000000000001e-05 0 0.10000000000000001 0 0 0 0.0001221058858762623 0 0.10000000000000001 0.00027714824767246312 0 0.10000000000000001 0.0001221058858762623 0 0 0.01007997645382676 0 0.10000000000000001 0.014048877707311129 0 0.10000000000000001 0.01007997645382676 0 0 0.0072101992457088487 0 0.10000000000000001 0.01007997645382676 0 0.10000000000000001 0.0072101992457088487 0 0 0.014048877707311129 0 0.10000000000000001 0.019537864299142921 0 0.10000000000000001 0.014048877707311129 0 0 0.019537864299142921 0 0.10000000000000001 0.02712913039350634 0 0.10000000000000001 0.019537864299142921 0 0 0.02712913039350634 0 0.10000000000000001 0.037627845084982139 0 0.10000000000000001 0.02712913039350634 0 0 0.037627845084982139 0 0.10000000000000001 0.052147564491031792 0 0.10000000000000001 0.037627845084982139 0 0 0.052147564491031792 0 0.10000000000000001 0.072228323778986164 0 0.10000000000000001 0.052147564491031792 0 0 0.072228323778986164 0 0.10000000000000001 0.10000000000000001 0 0.10000000000000001 0.072228323778986164 0 0 0.052147564491031792 0 0 0.072228323778986164 0 0.10000000000000001 0.072228323778986164 0 0 0.072228323778986164 0 0 0.10000000000000001 0 0.10000000000000001 0.10000000000000001 0 0.20000000000000001 0.052147564491031792 0 0.20000000000000001 0.072228323778986164 0 0.29999999999999999 0.072228323778986164 0 0.20000000000000001 0.072228323778986164 0 0.20000000000000001 0.10000000000000001 0 0.29999999999999999 0.10000000000000001 0 0.10000000000000001 0.072228323778986164 0 0.10000000000000001 0.10000000000000001 0 0.20000000000000001 0.10000000000000001 0 0.10000000000000001 0.052147564491031792 0 0.10000000000000001 0.072228323778986164 0 0.20000000000000001 0.072228323778986164 0 0.10000000000000001 0.072228323778986164 0 0.20000000000000001 0.10000000000000001 0 0.20000000000000001 0.072228323778986164 0 0.10000000000000001 0.037627845084982139 0 0.20000000000000001 0.052147564491031792 0 0.20000000000000001 0.037627845084982139 0 0.10000000000000001 0.052147564491031792 0 0.20000000000000001 0.072228323778986164 0 0.20000000000000001 0.052147564491031792 0 0.10000000000000001 0.037627845084982139 0 0.10000000000000001 0.052147564491031792 0 0.20000000000000001 0.052147564491031792 0 0.10000000000000001 0.02712913039350634 0 0.10000000000000001 0.037627845084982139 0 0.20000000000000001 0.037627845084982139 0 0.10000000000000001 0.019537864299142921 0 0.10000000000000001 0.02712913039350634 0 0.20000000000000001 0.02712913039350634 0 0.10000000000000001 0.014048877707311129 0 0.10000000000000001 0.019537864299142921 0 0.20000000000000001 0.019537864299142921 0 0.10000000000000001 0.0072101992457088487 0 0.10000000000000001 0.01007997645382676 0 0.20000000000000001 0.01007997645382676 0 0.10000000000000001 0.01007997645382676 0 0.10000000000000001 0.014048877707311129 0 0.20000000000000001 0.014048877707311129 0 0.10000000000000001 0 0 0.10000000000000001 1.0000000000000001e-05 0 0.20000000000000001 1.0000000000000001e-05 0 0.10000000000000001 1.0000000000000001e-05 0 0.10000000000000001 0.0001221058858762623 0 0.20000000000000001 0.0001221058858762623 0 0.10000000000000001 0.0001221058858762623 0 0.10000000000000001 0.00027714824767246312 0 0.20000000000000001 0.00027714824767246312 0 0.10000000000000001 0.00027714824767246312 0 0.10000000000000001 0.00049157175393484403 0 0.20000000000000001 0.00049157175393484403 0 0.10000000000000001 0.00049157175393484403 0 0.10000000000000001 0.00078811928474293897 0 0.20000000000000001 0.00078811928474293897 0 0.10000000000000001 0.001198244413521618 0 0.10000000000000001 0.001765447234118425 0 0.20000000000000001 0.001765447234118425 0 0.10000000000000001 0.00078811928474293897 0 0.10000000000000001 0.001198244413521618 0 0.20000000000000001 0.001198244413521618 0 0.10000000000000001 0.001765447234118425 0 0.10000000000000001 0.0025498882091243972 0 0.20000000000000001 0.0025498882091243972 0 0.10000000000000001 0.0025498882091243972 0 0.10000000000000001 0.0036347696815094469 0 0.20000000000000001 0.0036347696815094469 0 0.10000000000000001 0.0036347696815094469 0 0.10000000000000001 0.0051351601405289276 0 0.20000000000000001 0.0051351601405289276 0 0.10000000000000001 0.0051351601405289276 0 0.10000000000000001 0.0072101992457088487 0 0.20000000000000001 0.0072101992457088487 0 0.10000000000000001 0.0025498882091243972 0 0.20000000000000001 0.0036347696815094469 0 0.20000000000000001 0.0025498882091243972 0 0.10000000000000001 0.001765447234118425 0 0.20000000000000001 0.0025498882091243972 0 0.20000000000000001 0.001765447234118425 0 0.10000000000000001 0.001198244413521618 0 0.20000000000000001 0.001765447234118425 0 0.20000000000000001 0.001198244413521618 0 0.10000000000000001 0.00049157175393484403 0 0.20000000000000001 0.00078811928474293897 0 0.20000000000000001 0.00049157175393484403 0 0.10000000000000001 0.00078811928474293897 0 0.20000000000000001 0.001198244413521618 0 0.20000000000000001 0.00078811928474293897 0 0.10000000000000001 1.0000000000000001e-05 0 0.20000000000000001 0.0001221058858762623 0 0.20000000000000001 1.0000000000000001e-05 0 0.10000000000000001 0 0 0.20000000000000001 1.0000000000000001e-05 0 0.20000000000000001 0 0 0.10000000000000001 0.0001221058858762623 0 0.20000000000000001 0.00027714824767246312 0 0.20000000000000001 0.0001221058858762623 0 0.10000000000000001 0.00027714824767246312 0 0.20000000000000001 0.00049157175393484403 0 0.20000000000000001 0.00027714824767246312 0 0.10000000000000001 0.0051351601405289276 0 0.20000000000000001 0.0072101992457088487 0 0.20000000000000001 0.0051351601405289276 0 0.10000000000000001 0.0036347696815094469 0 0.20000000000000001 0.0051351601405289276 0 0.20000000000000001 0.0036347696815094469 0 0.10000000000000001 0.01007997645382676 0 0.20000000000000001 0.014048877707311129 0 0.20000000000000001 0.01007997645382676 0 0.10000000000000001 0.0072101992457088487 0 0.20000000000000001 0.01007997645382676 0 0.20000000000000001 0.0072101992457088487 0 0.10000000000000001 0.02712913039350634 0 0.20000000000000001 0.037627845084982139 0 0.20000000000000001 0.02712913039350634 0 0.10000000000000001 0.019537864299142921 0 0.20000000000000001 0.02712913039350634 0 0.20000000000000001 0.019537864299142921 0 0.10000000000000001 0.014048877707311129 0 0.20000000000000001 0.019537864299142921 0 0.20000000000000001 0.014048877707311129 0 0.20000000000000001 0.02712913039350634 0 0.20000000000000001 0.037627845084982139 0 0.29999999999999999 0.037627845084982139 0 0.20000000000000001 0.037627845084982139 0 0.20000000000000001 0.052147564491031792 0 0.29999999999999999 0.052147564491031792 0 0.20000000000000001 0.019537864299142921 0 0.20000000000000001 0.02712913039350634 0 0.29999999999999999 0.02712913039350634 0 0.20000000000000001 0.014048877707311129 0 0.20000000000000001 0.019537864299142921 0 0.29999999999999999 0.019537864299142921 0 0.20000000000000001 0.01007997645382676 0 0.20000000000000001 0.014048877707311129 0 0.29999999999999999 0.014048877707311129 0 0.20000000000000001 0.0072101992457088487 0 
[...]
<PointData Scalars="Ba-133_conc,region_id," Vectors="" Tensors="">
<DataArray type="Float64" Name="Ba-133_conc" format="ascii">
2967.830351523191 3040.4655493962387 -3.6551318945453282e-71 7.1095987381217513e-72 -2.9338052963185381e-72 -6.9508908615620247e-82 2.0255877983158908e-82 -6.937099371885605e-83 -4.4362766578485529e-61 2.2964299564730515e-61 -1.5908829704641065e-61 -8.4991180724045903e-51 5.2539345007069244e-51 8.8861731476119926e-53 1.0602811278798854e-42 -3.6455730659312991e-42 3.3130928120005528e-42 7.4628435987245773e-34 6.4126196708849291e-35 -4.1875688055183538e-34 -1.4337232774262111e-26 2.50491713617064e-27 2.9788358709235087e-27 2.0481144484213275e-20 -6.5531103205750047e-21 1.448508378038615e-21 -8.0987793593742355e-12 -2.1057050162712488e-11 4.7860766521258183e-11 -2.2864396493274915e-15 1.2713109643024217e-15 -1.3972772038533246e-15 2966.7174558080733 741.51591475086298 1029.5405524290338 707.01776894190073 -10.073074178067841 -130.43395459561856 -8.7083741521947395 -0.7610164132054944 4.7930976218951438 -0.32890919915398459 0.080732416573807933 -0.14853531981330048 0.017818606233050288 -0.002957433427811225 0.00099778736957394781 -0.000163591522102444 2.0395721226289452e-05 3.6516533912538781e-05 2.2192235218590952e-07 1.1671203523826312e-08 -1.4424447785055519e-07 4.7757534869789217e-18 -3.5727811683189817e-19 -7.5749052526068546e-18 -9.2462519862524463e-24 4.3143233430113065e-24 2.3282577082873934e-24 -1.7706389270698872e-13 -1.1648039513325763e-13 7.3829313331500144e-13 -5.4574299921335304e-10 1.7936882825500891e-09 -6.3814992770453142e-09 2.8188526896361074e-06 -2.2364824121226256e-06 4.897951664511244e-06 -0.00074164408511475548 0.00029492947769770266 0.00010581813401020451 0.034670526104569097 -0.001301303982711353 -0.071987732627055517 -0.40697899182804786 -0.22794171212695891 3.7035375181852932 739.99972002029176 -156.58351641550018 1028.615647412026 2966.7179795581014 1029.520968430583 3039.7687382909844 -9.7881644870733009 6.2738089015464089 -117.3644066075763 4.4581403282205806e-39 3.8940633666292235e-38 -1.2788937045874849e-37 1.2960054428685257e-30 -1.5052752152441164e-30 2.4374671080310011e-30 -1.0606642887734926e-46 -3.22244973384033e-47 4.1422261593686332e-46 4.1566946733571656e-57 -4.1989504701406598e-56 -2.3400992672580025e-56 -1.6296275570996585e-66 -4.1240640599203119e-67 -1.8503652773299889e-66 -8.3081651430231355e-77 4.19935930232838e-78 -1.8247880328692467e-77 -1.1383885709483153e-87 1.2704367822253419e-88 -1.8661527510344721e-88 -4.2066847190010208e-99 5.7550987630868097e-100 -6.4812594378151749e-100 -4.3889744327060499e-93 1.3222098881750597e-93 -4.6790353432584827e-94 -7.6627541689273949e-105 2.3912390266168295e-105 -9.1416157599894599e-106 5.9317292449741326e-91 -1.8167990217529978e-91 4.9206237471616927e-92 1.0293996100924369e-102 -3.2636709735482244e-103 1.0420947683928862e-103 1.9469689243391007e-103 -6.3151667806275765e-104 -1.5808762997412226e-104 1.1341313523699802e-91 -3.6453778796402518e-92 -1.4830861012604318e-92 1.0512645913271358e-97 3.6246149776897498e-99 -3.0415890595534934e-98 2.0564406094835972e-75 7.8082695708253804e-76 -1.4736099844469418e-75 2.8371327592527829e-86 4.2494866612764167e-87 -1.3024641646958176e-86 1.8632850763315887e-80 -6.1331829077347466e-81 -3.2355723017586606e-81 8.6410932467494062e-70 -3.3953024278978393e-70 -1.5932898371165655e-70 1.0487627948064036e-59 -1.1144531013926132e-59 -2.0671789004954487e-60 7.7938758827994385e-50 4.2321001840693828e-50 -5.111054162247871e-50 1.522447290023755e-32 -5.6045397512846532e-33 8.2801342044343478e-34 -1.815022472042561e-40 3.2885102118477072e-41 3.6042924028531103e-41 3039.8109973590522 1029.4809821909507 1221.6474247979572 1001.6121171861287 -128.7767151518064 -151.01555786745163 -111.13514554243936 3.7460802446462007 10.368336808109952 2.9649730170880977 -0.014036096924531258 -0.95365319032962292 -0.034046936850318246 -0.0093414396846795422 0.038218753372552663 2.138345730137603e-06 -6.4900977810803784e-07 3.1932847970755471e-07 -0.00024142711882987176 0.00024394846947518975 -0.00034365503728064971 -9.1934668166720965e-10 1.6235028453050729e-10 1.4291709161672114e-10 3.4405855918309708e-14 -6.5664757780545234e-16 -1.6052501707932841e-14 -7.6252083889642605e-20 -4.3766680717541413e-20 1.0646336127308103e-19 -6.9265351720255355e-26 5.728829560518707e-26 -5.5696581067064902e-26 2.5445033496377735e-12 -1.9590488930238758e-12 2.7750984748444841e-12 -2.4790580675603761e-08 8.6558475381736549e-09 9.7237207953278095e-09 2.1029795149538374e-05 1.1281801571713287e-06 -3.5999081919633246e-05 -0.043526453242369791 0.090486459365703903 -0.53200257366094206 -0.00111414116891531 -0.0014485601052824856 0.010361902270432601 1027.9832082145685 -176.4993596716709 1220.6259130711871 3039.8158796515704 1221.6416902723768 2983.6938324447719 -117.15177046809518 14.049782606702349 -138.59364984403226 3.2801870332992245 -1.6072822543446816 8.3903367348224798 -4.1957489652846971e-23 -4.5166614282180293e-23 2.2672522540602418e-22 -1.460192659716197e-17 3.3550704508315638e-17 -9.634465168782233e-17 -6.9446512477512797e-37 4.32038691530992e-37 3.3158179725401186e-37 2.3216675344843843e-29 -4.336524356919294e-31 -4.4486393060878741e-29 3.3698863785920336e-65 4.4533653028307073e-65 -3.3402295118573359e-65 4.0885158107605557e-55 3.6098003736532652e-55 -2.0536830398003984e-54 6.0801904331427221e-46 -2.3889136396604648e-45 3.5440543815788914e-45 5.3066896753363619e-69 -9.6691433731316079e-70 1.6786663586543416e-70 9.6577523464431605e-80 -2.8362284348003207e-80 6.3889516083329617e-81 -6.4166911675131849e-60 -5.9848384017780103e-59 3.1983621583854696e-59 1.6232014329634335e-48 -5.8905240523725426e-49 -1.7894120948834206e-49 -5.9808578319359762e-40 5.1289044453899602e-40 -2.5102505823020055e-40 -3.6954336930058386e-32 -2.3699491647721958e-32 4.1526490540426967e-32 9.8460605641325581e-25 -1.1228302341821098e-26 -4.1099445277108852e-25 -1.4619691128133602e-18 2.5835576472935346e-19 2.6035994225487951e-19 -1.1488897144148872e-09 1.1191722617938842e-09 -1.1933482165356838e-09 1.7731230836192135e-13 -5.8962836936912505e-14 1.4643982410626566e-14 2983.709142328632 1221.6069074547861 1426.2212175587931 1194.8364980453546 -149.13596504702377 -170.25055708122238 -132.31989400663878 10.326633234732856 11.098002232194057 7.1266607560879365 -0.78576169164386178 -1.1728402866646281 -0.32111662126567453 0.014409139823161405 0.074257417874682929 -2.6658363669761072e-06 -1.712620275244555e-06 4.5166574537729642e-06 0.0029328747757961788 0.00015147265955532416 -0.001575295278266635 1.644452836645586e-44 -4.8321835528982227e-45 -3.2799207900372535e-44 -2.6000965069987575e-55 7.9606944281911787e-54 -3.001926613120847e-54 2.2890298143545382e-64 6.529073599078809e-65 1.7937739392948727e-64 -2.8943280882072496e-36 -2.3903936053196909e-36 1.2639757331886095e-35 -2.8414456977715101e-29 1.2152086249141228e-28 -3.317912397097246e-28 4.5391116900638163e-22 -4.2333711415097155e-22 6.1053627458461134e-22 -2.7151630028537206e-16 1.147970899629379e-16 4.9719282457373818e-17 1.3046817227762449e-11 -4.895748886802277e-13 -1.7122041093597445e-11 -4.1489690768481941e-08 -3.1239452983819608e-08 1.9151656373445389e-07 -6.1522445521335195e-06 5.1234937973733675e-05 -0.00019143466035220725 1220.1530176959272 -193.43825727247767 1425.5045922821319 2983.6918233868846 1426.211882422878 2785.3783821363036 -137.69675927218103 14.506917857740255 -159.04202723570069 8.2850145030140165 -2.0156556626119553 9.649231452556144 -0.4907185852681194 0.20638726533555837 -0.7065602637390298 0.0071640185109557346 -0.008186329573441866 0.022620696381993492 1.5657164372588615e-85 -1.2941276470574147e-86 1.2592322570376347e-86 1.20298474377755e-74 -3.8595558019251975e-76 3.6264431073477074e-77 5.6978785504520295e-97 -6.6950143177597577e-98 5.7064444395796412e-98 -4.5106188928169781e-90 1.452218216701914e-90 5.8266972339300587e-91 -7.7398278510133558e-102 2.4984132909728326e-102 6.2563677149991458e-103 -4.1919289017974569e-96 -1.3328382237394523e-97 1.1952979628972156e-96 -1.1348403817752171e-84 -1.6161096532347265e-85 5.2290126700159676e-85 -8.1536828525285408e-74 -2.9683150788091546e-74 6.3080082579527327e-74 -7.3151107684623767e-79 2.4660668820735489e-79 1.2702132418974244e-79 -2.6259039782147635e-68 1.5164435156340218e-68 4.9745045276886174e-69 -2.7754044323719679e-49 -3.3757805022503398e-48 1.7831943441991013e-48 -7.2131924250798252e-58 4.7528097287843655e-58 1.3930283001164264e-58 0.0073481207210263138 -0.0009437698789170057 -0.002211598320612379 -2.444864676767332e-05 9.1517043275822921e-07 9.3766534301979416e-06 -0.4460435061511831 0.060118425779322533 0.08722769777444786 8.3796049648039457 -1.0929114995296096 -1.2501784673892087 2785.4103761868796 1426.1710780223955 1633.1526245686234 1402.9759886413676 -168.56032549558981 -186.82113123267033 -153.88701425677979 11.438893027135883 12.059859100860089 -1.2037562767560577e-13 -1.3721250932144605e-13 2.5928114108542101e-13 7.8322304492641981e-09 9.1641128887758394e-10 -4.9877632728704078e-09 -1.8671859586177762e-18 1.4415367913462939e-18 -1.0828361999506332e-18 3.9897871149851035e-24 -1.2961815369913587e-24 -2.0541850547440854e-27 5.3110719149086346e-39 3.2789319245802821e-40 -2.0248180109142201e-39 -5.4180533914685421e-31 8.8713054357582768e-32 1.0596332962536003e-31 2.3833607427420553e-44 7.5919726140329483e-44 -2.1820323496565051e-43 -2.4631024013620398e-53 4.1910682203308092e-54 7.612446720225927e-53 -1.0393915037007417e-63 -2.2980993220590465e-63 1.1298345429275899e-63 1.3084501998282563e-35 -2.0517415159520034e-35 3.0445869129148616e-35 -6.4292334863988952e-28 3.7105407784575218e-28 -3.0735552588698369e-29 2.0343943175720548e-21 -2.9685804732115325e-22 -2.1252727982019064e-21 -4.7096958036728468e-16 -2.1550323316846923e-16 1.456269017338705e-15 2.4766192655575556e-12 2.2575520736880284e-11 -8.0812332086157367e-11 1.0215982224311937e-07 -1.6793784870150685e-07 4.3723133110182947e-07 -0.00014806492392538018 0.00012137934918693309 -0.0002902607968144267 1424.8683643790396 -205.1679006219241 1632.8911960699684 2785.4225019184883 1633.124647203618 2459.5709971822153 -158.10909278045131 14.635177614475298 -178.03579604327535 9.4852685919486586 -2.0737745145557436 10.993965807891209 0.02030489483022388 -0.012196139565881807 0.02936117258471671 -0.67745729006689748 0.24809414632048396 -0.82450062768014454 -2.232715364660223e-78 6.6327175663639184e-79 5.6954712612405432e-80 -1.0208573752432116e-67 2.2605981774174275e-68 4.3867618537148524e-69 3.1564865514544509e-58 2.2222851497790428e-57 -6.0356742760712675e-58 -3.4793592728555128e-47 2.9014097049186754e-48 7.7527427612777569e-48 -7.4941011680559729e-31 4.840212636416447e-31 -1.9339186712614498e-31 2.16646793638111e-38 -6.6435153417625138e-39 -1.6943950380446133e-39 -1.0569623319400705e-24 -2.8467540610849287e-24 3.6700049898789091e-24 7.1996193668515839e-18 1.2920283316153026e-18 -4.6714689327776693e-18 -1.3199184619131224e-12 2.1485203936916482e-14 5.6976795835125589e-13 2.0946540578796298e-08 -2.3109577891738384e-09 -7.6944425249704053e-09 -3.9024135809544726e-05 5.8706563623179231e-06 1.2345171518653851e-05 0.0098704482725576869 -0.001662413537019703 -0.002717231328544489 -0.54430631166076771 0.077698821327136347 0.10314183584308619 2459.5757892690817 1633.0925044229525 1828.307733683356 1616.2133135622098 -185.33799246791239 -198.23041235025602 -174.81162185384764 12.628177616455709 12.551696336862957 9.8782778627683552 -1.230366378032439 -1.3773580716417786 -3.8051789103240209e-63 -4.4411853192194518e-63 -1.740911830438937e-63 -3.9234159802177624e-53 -1.5285640320760475e-52 2.3554313849747753e-52 -2.2602801063736719e-43 2.8082432407598993e-43 -1.2076270863750982e-43 7.073254179698742e-35 -2.2964006189837276e-35 -5.896716592311394e-35 -1.2346413543265888e-27 -3.0672518006659656e-28 2.8528706498319063e-27 1.0115204912463413e-21 2.7087906006169113e-21 -9.9749746743256322e-21 5.509191234669108e-16 -1.2788381346796042e-15 3.4291333278573334e-15 -5.1499009704553129e-11 5.6557932487086588e-11 -1.328990835957013e-10 3.2844825562616109e-07 -2.800419327043084e-07 6.1601977894489074e-07 -0.00024237996181356724 0.00017055637993739699 -0.00038039953771167381 0.02688958389822842 -0.015476759628255466 0.036938341260227381 -0.80537570941881287 0.28449296928081047 -0.9758408148284835 10.850216408637316 -2.0545439424283574 12.142603155466587 1632.0897592257015 -209.02326180797152 1828.6399435247167 2459.5810651592419 1828.2678483729808 2038.2459735514426 -177.01713223706912 13.732097660757988 -193.22986166861423 -3.4961512153538823e-84 5.570479687174552e-88 4.4702094258664606e-85 -2.8470143600051898e-73 -9.584902397177584e-75 1.1495910731807717e-73 -1.2571303181256088e-95 7.7602088296792832e-97 5.9423955475433918e-97 -2.2640141061336466e-101 7.3425714033792439e-102 -8.7428678002297404e-103 -1.3161318665507686e-89 4.1556023809556085e-90 -9.6728382974934488e-92 3040.5997578765955 2984.0640751850465 2984.0206302554029 2785.2538087858356 2785.3294399898086 2459.0082297169297 2458.976347192397 2037.2598541661275 2037.285195165618 1572.480838920465 1572.4248345927767 1114.7083614624444 1114.6657739268419 699.30107045285331 699.20751403085126 333.060047674131 2.8267645582044972e-95 6.9866138646878665e-97 -7.5583718602696183e-96 3.0620805152695816e-89 -9.7040000857134287e-90 -3.8410565203066614e-90 5.2450457725257355e-101 -1.6607823617530298e-101 -4.1778401328477313e-102 6.5650395353219139e-68 -1.4729547001584689e-67 -8.723622297561164e-69 4.7033098589736638e-78 -1.612266273469668e-78 -8.2721344381604419e-79 -192.91516747802436 13.387275988927064 12.369947078172721 1820.4776389600379 -197.04082450806911 -202.25078671487654 2038.2486041590705 1828.2416636268408 2002.1489052834322 11.347426819515835 -1.3795755695121115 -1.4436685115100543 -0.67456067001559628 0.095807895299875434 0.12318128405371066 0.012989227332472552 -0.0022196211247668737 -0.0035446104404326852 -5.3185428395369647e-05 8.8233915018329583e-06 1.6600490793677831e-05 3.0524208813969621e-08 -4.8881071961957078e-09 -1.0308510716539537e-08 -2.3012388941613874e-12 3.173525288812373e-13 7.9343727531402111e-13 -2.0581287467490795e-23 -1.8561245633525485e-25 8.5377588328195076e-24 2.0803274897760828e-17 -1.9072191457379617e-18 -7.5792486531280359e-18 1.6667467767414881e-30 4.8400686161462046e-31 -1.0249960898336453e-30 3.980322254033426e-39 -1.6030245762173601e-38 1.0075503556348863e-38 -6.8802581489625171e-47 3.6900877119075e-47 4.5880900437493419e-49 1.3055840175872084e-56 -2.0068067165444211e-57 -2.576192810632061e-57 12.026117185726696 -1.8458543062888109 12.902170254341716 -192.15681066282139 11.541452665090455 -202.32487964382773 1827.6891360850943 -202.89657009736905 2003.174862167363 2038.2791600103096 2002.0890328560906 1573.7357632996634 0.034562388954065743 -0.019555954937899026 0.046854176463860489 -0.95789008200507431 0.31719274818648391 -1.123281030965195 -0.00033167395769041579 0.000230797338981896 -0.00051464120458308499 -9.5872870485854992e-11 8.5397738831527586e-11 -1.8534902493244171e-10 4.8941412904726151e-07 -3.954000222313295e-07 8.5323774016047075e-07 -5.1465790492916615e-21 7.2999901005415718e-21 -1.6998492853665744e-20 2.2192920410862972e-15 -2.2876790022489603e-15 5.0263220120851665e-15 6.5580854607398522e-35 7.4163337283485419e-35 -3.0028335747860976e-34 5.0712678281932984e-28 -2.5368565138660158e-27 6.8435379935821377e-27 2.397754572261097e-52 -3.7571270448234922e-52 -1.3977434124968612e-52 -6.9280182318295839e-43 5.1818206559173427e-44 1.1533306994091112e-42 3.8524630514216055e-63 2.1974479477129013e-62 -5.758154121674026e-63 4.8684203402105331e-73 2.1943940716786294e-73 -3.8207660920556081e-73 7.6183222374135023e-84 9.3346171497557673e-85 -3.4834832185411992e-84 -0.81895857139627315 0.1168134439541066 0.14254621557072797 12.641815058658265 -1.4824430365666392 -1.4231821903821646 -205.87834292974614 13.484095797708841 11.326273418140294 2005.8339319126208 -201.36763871882081 -197.05323235927793 1573.7105003940756 2002.0782306224091 2141.9277999053757 -7.4150942077436813e-05 1.232410092834657e-05 2.3005758061982331e-05 0.017156383743243537 -0.0029511865166217425 -0.0045954359759289081 4.3488307177358714e-08 -7.1128412192678708e-09 -1.4741366030526598e-08 -3.3059788725593363e-12 5.1828151506689316e-13 1.1275225552239585e-12 3.1634574273847051e-17 -4.7571712381216123e-18 -1.0506350955622313e-17 -3.8236812511876277e-23 4.9760215315437044e-24 1.2163423760935563e-23 5.4573936718053772e-30 -4.1425385255212066e-31 -1.7266351601232608e-30 -7.7566093482043397e-38 -5.3992843489933007e-39 2.7096411730791135e-38 1.8692230875992228e-56 -1.7676976656060771e-56 1.3312393262883273e-58 5.3057728591274537e-47 5.2537535648406901e-47 -3.532309834845174e-47 -1.0026526429690707e-34 2.3398843295553373e-34 -5.1441110565238311e-34 3.7484315679432862e-27 -4.8262268260974193e-27 1.0142323035367757e-26 3.5320862408619253e-15 -3.3813146519623239e-15 7.2812756703390531e-15 -1.089332028868266e-20 1.1478546139290161e-20 -2.4334364040671036e-20 -1.4067259516126581e-10 1.2403833858333449e-10 -2.6941800662494466e-10 6.9615438004146565e-07 -5.6147719603390844e-07 1.2098820796989034e-06 -201.21877218997719 7.9008862081121318 -203.19209277084951 2002.1025407311704 -185.54676067680691 2143.6844881635398 1573.7419024717544 2141.8563468350826 1116.1238669851159 12.832500604602899 -1.3935900520244835 13.067670048290044 -1.108755942766726 0.33787727555352587 -1.2515615597395719 0.044054923018448718 -0.024302919029269503 0.058312111685350589 -0.00045323112054335471 0.00031234897673535151 -0.00069385486343090657 3.2987555417373259e-64 6.2105186848179977e-62 1.7013930937022504e-62 -3.1850161702652507e-43 -1.050874503293331e-42 2.8484793363908163e-42 6.6381104676484877e-52 6.1221797958715295e-53 -1.2936932854674613e-51 1.6988502031728943e-72 -2.1721207381292167e-74 -1.2148756937176389e-72 1.9935854051820512e-83 6.3797288289775627e-85 -4.6632405516614121e-84 1.7763655955474905e-67 -1.3142628927622319e-67 6.1264754762774079e-69 1.3213183873297984e-77 -3.5830042326223083e-78 -9.7221628402840962e-79 7.4895561452629156e-89 -2.3946648363567219e-89 -2.0830767329109667e-90 1.2798533469953001e-100 -4.1924524654961674e-101 1.1441928949122358e-102 7.1088974611196842e-95 -2.5030131673396887e-96 -8.2366148663211242e-96 -3.6617981695851134e-101 9.1868163864109192e-102 2.8635677517174168e-102 -2.2667561284765618e-89 5.2529258400142037e-90 2.385447432723345e-90 -1.4098327029072659e-67 6.1749458609429861e-67 -8.1414415371176984e-68 2.0010260573724135e-80 5.3564574783602686e-79 1.4926522887911694e-79 -0.97171214603382527 0.13856631274900397 0.16149755537753349 13.58040165147311 -1.5099114487328151 -1.3026553470713358 -211.40027824029482 12.69792808245232 9.2737123194371769 2158.6825658084194 -196.43098902030152 -181.40267087004008 1116.0896408865015 2141.8566883003482 2239.5144529100362 -0.00010283115570867836 1.725447773722407e-05 3.1640504122155623e-05 0.022326643595465972 -0.0038703080173379256 -0.0058854659819918198 6.2875713133913121e-08 -1.0327464246604814e-08 -2.1210848803186762e-08 -4.8870932520897638e-12 7.6222724978402417e-13 1.66823833306677e-12 4.6727322578200939e-17 -7.1715921480873793e-18 -1.5639125033520731e-17 -5.6255241760951668e-23 8.6439793514931609e-24 1.7600679360682118e-23 8.5409634583377112e-30 -1.2889010732023165e-30 -2.3873891982161531e-30 -1.56845053783263e-37 1.9681274870624782e-38 3.8312265730529447e-38 -2.7108110813339185e-56 -1.8732477897537296e-56 8.9640523650000508e-57 2.9197506897867226e-46 -6.6240525909691262e-48 -6.6107626760528673e-47 332.96245143109343 4.2599685530185694 -0.00061297000404763084 0.00041838119984978641 -0.0009274899624413164 0.055145420418909318 -0.029683088969864969 0.071849954701252175 -1.2438495722526028 0.34244573130258532 -1.3593985013475407 13.06344029737593 -0.66364575674745729 12.492238081910328 -202.05820948403496 2.7043332496744052 -194.12147103472557 1116.134572209437 2239.4359618812614 700.75182845262373 2142.53498215136