<?xml version="1.0"?>
<VTKFile type="UnstructuredGrid" version="0.1" byte_order="LittleEndian">
<UnstructuredGrid>
<Piece NumberOfPoints="1160" NumberOfCells="390">
<Points>
<DataArray type="Float64" NumberOfComponents="3" format="ascii">
0 0 0 0.10000000000000001 0 0 0 0.02712913039350634 0 0 0.037627845084982139 0 0.10000000000000001 0.037627845084982139 0 0 0.037627845084982139 0 0 0.052147564491031792 0 0.10000000000000001 0.052147564491031792 0 0 0.019537864299142921 0 0 0.02712913039350634 0 0.10000000000000001 0.02712913039350634 0 0 0.014048877707311129 0 0 0.019537864299142921 0 0.10000000000000001 0.019537864299142921 0 0 0.01007997645382676 0 0 0.014048877707311129 0 0.10000000000000001 0.014048877707311129 0 0 0.0072101992457088487 0 0 0.01007997645382676 0 0.10000000000000001 0.01007997645382676 0 0 0.0051351601405289276 0 0 0.0072101992457088487 0 0.10000000000000001 0.0072101992457088487 0 0 0.0036347696815094469 0 0 0.0051351601405289276 0 0.10000000000000001 0.0051351601405289276 0 0 0.001765447234118425 0 0 0.0025498882091243972 0 0.10000000000000001 0.0025498882091243972 0 0 0.0025498882091243972 0 0 0.0036347696815094469 0 0.10000000000000001 0.0036347696815094469 0 0 0 0 0 1.0000000000000001e-05 0 0.10000000000000001 1.0000000000000001e-05 0 0 1.0000000000000001e-05 0 0 0.0001221058858762623 0 0.10000000000000001 0.0001221058858762623 0 0 0.0001221058858762623 0 0 0.00027714824767246312 0 0.10000000000000001 0.00027714824767246312 0 0 0.00027714824767246312 0 0 0.00049157175393484403 0 0.10000000000000001 0.00049157175393484403 0 0 0.00049157175393484403 0 0 0.00078811928474293897 0 0.10000000000000001 0.00078811928474293897 0 0 0.00078811928474293897 0 0 0.001198244413521618 0 0.10000000000000001 0.001198244413521618 0 0 0.001198244413521618 0 0 0.001765447234118425 0 0.10000000000000001 0.001765447234118425 0 0 0.0036347696815094469 0 0.10000000000000001 0.0051351601405289276 0 0.10000000000000001 0.0036347696815094469 0 0 0.0051351601405289276 0 0.10000000000000001 0.0072101992457088487 0 0.10000000000000001 0.0051351601405289276 0 0 0.0025498882091243972 0 0.10000000000000001 0.0036347696815094469 0 0.10000000000000001 0.0025498882091243972 0 0 0.001765447234118425 0 0.10000000000000001 0.0025498882091243972 0 0.10000000000000001 0.001765447234118425 0 0 0.001198244413521618 0 0.10000000000000001 0.001765447234118425 0 0.10000000000000001 0.001198244413521618 0 0 0.00078811928474293897 0 0.10000000000000001 0.001198244413521618 0 0.10000000000000001 0.00078811928474293897 0 0 0.00049157175393484403 0 0.10000000000000001 0.00078811928474293897 0 0.10000000000000001 0.00049157175393484403 0 0 0.00027714824767246312 0 0.10000000000000001 0.00049157175393484403 0 0.10000000000000001 0.00027714824767246312 0 0 1.0000000000000001e-05 0 0.10000000000000001 0.0001221058858762623 0 0.10000000000000001 1.0000000000000001e-05 0 0 0 0 0.10000000000000001 1.0000000000000001e-05 0 0.10000000000000001 0 0 0 0.0001221058858762623 0 0.10000000000000001 0.00027714824767246312 0 0.10000000000000001 0.0001221058858762623 0 0 0.01007997645382676 0 0.10000000000000001 0.014048877707311129 0 0.10000000000000001 0.01007997645382676 0 0 0.0072101992457088487 0 0.10000000000000001 0.01007997645382676 0 0.10000000000000001 0.0072101992457088487 0 0 0.014048877707311129 0 0.10000000000000001 0.019537864299142921 0 0.10000000000000001 0.014048877707311129 0 0 0.019537864299142921 0 0.10000000000000001 0.02712913039350634 0 0.10000000000000001 0.019537864299142921 0 0 0.02712913039350634 0 0.10000000000000001 0.037627845084982139 0 0.10000000000000001 0.02712913039350634 0 0 0.037627845084982139 0 0.10000000000000001 0.052147564491031792 0 0.10000000000000001 0.037627845084982139 0 0 0.052147564491031792 0 0.10000000000000001 0.072228323778986164 0 0.10000000000000001 0.052147564491031792 0 0 0.072228323778986164 0 0.10000000000000001 0.10000000000000001 0 0.10000000000000001 0.072228323778986164 0 0 0.052147564491031792 0 0 0.072228323778986164 0 0.10000000000000001 0.072228323778986164 0 0 0.072228323778986164 0 0 0.10000000000000001 0 0.10000000000000001 0.10000000000000001 0 0.20000000000000001 0.052147564491031792 0 0.20000000000000001 0.072228323778986164 0 0.29999999999999999 0.072228323778986164 0 0.20000000000000001 0.072228323778986164 0 0.20000000000000001 0.10000000000000001 0 0.29999999999999999 0.10000000000000001 0 0.10000000000000001 0.072228323778986164 0 0.10000000000000001 0.10000000000000001 0 0.20000000000000001 0.10000000000000001 0 0.10000000000000001 0.052147564491031792 0 0.10000000000000001 0.072228323778986164 0 0.20000000000000001 0.072228323778986164 0 0.10000000000000001 0.072228323778986164 0 0.20000000000000001 0.10000000000000001 0 0.20000000000000001 0.072228323778986164 0 0.10000000000000001 0.037627845084982139 0 0.20000000000000001 0.052147564491031792 0 0.20000000000000001 0.037627845084982139 0 0.10000000000000001 0.052147564491031792 0 0.20000000000000001 0.072228323778986164 0 0.20000000000000001 0.052147564491031792 0 0.10000000000000001 0.037627845084982139 0 0.10000000000000001 0.052147564491031792 0 0.20000000000000001 0.052147564491031792 0 0.10000000000000001 0.02712913039350634 0 0.10000000000000001 0.037627845084982139 0 0.20000000000000001 0.037627845084982139 0 0.10000000000000001 0.019537864299142921 0 0.10000000000000001 0.02712913039350634 0 0.20000000000000001 0.02712913039350634 0 0.10000000000000001 0.014048877707311129 0 0.10000000000000001 0.019537864299142921 0 0.20000000000000001 0.019537864299142921 0 0.10000000000000001 0.0072101992457088487 0 0.10000000000000001 0.01007997645382676 0 0.20000000000000001 0.01007997645382676 0 0.10000000000000001 0.01007997645382676 0 0.10000000000000001 0.014048877707311129 0 0.20000000000000001 0.014048877707311129 0 0.10000000000000001 0 0 0.10000000000000001 1.0000000000000001e-05 0 0.20000000000000001 1.0000000000000001e-05 0 0.10000000000000001 1.0000000000000001e-05 0 0.10000000000000001 0.0001221058858762623 0 0.20000000000000001 0.0001221058858762623 0 0.10000000000000001 0.0001221058858762623 0 0.10000000000000001 0.00027714824767246312 0 0.20000000000000001 0.00027714824767246312 0 0.10000000000000001 0.00027714824767246312 0 0.10000000000000001 0.00049157175393484403 0 0.20000000000000001 0.00049157175393484403 0 0.10000000000000001 0.00049157175393484403 0 0.10000000000000001 0.00078811928474293897 0 0.20000000000000001 0.00078811928474293897 0 0.10000000000000001 0.001198244413521618 0 0.10000000000000001 0.001765447234118425 0 0.20000000000000001 0.001765447234118425 0 0.10000000000000001 0.00078811928474293897 0 0.10000000000000001 0.001198244413521618 0 0.20000000000000001 0.001198244413521618 0 0.10000000000000001 0.001765447234118425 0 0.10000000000000001 0.0025498882091243972 0 0.20000000000000001 0.0025498882091243972 0 0.10000000000000001 0.0025498882091243972 0 0.10000000000000001 0.0036347696815094469 0 0.20000000000000001 0.0036347696815094469 0 0.10000000000000001 0.0036347696815094469 0 0.10000000000000001 0.0051351601405289276 0 0.20000000000000001 0.0051351601405289276 0 0.10000000000000001 0.0051351601405289276 0 0.10000000000000001 0.0072101992457088487 0 0.20000000000000001 0.0072101992457088487 0 0.10000000000000001 0.0025498882091243972 0 0.20000000000000001 0.0036347696815094469 0 0.20000000000000001 0.0025498882091243972 0 0.10000000000000001 0.001765447234118425 0 0.20000000000000001 0.0025498882091243972 0 0.20000000000000001 0.001765447234118425 0 0.10000000000000001 0.001198244413521618 0 0.20000000000000001 0.001765447234118425 0 0.20000000000000001 0.001198244413521618 0 0.10000000000000001 0.00049157175393484403 0 0.20000000000000001 0.00078811928474293897 0 0.20000000000000001 0.00049157175393484403 0 0.10000000000000001 0.00078811928474293897 0 0.20000000000000001 0.001198244413521618 0 0.20000000000000001 0.00078811928474293897 0 0.10000000000000001 1.0000000000000001e-05 0 0.20000000000000001 0.0001221058858762623 0 0.20000000000000001 1.0000000000000001e-05 0 0.10000000000000001 0 0 0.20000000000000001 1.0000000000000001e-05 0 0.20000000000000001 0 0 0.10000000000000001 0.0001221058858762623 0 0.20000000000000001 0.00027714824767246312 0 0.20000000000000001 0.0001221058858762623 0 0.10000000000000001 0.00027714824767246312 0 0.20000000000000001 0.00049157175393484403 0 0.20000000000000001 0.00027714824767246312 0 0.10000000000000001 0.0051351601405289276 0 0.20000000000000001 0.0072101992457088487 0 0.20000000000000001 0.0051351601405289276 0 0.10000000000000001 0.0036347696815094469 0 0.20000000000000001 0.0051351601405289276 0 0.20000000000000001 0.0036347696815094469 0 0.10000000000000001 0.01007997645382676 0 0.20000000000000001 0.014048877707311129 0 0.20000000000000001 0.01007997645382676 0 0.10000000000000001 0.0072101992457088487 0 0.20000000000000001 0.01007997645382676 0 0.20000000000000001 0.0072101992457088487 0 0.10000000000000001 0.02712913039350634 0 0.20000000000000001 0.037627845084982139 0 0.20000000000000001 0.02712913039350634 0 0.10000000000000001 0.019537864299142921 0 0.20000000000000001 0.02712913039350634 0 0.20000000000000001 0.019537864299142921 0 0.10000000000000001 0.014048877707311129 0 0.20000000000000001 0.019537864299142921 0 0.20000000000000001 0.014048877707311129 0 0.20000000000000001 0.02712913039350634 0 0.20000000000000001 0.037627845084982139 0 0.29999999999999999 0.037627845084982139 0 0.20000000000000001 0.037627845084982139 0 0.20000000000000001 0.052147564491031792 0 0.29999999999999999 0.052147564491031792 0 0.20000000000000001 0.019537864299142921 0 0.20000000000000001 0.02712913039350634 0 0.29999999999999999 0.02712913039350634 0 0.20000000000000001 0.014048877707311129 0 0.20000000000000001 0.019537864299142921 0 0.29999999999999999 0.019537864299142921 0 0.20000000000000001 0.01007997645382676 0 0.20000000000000001 0.014048877707311129 0 0.29999999999999999 0.014048877707311129 0 0.20000000000000001 0.0072101992457088487 0 
[...]
<PointData Scalars="Ba-133_conc,region_id," Vectors="" Tensors="">
<DataArray type="Float64" Name="Ba-133_conc" format="ascii">
1866.2570018713047 1749.7420016250589 -2.950919818028363e-69 5.7701104403926561e-70 -2.3297228653131569e-70 -6.7433783315177673e-80 1.9664776566201971e-80 -6.6415605612057987e-81 -2.9409927932621121e-59 1.5322718103968027e-59 -1.0465680350903719e-59 -4.5496912473290794e-49 2.8030428673726164e-49 5.4261717082778036e-51 4.7442544568606531e-41 -1.554413239984377e-40 1.4033898660082667e-40 2.4444421561672961e-32 2.2055208759287026e-33 -1.3872223289496093e-32 -3.5831535422761092e-25 6.1787908873066741e-26 7.549237783794409e-26 3.7651110731299542e-19 -1.1940566327008143e-19 2.4593562770453526e-20 -4.729853087023301e-11 -1.7905669665039108e-10 3.9987634272877263e-10 -2.9819351352834356e-14 1.6287789412016942e-14 -1.7600376612092509e-14 1866.1676168817467 1044.0913345129891 1272.5381190156249 1033.8775825555992 -8.6790329254145231 -121.62196695314906 -9.240915307353383 -0.28438343207669309 2.5079350846753465 -0.39084256337228335 0.021221859311800716 -0.089676898606235261 0.025724242176122653 -0.003103473259281397 3.1786523364659635e-06 -0.00046047074426677867 4.6459414240659817e-05 0.00010926642061571369 1.1014513123677901e-06 7.6075754387603289e-08 -7.2756126868465433e-07 7.3897924957766637e-17 -6.1079085131106565e-18 -1.1509606993851249e-16 -1.9860310188583402e-22 9.3622757231752473e-23 4.588686964836241e-23 -1.9015679612566704e-12 -1.1765476238158678e-12 7.7126590335772727e-12 -2.9031382044998301e-09 1.1625736159711395e-08 -4.2385374044392188e-08 1.0066018799531598e-05 -8.222547848211917e-06 1.9995994567014934e-05 -0.0013341625470749245 0.00055065229439885447 -0.00011378008750378514 0.029323068693139439 -0.0032915473598810379 -0.084439831960619396 -0.42025201362238734 -0.059641336273237942 3.0468372801152133 1043.6075664099092 -126.77815637052103 1272.8550177293973 1866.1972308141465 1272.4973924426429 1749.8163124777188 -8.7618650111193297 1.9421169580446713 -119.07271307354817 1.7785578635506644e-37 1.4582728535936723e-36 -4.8178693455186463e-36 3.706534134699012e-29 -4.3513555916736885e-29 7.1140247639432317e-29 -5.0770642544720285e-45 -1.5057126472232286e-45 1.9745539183243422e-44 2.4235008604513717e-55 -2.5034575451602786e-54 -1.3613983749210785e-54 -1.1945948297751566e-64 -3.0651497761332929e-65 -1.3416568324187899e-64 -7.3636213899451931e-75 3.5772269786253218e-76 -1.5832494207155599e-75 -1.2047804805542012e-85 1.3312570816901136e-86 -1.9429958873370208e-86 -5.2613459774349766e-97 7.1638150265025918e-98 -8.0177799191352234e-98 -5.0563258445992514e-91 1.5236893083605524e-91 -5.3409577483096665e-92 -1.0383086542350111e-102 3.2406366802944793e-103 -1.2311234428300941e-103 6.6909343290074858e-89 -2.0479140390556834e-89 5.7534492284106131e-90 1.3675626926001409e-100 -4.3343983656138685e-101 1.4180255455160985e-101 2.6250281938797296e-101 -8.5137544204338561e-102 -2.1213048278156512e-102 1.2992058204540775e-89 -4.1754190744308021e-90 -1.693061867097569e-90 1.3080497912441378e-95 4.4653603022301509e-97 -3.7729659747786422e-96 1.8108155899141744e-73 6.8612836025574865e-74 -1.2940119569615032e-73 2.9852881493733193e-84 4.4559009730160942e-85 -1.366728176196699e-84 1.7958456989452742e-78 -5.9098680573477352e-79 -3.1093947855474491e-79 6.9312690761629528e-68 -2.7205889785644258e-68 -1.2739574627615002e-68 6.923191454945413e-58 -7.3352695926478734e-58 -1.3543028669545194e-58 4.1710735479914389e-48 2.2312535744925198e-48 -2.7179562892495691e-48 4.9766228749453087e-31 -1.8390515682435736e-31 2.8084835597342339e-32 -7.6704506868904638e-39 1.3977761553331904e-39 1.5118911452669668e-39 1749.7718352367019 1272.4959469475825 1382.9847401220425 1268.1996121448046 -120.48525960983199 -122.45408127366903 -120.06573116512897 2.6938154652502337 6.8728744878148849 3.0820347885081203 -0.048818827437045083 -0.67437260356120421 -0.059600100901505811 -0.0098584106552467073 0.046940521333856532 1.0425343712090735e-05 -3.1475478238566466e-06 1.6470342619320208e-06 -0.00065176136747566562 0.00059225838559541586 -0.00092133290630250176 -7.5766387322604753e-09 1.3477927459772565e-09 1.1179843863830221e-09 4.377579781620094e-13 -9.9411022835748306e-15 -1.9941361140531716e-13 -1.4143442590301505e-18 -7.7851913158374216e-19 1.9215150363257691e-18 -1.6857189613445075e-24 1.4141595782707011e-24 -1.3850322998696349e-24 2.630016802078456e-11 -1.9872905663789841e-11 2.7467026613570518e-11 -1.5799795911011491e-07 5.3272530372842151e-08 6.7853335235660583e-08 7.3402120684049545e-05 5.1833796558262271e-06 -0.00013940799303033337 -0.05843348257852192 0.064505427219582731 -0.62596347936188068 -0.0019878256011627714 -0.0026995406015384231 0.021005591915269163 1272.1955301548903 -123.33918692579331 1383.4580852190663 1749.7409791490475 1382.9656081042438 1591.3671320038559 -118.44686130665613 5.6411476528415427 -122.31249665955529 2.7180607408104045 -0.45859923097349808 7.3887531589459474 -8.7329584132900089e-22 -9.6782104850255986e-22 4.8170026403025217e-21 -2.2838511766946876e-16 5.0962401145494365e-16 -1.4477704062393614e-15 -2.5923694377580562e-35 1.6015085958541847e-35 1.2696870462420793e-35 6.6117742129300293e-28 -9.0687351750344318e-30 -1.2772601574429115e-27 2.4542296705639395e-63 3.2398541834150087e-63 -2.4168981439380035e-63 2.4207640578710116e-53 2.152371416581659e-53 -1.2155088119414419e-52 2.9146429147364309e-44 -1.1332419267168016e-43 1.6682005966303235e-43 4.1921981794772105e-67 -7.5342349470296529e-68 1.448638049750283e-68 9.1587252072341861e-78 -2.6852188853784678e-78 6.3879892078799865e-79 -4.7432806580236001e-58 -3.8750269662473202e-57 2.1127456793439782e-57 8.5916226296263325e-47 -3.1494102994762213e-47 -9.2759717780213463e-48 -2.4557290782799629e-38 2.1530178735905141e-38 -1.0734559034012383e-38 -1.2609753546111264e-30 -7.5963783311303222e-31 1.3607345717663513e-30 2.4653947884936929e-23 -4.3385580250596033e-25 -1.005851958577602e-23 -2.6414473404080887e-17 4.7910025149426792e-18 4.4896868477524001e-18 -8.6329944393168178e-09 9.1175423381100362e-09 -1.0189283325211011e-08 2.1973485337550352e-12 -7.4790882579343374e-13 2.1411375605353827e-13 1591.3875276936553 1382.9479642993404 1483.5210433011976 1383.2981404733848 -121.49707874847695 -119.61347612267956 -124.94188944115045 7.3686330770134356 5.7645954587780652 7.6786219925632748 -0.61181208837656587 -0.69827245181642084 -0.52260545428495764 0.022579577276722902 0.091055164354455584 -1.5272568570095291e-05 -8.0524672723303177e-06 2.2632984106527229e-05 0.0085447848041590932 0.00028474110537272457 -0.0041767512951150628 7.7834410345893754e-43 -2.1937183296091363e-43 -1.5721195743625327e-42 -1.7257224825975022e-53 4.6944565130414599e-52 -1.6760603369575586e-52 1.6438778777363897e-62 4.4829655046541294e-63 1.3213296584016836e-62 -1.0556405526209315e-34 -9.078937907817719e-35 4.7096233862714042e-34 -8.8379983593903898e-28 3.4857986177547179e-27 -9.3790809825336913e-27 9.8031652006673227e-21 -8.9288886801945136e-21 1.2466322442732642e-20 -4.1296304612681704e-15 1.6882587706450841e-15 9.5580035566830837e-16 1.3191406246728381e-10 -2.1932129076610639e-12 -1.8372270719107565e-10 -2.4854040813460965e-07 -2.1430466219645574e-07 1.2705414524086222e-06 -3.6688956163596316e-05 0.00019118769189007943 -0.00072685891846387401 1382.8575698765098 -115.49370204071407 1484.2919886515426 1591.4281482411598 1483.4807587861815 1410.608153296195 -121.53857868870696 3.4146417298837553 -121.90819746687667 7.4108880765980816 -0.35509052582653122 6.921795969792238 -0.58721597658741731 0.15075425051337521 -0.73428925023378067 0.015054568993680279 -0.014927037962452219 0.04473221531011836 1.6228991315369644e-83 -1.3933969528410917e-84 1.4249556229778812e-84 1.0437184171388938e-72 -3.9391774947850091e-74 1.3026586600517147e-74 6.9860181872252772e-95 -8.35122037209857e-96 7.3616329352158212e-96 -5.1998282450803644e-88 1.6735198263399924e-88 6.6351210210372382e-89 -1.0498520170504313e-99 3.3885611228546222e-100 8.348152447515818e-101 -5.2490199543112495e-94 -1.6102583495203728e-95 1.4815992327245982e-94 -1.2022787188342369e-82 -1.6906647825536916e-83 5.4881149059218543e-83 -7.2370292883168867e-72 -2.6085611809122739e-72 5.5491617754078569e-72 -7.098691810070859e-77 2.3905464847651169e-77 1.2193735255443373e-77 -2.1322784296084804e-66 1.21943907106705e-66 3.980780637823132e-67 -2.1690128119674432e-47 -1.772564707520932e-46 9.5761691625632105e-47 -4.7323935012305549e-56 3.1561929426033845e-56 9.0052394545499863e-57 0.020805601737113186 -0.0027446739658946021 -0.0053794300637050943 -0.00012692387317788409 5.925789809497658e-06 4.5101609373125636e-05 -0.65605245869127371 0.084529476495540462 0.090833871260506488 7.58913353959238 -0.72899654195274588 -0.50487443381083708 1410.5791117947576 1483.4777719529052 1567.9590629308268 1489.1937685235503 -118.71536207000489 -112.16980289613632 -126.45240637214522 6.3834818281463441 4.6416103307845695 -1.8046710720380823e-12 -1.68379716828703e-12 3.3381582809989471e-12 6.8091470325363045e-08 6.6214048533700672e-09 -4.1354830214715455e-08 -3.1538312139731605e-17 2.6001206181062544e-17 -2.0520507048833386e-17 9.7446591851767216e-23 -3.2462525429009394e-23 1.0403903115503599e-24 2.2713669318089142e-37 1.1995248160202359e-38 -8.4885033188670273e-38 -1.7764156746398734e-29 3.0033740205168571e-30 3.3660523973575857e-30 1.0679789353471561e-42 3.63704885099415e-42 -1.0267558444574672e-41 -1.4583516144521136e-51 2.1097033100086071e-52 4.5326243416135093e-51 -7.6728827909550302e-62 -1.6734427616402427e-61 8.1440190683851639e-62 5.0102686140272135e-34 -7.6177143653105286e-34 1.0989618189327492e-33 -1.8495847903577015e-26 1.0364236915468328e-26 9.5117801472837112e-29 4.2892232891329615e-20 -5.4214706671226102e-21 -4.7534127390470007e-20 -6.8458536567234354e-15 -3.5544522298333977e-15 2.265911784038088e-14 9.915643519700024e-12 2.4007714043203565e-10 -8.4043723974462252e-10 7.2628076743535497e-07 -1.1016307058302194e-06 2.7958107300231775e-06 -0.00058548507767079 0.00043758067107690517 -0.0010266924907998214 1483.6429113234817 -102.60585451805265 1569.0459647286591 1410.5793314841858 1567.9252972646525 1211.0381438316376 -121.08142561122344 1.0101124280009952 -117.17181473108174 6.9526850873457589 0.12593302468387016 6.3593493637548031 0.041902984086345629 -0.020362008657800131 0.051939401533242377 -0.72551917890759676 0.13698979566814773 -0.70225443921221764 -2.1170403699349098e-76 6.2741146716523916e-77 4.7896836781708277e-78 -8.0960787985366557e-66 1.7467316997610987e-66 3.2984989596001504e-67 2.3899785117483294e-56 1.4444140092903444e-55 -4.0410822895698944e-56 -1.8586096755152716e-45 1.6919259847944407e-46 4.074260580530395e-46 -2.3363919940978173e-29 1.5868703230992584e-29 -6.7976396376911438e-30 9.0476764364139329e-37 -2.8472293581990167e-37 -6.4831474973974089e-38 -3.6272103998787696e-23 -6.9064217061863611e-23 9.3419746324216925e-23 1.3796204290371459e-16 2.1320860921649282e-17 -8.5275448582089079e-17 -1.7212236570925942e-11 5.0006565175235872e-13 7.0824488473936425e-12 1.7492238744295613e-07 -2.1559441648717762e-08 -6.0401159803819702e-08 -0.00019062269594866845 3.1335716645055342e-05 5.4754900885636602e-05 0.025436258565929119 -0.0044879237081286195 -0.0058386791552977315 -0.68623724412958109 0.0939717817179309 0.086701572236843383 1211.0320160495785 1567.9192215441074 1631.0877453397691 1579.3607482145756 -111.36884564183408 -99.638832353707457 -123.7759922703424 5.2988595324743963 3.0507570821497305 7.493941579867216 -0.58083157648763695 -0.32530982203139835 -2.7397684593944532e-61 -3.1269666140828714e-61 -1.3161997568627974e-61 -2.2268702430694431e-51 -9.124162250831483e-51 1.370344023194631e-50 -1.0917886914604334e-41 1.3157133717733508e-41 -4.9102566185955822e-42 2.6323860458814924e-33 -7.9889332550191089e-34 -2.3486417875899937e-33 -3.4293369613169474e-26 -1.0035157014060336e-26 8.38539452588177e-26 1.7637365649543693e-20 6.0091671264392355e-20 -2.1447763104428665e-19 9.5747018289937397e-15 -1.9832203214249794e-14 5.1626544025743523e-14 -5.6593277004960464e-10 5.8001416350329329e-10 -1.3167543943319545e-09 2.2065283723030565e-06 -1.7415743396247857e-06 3.6835475749063909e-06 -0.00089845682018525831 0.00056666789895556372 -0.0012259804916032464 0.049522241682680365 -0.02239184608073809 0.057275264880831775 -0.70489461306082601 0.10088174265837915 -0.67453409950841925 6.4402922982786874 0.65862123003656059 5.3599688360003306 1568.3668716516361 -84.494494513393718 1632.4528587284526 1211.0609199186365 1631.0457466422781 1005.1514218003294 -116.31377139090472 -1.9191417975529532 -107.40049865606349 -3.6207562530021737e-82 1.0192209614572265e-84 4.3998852320710107e-83 -2.47044215543185e-71 -7.0283260552529995e-73 9.7910682795809223e-72 -1.5399079132412174e-93 9.7716829244871315e-95 6.5979241400173044e-95 -3.0049184252634586e-99 9.7455537106743879e-100 -1.2261240096421005e-100 -1.4832035194912062e-87 4.6810136616410125e-88 -1.4791528429904848e-89 1749.4725561476862 1591.0026080991609 1591.1328870084587 1410.1692775866541 1410.0413237973312 1210.4356285965964 1210.4524259586697 1004.4802314793972 1004.3911131010009 795.66339251545139 795.62479100075404 589.17723366569749 589.09488658426631 386.12098423862932 386.05518010862522 188.8574362767398 3.6090198745725039e-93 8.4660096919365005e-95 -9.5354865767327297e-94 3.5991246629803596e-87 -1.1408807282160259e-87 -4.4417693463860137e-88 7.2480733730320083e-99 -2.2966631848253248e-99 -5.6445923027401497e-100 5.7617379414978554e-66 -1.1954553527437081e-65 -7.5049667768577856e-67 4.6704624528245367e-76 -1.5961557758688831e-76 -8.0871348837849147e-77 -116.06436658852681 3.7164005692261184 1.0078016131700789 1648.2009446520428 -98.951979336416244 -81.838419292591936 1005.124250496119 1631.047562630928 1671.0922143737307 7.0152305662907288 -0.41665852269570841 -0.067361452449443721 -0.73194358581219021 0.096322843454187582 0.08284516140581033 0.030130894212758726 -0.0053777478802200301 -0.0067926958089246483 -0.00023972748012928143 4.3804999197244519e-05 6.7390961507869977e-05 2.3995126888323436e-07 -4.2567222665407654e-08 -7.5053162818034095e-08 -2.8666361249807597e-11 4.3894415362687926e-12 9.2939816384011302e-12 -5.2892254471849404e-22 3.143412692298362e-24 2.1033203915457409e-22 3.8179711767334916e-16 -4.0137193085822749e-17 -1.3250697458478596e-16 5.8653048366207262e-29 1.4847693337848251e-29 -3.412017655177708e-29 9.3698770074757463e-38 -6.6763520778035721e-37 4.4249714109655412e-37 -3.5631699058848044e-45 1.9785242151762137e-45 -7.9280659893006321e-48 8.6086990252933101e-55 -1.4266387851440404e-55 -1.6813271874776349e-55 5.497182696833363 1.3021688439493364 3.8795616807601094 -106.53590913321158 -5.2681094661903032 -92.241095029392042 1631.7732182987816 -61.309143143610044 1672.7109506484339 1005.1372157244859 1671.0540466691964 796.42669196103793 0.056021801983398213 -0.024322427409099283 0.06384910193272901 -0.68171078169645505 0.05016203737777087 -0.59870785689988637 -0.0011244036116960906 0.00069892942379932445 -0.0015145945214419352 -1.000830835294053e-09 8.2908596972541245e-10 -1.7207335705492668e-09 3.0817694036125818e-06 -2.2914525511280082e-06 4.7295804240974449e-06 -1.1858915807310126e-19 1.5607729479095016e-19 -3.5127520327611945e-19 3.5314935488183231e-14 -3.4028698081484121e-14 7.1817029488246148e-14 2.2696723991507396e-33 2.9341548073345169e-33 -1.1362733237850831e-32 1.8853579089878262e-26 -7.4533403188591596e-26 1.9485970711945874e-25 1.449262678131647e-50 -2.1851431154758994e-50 -9.4965588016962865e-51 -3.2590745549093168e-41 1.3381695791090755e-42 5.6666938566550317e-41 2.9672231954047469e-61 1.6285201912673577e-60 -4.1950524820934068e-61 4.4469353951468909e-71 1.9503586226110885e-71 -3.4580047739655153e-71 8.2411099619181777e-82 9.9480518915845962e-83 -3.7234464786016102e-82 -0.75161944944518044 0.096067947887770844 0.071498856930973992 6.083152678129248 -0.1757220688198535 0.26148467983911516 -102.7985025162214 1.6354528010067702 -1.4488348073005688 1693.598420593657 -81.257946193175371 -58.922218266622906 796.4073184809871 1671.0565326906687 1685.0917603934477 -0.00030900784286093326 5.6449174221670728e-05 8.6256472417745218e-05 0.03592382398061314 -0.0064003528099450232 -0.0078456216828693137 3.1967040161728175e-07 -5.8144862712143054e-08 -1.0032602664721035e-07 -3.8860019814133364e-11 6.7919530272097513e-12 1.239419677836474e-11 5.5369413786157003e-16 -9.2568403413127215e-17 -1.7314874223171631e-16 -9.4508765916360398e-22 1.3705186659051703e-22 2.8537627545720383e-22 1.8272165734419523e-28 -1.6455333614642333e-29 -5.540378717372669e-29 -3.422662897850344e-36 -1.7052367958521411e-37 1.1496998401299694e-36 1.1861781410264705e-54 -1.1728416504744996e-54 1.9807484479107711e-56 3.199893835208474e-45 2.7112767481112179e-45 -1.9378710549538699e-45 -4.2171022485180765e-33 8.8630935505690881e-33 -1.8792009800157333e-32 1.1395714653215671e-25 -1.3676818954119052e-25 2.7618957351747234e-25 5.3531849740598252e-14 -4.7688936861054753e-14 9.8183786712801844e-14 -2.389472755423526e-19 2.3484395096907506e-19 -4.7683720116770706e-19 -1.384539095305878e-09 1.1326757424185451e-09 -2.3514709064975879e-09 4.0818963541638737e-06 -3.0305049028435214e-06 6.2503878079116597e-06 -91.370848076035529 -8.895880019515868 -71.688416500910634 1672.0500021755081 -33.543743262026972 1686.9061765428376 796.4301760693786 1685.0529198618733 589.98955319388244 4.0820314373659299 2.0279237364961529 1.9059186948379607 -0.61104011931676694 -0.021247165601208495 -0.46779477438781791 0.062732313023663819 -0.025592282902578867 0.069045247199730528 -0.0014049007295922769 0.00086283440751396575 -0.0018659016699627586 4.0997603498311743e-62 4.4825905225083582e-60 1.2528967816455828e-60 -1.2648532067802507e-41 -5.2100365174029703e-41 1.355076261135243e-40 3.9029081277412479e-50 5.5798808897279892e-51 -7.8366268807310229e-50 1.5009938604566908e-70 -2.3951196941617683e-72 -1.0684827658821183e-70 2.0977694809820236e-81 6.5447832714292081e-83 -4.8466259072699976e-82 1.4894029735260691e-65 -1.0212444829182199e-65 4.1481106533770753e-67 1.2747448518237059e-75 -3.4529701409999936e-76 -9.2180087608122148e-77 8.5736428310157293e-87 -2.7418845389630777e-87 -2.2842618212184628e-88 1.7243965327983441e-98 -5.6511737369244343e-99 1.7186472857394431e-100 8.8422098911276731e-93 -3.1725856751480961e-94 -1.009503010708587e-93 -5.6699465765757978e-99 1.4751340165600571e-99 4.1318822858169188e-100 -2.9782412797016845e-87 7.2347302489083997e-88 3.0314564445207393e-88 -1.0872347979571833e-65 5.0452862930812191e-65 -6.6466113905401187e-66 -5.4924447004630341e-77 6.7602145760688472e-77 2.1704816640772641e-77 -0.7375437200820798 0.089716690678497732 0.053770520305910688 4.6470646628539276 0.1366348082033938 0.67239282635011699 -83.833079148063817 -0.9011087126417523 -4.4153238628999159 1712.3614217261772 -58.477190006049732 -31.189532833626007 589.9619774895275 1685.0598293509918 1673.0956363317462 -0.00039630586571991232 7.2964077301997948e-05 0.00010948158613062833 0.042035915910071921 -0.0074913944462522445 -0.0088992982388025003 4.3342171726293147e-07 -7.9047544552529843e-08 -1.3534149383859537e-07 -5.4265476962300388e-11 9.4373340601923653e-12 1.7331396678394063e-11 7.7584754103781015e-16 -1.3294466169263754e-16 -2.4436983171652597e-16 -1.3259852884977499e-21 2.2698854915009564e-22 3.9153589157748946e-22 2.7480281291121531e-28 -4.6060836512593332e-29 -7.2803754669054541e-29 -6.675350363366622e-36 9.4258890393514646e-37 1.558960163720264e-36 -1.9240410080742644e-54 -1.187523395233191e-54 6.0841608574724651e-55 1.6029542509521675e-44 -6.5619206264016541e-46 -3.510924671124494e-45 188.75885671605249 2.047194352173594 -0.0017358975537007091 0.0010522352110722837 -0.0022753335843519874 0.068412156523473142 -0.025918089088829959 0.073295631787910501 -0.4862460142927455 -0.11264487220662574 -0.27606491182652537 2.1738878865960065 2.8429136985572279 -0.64255012320960514 -70.821897491010432 -12.855252887221704 -45.942340498325741 589.97707800839942 1673.0627342309131 3