<?xml version="1.0"?>
<VTKFile type="UnstructuredGrid" version="0.1" byte_order="LittleEndian">
<UnstructuredGrid>
<Piece NumberOfPoints="1160" NumberOfCells="390">
<Points>
<DataArray type="Float64" NumberOfComponents="3" format="ascii">
0 0.037627845084982139 0 0 0.02712913039350634 0 0.10000000000000001 0.037627845084982139 0 0 0.014048877707311129 0 0 0.01007997645382676 0 0.10000000000000001 0.014048877707311129 0 0 0.01007997645382676 0 0 0.0072101992457088487 0 0.10000000000000001 0.01007997645382676 0 0 0.00027714824767246312 0 0 0.0001221058858762623 0 0.10000000000000001 0.00027714824767246312 0 0 0.019537864299142921 0 0 0.014048877707311129 0 0.10000000000000001 0.019537864299142921 0 0 0.0072101992457088487 0 0 0.0051351601405289276 0 0.10000000000000001 0.0072101992457088487 0 0 0.00049157175393484403 0 0 0.00027714824767246312 0 0.10000000000000001 0.00049157175393484403 0 0 0.02712913039350634 0 0 0.019537864299142921 0 0.10000000000000001 0.02712913039350634 0 0 0 0 0.10000000000000001 0 0 0 0.0051351601405289276 0 0 0.0036347696815094469 0 0.10000000000000001 0.0051351601405289276 0 0 1.0000000000000001e-05 0 0 0.0001221058858762623 0 0.10000000000000001 0.0001221058858762623 0 0 0.0036347696815094469 0 0 0.0025498882091243972 0 0.10000000000000001 0.0036347696815094469 0 0 0.052147564491031792 0 0 0.037627845084982139 0 0.10000000000000001 0.052147564491031792 0 0 0.00078811928474293897 0 0 0.00049157175393484403 0 0.10000000000000001 0.00078811928474293897 0 0 0.001198244413521618 0 0 0.00078811928474293897 0 0.10000000000000001 0.001198244413521618 0 0 0.001198244413521618 0 0 0.001765447234118425 0 0.10000000000000001 0.001765447234118425 0 0 1.0000000000000001e-05 0 0 0 0 0.10000000000000001 1.0000000000000001e-05 0 0 0.0025498882091243972 0 0 0.001765447234118425 0 0.10000000000000001 0.0025498882091243972 0 0 0.052147564491031792 0 0 0.072228323778986164 0 0.10000000000000001 0.072228323778986164 0 0 0.10000000000000001 0 0 0.072228323778986164 0 0.10000000000000001 0.10000000000000001 0 0 0.072228323778986164 0 0.10000000000000001 0.10000000000000001 0 0.10000000000000001 0.072228323778986164 0 0 0.014048877707311129 0 0.10000000000000001 0.014048877707311129 0 0.10000000000000001 0.019537864299142921 0 0 0.019537864299142921 0 0.10000000000000001 0.019537864299142921 0 0.10000000000000001 0.02712913039350634 0 0 0.0051351601405289276 0 0.10000000000000001 0.0072101992457088487 0 0.10000000000000001 0.0051351601405289276 0 0 0.001198244413521618 0 0.10000000000000001 0.001198244413521618 0 0.10000000000000001 0.001765447234118425 0 0 0.001765447234118425 0 0.10000000000000001 0.0025498882091243972 0 0.10000000000000001 0.001765447234118425 0 0 0.00027714824767246312 0 0.10000000000000001 0.00027714824767246312 0 0.10000000000000001 0.00049157175393484403 0 0 0.0036347696815094469 0 0.10000000000000001 0.0036347696815094469 0 0.10000000000000001 0.0051351601405289276 0 0 0.01007997645382676 0 0.10000000000000001 0.014048877707311129 0 0.10000000000000001 0.01007997645382676 0 0 1.0000000000000001e-05 0 0.10000000000000001 0.0001221058858762623 0 0.10000000000000001 1.0000000000000001e-05 0 0 0.052147564491031792 0 0.10000000000000001 0.072228323778986164 0 0.10000000000000001 0.052147564491031792 0 0 0.0001221058858762623 0 0.10000000000000001 0.00027714824767246312 0 0.10000000000000001 0.0001221058858762623 0 0 0.02712913039350634 0 0.10000000000000001 0.02712913039350634 0 0.10000000000000001 0.037627845084982139 0 0 0.00078811928474293897 0 0.10000000000000001 0.00078811928474293897 0 0.10000000000000001 0.001198244413521618 0 0 0.0025498882091243972 0 0.10000000000000001 0.0025498882091243972 0 0.10000000000000001 0.0036347696815094469 0 0 0 0 0.10000000000000001 1.0000000000000001e-05 0 0.10000000000000001 0 0 0 0.0072101992457088487 0 0.10000000000000001 0.01007997645382676 0 0.10000000000000001 0.0072101992457088487 0 0 0.037627845084982139 0 0.10000000000000001 0.052147564491031792 0 0.10000000000000001 0.037627845084982139 0 0 0.00049157175393484403 0 0.10000000000000001 0.00049157175393484403 0 0.10000000000000001 0.00078811928474293897 0 0.10000000000000001 0.00078811928474293897 0 0.10000000000000001 0.001198244413521618 0 0.20000000000000001 0.001198244413521618 0 0.10000000000000001 0.00078811928474293897 0 0.20000000000000001 0.001198244413521618 0 0.20000000000000001 0.00078811928474293897 0 0.10000000000000001 0.0036347696815094469 0 0.20000000000000001 0.0051351601405289276 0 0.20000000000000001 0.0036347696815094469 0 0.10000000000000001 0.0072101992457088487 0 0.10000000000000001 0.0051351601405289276 0 0.20000000000000001 0.0072101992457088487 0 0.10000000000000001 0.0051351601405289276 0 0.20000000000000001 0.0072101992457088487 0 0.20000000000000001 0.0051351601405289276 0 0.10000000000000001 0.01007997645382676 0 0.10000000000000001 0.0072101992457088487 0 0.20000000000000001 0.01007997645382676 0 0.10000000000000001 0.0072101992457088487 0 0.20000000000000001 0.0072101992457088487 0 0.20000000000000001 0.01007997645382676 0 0.10000000000000001 0.00027714824767246312 0 0.10000000000000001 0.00049157175393484403 0 0.20000000000000001 0.00049157175393484403 0 0.10000000000000001 0.00027714824767246312 0 0.20000000000000001 0.00027714824767246312 0 0.20000000000000001 0.00049157175393484403 0 0.10000000000000001 0.0036347696815094469 0 0.10000000000000001 0.0051351601405289276 0 0.20000000000000001 0.0051351601405289276 0 0.10000000000000001 0.001198244413521618 0 0.10000000000000001 0.001765447234118425 0 0.20000000000000001 0.001765447234118425 0 0.10000000000000001 0.0025498882091243972 0 0.20000000000000001 0.0036347696815094469 0 0.20000000000000001 0.0025498882091243972 0 0.10000000000000001 0.014048877707311129 0 0.10000000000000001 0.01007997645382676 0 0.20000000000000001 0.014048877707311129 0 0.10000000000000001 0.0025498882091243972 0 0.10000000000000001 0.0036347696815094469 0 0.20000000000000001 0.0036347696815094469 0 0.10000000000000001 0.001765447234118425 0 0.20000000000000001 0.001765447234118425 0 0.20000000000000001 0.0025498882091243972 0 0.10000000000000001 0.001198244413521618 0 0.20000000000000001 0.001198244413521618 0 0.20000000000000001 0.001765447234118425 0 0.10000000000000001 0.00049157175393484403 0 0.10000000000000001 0.00078811928474293897 0 0.20000000000000001 0.00078811928474293897 0 0.10000000000000001 0.00049157175393484403 0 0.20000000000000001 0.00078811928474293897 0 0.20000000000000001 0.00049157175393484403 0 0.10000000000000001 0.0025498882091243972 0 0.10000000000000001 0.001765447234118425 0 0.20000000000000001 0.0025498882091243972 0 0.10000000000000001 0.02712913039350634 0 0.10000000000000001 0.037627845084982139 0 0.20000000000000001 0.037627845084982139 0 0.10000000000000001 0 0 0.20000000000000001 0 0 0.10000000000000001 0.052147564491031792 0 0.20000000000000001 0.072228323778986164 0 0.20000000000000001 0.052147564491031792 0 0.10000000000000001 1.0000000000000001e-05 0 0.10000000000000001 0 0 0.20000000000000001 1.0000000000000001e-05 0 0.10000000000000001 0 0 0.20000000000000001 1.0000000000000001e-05 0 0.20000000000000001 0 0 0.10000000000000001 0.037627845084982139 0 0.20000000000000001 0.037627845084982139 0 0.20000000000000001 0.052147564491031792 0 0.10000000000000001 0.052147564491031792 0 0.10000000000000001 0.037627845084982139 0 0.20000000000000001 0.052147564491031792 0 0.10000000000000001 0.02712913039350634 0 0.20000000000000001 0.037627845084982139 0 0.20000000000000001 0.02712913039350634 0 0.10000000000000001 0.0001221058858762623 0 0.10000000000000001 1.0000000000000001e-05 0 0.20000000000000001 0.0001221058858762623 0 0.10000000000000001 1.0000000000000001e-05 0 0.20000000000000001 0.0001221058858762623 0 0.20000000000000001 1.0000000000000001e-05 0 0.10000000000000001 0.019537864299142921 0 0.20000000000000001 0.02712913039350634 0 0.20000000000000001 0.019537864299142921 0 0.10000000000000001 0.019537864299142921 0 0.10000000000000001 0.02712913039350634 0 0.20000000000000001 0.02712913039350634 0 0.10000000000000001 0.014048877707311129 0 0.20000000000000001 0.019537864299142921 0 0.20000000000000001 0.014048877707311129 0 0.10000000000000001 0.00027714824767246312 0 0.10000000000000001 0.0001221058858762623 0 0.20000000000000001 0.00027714824767246312 0 0.10000000000000001 0.01007997645382676 0 0.20000000000000001 0.014048877707311129 0 0.20000000000000001 0.01007997645382676 0 0.10000000000000001 0.0001221058858762623 0 0.20000000000000001 0.0001221058858762623 0 0.20000000000000001 0.00027714824767246312 0 0.10000000000000001 0.014048877707311129 0 0.10000000000000001 0.019537864299142921 0 0.20000000000000001 0.019537864299142921 0 0.10000000000000001 0.072228323778986164 0 0.20000000000000001 0.10000000000000001 0 0.20000000000000001 0.072228323778986164 0 0.10000000000000001 0.10000000000000001 0 0.10000000000000001 0.072228323778986164 0 0.20000000000000001 0.10000000000000001 0 0.10000000000000001 0.072228323778986164 0 0.10000000000000001 0.052147564491031792 0 0.20000000000000001 0.072228323778986164 0 0.20000000000000001 0.10000000000000001 0 0.20000000000000001 0.072228323778986164 0 0.29999999999999999 0.10000000000000001 0 0.20000000000000001 0.072228323778986164 0 0.20000000000000001 0.052147564491031792 0 0.29999999999999999 0.072228323778986164 0 0.20000000000000001 0.001198244413521618 0 0.20000000000000001 0.00078811928474293897 0 0.29999999999999999 0.001198244413521618 0 0.20000000000000001 0.0001221058858762623 0 0.20000000000000001 0.00027714824767246312 0 0.29999999999999999 0.00027714824767246312 0 0.20000000000000001 0.001198244413521618 0 0.20000000000000001 0.001765447234118425 0 0.29999999999999999 0.001765447234118425 0 0.20000000000000001 1.0000000000000001e-05 0 0.20000000000000001 0 0 0.29999999999999999 1.0000000000000001e-05 0 0.20000000000000001 0.0072101992457088487 0 0.20000000000000001 0.01007997645382676 0 0.29999999999999999 0.01007997645382676 0 0
[...]
<PointData Scalars="Ba-133_conc,region_id," Vectors="" Tensors="">
<DataArray type="Float64" Name="Ba-133_conc" format="ascii">
6.9255345526355232e-69 -3.5273728890106277e-68 -2.7457851007211472e-69 -1.2419443271835555e-39 3.9435840128163894e-40 1.1150313058134745e-39 1.5500574378743683e-32 1.6491044374578902e-31 -9.4490553930528241e-32 0.050727345621245971 -6.2932117676231805 -0.014925648822243917 2.5766249013082484e-48 -4.1942425616885052e-48 5.5263003443626726e-50 3.4798466001413678e-25 -2.040889702732625e-24 4.3527661539844757e-25 -0.039703645969323464 -0.3030073319984507 0.013063879722102505 1.625787462774779e-58 -3.1041971013422987e-58 -1.0975098184480764e-58 1393.4569077809188 1290.4625874566661 -5.5635919705516426e-19 1.7677343860960981e-18 1.0723247044306426e-19 1101.2786397548284 -4.7989447202929467 -88.449846342501218 6.0717383865071852e-14 -1.1295388025641363e-13 -6.462106115944387e-14 2.6412215484288882e-79 -9.0523073212764772e-79 -8.8168045296551331e-80 -0.00090982029365044336 0.018742846607397168 -0.0017943538715413686 4.5957214436056477e-05 -0.0006067848347829592 0.00015550239893952073 2.1704599182023819e-06 1.8764738269034842e-07 -1.4689751814235532e-06 1099.2758514386003 1393.5483170823154 1250.9211680821345 -5.1413615440869405e-10 -8.0395697512525314e-11 1.1280608681171883e-09 -7.566090069201382e-90 2.2805195851848145e-90 -7.9305029575328989e-91 5.3741079895902893e-102 -1.7216633432451177e-101 -2.030976558463537e-102 -8.292691649191305e-96 1.124665309808825e-96 -1.2521852549072315e-96 -4.3619309530031667e-44 1.6905039912659379e-43 -1.2668850372986837e-44 2.3467138308352437e-54 -1.3154200116242461e-53 -2.4703055893287238e-53 -1.0278347652253648e-21 4.88921685408576e-22 2.1896085964085503e-22 1.5505298212876737e-05 3.5495369923961504e-05 -1.3189296949066351e-05 -5.4493055819623154e-09 2.7629192404529245e-08 -1.031470847607184e-07 -0.29214776038310136 1.1941439918697918 0.10853206211991379 3.110184224873487e-16 -4.7664317884810206e-16 -2.785858985741919e-17 1.3768479517328645e-36 1.0718357126738054e-35 -3.5589560751432658e-35 1099.3238027024086 -84.373933808962718 1251.5561028469033 -1.7085534158822975e-84 1.8722624128279054e-85 -2.7179683974090535e-85 -5.050670752062195 -1.4143284149538509 -90.55070297119461 -1.3433711324741356e-63 -1.4956268512475974e-63 -3.4884312938853512e-64 -0.0011521830251139385 -0.00057152641763546315 0.00051326709239642176 -6.3702510071187018e-12 2.5175279856492035e-11 -3.7266724828929167e-12 1393.5779745138134 1250.8872467420586 1290.6333646733976 2.2950640116814443e-28 -2.7190755179247843e-28 4.4828123481767793e-28 -9.3357150961440538e-74 4.3807098833848742e-75 -1.9720403259873655e-74 0.0069579550730202886 -0.047447625182260381 -0.0040100900440329318 -0.00091863468282131499 0.0006795623026596805 -0.0011503766313203042 -0.0020634927425312627 -0.0023608542776557841 0.02138687501562312 -9.5777352714920809e-16 2.1143383166663467e-15 -5.9756151744184059e-15 7.9968682578271847e-24 -9.4812146528826849e-24 -7.8534038458592763e-24 -4.4483824067646732e-21 -4.9890054162295931e-21 2.475270299556094e-20 -1.2437131588697356e-30 3.3613977628341865e-30 1.921146218776351e-31 4.0932051980194569e-27 -7.9323679570878292e-27 -4.829529267874786e-29 1.7153923469059691 -0.034328106497184332 -0.14078808014955321 1.0432700637633536 4.1891000944764167 0.55508763948974094 -6.6239206933977919e-18 -3.5845710473724105e-18 8.9028329589836543e-18 2.06157064572689e-05 -6.1283823825775599e-06 3.2807134367368558e-06 8.5048200563702353e-11 -6.367208937459759e-11 8.7164442494862538e-11 1.1111791700306667e-38 -6.0869165189736811e-38 1.1959012337793064e-38 1.6199648947054482e-12 -3.8857910382902855e-14 -7.2879972622240727e-13 -3.7201168603742285e-07 1.6577267068385521e-07 1.2339504178043653e-07 0.00011397780142261087 -0.00023256762348044857 8.5006154219664734e-06 -0.051683759829052572 -0.0044899322156361958 0.025552227261808946 -0.034632706786858029 -0.0039640714246514689 -0.40289514083570943 3.7660017690229639e-09 -2.1190906627681832e-08 3.0535742393071123e-09 8.239067513044073e-67 -3.2325121788943296e-67 -1.5124380882277248e-67 1290.2018671500098 1165.9279270169588 4.2130920504448474e-83 6.2796482325639557e-84 -1.9266365898930547e-83 1250.894296285991 1290.5857239206648 1315.8849772370472 1290.5596943631526 1315.8670811919062 1166.3070514670244 2.2832234659785161e-72 -1.6297263732632028e-72 8.6452070409481084e-73 -7.8894155074312716e-78 2.3976234615476186e-77 -4.1465405929917193e-78 2.7442090786020934e-62 3.6225791519252502e-62 -2.6946141189275308e-62 -87.50039937835902 1255.7984810649255 -80.784035251317135 1251.0723755084077 -73.400053981393881 1316.6815304215986 2.3770942853002342e-52 2.1186717505231433e-52 -1.193209821795084e-51 7.2790311391645034e-57 -7.6967739462083504e-57 -1.4193181074578105e-57 2.496786098009567e-43 -9.6748075048677394e-43 1.4193176026870946e-42 0.70567285714533623 -94.398100462439942 2.7380721869902218 -1.9019831421823617e-34 1.1716925039281735e-34 9.4050487172234945e-35 -89.748399026416337 -84.691251275649947 -0.29371157130533737 3.8348642967231644e-47 2.0396831091056404e-47 -2.4933786879988323e-47 2.0527886053808789e-94 6.9771697271796832e-96 -5.9131521270897e-95 -1.4057802689392346e-100 4.334605139308653e-100 -3.49540739454441e-101 -6.2181787841835232e-89 1.9349401855367767e-88 -2.5178194305326722e-89 -7.0958748953179791e-100 2.2392767403491916e-99 2.3542487013003971e-100 -3.0223159720797302e-88 9.8784672393923548e-88 8.6693285239894164e-89 0.00028328869972328791 0.011613370239095318 -0.0053172499578121781 -89.917260781555228 3.2024803107549298 1.2215179490448158 -3.277380155280327e-05 -1.559538691592907e-05 4.5382439419706487e-05 1315.8574753111297 1166.320226690051 1367.6036853109351 -8.7038771226364064e-30 -5.0723264695240537e-30 9.1968441145282742e-30 0.015944303762382265 -0.46185828148119468 0.057548641032612313 1.2117681935684853e-76 -3.5493957223253581e-77 8.7038100043338397e-78 -2.8972575044541063e-46 7.8614313959432251e-46 -8.3904608438588873e-47 -2.3064276418695307e-08 2.535843232668146e-08 -2.9084442714512065e-08 5.2650904657757946 -0.16258668553008646 -0.068075423121424186 -8.8125770252358178e-67 4.9413602216205749e-66 1.7907587515997693e-67 2.2531620030862258e-17 -1.2253324513334409e-16 2.0284571773964978e-17 -2.932310133821103e-24 1.404711849907757e-22 -5.6592411943477115e-23 -4.0302887452522757e-56 -5.2712527985044389e-57 2.2215315081994594e-56 -2.7660922553925226e-12 8.0307683477632773e-12 8.4808898012866761e-13 1.7020431310046021e-37 -1.9180968510260745e-37 -8.5703291190815291e-38 -80.125772776533964 1324.3282879178432 -70.61387789013105 6.6357293431047523e-42 -1.8270537956738433e-42 -1.3494355431250827e-41 -7.6472466965574882e-34 3.4521374977771049e-33 -6.7230291844889027e-34 0.015487288590936921 0.046751337300750873 -0.013478132347634906 2.2712256326408577e-82 2.0913260530848612e-83 -1.9923335341630751e-83 -1.790898261500349e-52 -1.5912612743222393e-51 4.5982072505221268e-51 -1.716567557847871e-14 6.8872295514620225e-15 4.4268768961582084e-15 -7.1171645113295059e-05 -0.0012135724476025024 0.00030985811116018375 4.2277159652551994e-10 -6.0853385316953272e-10 -2.2152434396829407e-12 -5.719927397371789e-27 2.1655709439504937e-26 -5.7797321478846898e-26 1.3053625905824671e-71 2.3313068943218272e-73 -5.3528520094335618e-73 -5.6989173239816447e-07 -5.266429738619619e-07 3.0839032367823473e-06 5.0843685409339854e-20 -4.5712693944016866e-20 6.2660833456087687e-20 1.8243635141619769e-61 1.4872293729366589e-61 4.8485513366535934e-62 1316.186394583478 -59.669477298193357 1368.5756838707712 4.2879067334075458 2.9621800604293687 0.82428959996499185 1166.3568062085474 1033.6597605193083 1367.570342495746 -0.37716833423963764 -0.42410990575473645 0.014831336442969039 -84.015634744847603 -2.6293660270634431 -76.18706366483805 1166.0322272417884 1033.2625357280642 1.7274477659510228e-08 1.9643738197867696e-07 -1.1660047783497667e-07 -4.9575198896346819e-55 3.3285659849372681e-55 9.3551583057072572e-56 -1.4316442146266578e-50 1.8662746175740218e-51 4.4639200280032174e-50 2.066823478285218e-29 -1.2014083106004638e-28 2.2359064538680349e-29 -2.5527349814658158e-65 1.4519605026207751e-65 4.7272369093187108e-66 1.8149557181301416e-06 -2.6569871498313785e-06 6.6765489950982307e-06 1368.079167979924 1404.8937530885394 -42.457890503301257 -8.6477040132654363e-61 -1.8718030513406499e-60 9.0573369546097821e-61 -0.54475342919480196 0.060659013557614425 0.047309249858266095 -0.43017847966007455 -0.028133707162687368 -0.29733908773794571 -9.5157981477189914e-76 3.2025943065846898e-76 1.624679140319165e-76 -9.1679759041559143e-71 6.9947893914968492e-71 -3.2864431627122938e-71 -69.980173602660471 1379.6833169234039 -56.811020448413302 -1.1514947998680574e-25 3.9549622685584753e-27 6.3463365054511856e-26 -1.8508694836987249e-22 5.4799768864013753e-22 9.3132701579846435e-24 -7.2253151237978309e-12 -6.1301653880005207e-12 1.2467586208168038e-11 6.2251291773177424e-12 -2.7442025780124922e-09 7.9138297495017026e-10 8.8190071270624585e-42 3.1219426236837282e-41 -8.7252394107541609e-41 -1.6144912166195516e-45 -2.3427192689909062e-46 8.8327447528241403e-46 3.7287499444697856e-33 7.9120494123281326e-33 -5.5740287662810381e-33 1.8143642105537792e-36 8.6985672289448868e-38 -6.7059723422414369e-37 -75.454168998565379 -4.9214895982842206 -64.064885965194463 1.6337790387542959 -82.588149344244471 -0.30681461767179063 3.1107670314900817 1.7397465871353157 1.3170750336059609 4.3660951411545446 -0.13485505932920633 0.18555568128619207 1.2061572080863295e-16 -1.4097376656794843e-16 -9.771195283545162e-17 -2.7797698346799378e-14 9.5503040746425634e-14 -1.5411842043379077e-14 -1.7036601832086971e-81 7.7358751863651771e-82 -2.3787080649819929e-82 1033.6296740210173 1367.5733151610202 1403.7524752206355 1033.6265873815682 890.10952908428533 1403.7286869681163 2.1974809508072605e-19 -2.5135587096678375e-19 -2.5394897151112246e-20 1033.1307375630709 889.59772095337689 0.028490492791361531 -0.0036342844261145384 -0.0065212781020457513 0.044807867247382158 -0.017416888347994059 0.050226323283117068 -0.00026184393231518013 1.3085635137808962e-05 8.8938887561533107e-05 -0.00099456249953927761 0.00070350237380269957 -0.0016504634072493703 -7.773348549350417e-87 2.5012827445317335e-87 9.8502155545852243e-88 5.615262511838077e-99 -1.7398379373489836e-98 1.3704917660922687e-99 -8.2687463168071991e-93 -2.4844593639682489e-94 2.3205090019238148e-93 1.0872495563482428e-93 -1.3127216144696908e-94 1.1789690676025551e-94 -2.3949327763383229e-92 1.5442615991078073e-93 9.6332196111791149e-94 1.9292999106035775e-32 -5.6269375354024834e-33 -1.7846543241082253e-32 -2.0944690224201088e-25 -6.6608229581465284e-26 5.2837522800916044e-25 0.048976848827032508 0.049896760146904161 -0.016654126500162451 1.9357217831407791 0.19507033268567472 1.7994309988910522 889.60832241173523 741.74391967535962 -1.8968923787671112e-09 1.8786969670631359e-09 -4.1897060666516507e-09 -5.0638557638069204e-81 2.2179917706370875e-83 5.9643702722070742e-82 -9.4156823295060128e-41 1.1155056589109775e-40 -3.7991692700546178e-41 1404.4114512699698 1423.4331772832425 -22.121297974661253 4.2464164630867595e-14 -8.3446144440665073e-14 2.1393363387864426e-13 -3.0894612724480785e-70 -7.8494992696656839e-72 1.2110058767849198e-70 8.013128965265112e-20 3.1638784040672517e-19 -1.1114762525707643e-18 890.12637849967484 1422.1365030766021 742.29205276038772 -2.1330896061264735e-50 -8.99913812441723e-50 1.3319824308756456e-49 -3.0449489363811983e-60 -3.4299790778143356e-60 -1.5027922142034728e-60 -0.30745544810479841 -0.17121752222195241 -0.091171938999882463 5.399199517323978e-06 8.4818595778348402e-06 -4.0863090899222914e-06 -0.0014798145527279277 -0.0018659436763796371 0.00086892432938756245 -63.327107226703987 -48.395077979352564 -7.3900105223709618 -2.8002976329072921e-75 8.287373189350267e-76 5.8612667104249323e-77 -2.3680611352790685e-22 -3.8716355526324295e-22 5.3753431528655072e-22 6.6050746220255223e-16 9.4067439731908812e-17 -3.9846531407668313e-16 890.10385399313441 1403.7273428520637 1422.1651970869007 3.4698785066172659 0.10978250986997534 0.43271507695580874 -0.0057605265998477871 0.032918820271135865 -0.0064961147390571166 6.4997592798462852e-05 -0.00038118484710747294 0.00010323582193149994 7.1337885525159826e-36 -2.277511128197414e-36 -4.8458948673618576e-37 2.0320308780483194e-65 -9.5638859697429027e-65 3.7734043242078808e-66 0.057721509978890362 -0.49339923756187715 0.029599514287799736 -6.4116254053965513e-08 4.9580608148804621e-07 -1.6544424993837186e-07 -6.475602045547485e-11 2.2815202189624429e-12 2.5986001647616769e-11 0.06561043025684539 -71.56988389262699 -2.111293955245257 1.6291237728466268e-45 -1.7094519029506099e-44 3.7129697334133014e-45 -1.5356295803941533e-28 1.073585123047622e-28 -4.770332501906715e-29 1.5050878879166519e-54 2.6926335616372468e-55 -4.2814799747165023e-55 1419.3404057039397 -56.294094102131631 -39.617951552768325 1.5946535125126396e-98 -4.9168803370451124e-98 -2.0702778269963632e-99 -2.1882553786145581e-86 6.9043259205788165e-87 -2.5219311902033784e-88 -2.4547555243680993e-24 4.6791965773396369e-24 2.3759290933814416e-24 135.5140356136792 -34.866311086822435 41.219106571953908 -6.4098656428849582e-18 3.2565948232816262e-18 -3.5118305597711578e-18 9.7785889082691295e-13 -4.8633991492628732e-13 5.6731888828760692e-13 -1.7719794105290776e-48 1.8787944246886792e-48 -1.039655262040095e-48 -1.6515434165234683e-08 7.8463308811296933e-09 -9.6903058561091376e-09 184.53843428302739 1016.4123790279695 1307.9536961732078 -3.761934845020587e-31 2.10212671097495e-31 -1.7615860198228429e-31 3.0649309465952021e-39 -1.9846478319549469e-39 1.3586646875293344e-39 2.9972101831427053e-05 -1.3004453683043012e-05 1.6299325534227959e-05 1.8156589747891902 1015.5492524611573 138.74381733092204 -23.192027184866753 6.3412408248481968 -6.032237704245115 -0.0056768137232066961 0.0019661429536204453 -0.0026712602617706793 -1.2193124470072846e-58 -1.594803816362961e-58 1.2304529538426101e-58 2.4835056127149369e-69 2.4047037987204973e-69 -1.4419302343330306e-69 1.1828134592881145 137.98133571863016 0.079809751614777991 -0.0045696658839235009 0.037348191686877349 -1.0606832392869136e-80 3.8514915204645938e-81 -3.918868726169405e-81 1.8468314827690671 -0.67314695320227391 0.55726308338273789 1.1821292766782264e-92 -3.6447063611886512e-92 -1.8281937307456281e-92 -3.8304395559339944e-98 -4.0815633600822925e-98 1.5809993559228287e-98 -1.9912335214806527e-86 1.0010390675665096e-86 -1.61974319640969e-86 -0.12480159655870884 0.033191954064020576 -0.01113220719912454 1.0300048948840654e-10 6.2022749206422004e-11 -3.3329942411157602e-10 151.90892624892294 50.910318658762861 1333.5443780882038 -9.6622006247345965e-28 3.7320859220962995e-27 -6.7494209018596662e-28 -3.2236778502063363e-64 2.387254391583933e-63 -8.0658537668650089e-64 -5.1048032082038818e-76 -3.2361122375634968e-75 -1.0648209226949305e-74 0.00029839102843960197 0.00015597328351316686 -0.00089452887926811991 -0.012299629616599571 0.042887492208487525 -0.0060104706289460311 3.6101282588328227 1.1261249347000277 -3.9961514863699623 2.312638230832967e-35 2.0063998972893726e-35 -1.0673850434404453e-34 1015.5512391483858 1306.6517646623363 138.75081352493928 -2.0034515380710702e-15 -1.2187391879682165e-15 6.6634383718227266e-15 7.5071005297385593e-54 2.395905611021102e-53 -9.035032551372948e-53 4.2154428910480447e-21 -1.4785243052142377e-20 2.6574616587860419e-21 -5.0437580852836109e-44 -6.7680982744940947e-44 3.2442952945995838e-43 -26.792957520305176 31.597982355901117 -8.294405001572775 -5.5938414314981701e-07 1.7262646900379889e-06 -3.262285441794228e-07 -3.7404293572151701e-44 2.3267588929309965e-43 -4.4563441210131767e-44 6.1419455585219916e-09 -1.2386242325810333e-08 -7.8502026851210632e-09 -1.3623052512459338e-39 2.0756507784310535e-39 9.4514893488815786e-40 77.140442471076327 1308.1209181765382 1365.5447943887607 7.8258689847234995e-11 4.6723850129732901e-11 -2.5437029860345651e-10 -3.2232458436003778e-59 -9.3235231817009733e-59 1.8084693073566881e-59 -3.14709344471869e-64 8.1570638967682931e-64 5.6385116309985796e-64 1.5542073607832145 1.3763287294278679 -3.5647593445044059 2.0991947098628903e-05 -1.0546626344322094e-05 1.516079311347211e-05 -4.2939530608171082e-07 1.4472047041238366e-06 -2.7870566225160582e-07 3.3242829383777011 -6.6521655901652723 -5.723226643402012 1306.6567074027366 286.07186219018712 1364.3272726932953 1.5803546196780236e-35 -7.387779281415559e-35 1.4147548860577368e-35 1.4370048106927776e-31 -2.5645677913552513e-31 -1.2176420300915178e-31 8.504585691206401e-54 -6.4197292998320208e-53 7.6382205765102668e-54 1306.6415948320507 138.77020742546071 286.0812775395471 52.534576442134515 30.041513339241789 1389.7171725657713 1.3102450731576533e-48 -1.3021025457468615e-48 -5.8558550482048439e-49 0.00021344197378008972 0.00016513527274381203 -0.00085318296576075464 -8.8099890314631342 -8.7693438141786082 8.7980675583192145 40.735595454612024 -14.666794245018977 18.80915607322568 0.69216626562362149 -0.42524507697104058 0.46197395816287906 -0.083129374276210574 -0.084113258805512292 -0.026332073944516834 2.9728195075471306e-21 1.8399681825395569e-21 -1.0310629526644605e-20 -4.6196285149827516e-18 2.3219129590836793e-18 -2.4743712750490619e-18 5.7289518955893262e-81 2.374495020230647e-81 -2.568502607495652e-80 -3.616246483707677e-13 7.2779064726119413e-13 4.1990012069063208e-13 -1.4660046383235579e-15 -8.6314013172172614e-16 4.801058856030923e-15 -0.0069209042845426779 0.047923542362470914 -0.0082587847006842276 0.025690560445216556 -0.0012160765097525095 0.043138829325041872 0.0015326486525178587 -0.0032187341068976938 -0.0028662665444174314 138.06367200695982 285.34905456478128 4.2532569017380731e-71 3.3277913301986568e-70 -8.9878839645530332e-70 -2.5616333491090433e-77 -9.931269073295966e-76 -1.213185602480969e-74 -6.6313057356669205e-28 2.5646344430800175e-27 -4.6920688276059276e-28 3.2666834501819812e-24 -1.7016959556799653e-24 1.6391984346290333e-24 -9.8812941869152642e-87 3.0964532727858382e-86 -1.091230306385037e-85 -1.613091235177492e-92 1.3682861398849574e-92 -1.0920245404949621e-91 -2.7392397497736309e-98 7.1920209007019934e-98 -2.2522801612509707e-97 1.6581135403278418e-93 4.873129272640416e-93 -4.522731385921103e-92 -15.006490969520952 18.252327035281056 -6.2593315366828666 0.0013588810957064781 -0.0029394473505474404 -0.00243477304201288 3.303758451032313 -6.1809720947153828 -3.3734698679371569 1.6755980229764157e-05 -8.3247000850965333e-06 1.1818314171813252e-05 -1.1826276894582498e-48 7.4326628698380422e-49 8.562841472477806e-50 -9.4737445322083226e-70 -1.0753828413757831e-69 4.3369058282483435e-70 0.47696916982772852 -0.3392083133293966 0.19288168371008674 2.6801766475545997e-59 4.7193482097143094e-60 -2.6061914409903557e-59 9.1378916676386151e-82 4.1861979722733907e-81 -9.2393489967791318e-81 0.042172654130838698 -0.0084888634255857257 0.048443915134882005 286.08967491406759 1364.3169764527829 437.62639672497903 1.5475384960903248e-39 -9.3823874408031068e-40 4.874047194276423e-40 54.29417510673796 1365.7855981844496 1403.7177958878806 -1.8007792467512308e-31 1.0093140462882542e-31 -8.291662140344824e-32 4.594213391186019e-09 -9.2899903203823186e-09 -5.8504638169994294e-09 2.273744693762709e-24 -1.1924682680890101e-24 1.1603772756480163e-24 -2.6161416909520267e-13 5.2646890428711106e-13 3.036362137430192e-13 1.6428010945904302e-18 -3.2604540048934939e-18 -1.759477265933524e-18 -0.0075653248788889911 0.044360707616431384 -0.0076302133341690174 -0.043675001704380607 0.0071758479627343089 -0.25407217013502364 -1.0461363361548061e-15 3.4351583096283017e-15 -6.2192163963851756e-16 285.39967870627987 436.91679878398833 -4.7232896033558256e-28 -3.2482123848756183e-28 1.8375511885875462e-27 3.4763333198135328e-76 -1.1858917700239528e-75 1.0305231053848309e-75 0.00017887126517142083 -0.00069285682259029443 0.00013266161690566675 2.0878276491047497e-21 -7.303514523717579e-21 1.3203