<?xml version="1.0"?>
<VTKFile type="UnstructuredGrid" version="0.1" byte_order="LittleEndian">
<UnstructuredGrid>
<Piece NumberOfPoints="1160" NumberOfCells="390">
<Points>
<DataArray type="Float64" NumberOfComponents="3" format="ascii">
0.0000000000 0.0000000000 0.0000000000 0.1000000000 0.0000000000 0.0000000000 0.1000000000 0.0000000000 0.0000000000 0.2000000000 0.0000000000 0.0000000000 0.2000000000 0.0000000000 0.0000000000 0.3000000000 0.0000000000 0.0000000000 0.3000000000 0.0000000000 0.0000000000 0.4000000000 0.0000000000 0.0000000000 0.4000000000 0.0000000000 0.0000000000 0.5000000000 0.0000000000 0.0000000000 0.5000000000 0.0000000000 0.0000000000 0.6000000000 0.0000000000 0.0000000000 0.6000000000 0.0000000000 0.0000000000 0.7000000000 0.0000000000 0.0000000000 0.7000000000 0.0000000000 0.0000000000 0.8000000000 0.0000000000 0.0000000000 0.8000000000 0.0000000000 0.0000000000 0.9000000000 0.0000000000 0.0000000000 0.9000000000 0.0000000000 0.0000000000 1.0000000000 0.0000000000 0.0000000000 0.0000000000 0.0000000000 0.0000000000 0.0000000000 0.0000100000 0.0000000000 0.1000000000 0.0000100000 0.0000000000 0.0000000000 0.0000000000 0.0000000000 0.1000000000 0.0000100000 0.0000000000 0.1000000000 0.0000000000 0.0000000000 0.1000000000 0.0000000000 0.0000000000 0.1000000000 0.0000100000 0.0000000000 0.2000000000 0.0000100000 0.0000000000 0.1000000000 0.0000000000 0.0000000000 0.2000000000 0.0000100000 0.0000000000 0.2000000000 0.0000000000 0.0000000000 0.2000000000 0.0000000000 0.0000000000 0.2000000000 0.0000100000 0.0000000000 0.3000000000 0.0000100000 0.0000000000 0.2000000000 0.0000000000 0.0000000000 0.3000000000 0.0000100000 0.0000000000 0.3000000000 0.0000000000 0.0000000000 0.3000000000 0.0000000000 0.0000000000 0.3000000000 0.0000100000 0.0000000000 0.4000000000 0.0000100000 0.0000000000 0.3000000000 0.0000000000 0.0000000000 0.4000000000 0.0000100000 0.0000000000 0.4000000000 0.0000000000 0.0000000000 0.4000000000 0.0000000000 0.0000000000 0.4000000000 0.0000100000 0.0000000000 0.5000000000 0.0000100000 0.0000000000 0.4000000000 0.0000000000 0.0000000000 0.5000000000 0.0000100000 0.0000000000 0.5000000000 0.0000000000 0.0000000000 0.5000000000 0.0000000000 0.0000000000 0.5000000000 0.0000100000 0.0000000000 0.6000000000 0.0000100000 0.0000000000 0.5000000000 0.0000000000 0.0000000000 0.6000000000 0.0000100000 0.0000000000 0.6000000000 0.0000000000 0.0000000000 0.6000000000 0.0000000000 0.0000000000 0.6000000000 0.0000100000 0.0000000000 0.7000000000 0.0000100000 0.0000000000 0.6000000000 0.0000000000 0.0000000000 0.7000000000 0.0000100000 0.0000000000 0.7000000000 0.0000000000 0.0000000000 0.7000000000 0.0000000000 0.0000000000 0.7000000000 0.0000100000 0.0000000000 0.8000000000 0.0000100000 0.0000000000 0.7000000000 0.0000000000 0.0000000000 0.8000000000 0.0000100000 0.0000000000 0.8000000000 0.0000000000 0.0000000000 0.8000000000 0.0000000000 0.0000000000 0.8000000000 0.0000100000 0.0000000000 0.9000000000 0.0000100000 0.0000000000 0.8000000000 0.0000000000 0.0000000000 0.9000000000 0.0000100000 0.0000000000 0.9000000000 0.0000000000 0.0000000000 0.9000000000 0.0000000000 0.0000000000 0.9000000000 0.0000100000 0.0000000000 1.0000000000 0.0000100000 0.0000000000 0.9000000000 0.0000000000 0.0000000000 1.0000000000 0.0000100000 0.0000000000 1.0000000000 0.0000000000 0.0000000000 0.0000000000 0.0000100000 0.0000000000 0.0000000000 0.0001221059 0.0000000000 0.1000000000 0.0001221059 0.0000000000 0.0000000000 0.0000100000 0.0000000000 0.1000000000 0.0001221059 0.0000000000 0.1000000000 0.0000100000 0.0000000000 0.1000000000 0.0000100000 0.0000000000 0.1000000000 0.0001221059 0.0000000000 0.2000000000 0.0001221059 0.0000000000 0.1000000000 0.0000100000 0.0000000000 0.2000000000 0.0001221059 0.0000000000 0.2000000000 0.0000100000 0.0000000000 0.2000000000 0.0000100000 0.0000000000 0.2000000000 0.0001221059 0.0000000000 0.3000000000 0.0001221059 0.0000000000 0.2000000000 0.0000100000 0.0000000000 0.3000000000 0.0001221059 0.0000000000 0.3000000000 0.0000100000 0.0000000000 0.3000000000 0.0000100000 0.0000000000 0.3000000000 0.0001221059 0.0000000000 0.4000000000 0.0001221059 0.0000000000 0.3000000000 0.0000100000 0.0000000000 0.4000000000 0.0001221059 0.0000000000 0.4000000000 0.0000100000 0.0000000000 0.4000000000 0.0000100000 0.0000000000 0.4000000000 0.0001221059 0.0000000000 0.5000000000 0.0001221059 0.0000000000 0.4000000000 0.0000100000 0.0000000000 0.5000000000 0.0001221059 0.0000000000 0.5000000000 0.0000100000 0.0000000000 0.5000000000 0.0000100000 0.0000000000 0.5000000000 0.0001221059 0.0000000000 0.6000000000 0.0001221059 0.0000000000 0.5000000000 0.0000100000 0.0000000000 0.6000000000 0.0001221059 0.0000000000 0.6000000000 0.0000100000 0.0000000000 0.6000000000 0.0000100000 0.0000000000 0.6000000000 0.0001221059 0.0000000000 0.7000000000 0.0001221059 0.0000000000 0.6000000000 0.0000100000 0.0000000000 0.7000000000 0.0001221059 0.0000000000 0.7000000000 0.0000100000 0.0000000000 0.7000000000 0.0000100000 0.0000000000 0.7000000000 0.0001221059 0.0000000000 0.8000000000 0.0001221059 0.0000000000 0.7000000000 0.0000100000 0.0000000000 0.8000000000 0.0001221059 0.0000000000 0.8000000000 0.0000100000 0.0000000000 0.8000000000 0.0000100000 0.0000000000 0.8000000000 0.0001221059 0.0000000000 0.9000000000 0.0001221059 0.0000000000 0.8000000000 0.0000100000 0.0000000000 0.9000000000 0.0001221059 0.0000000000 0.9000000000 0.0000100000 0.0000000000 0.9000000000 0.0000100000 0.0000000000 0.9000000000 0.0001221059 0.0000000000 1.0000000000 0.0001221059 0.0000000000 0.9000000000 0.0000100000 0.0000000000 1.0000000000 0.0001221059 0.0000000000 1.0000000000 0.0000100000 0.0000000000 0.0000000000 0.0001221059 0.0000000000 0.0000000000 0.0002771482 0.0000000000 0.1000000000 0.0002771482 0.0000000000 0.0000000000 0.0001221059 0.0000000000 0.1000000000 0.0002771482 0.0000000000 0.1000000000 0.0001221059 0.0000000000 0.1000000000 0.0001221059 0.0000000000 0.1000000000 0.0002771482 0.0000000000 0.2000000000 0.0002771482 0.0000000000 0.1000000000 0.0001221059 0.0000000000 0.2000000000 0.0002771482 0.0000000000 0.2000000000 0.0001221059 0.0000000000 0.2000000000 0.0001221059 0.0000000000 0.2000000000 0.0002771482 0.0000000000 0.3000000000 0.0002771482 0.0000000000 0.2000000000 0.0001221059 0.0000000000 0.3000000000 0.0002771482 0.0000000000 0.3000000000 0.0001221059 0.0000000000 0.3000000000 0.0001221059 0.0000000000 0.3000000000 0.0002771482 0.0000000000 0.4000000000 0.0002771482 0.0000000000 0.3000000000 0.0001221059 0.0000000000 0.4000000000 0.0002771482 0.0000000000 0.4000000000 0.0001221059 0.0000000000 0.4000000000 0.0001221059 0.0000000000 0.4000000000 0.0002771482 0.0000000000 0.5000000000 0.0002771482 0.0000000000 0.4000000000 0.0001221059 0.0000000000 0.5000000000 0.0002771482 0.0000000000 0.5000000000 0.0001221059 0.0000000000 0.5000000000 0.0001221059 0.0000000000 0.5000000000 0.0002771482 0.0000000000 0.6000000000 0.0002771482 0.0000000000 0.5000000000 0.0001221059 0.0000000000 0.6000000000 0.0002771482 0.0000000000 0.6000000000 0.0001221059 0.0000000000 0.6000000000 0.0001221059 0.0000000000 0.6000000000 0.0002771482 0.0000000000 0.7000000000 0.0002771482 0.0000000000 0.6000000000 0.0001221059 0.0000000000 0.7000000000 0.0002771482 0.0000000000 0.7000000000 0.0001221059 0.0000000000 0.7000000000 0.0001221059 0.0000000000 0.7000000000 0.0002771482 0.0000000000 0.8000000000 0.0002771482 0.0000000000 0.7000000000 0.0001221059 0.0000000000 0.8000000000 0.0002771482 0.0000000000 0.8000000000 0.0001221059 0.0000000000 0.8000000000 0.0001221059 0.0000000000 0.8000000000 0.0002771482 0.0000000000 0.9000000000 0.0002771482 0.0000000000 0.8000000000 0.0001221059 0.0000000000 0.9000000000 0.0002771482 0.0000000000 0.9000000000 0.0001221059 0.0000000000 0.9000000000 0.0001221059 0.0000000000 0.9000000000 0.0002771482 0.0000000000 1.0000000000 0.0002771482 0.0000000000 0.9000000000 0.0001221059 0.0000000000 1.0000000000 0.0002771482 0.0000000000 1.0000000000 0.0001221059 0.0000000000 0.0000000000 0.0002771482 0.0000000000 0.0000000000 0.0004915718 0.0000000000 0.1000000000 0.0004915718 0.0000000000 0.0000000000 0.0002771482 0.0000000000 0.1000000000 0.0004915718 0.0000000000 0.1000000000 0.0002771482 0.0000000000 0.1000000000 0.0002771482 0.0000000000 0.1000000000 0.0004915718 0.0000000000 0.2000000000 0.0004915718 0.0000000000 0.1000000000 0.0002771482 0.0000000000 0.2000000000 0.0004915718 0.0000000000 0.2000000000 0.0002771482 0.0000000000 0.2000000000 0.0002771482 0.0000000000 0.2000000000 0.0004915718 0.0000000000 0.3000000000 0.0004915718 0.0000000000 0.2000000000 0.0002771482 0.0000000000 0.3000000000 0.0004915718 0.0000000000 0.3000000000 0.0002771482 0.0000000000 0.3000000000 0.0002771482 0.0000000000 0.3000000000 0.0004915718 0.0000000000 0.4000000000 0.0004915718 0.0000000000 0.3000000000 0.0002771482 0.0000000000 0.4000000000 0.0004915718 0.0000000000 0.4000000000 0.0002771482 0.0000000000 0.4000000000 0.0002771482 0.0000000000 0.4000000000 0.0004915718 0.0000000000 0.5000000000 0.0004915718 0.0000000000 0.4000000000 0.0002771482 0.0000000000 0.5000000000 0.0004915718 0.0000000000 0.5000000000 0.0002771482 0.0000000000 0.5000000000 0.0002771482 0.0000000000 0.5000000000 0.0004915718 0.0000000000 0.6000000000 0.0004915718 0.0000000000 0.5000000000 0.0002771482 0.0000000000 0.6000000000 0.0004915718 0.0000000000 0.6000000000 0.0002771482 0.0000000000 0.6000000000 0.0002771482 0.0000000000 0.6000000000 0.0004915718 0.0000000000 0.7000000000 0.0004915718 0.0000000000 0.6000000000 0.0002771482 0.0000000000 0.7000000000 0.0004915718 0.0000000000 0.7000000000 0.0002771482 0.0000000000 0.7000000000 0.0002771482 0.0000000000 0.7000000000 0.0004915718 0.0000000000 0.8000000000 0.0004915718 0.0000000000 0.7000000000 0.0002771482 0.0000000000 0.8000000000 0.0004915718 0.0000000000 0.8000000000 0.0002771482 0.0000000000 0.8000000000 0.0002771482 0.0000000000 0.8000000000 0.0004915718 0.0000000000 0.900000000
[...]
<PointData Scalars="Ba-133_conc,region_id," Vectors="" Tensors="">
<DataArray type="Float64" Name="Ba-133_conc" format="ascii">
518.3627434564 465.2515312988 465.2511149936 409.6581663650 409.6581542315 353.5134546539 353.5131458795 297.0236721791 297.0236314990 241.4900588015 241.4898244671 187.2464174627 187.2463781313 135.3372957748 135.3371438259 86.1020577630 86.1020378601 40.2928780859 40.2925755918 -0.2268122295 518.8510787302 820.8019502664 762.3075232310 518.6033140645 762.8998305559 465.4781352147 465.0606996602 763.1209565925 748.8048388101 465.4844791691 748.7965440135 409.9138401036 409.5286913657 749.2926772675 725.9073721741 409.9075187753 726.0106255047 353.7824142520 353.4635392992 726.4610790561 697.2265856941 353.7741569344 697.4352037034 297.3020900594 297.0540178009 697.8555697969 663.6152257253 297.2923045853 663.9343985117 241.7744184461 241.6098426235 664.3156144180 625.0544900271 241.7624883263 625.4868380411 187.5326253593 187.4601072932 625.8169808685 582.3523759393 187.5190975308 582.9022808741 135.6215313441 135.6458254999 583.1740167344 536.3299269229 135.6061770888 536.9936085404 86.3811329855 86.5164886813 537.2002385453 486.3263013198 86.3616131691 487.0639214201 40.5726827574 41.2160938616 487.0370552370 330.0343637398 40.5451130501 331.3940824065 -0.0508134112 832.2699840962 9.7419968819 34.1287298966 824.6263252211 40.2503271093 765.2927591988 772.0056626090 33.8700232664 44.3675530597 766.2452960762 50.5112952374 752.6297484901 759.2545281690 43.9681556865 53.3685370212 752.9006009580 59.7137464252 729.5783421008 736.4991110767 52.9275260174 62.7047589960 730.0998445474 69.0683886936 700.7962762264 707.8866537006 62.1594625285 71.7459589977 701.5030476972 78.0362331970 667.0125894573 674.1760198471 71.1033246322 80.3729185593 667.9129718973 86.4888493554 628.2175442793 635.3542441681 79.6333503831 88.3845248608 629.3090834844 94.2283083785 585.2193852684 592.2285333045 87.5526838590 95.6659431756 586.5016228273 101.1437571915 538.8540672282 545.6354944351 94.7477678429 98.6661242231 540.3154237819 103.7331431732 488.4813599255 494.9712423616 97.7971215063 198.3138705815 490.1198688755 203.8743197219 329.0710205244 9.5463822138 0.4473894863 -3.7658825847 9.8155231556 -3.9326704355 31.9530867899 31.1999126459 -3.6530481096 -5.2787850066 32.1003657711 -5.6874111363 42.2103890470 41.4594842571 -5.2939942071 -5.7544071780 42.2168943130 -6.0969500823 51.1835149215 50.5378614278 -5.8018503256 -6.1317407499 51.1779364140 -6.3876333901 60.5162984425 59.9785875661 -6.1878194432 -6.4513587033 60.4619538234 -6.6052511235 69.5857043152 69.1764706019 -6.5145817209 -6.6629929540 69.4854746070 -6.7046399811 78.2763635515 78.0110869757 -6.7331380881 -6.7607743572 78.1269029487 -6.6816876151 86.3854835089 86.2778283342 -6.8378482384 -6.7459816334 86.1851593199 -6.5342117521 93.7956930654 93.8523475055 -6.8156590609 -6.2739229542 93.5491061329 -5.9922880806 96.9279856349 97.2082755628 -6.5222052328 -14.3849481848 96.5865799589 -13.7218698315 197.3141857071 0.4032849480 -0.0377018082 0.1268227993 0.4192259658 0.1247506799 -3.7303981740 -3.6935944547 0.1174487300 0.7804955025 -3.6307057948 0.7723584943 -5.1875256122 -5.1500681183 0.7595716988 0.8296927008 -5.1372268549 0.8199232820 -5.7286063051 -5.7111296591 0.8180495089 0.8537719262 -5.6743396628 0.8257871708 -6.1366309719 -6.1451067250 0.8456334055 0.8720943552 -6.0849744596 0.8220039230 -6.4906485890 -6.5264279193 0.8637855345 0.8751532819 -6.4412768034 0.8020348120 -6.7383626097 -6.8031133190 0.8670892392 0.8599600307 -6.6927370039 0.7634218030 -6.8730334041 -6.9677195507 0.8525807355 0.8213524374 -6.8321484196 0.6997954745 -6.8991657846 -7.0232930504 0.8103249482 0.7238503459 -6.8644160317 0.5926008022 -6.4171100518 -6.5917228590 0.7521046932 1.5134320575 -6.4400888030 1.2736674023 -14.8478169264 -0.0407433758 0.0018190267 0.0022791967 -0.0396890013 0.0024553391 0.1275394475 0.1261854495 0.0025372949 -0.0417711593 0.1221805186 -0.0384793769 0.7713925377 0.7701562627 -0.0409860705 -0.0803456353 0.7635487030 -0.0772176585 0.8270264861 0.8300282085 -0.0802701647 -0.0814349065 0.8223403482 -0.0758869695 0.8621941305 0.8705706327 -0.0819479905 -0.0826285385 0.8582553999 -0.0738053978 0.8883743688 0.9016982973 -0.0834347401 -0.0825850175 0.8842454427 -0.0701097874 0.9001502442 0.9186404219 -0.0833492354 -0.0806873101 0.8959112541 -0.0645719207 0.8938046086 0.9175488971 -0.0815520618 -0.0767872636 0.8895172498 -0.0566915774 0.8652011233 0.8937569486 -0.0767347021 -0.0636762594 0.8599759977 -0.0423235470 0.7674733028 0.8053387972 -0.0706732185 -0.1469024125 0.7740675914 -0.1098244057 1.6313777517 0.0021237527 -0.0000140657 -0.0005033592 0.0020095010 -0.0004409334 0.0020450436 0.0020923993 -0.0004651767 0.0015966123 0.0023765119 0.0014017475 -0.0431491783 -0.0434468188 0.0015725092 0.0084564721 -0.0421813130 0.0078405976 -0.0812365761 -0.0816642646 0.0082794859 0.0097390100 -0.0807439825 0.0089959167 -0.0836320358 -0.0847574387 0.0097713143 0.0096073179 -0.0832579505 0.0083327529 -0.0862168487 -0.0882121018 0.0097199945 0.0096669281 -0.0859737017 0.0077909740 -0.0873749062 -0.0901705266 0.0097975161 0.0094985055 -0.0871243444 0.0069928235 -0.0867204939 -0.0903617000 0.0096497318 0.0091963607 -0.0865148165 0.0059994069 -0.0842724319 -0.0886629303 0.0091925782 0.0071734565 -0.0838555281 0.0036725502 -0.0706438938 -0.0766587902 0.0082504602 0.0182903315 -0.0727574014 0.0123060568 -0.1644506507 -0.0000353570 -0.0000062686 0.0000336863 -0.0000275203 0.0000285255 -0.0005168208 -0.0005232849 0.0000315528 -0.0000030411 -0.0005160767 0.0000050679 0.0016882903 0.0016941025 0.0000021213 -0.0005553774 0.0016383566 -0.0005075619 0.0085388496 0.0085449101 -0.0005384668 -0.0010565796 0.0084492632 -0.0010230710 0.0099462991 0.0100358696 -0.0010607507 -0.0010949557 0.0099346333 -0.0010058803 0.0100831964 0.0103070153 -0.0011211909 -0.0010982616 0.0100856484 -0.0009157147 0.0103709866 0.0107371653 -0.0011335521 -0.0011035659 0.0103817000 -0.0008197541 0.0104237213 0.0109338746 -0.0011439285 -0.0011080388 0.0104383604 -0.0007099289 0.0103928327 0.0110354907 -0.0011275968 -0.0008384741 0.0103573924 -0.0003697114 0.0083522662 0.0092676738 -0.0010047652 -0.0023544782 0.0087109135 -0.0015447725 0.0210956449 -0.0000057474 0.0000006457 -0.0000013146 -0.0000061769 -0.0000009749 0.0000357230 0.0000361587 -0.0000010835 -0.0000059755 0.0000350593 -0.0000059505 -0.0000070747 -0.0000056010 -0.0000066257 0.0000266831 -0.0000025627 0.0000265655 -0.0005627325 -0.0005543476 0.0000223982 0.0001077994 -0.0005505166 0.0001149745 -0.0010535641 -0.0010375045 0.0001025366 0.0001298327 -0.0010498995 0.0001400354 -0.0011262019 -0.0011262804 0.0001317202 0.0001307818 -0.0011278193 0.0001293674 -0.0011706787 -0.0011938484 0.0001359727 0.0001338433 -0.0011754131 0.0001169854 -0.0012118541 -0.0012582043 0.0001403964 0.0001399342 -0.0012183177 0.0001054556 -0.0012599417 -0.0013287207 0.0001451475 0.0001078717 -0.0012589036 0.0000571453 -0.0010012565 -0.0011117438 0.0001272362 0.0003120473 -0.0010538865 0.0002196769 -0.0027279386 0.0000005792 -0.0000000395 -0.0000000192 0.0000006238 -0.0000000569 -0.0000013913 -0.0000013858 -0.0000000636 0.0000005566 -0.0000013616 0.0000006275 -0.0000056539 -0.0000057454 0.0000006513 -0.0000006508 -0.0000060881 -0.0000006497 0.0000249003 0.0000226095 0.0000002114 -0.0000082380 0.0000231901 -0.0000103805 0.0000992201 0.0000920462 -0.0000065354 -0.0000142744 0.0000972992 -0.0000197658 0.0001231360 0.0001159892 -0.0000136853 -0.0000152173 0.0001232305 -0.0000206001 0.0001309467 0.0001266047 -0.0000156024 -0.0000157551 0.0001317827 -0.0000194159 0.0001399615 0.0001389087 -0.0000165468 -0.0000171321 0.0001413298 -0.0000186953 0.0001524197 0.0001547421 -0.0000182023 -0.0000142041 0.0001532067 -0.0000127909 0.0001257887 0.0001331668 -0.0000152220 -0.0000392580 0.0001313675 -0.0000352320 0.0003507072 -0.0000000291 0.0000000008 0.0000000060 -0.0000000355 0.0000000118 -0.0000000067 -0.0000000075 0.0000000120 -0.0000000306 -0.0000000180 -0.0000000401 0.0000004736 0.0000004549 -0.0000000314 -0.0000000423 0.0000005264 -0.0000000862 -0.0000004481 -0.0000002430 -0.0000001378 0.0000004455 -0.0000002052 0.0000006832 -0.0000063317 -0.0000050789 0.0000001592 0.0000013210 -0.0000058305 0.0000023587 -0.0000112412 -0.0000091817 0.0000010328 0.0000015954 -0.0000110451 0.0000030816 -0.0000128672 -0.0000108692 0.0000015028 0.0000016911 -0.0000128608 0.0000031670 -0.0000142777 -0.0000125894 0.0000016998 0.0000019005 -0.0000143999 0.0000032631 -0.0000163365 -0.0000149907 0.0000020112 0.0000018046 -0.0000165427 0.0000028224 -0.0000147020 -0.0000136127 0.0000015653 0.0000043306 -0.0000147437 0.0000057309 -0.0000398590 0.0000000008 0.0000000001 -0.0000000004 0.0000000011 -0.0000000009 0.0000000032 0.0000000029 -0.0000000008 0.0000000009 0.0000000052 0.0000000007 -0.0000000197 -0.0000000167 -0.0000000000 0.0000000050 -0.0000000235 0.0000000121 -0.0000000299 -0.0000000330 0.0000000107 -0.0000000131 -0.0000000564 -0.0000000192 0.0000002356 0.0000001266 0.0000000131 -0.0000000779 0.0000001683 -0.0000001781 0.0000007275 0.0000004219 -0.0000000330 -0.0000001191 0.0000006598 -0.0000003329 0.0000009375 0.0000005599 -0.0000000893 -0.0000001348 0.0000009056 -0.0000003911 0.0000011145 0.0000007308 -0.0000001180 -0.0000001578 0.0000011019 -0.0000004326 0.0000013573 0.0000009783 -0.0000001549 -0.0000001798 0.0000013777 -0.0000004488 0.0000014227 0.0000009925 -0.0000001155 -0.0000003466 0.0000012991 -0.0000007458 0.0000034880 -0.0000000000 -0.0000000000 0.0000000000 -0.0000000000 0.0000000000 -0.0000000001 -0.0000000001 0.0000000000 -0.0000000000 -0.0000000003 0.0000000001 0.0000000005 0.0000000003 0.0000000001 -0.0000000002 0.0000000005 -0.0000000006 0.0000000017 0.0000000010 -0.0000000003 0.0000000001 0.0000000035 -0.0000000006 -0.0000000040 -0.0000000003 -0.0000000010 0.0000000018 0.0000000008 0.0000000061 -0.0000000208 0.0000000002 -0.0000000007 0.0000000034 -0.0000000129 0.0000000188 -0.0000000283 0.0000000078 0.0000000006 0.0000000039 -0.0000000224 0.0000000266 -0.0000000399 0.0000000028 0.0000000015 0.0000000056 -0.0000000349 0.0000000329 -0.0000000590 -0.0000000116 0.0000000036 0.0000000093 -0.0000000576 0.0000000407 -0.0000000843 -0.0000000251 0.0000000033 0.0000000120 -0.0000000625 0.0000000582 -0.0000001646 0.0000000000 -0.0000000000 -0.0000000000 0.0000000000 -0.0000000000 0.0000000000 -0.0000000000 -0.0000000000 0.0000000000 0.0000000000 -0.0000000000 -0.0000000000 -0.0000000000 0.0000000000 0.0000000000 -0.0000000000 0.0000000000 0.0000000000 0.0000000000 0.0000000000 -0.0000000000 -0.0000000000 0.0000000000 0.0000000001 0.0000000002 -0.0000000000 0.0000000000 -0.0000000000 -0.0000000000 -0.0000000003 -0.0000000007 0.0000000000 0.0000000002 -0.0000000005 -0.0000000001 -0.0000000021 -0.0000000031 0.0000000002 0.0000000005 -0.0000000023 -0.0000000001 -0.0000000030 -0.0000000046 0.0000000005 0.0000000005 -0.0000000034 -0.0000000003 -0.0000000025 -0.0000000047 0.0000000006 0.0000000003 -0.0000000029 -0.0000000010 -0.0000000003 -0.0000000034 0.0000000004 0.0000000009 -0.0000000016 -0.0000000010 -0.0000000040 -0.0000000000 0.0000000000 0.0000000000 -0.0000000000 0.0000000000 -0.0000000000 -0.0000000000 0.0000000000 -0.0000000000 -0.0000000000 -0.0000000000 0.0000000000 0.0000000000 -0.0000000000 -0.0000000000 0.0000000000 -0.0000000000 -0.0000000000 -0.0000000000 -0.0000000000 0.0000000000 0.0000000000 0.0000000000 -0.0000000000 -0.0000000000 0.0000000000 0.0000000000 -0.0000000000 0.0000000000 0.0000000000 0.0000000000 0.0000000000 -0.0000000000 0.0000000000 -0.0000000000 0.0000000002 0.0000000002 -0.0000000000 -0.0000000001 0.0000000002 -0.0000000001 0.0000000005 0.0000000003 -0.0000000000 -0.0000000001 0.0000000005 -0.0000000002 0.0000000005 0.0000000004 -0.0000000001 -0.0000000001 0.0000000006 -0.0000000001 0.0000000005 0.0000000004 -0.0000000001 -0.0000000001 0.0000000005 -0.0000000002 0.0000000011 0.0000000000 0.0000000000 -0.0000000000 0.0000000000 -0.0000000000 0.0000000000 0.0000000000 -0.0000000000 0.0000000000 0.0000000000 0.0000000000 -0.0000000000 -0.0000000000 0.0000000000 0.0000000000 -0.0000000000 0.0000000000 -0.0000000000 -0.0000000000 0.0000000000 -0.0000000000 -0.0000000000 -0.0000000000 0.0000000000 0.0000000000 -0.0000000000 -0.0000000000 0.0000000000 -0.0000000000 0.0000000000 0.0000000000 -0.0000000000 0.0000000000 0.0000000000 0.0000000000 -0.0000000000 -0.0000000000 -0.0000000000 0.0000000000 -0.0000000000 0.0000000000 -0.0000000000 -0.0000000000 0.0000000000 0.0000000000 -0.0000000000 0.0000000000 -0.0000000000 -0.0000000000 0.0000000000 0.0000000000 -0.0000000000 0.0000000000 -0.0000000000 -0.0000000000 0.0000000000 0.0000000000 -0.0000000000 0.0000000000 -0.0000000001 -0.0000000000 -0.0000000000 0.0000000000 -0.0000000000 0.0000000000 -0.0000000000 -0.0000000000 0.0000000000 0.0000000000 -0.0000000000 0.0000000000 0.0000000000 0.0000000000 0.0000000000 -0.0000000000 0.0000000000 -0.0000000000 0.0000000000 0.0000000000 -0.0000000000 0.0000000000 0.0000000000 -0.0000000000 -0.0000000000 -0.0000000000 -0.0000000000 0.0000000000 -0.0000000000 0.0000000000 -0.0000000000 -0.0000000000 0.0000000000 0.0000000000 -0.0000000000 0.0000000000 0.0000000000 -0.0000000000 0.0000000000 -0.0000000000 -0.0000000000 -0.0000000000 0.0000000000 0.0000000000 0.0000000000 -0.0000000000 0.0000000000 -0.0000000000 0.0000000000 0.0000000000 -0.0000000000 -0.0000000000 0.0000000000 -0.0000000000 0.0000000000 0.0000000000 -0.0000000000 -0.0000000000 0.0000000000 -0.0000000000 0.0000000000 -0.0000000000 0.0000000000 -0.0000000000 -0.0000000000 -0.0000000000 0.0000000000 0.0000000000 -0.0000000000 -0.0000000000 0.0000000000 -0.0000000000 0.0000000000 0.0000000000 -0.0000000000 0.0000000000 0.0000000000 0.0000000000 -0.0000000000 -0.0000000000 0.0000000000 0.0000000000 -0.0000000000 0.0000000000 -0.0000000000 -0.0000000000 0.0000000000 -0.0000000000 -0.0000000000 -0.0000000000 0.0000000000 0.0000000000 -0.0000000000 -0.0000000000 0.0000000000 -0.0000000000 0.0000000000 0.0000000000 -0.0000000000 0.0000000000 0.0000000000 0.0000000000 -0.0000000000 -0.0000000000 -0.0000000000 0.0000000000 -0.0000000000 0.0000000000 -0.0000000000 -0.0000000000 0.0000000000 0.0000000000 -0.0000000000 0.0000000000 -0.0000000000 -0.0000000000 0.0000000000 0.0000000000 -0.0000000000 0.0000000000 -0.0000000000 0.0000000000 -0.0000000000 0.0000000000 0.0000000000 -0.0000000000 -0.0000000000 -0.0000000000 -0.0000000000 0.0000000000 -0.0000000000 0.0000000000 -0.0000000000 -0.0000000000 0.0000000000 -0.0000000000 -0.0000000000 -0.0000000000 0.0000000000 0.0000000000 0.0000000000 -0.0000000000 0.0000000000 -0.0000000000 0.0000000000 0.0000000000 -0.0000000000 0.0000000000 0.0000000000 0.0000000000 -0.0000000000 -0.0000000000 -0.0000000000 0.0000000000 -0.0000000000 0.0000000000 -0.0000000000 -0.0000000000 0.0000000000 0.0000000000 -0.0000000000 0.0000000000 0.0000000000 -0.0000000000 0.0000000000 -0.0000000000 -0.0000000000 -0.0000000000 0.0000000000 0.0000000000 0.0000000000 -0.0000000000 0.0000000000 -0.0000000000 0.0000000000 0.0000000000 -0.0000000000 -0.0000000000 0.0000000000 -0.0000000000 0.0000000000 -0.0000000000 0.0000000000 0.0000000000 -0.0000000000 0.0000000000 0.0000000000 -0.0000000000 0.0000000000 -0.0000000000 0.0000000000 -0.0000000000 0.0000000000 0.0000000000 -0.0000000000 -0.0000000000 0.0000000000 -0.0000000000 -0.0000000000 -0.0000000000 -0.0000000000 0.0000000000 -0.0000000000 0.0000000000 -0.0000000000 -0.0000000000 0.0000000000 0.0000000000 -0.0000000000 0.0000000000 0.0000000000 -0.0000000000 0.0000000000 -0.0000000000 -0.0000000000 -0.0000000000 0.0000000000 0.0000000000 -0.0000000000 -0.0000000000 0.0000000000 -0.0000000000 0.0000000000 0.0000000000 -0.0000000000 0.0000000000 0.0000000000 0.0000000000 -0.0000000000 -0.0000000000 -0.0000000000 0.0000000000 -0.0000000000 0.0000000000 -0.0000000000 -0.0000000000 0.0000000000 0.0000000000 -0.0000000000 0.0000000000 -0.0000000000 
</DataArray>
<DataArray type="Int32" Name="region_id" format="ascii">
2 2 2 2 2 2 2 2 2 2 2 2 2 2 2 2 2 2 2 2 1 1 1 1 1 1 1 1 1 1 1 1 1 1 1 1 1 1 1 1 1 1 1 1 1 1 1 1 1 1 1 1 1 1 1 1 1 1 1 1 1 1 1 1 1 1 1 1 1 1 1 1 1 1 1 1 1 1 1 1 1 1 1 1 1 1 1 1 1 1 1 1 1 1 1 1 1 1 1 1 1 1 1 1 1 1 1 1 1 1 1 1 1 1 1 1 1 1 1 1 1 1 1 1 1 1 1 1 1 1 1 1 1 1 1 1 1 1 1 1 1 1 1 1 1 1 1 1 1 1 1 1 1 1 1 1 1 1 1 1 1 1 1 1 1 1 1 1 1 1 1 1 1 1 1 1 1 1 1 1 1 1 1 1 1 1 1 1 1 1 1 1 1 1 1 1 1 1 1 1 1 1 1 1 1 1 1 1 1 1 1 1 1 1 1 1 1 1 1 1 1 1 1 1 1 1 1 1 1 1 1 1 1 1 1 1 1 1 1 1 1 1 1 1 1 1 1 1 1 1 1 1 1 1 1 1 1 1 1 1 1 1 1 1 1 1 1 1 1 1 1 1 1 1 1 1 1 1 1 1 1 1 1 1 1 1 1 1 1 1 1 1 1 1 1 1 1 1 1 1 1 1 1 1 1 1 1 1 1 1 1 1 1 1 1 1 1 1 1 1 1 1 1 1 1 1 1 1 1 1 1 1 1 1 1 1 1 1 1 1 1 1 1 1 1 1 1 1 1 1 1 1 1 1 1 1 1 1 1 1 1 1 1 1 1 1 1 1 1 1 1 1 1 1 1 1 1 1 1 1 1 1 1 1 1 1 1 1 1 1 1 1 1 1 1 1 1 1 1 1 1 1 1 1 1 1 1 1 1 1 1 1 1 1 1 1 1 1 1 1 1 1 1 1 1 1 1 1 1 1 1 1 1 1 1 1 1 1 1 1 1 1 1 1 1 1 1 1 1 1 1 1 1 1 1 1 1 1 1 1 1 1 1 1 1 1 1 1 1 1 1 1 1 1 1 1 1 1 1 1 1 1 1 1 1 1 1 1 1 1 1 1 1 1 1 1 1 1 1 1 1 1 1 1 1 1 1 1 1 1 1 1 1 1 1 1 1 1 1 1 1 1 1 1 1 1 1 1 1 1 1 1 1 1 1 1 1 1 1 1 1 1 1 1 1 1 1 1 1 1 1 1 1 1 1 1 1 1 1 1 1 1 1 1 1 1 1 1 1 1 1 1 1 1 1 1 1 1 1 1 1 1 1 1 1 1 1 1 1 1 1 1 1 1 1 1 1 1 1 1 1 1 1 1 1 1 1 1 1 1 1 1 1 1 1 1 1 1 1 1 1 1 1 1 1 1 1 1 1 1 1 1 1 1 1 1 1 1 1 1 1 1 1 1 1 1 1 1 1 1 1 1 1 1 1 1 1 1 1 1 1 1 1 1 1 1 1 1 1 1 1 1 1 1 1 1 1 1 1 1 1 1 1 1 1 1 1 1 1 1 1 1 1 1 1 1 1 1 1 1 1 1 1 1 1 1 1 1 1 1 1 1 1 1 1 1 1 1 1 1 1 1 1 1 1 1 1 1 1 1 1 1 1 1 1 1 1 1 1 1 1 1 1 1 1 1 1 1 1 1 1 1 1 1 1 1 1 1 1 1 1 1 1 1 1 1 1 1 1 1 1 1 1 1 1 1 1 1 1 1 1 1 1 1 1 1 1 1 1 1 1 1 1 1 1 1 1 1 1 1 1 1 1 1 1 1 1 1 1 1 1 1 1 1 1 1 1 1 1 1 1 1 1 1 1 1 1 1 1 1 1 1 1 1 1 1 1 1 1 1 1 1 1 1 1 1 1 1 1 1 1 1 1 1 1 1 1 1 1 1 1 1 1 1 1 1 1 1 1 1 1 1 1 1 1 1 1 1 1 1 1 1 1 1 1 1 1 1 1 1 1 1 1 1 1 1 1 1 1 1 1 1 1 1 1 1 1 1 1 1 1 1 1 1 1 1 1 1 1 1 1 1 1 1 1 1 1 1 1 1 1 1 1 1 1 1 1 1 1 1 1 1 1 1 1 1 1 1 1 1 1 1 1 1 1 1 1 1 1 1 1 1 1 1 1 1 1 1 1 1 1 1 1 1 1 1 1 1 1 1 1 1 1 1 1 1 1 1 1 1 1 1 1 1 1 1 1 1 1 1 1 1 1 1 1 1 1 1 1 1 1 1 1 1 1 1 1 1 1 1 1 1 1 1 1 1 1 1 1 1 1 1 1 1 1 1 1 1 1 1 1 1 1 1 1 1 1 1 1 1 1 1 1 1 1 1 1 1 1 1 1 1 1 1 1 1 1 1 1 1 1 1 1 1 1 1 1 1 1 1 1 1 1 1 1 1 1 1 1 1 1 1 1 1 1 1 1 1 1 1 1 1 1 1 1 1 1 1 1 1 1 1 1 1 1 1 1 1 1 1 1 1 1 1 1 1 1 1 1 1 1 1 1 1 1 1 1 1 1 1 1 1 1 1 1 1 1 1 1 1 1 1 1 1 1 1 1 1 1 1 
</DataArray>
</PointData>
</Piece>
</UnstructuredGrid>
</VTKFile>
