<?xml version="1.0"?>
<VTKFile type="UnstructuredGrid" version="0.1" byte_order="LittleEndian">
<UnstructuredGrid>
<Piece NumberOfPoints="1160" NumberOfCells="390">
<Points>
<DataArray type="Float64" NumberOfComponents="3" format="ascii">
0.0000000000 0.0000000000 0.0000000000 0.1000000000 0.0000000000 0.0000000000 0.1000000000 0.0000000000 0.0000000000 0.2000000000 0.0000000000 0.0000000000 0.2000000000 0.0000000000 0.0000000000 0.3000000000 0.0000000000 0.0000000000 0.3000000000 0.0000000000 0.0000000000 0.4000000000 0.0000000000 0.0000000000 0.4000000000 0.0000000000 0.0000000000 0.5000000000 0.0000000000 0.0000000000 0.5000000000 0.0000000000 0.0000000000 0.6000000000 0.0000000000 0.0000000000 0.6000000000 0.0000000000 0.0000000000 0.7000000000 0.0000000000 0.0000000000 0.7000000000 0.0000000000 0.0000000000 0.8000000000 0.0000000000 0.0000000000 0.8000000000 0.0000000000 0.0000000000 0.9000000000 0.0000000000 0.0000000000 0.9000000000 0.0000000000 0.0000000000 1.0000000000 0.0000000000 0.0000000000 0.0000000000 0.0000000000 0.0000000000 0.0000000000 0.0000100000 0.0000000000 0.1000000000 0.0000100000 0.0000000000 0.0000000000 0.0000000000 0.0000000000 0.1000000000 0.0000100000 0.0000000000 0.1000000000 0.0000000000 0.0000000000 0.1000000000 0.0000000000 0.0000000000 0.1000000000 0.0000100000 0.0000000000 0.2000000000 0.0000100000 0.0000000000 0.1000000000 0.0000000000 0.0000000000 0.2000000000 0.0000100000 0.0000000000 0.2000000000 0.0000000000 0.0000000000 0.2000000000 0.0000000000 0.0000000000 0.2000000000 0.0000100000 0.0000000000 0.3000000000 0.0000100000 0.0000000000 0.2000000000 0.0000000000 0.0000000000 0.3000000000 0.0000100000 0.0000000000 0.3000000000 0.0000000000 0.0000000000 0.3000000000 0.0000000000 0.0000000000 0.3000000000 0.0000100000 0.0000000000 0.4000000000 0.0000100000 0.0000000000 0.3000000000 0.0000000000 0.0000000000 0.4000000000 0.0000100000 0.0000000000 0.4000000000 0.0000000000 0.0000000000 0.4000000000 0.0000000000 0.0000000000 0.4000000000 0.0000100000 0.0000000000 0.5000000000 0.0000100000 0.0000000000 0.4000000000 0.0000000000 0.0000000000 0.5000000000 0.0000100000 0.0000000000 0.5000000000 0.0000000000 0.0000000000 0.5000000000 0.0000000000 0.0000000000 0.5000000000 0.0000100000 0.0000000000 0.6000000000 0.0000100000 0.0000000000 0.5000000000 0.0000000000 0.0000000000 0.6000000000 0.0000100000 0.0000000000 0.6000000000 0.0000000000 0.0000000000 0.6000000000 0.0000000000 0.0000000000 0.6000000000 0.0000100000 0.0000000000 0.7000000000 0.0000100000 0.0000000000 0.6000000000 0.0000000000 0.0000000000 0.7000000000 0.0000100000 0.0000000000 0.7000000000 0.0000000000 0.0000000000 0.7000000000 0.0000000000 0.0000000000 0.7000000000 0.0000100000 0.0000000000 0.8000000000 0.0000100000 0.0000000000 0.7000000000 0.0000000000 0.0000000000 0.8000000000 0.0000100000 0.0000000000 0.8000000000 0.0000000000 0.0000000000 0.8000000000 0.0000000000 0.0000000000 0.8000000000 0.0000100000 0.0000000000 0.9000000000 0.0000100000 0.0000000000 0.8000000000 0.0000000000 0.0000000000 0.9000000000 0.0000100000 0.0000000000 0.9000000000 0.0000000000 0.0000000000 0.9000000000 0.0000000000 0.0000000000 0.9000000000 0.0000100000 0.0000000000 1.0000000000 0.0000100000 0.0000000000 0.9000000000 0.0000000000 0.0000000000 1.0000000000 0.0000100000 0.0000000000 1.0000000000 0.0000000000 0.0000000000 0.0000000000 0.0000100000 0.0000000000 0.0000000000 0.0001221059 0.0000000000 0.1000000000 0.0001221059 0.0000000000 0.0000000000 0.0000100000 0.0000000000 0.1000000000 0.0001221059 0.0000000000 0.1000000000 0.0000100000 0.0000000000 0.1000000000 0.0000100000 0.0000000000 0.1000000000 0.0001221059 0.0000000000 0.2000000000 0.0001221059 0.0000000000 0.1000000000 0.0000100000 0.0000000000 0.2000000000 0.0001221059 0.0000000000 0.2000000000 0.0000100000 0.0000000000 0.2000000000 0.0000100000 0.0000000000 0.2000000000 0.0001221059 0.0000000000 0.3000000000 0.0001221059 0.0000000000 0.2000000000 0.0000100000 0.0000000000 0.3000000000 0.0001221059 0.0000000000 0.3000000000 0.0000100000 0.0000000000 0.3000000000 0.0000100000 0.0000000000 0.3000000000 0.0001221059 0.0000000000 0.4000000000 0.0001221059 0.0000000000 0.3000000000 0.0000100000 0.0000000000 0.4000000000 0.0001221059 0.0000000000 0.4000000000 0.0000100000 0.0000000000 0.4000000000 0.0000100000 0.0000000000 0.4000000000 0.0001221059 0.0000000000 0.5000000000 0.0001221059 0.0000000000 0.4000000000 0.0000100000 0.0000000000 0.5000000000 0.0001221059 0.0000000000 0.5000000000 0.0000100000 0.0000000000 0.5000000000 0.0000100000 0.0000000000 0.5000000000 0.0001221059 0.0000000000 0.6000000000 0.0001221059 0.0000000000 0.5000000000 0.0000100000 0.0000000000 0.6000000000 0.0001221059 0.0000000000 0.6000000000 0.0000100000 0.0000000000 0.6000000000 0.0000100000 0.0000000000 0.6000000000 0.0001221059 0.0000000000 0.7000000000 0.0001221059 0.0000000000 0.6000000000 0.0000100000 0.0000000000 0.7000000000 0.0001221059 0.0000000000 0.7000000000 0.0000100000 0.0000000000 0.7000000000 0.0000100000 0.0000000000 0.7000000000 0.0001221059 0.0000000000 0.8000000000 0.0001221059 0.0000000000 0.7000000000 0.0000100000 0.0000000000 0.8000000000 0.0001221059 0.0000000000 0.8000000000 0.0000100000 0.0000000000 0.8000000000 0.0000100000 0.0000000000 0.8000000000 0.0001221059 0.0000000000 0.9000000000 0.0001221059 0.0000000000 0.8000000000 0.0000100000 0.0000000000 0.9000000000 0.0001221059 0.0000000000 0.9000000000 0.0000100000 0.0000000000 0.9000000000 0.0000100000 0.0000000000 0.9000000000 0.0001221059 0.0000000000 1.0000000000 0.0001221059 0.0000000000 0.9000000000 0.0000100000 0.0000000000 1.0000000000 0.0001221059 0.0000000000 1.0000000000 0.0000100000 0.0000000000 0.0000000000 0.0001221059 0.0000000000 0.0000000000 0.0002771482 0.0000000000 0.1000000000 0.0002771482 0.0000000000 0.0000000000 0.0001221059 0.0000000000 0.1000000000 0.0002771482 0.0000000000 0.1000000000 0.0001221059 0.0000000000 0.1000000000 0.0001221059 0.0000000000 0.1000000000 0.0002771482 0.0000000000 0.2000000000 0.0002771482 0.0000000000 0.1000000000 0.0001221059 0.0000000000 0.2000000000 0.0002771482 0.0000000000 0.2000000000 0.0001221059 0.0000000000 0.2000000000 0.0001221059 0.0000000000 0.2000000000 0.0002771482 0.0000000000 0.3000000000 0.0002771482 0.0000000000 0.2000000000 0.0001221059 0.0000000000 0.3000000000 0.0002771482 0.0000000000 0.3000000000 0.0001221059 0.0000000000 0.3000000000 0.0001221059 0.0000000000 0.3000000000 0.0002771482 0.0000000000 0.4000000000 0.0002771482 0.0000000000 0.3000000000 0.0001221059 0.0000000000 0.4000000000 0.0002771482 0.0000000000 0.4000000000 0.0001221059 0.0000000000 0.4000000000 0.0001221059 0.0000000000 0.4000000000 0.0002771482 0.0000000000 0.5000000000 0.0002771482 0.0000000000 0.4000000000 0.0001221059 0.0000000000 0.5000000000 0.0002771482 0.0000000000 0.5000000000 0.0001221059 0.0000000000 0.5000000000 0.0001221059 0.0000000000 0.5000000000 0.0002771482 0.0000000000 0.6000000000 0.0002771482 0.0000000000 0.5000000000 0.0001221059 0.0000000000 0.6000000000 0.0002771482 0.0000000000 0.6000000000 0.0001221059 0.0000000000 0.6000000000 0.0001221059 0.0000000000 0.6000000000 0.0002771482 0.0000000000 0.7000000000 0.0002771482 0.0000000000 0.6000000000 0.0001221059 0.0000000000 0.7000000000 0.0002771482 0.0000000000 0.7000000000 0.0001221059 0.0000000000 0.7000000000 0.0001221059 0.0000000000 0.7000000000 0.0002771482 0.0000000000 0.8000000000 0.0002771482 0.0000000000 0.7000000000 0.0001221059 0.0000000000 0.8000000000 0.0002771482 0.0000000000 0.8000000000 0.0001221059 0.0000000000 0.8000000000 0.0001221059 0.0000000000 0.8000000000 0.0002771482 0.0000000000 0.9000000000 0.0002771482 0.0000000000 0.8000000000 0.0001221059 0.0000000000 0.9000000000 0.0002771482 0.0000000000 0.9000000000 0.0001221059 0.0000000000 0.9000000000 0.0001221059 0.0000000000 0.9000000000 0.0002771482 0.0000000000 1.0000000000 0.0002771482 0.0000000000 0.9000000000 0.0001221059 0.0000000000 1.0000000000 0.0002771482 0.0000000000 1.0000000000 0.0001221059 0.0000000000 0.0000000000 0.0002771482 0.0000000000 0.0000000000 0.0004915718 0.0000000000 0.1000000000 0.0004915718 0.0000000000 0.0000000000 0.0002771482 0.0000000000 0.1000000000 0.0004915718 0.0000000000 0.1000000000 0.0002771482 0.0000000000 0.1000000000 0.0002771482 0.0000000000 0.1000000000 0.0004915718 0.0000000000 0.2000000000 0.0004915718 0.0000000000 0.1000000000 0.0002771482 0.0000000000 0.2000000000 0.0004915718 0.0000000000 0.2000000000 0.0002771482 0.0000000000 0.2000000000 0.0002771482 0.0000000000 0.2000000000 0.0004915718 0.0000000000 0.3000000000 0.0004915718 0.0000000000 0.2000000000 0.0002771482 0.0000000000 0.3000000000 0.0004915718 0.0000000000 0.3000000000 0.0002771482 0.0000000000 0.3000000000 0.0002771482 0.0000000000 0.3000000000 0.0004915718 0.0000000000 0.4000000000 0.0004915718 0.0000000000 0.3000000000 0.0002771482 0.0000000000 0.4000000000 0.0004915718 0.0000000000 0.4000000000 0.0002771482 0.0000000000 0.4000000000 0.0002771482 0.0000000000 0.4000000000 0.0004915718 0.0000000000 0.5000000000 0.0004915718 0.0000000000 0.4000000000 0.0002771482 0.0000000000 0.5000000000 0.0004915718 0.0000000000 0.5000000000 0.0002771482 0.0000000000 0.5000000000 0.0002771482 0.0000000000 0.5000000000 0.0004915718 0.0000000000 0.6000000000 0.0004915718 0.0000000000 0.5000000000 0.0002771482 0.0000000000 0.6000000000 0.0004915718 0.0000000000 0.6000000000 0.0002771482 0.0000000000 0.6000000000 0.0002771482 0.0000000000 0.6000000000 0.0004915718 0.0000000000 0.7000000000 0.0004915718 0.0000000000 0.6000000000 0.0002771482 0.0000000000 0.7000000000 0.0004915718 0.0000000000 0.7000000000 0.0002771482 0.0000000000 0.7000000000 0.0002771482 0.0000000000 0.7000000000 0.0004915718 0.0000000000 0.8000000000 0.0004915718 0.0000000000 0.7000000000 0.0002771482 0.0000000000 0.8000000000 0.0004915718 0.0000000000 0.8000000000 0.0002771482 0.0000000000 0.8000000000 0.0002771482 0.0000000000 0.8000000000 0.0004915718 0.0000000000 0.900000000
[...]
<PointData Scalars="Ba-133_conc,region_id," Vectors="" Tensors="">
<DataArray type="Float64" Name="Ba-133_conc" format="ascii">
564.1207483126 507.7543660464 507.7538003718 448.0485238640 448.0485852416 387.5310529923 387.5306391493 326.1606051654 326.1605928084 265.6322010047 265.6318863827 206.1894203141 206.1893811768 149.1727977430 149.1725810992 94.9202889244 94.9202536825 44.4077052673 44.4073293152 -0.2043151093 564.4205091101 858.3485733446 807.6792291600 564.3628567898 808.1474805808 507.9907867714 507.4805887662 808.4472139087 796.6992054117 507.9973028315 796.5943748284 448.3166218554 447.8387824460 797.1548210190 775.5457431686 448.3115239258 775.5601750520 387.8155299273 387.3989937597 776.0816688767 747.8509875894 387.8082594413 747.9732156418 326.4574552186 326.1113658468 748.4703515500 714.4843722722 326.4485549149 714.7256525141 265.9373612045 265.6746060700 715.1868556606 675.3714170018 265.9260532479 675.7332749203 206.4984087036 206.3315190731 676.1456155446 631.3445518249 206.4853198600 631.8357945241 149.4811570191 149.4156914850 632.1893332496 583.2682620977 149.4659808608 583.8854736328 95.2243043858 95.2760691156 584.1736014440 530.5413095492 95.2046069872 531.2404821679 44.7134319546 45.3108620275 531.2790173630 358.0704630853 44.6846452226 359.4138107614 -0.0103376954 870.2454109687 9.0469600331 28.1601330388 862.3013380052 34.6306876516 810.9847501904 817.9537243704 27.9632566663 39.1376084555 811.7954242414 45.7270411689 800.8892434738 807.8580855339 38.7967552994 49.0154771175 801.0203228465 55.8891779687 779.6252939332 786.9789904893 48.6294834188 59.4029606715 780.0208885691 66.3643006250 751.8677189006 759.4703485715 58.9031594338 69.6233171434 752.4603530130 76.5691710725 718.3522223183 726.0988653538 69.0160885932 79.5447624730 719.1576311921 86.3595519215 679.0228239575 686.8004746781 78.8294913552 88.9391771125 680.0377520520 95.5096665048 634.7029567806 642.3983750164 88.1192580034 97.6730207390 635.9320946227 103.8889838750 586.2782406078 593.7750212839 96.7549342398 101.7980013299 587.7119516800 107.5892854654 533.1694604025 540.3947267568 100.9012274547 207.2045742647 534.7950779550 213.6510098375 357.3231724289 8.7720724773 0.4295133062 -3.8775636118 9.0999302086 -4.1048740979 25.8509417674 24.9514379358 -3.7364182633 -5.2665026213 26.0385931111 -5.7910482410 36.8180344602 35.9059601234 -5.2743726696 -5.8734544847 36.8612172072 -6.3369601716 46.6443096218 45.8328748061 -5.9176063022 -6.3777338060 46.6763666364 -6.7551873731 57.0038069138 56.2982277235 -6.4316361393 -6.8314908613 56.9858247837 -7.1042765938 67.2329393914 66.6581804065 -6.8935901091 -7.1798590122 67.1672743158 -7.3344349580 77.2040285828 76.7801491096 -7.2500832428 -7.4136940829 77.0867359384 -7.4382748161 86.6873909988 86.4325308948 -7.4921353831 -7.5431888547 86.5160318088 -7.4221375472 95.5470874441 95.4719647434 -7.6145519072 -7.0085515097 95.3255874562 -6.8051186061 99.8120035171 99.9831195469 -7.2673522656 -16.6812000500 99.4884093398 -16.0923062353 205.9260341211 0.3732764702 -0.0428074748 0.1351686953 0.3902180187 0.1363461816 -3.8045784232 -3.7497319720 0.1227106768 0.8059247834 -3.7013333987 0.8169224007 -5.1349892203 -5.0699657509 0.7829430029 0.8663411540 -5.0805030187 0.8775280015 -5.8128483249 -5.7676741458 0.8537338820 0.9104730356 -5.7526181044 0.9027333349 -6.3495409945 -6.3314922905 0.9018257727 0.9477927878 -6.2909855692 0.9162561486 -6.8404547884 -6.8515415899 0.9388517922 0.9702987396 -6.7830954970 0.9133917405 -7.2288188349 -7.2715604372 0.9615091144 0.9740558708 -7.1742195174 0.8907584533 -7.5044626932 -7.5806299195 0.9659027103 0.9564777974 -7.4537188197 0.8444092746 -7.6810044611 -7.7907069163 0.9441084257 0.8488255227 -7.6356347521 0.7236206795 -7.1393378168 -7.3060994244 0.8778946072 1.8813054134 -7.1539050240 1.6414629741 -17.1511951300 -0.0443676531 0.0021312801 0.0018640603 -0.0436893590 0.0021057798 0.1334152615 0.1308407514 0.0025095598 -0.0457932798 0.1274583759 -0.0440132482 0.7877655613 0.7819288752 -0.0441757620 -0.0846163292 0.7798088986 -0.0847049537 0.8551493186 0.8533014750 -0.0843860570 -0.0872679468 0.8502305827 -0.0849154438 0.9112163601 0.9151711085 -0.0878179210 -0.0905211870 0.9071825641 -0.0846448377 0.9569119656 0.9662507993 -0.0914324919 -0.0924584852 0.9526452822 -0.0825410518 0.9889490430 1.0040416402 -0.0933512515 -0.0924849836 0.9845222960 -0.0784369556 1.0025951268 1.0236850186 -0.0935227988 -0.0908931133 0.9980776491 -0.0722430120 0.9964222757 1.0231441126 -0.0909663106 -0.0758190131 0.9907635186 -0.0553079012 0.8892999179 0.9266510157 -0.0832652454 -0.1846550522 0.8964985025 -0.1476892589 2.0002287395 0.0023266115 -0.0000257951 -0.0005394651 0.0022468316 -0.0004994579 0.0016848452 0.0017795159 -0.0005333120 0.0017918294 0.0020859610 0.0016921499 -0.0461426798 -0.0459039100 0.0016615480 0.0089798469 -0.0449847132 0.0088313394 -0.0841727461 -0.0838247639 0.0087193552 0.0103685126 -0.0836457578 0.0101986906 -0.0883844177 -0.0887525025 0.0103821636 0.0104645805 -0.0879604204 0.0097409260 -0.0931643345 -0.0944803952 0.0105863070 0.0107779125 -0.0928905562 0.0093997722 -0.0964513637 -0.0986524273 0.0109229507 0.0108500238 -0.0961628922 0.0087675389 -0.0979136000 -0.1010758161 0.0110218348 0.0108492421 -0.0976708256 0.0079799449 -0.0980205880 -0.1020629187 0.0108665840 0.0086500620 -0.0975310865 0.0053552287 -0.0826090078 -0.0884697026 0.0097521971 0.0227125817 -0.0847892943 0.0168783859 -0.2025255949 -0.0000452539 -0.0000067147 0.0000371283 -0.0000392608 0.0000344101 -0.0005428160 -0.0005488603 0.0000369969 -0.0000110443 -0.0005511936 -0.0000040031 0.0018052439 0.0017676297 0.0000062853 -0.0006051741 0.0017300232 -0.0006036353 0.0088215499 0.0086949634 -0.0005646985 -0.0011113328 0.0087144249 -0.0011736610 0.0103437783 0.0102893391 -0.0011074918 -0.0011679213 0.0103253672 -0.0011812562 0.0107436654 0.0108335533 -0.0011935550 -0.0012006873 0.0107459149 -0.0011171164 0.0113047275 0.0115476125 -0.0012382854 -0.0012349155 0.0113169479 -0.0010422278 0.0116255626 0.0120274020 -0.0012786773 -0.0012750539 0.0116429122 -0.0009572632 0.0119321884 0.0124865243 -0.0013010952 -0.0009937385 0.0118973379 -0.0005842076 0.0097615726 0.0106118176 -0.0011555345 -0.0028062097 0.0101265997 -0.0020668506 0.0254544514 -0.0000054312 0.0000007316 -0.0000015108 -0.0000059859 -0.0000012990 0.0000376466 0.0000378012 -0.0000013036 -0.0000059635 0.0000378492 -0.0000065738 -0.0000117768 -0.0000080973 -0.0000077061 0.0000293053 -0.0000047903 0.0000323678 -0.0005817597 -0.0005571632 0.0000218242 0.0001121683 -0.0005641711 0.0001326955 -0.0010654605 -0.0010248647 0.0001041300 0.0001347720 -0.0010601407 0.0001628040 -0.0011609444 -0.0011355389 0.0001355428 0.0001386671 -0.0011616873 0.0001560736 -0.0012378380 -0.0012362319 0.0001436147 0.0001454327 -0.0012426754 0.0001474447 -0.0013107452 -0.0013331564 0.0001519418 0.0001557640 -0.0013175207 0.0001398159 -0.0013983848 -0.0014453306 0.0001618842 0.0001246159 -0.0013982514 0.0000894718 -0.0011383320 -0.0012277879 0.0001408053 0.0003554624 -0.0011877815 0.0002849084 -0.0031455786 0.0000005540 -0.0000000446 -0.0000000075 0.0000006287 -0.0000000498 -0.0000014678 -0.0000014359 -0.0000000627 0.0000005656 -0.0000014882 0.0000007183 -0.0000054520 -0.0000055514 0.0000007223 -0.0000007609 -0.0000061567 -0.0000008271 0.0000250290 0.0000215254 0.0000003879 -0.0000084340 0.0000226215 -0.0000117633 0.0000968203 0.0000862471 -0.0000062274 -0.0000142221 0.0000943119 -0.0000221033 0.0001207866 0.0001095246 -0.0000133215 -0.0000153653 0.0001205443 -0.0000236186 0.0001318676 0.0001231801 -0.0000155575 -0.0000163402 0.0001325640 -0.0000231749 0.0001445910 0.0001389504 -0.0000169773 -0.0000181823 0.0001458776 -0.0000231907 0.0001612753 0.0001589597 -0.0000192636 -0.0000157465 0.0001622556 -0.0000176342 0.0001373105 0.0001394695 -0.0000159071 -0.0000422166 0.0001415001 -0.0000431895 0.0003830843 -0.0000000265 0.0000000010 0.0000000050 -0.0000000351 0.0000000117 0.0000000019 0.0000000005 0.0000000119 -0.0000000302 -0.0000000090 -0.0000000442 0.0000004422 0.0000004157 -0.0000000327 -0.0000000347 0.0000005159 -0.0000000887 -0.0000004591 -0.0000002141 -0.0000001446 0.0000004311 -0.0000001651 0.0000007189 -0.0000058548 -0.0000043468 0.0000001146 0.0000012299 -0.0000052644 0.0000024528 -0.0000101862 -0.0000077087 0.0000009094 0.0000014850 -0.0000099263 0.0000032379 -0.0000119442 -0.0000094302 0.0000013552 0.0000016195 -0.0000118801 0.0000034372 -0.0000137041 -0.0000114060 0.0000015893 0.0000018716 -0.0000137756 0.0000036556 -0.0000161021 -0.0000140618 0.0000019525 0.0000018676 -0.0000163081 0.0000033642 -0.0000150905 -0.0000131206 0.0000015042 0.0000042973 -0.0000148098 0.0000064437 -0.0000404369 0.0000000008 0.0000000000 -0.0000000003 0.0000000012 -0.0000000008 0.0000000022 0.0000000019 -0.0000000007 0.0000000009 0.0000000042 0.0000000009 -0.0000000171 -0.0000000138 0.0000000001 0.0000000040 -0.0000000217 0.0000000115 -0.0000000215 -0.0000000243 0.0000000098 -0.0000000117 -0.0000000500 -0.0000000180 0.0000001956 0.0000000847 0.0000000131 -0.0000000635 0.0000001265 -0.0000001652 0.0000005720 0.0000002594 -0.0000000213 -0.0000000935 0.0000005018 -0.0000003082 0.0000007396 0.0000003459 -0.0000000636 -0.0000001095 0.0000007003 -0.0000003718 0.0000009293 0.0000005147 -0.0000000896 -0.0000001350 0.0000009076 -0.0000004255 0.0000011843 0.0000007569 -0.0000001267 -0.0000001649 0.0000011975 -0.0000004633 0.0000013204 0.0000008173 -0.0000000949 -0.0000002996 0.0000011609 -0.0000007451 0.0000031503 -0.0000000000 -0.0000000000 0.0000000000 -0.0000000000 0.0000000000 -0.0000000000 -0.0000000000 0.0000000000 -0.0000000000 -0.0000000002 0.0000000000 0.0000000004 0.0000000003 0.0000000000 -0.0000000001 0.0000000005 -0.0000000005 0.0000000008 0.0000000002 -0.0000000002 0.0000000002 0.0000000025 -0.0000000005 -0.0000000030 0.0000000001 -0.0000000007 0.0000000009 0.0000000012 0.0000000045 -0.0000000095 0.0000000083 -0.0000000009 0.0000000008 -0.0000000028 0.0000000137 -0.0000000072 0.0000000237 -0.0000000012 0.0000000008 -0.0000000017 0.0000000197 -0.0000000161 0.0000000218 -0.0000000013 0.0000000024 -0.0000000109 0.0000000260 -0.0000000338 0.0000000101 0.0000000002 0.0000000061 -0.0000000314 0.0000000348 -0.0000000616 -0.0000000051 0.0000000008 0.0000000057 -0.0000000398 0.0000000480 -0.0000001077 0.0000000000 -0.0000000000 -0.0000000000 0.0000000000 -0.0000000000 -0.0000000000 -0.0000000000 -0.0000000000 0.0000000000 0.0000000000 0.0000000000 -0.0000000000 -0.0000000000 0.0000000000 0.0000000000 -0.0000000000 0.0000000000 0.0000000000 0.0000000001 0.0000000000 -0.0000000000 -0.0000000000 0.0000000000 0.0000000002 0.0000000002 -0.0000000000 0.0000000000 0.0000000001 0.0000000000 -0.0000000006 -0.0000000008 -0.0000000000 0.0000000003 -0.0000000007 0.0000000002 -0.0000000031 -0.0000000035 0.0000000002 0.0000000006 -0.0000000032 0.0000000005 -0.0000000045 -0.0000000052 0.0000000006 0.0000000007 -0.0000000048 0.0000000004 -0.0000000042 -0.0000000055 0.0000000008 0.0000000005 -0.0000000046 -0.0000000002 -0.0000000023 -0.0000000043 0.0000000005 0.0000000012 -0.0000000032 0.0000000002 -0.0000000079 -0.0000000000 0.0000000000 0.0000000000 -0.0000000000 0.0000000000 -0.0000000000 -0.0000000000 0.0000000000 -0.0000000000 -0.0000000000 -0.0000000000 0.0000000000 0.0000000000 -0.0000000000 -0.0000000000 0.0000000000 -0.0000000000 -0.0000000000 -0.0000000000 -0.0000000000 0.0000000000 -0.0000000000 0.0000000000 -0.0000000000 -0.0000000000 0.0000000000 0.0000000000 -0.0000000000 0.0000000000 0.0000000000 0.0000000000 0.0000000000 -0.0000000000 -0.0000000000 -0.0000000000 0.0000000002 0.0000000001 -0.0000000000 -0.0000000001 0.0000000002 -0.0000000001 0.0000000005 0.0000000003 -0.0000000000 -0.0000000001 0.0000000005 -0.0000000002 0.0000000006 0.0000000004 -0.0000000001 -0.0000000001 0.0000000006 -0.0000000002 0.0000000005 0.0000000004 -0.0000000001 -0.0000000001 0.0000000005 -0.0000000003 0.0000000012 0.0000000000 0.0000000000 -0.0000000000 0.0000000000 -0.0000000000 0.0000000000 0.0000000000 -0.0000000000 0.0000000000 0.0000000000 0.0000000000 -0.0000000000 -0.0000000000 0.0000000000 0.0000000000 -0.0000000000 0.0000000000 -0.0000000000 -0.0000000000 0.0000000000 -0.0000000000 -0.0000000000 -0.0000000000 0.0000000000 0.0000000000 -0.0000000000 -0.0000000000 0.0000000000 -0.0000000000 0.0000000000 0.0000000000 -0.0000000000 0.0000000000 0.0000000000 0.0000000000 -0.0000000000 -0.0000000000 -0.0000000000 0.0000000000 -0.0000000000 0.0000000000 -0.0000000000 -0.0000000000 0.0000000000 0.0000000000 -0.0000000000 0.0000000000 -0.0000000000 -0.0000000000 0.0000000000 0.0000000000 -0.0000000000 0.0000000000 -0.0000000000 -0.0000000000 0.0000000000 0.0000000000 -0.0000000000 0.0000000000 -0.0000000001 -0.0000000000 -0.0000000000 0.0000000000 -0.0000000000 0.0000000000 -0.0000000000 -0.0000000000 0.0000000000 0.0000000000 -0.0000000000 0.0000000000 0.0000000000 0.0000000000 0.0000000000 -0.0000000000 0.0000000000 -0.0000000000 0.0000000000 0.0000000000 -0.0000000000 0.0000000000 0.0000000000 -0.0000000000 -0.0000000000 -0.0000000000 -0.0000000000 0.0000000000 -0.0000000000 0.0000000000 -0.0000000000 -0.0000000000 0.0000000000 0.0000000000 -0.0000000000 0.0000000000 0.0000000000 -0.0000000000 0.0000000000 -0.0000000000 -0.0000000000 -0.0000000000 0.0000000000 0.0000000000 0.0000000000 -0.0000000000 0.0000000000 -0.0000000000 0.0000000000 0.0000000000 -0.0000000000 -0.0000000000 0.0000000000 -0.0000000000 0.0000000000 0.0000000000 -0.0000000000 -0.0000000000 0.0000000000 -0.0000000000 0.0000000000 -0.0000000000 0.0000000000 -0.0000000000 -0.0000000000 -0.0000000000 0.0000000000 0.0000000000 -0.0000000000 -0.0000000000 0.0000000000 -0.0000000000 0.0000000000 0.0000000000 -0.0000000000 0.0000000000 0.0000000000 0.0000000000 -0.0000000000 -0.0000000000 0.0000000000 0.0000000000 -0.0000000000 0.0000000000 -0.0000000000 -0.0000000000 0.0000000000 -0.0000000000 -0.0000000000 -0.0000000000 0.0000000000 0.0000000000 -0.0000000000 -0.0000000000 0.0000000000 -0.0000000000 0.0000000000 0.0000000000 -0.0000000000 0.0000000000 0.0000000000 0.0000000000 -0.0000000000 -0.0000000000 -0.0000000000 0.0000000000 -0.0000000000 0.0000000000 -0.0000000000 -0.0000000000 0.0000000000 0.0000000000 -0.0000000000 0.0000000000 -0.0000000000 -0.0000000000 0.0000000000 0.0000000000 -0.0000000000 0.0000000000 -0.0000000000 0.0000000000 -0.0000000000 0.0000000000 0.0000000000 -0.0000000000 -0.0000000000 -0.0000000000 -0.0000000000 0.0000000000 -0.0000000000 0.0000000000 -0.0000000000 -0.0000000000 0.0000000000 -0.0000000000 -0.0000000000 -0.0000000000 0.0000000000 0.0000000000 0.0000000000 -0.0000000000 0.0000000000 -0.0000000000 0.0000000000 0.0000000000 -0.0000000000 0.0000000000 0.0000000000 0.0000000000 -0.0000000000 -0.0000000000 -0.0000000000 0.0000000000 -0.0000000000 0.0000000000 -0.0000000000 -0.0000000000 0.0000000000 0.0000000000 -0.0000000000 0.0000000000 0.0000000000 -0.0000000000 0.0000000000 -0.0000000000 -0.0000000000 -0.0000000000 0.0000000000 0.0000000000 0.0000000000 -0.0000000000 0.0000000000 -0.0000000000 0.0000000000 0.0000000000 -0.0000000000 -0.0000000000 0.0000000000 -0.0000000000 0.0000000000 -0.0000000000 0.0000000000 0.0000000000 -0.0000000000 0.0000000000 0.0000000000 -0.0000000000 0.0000000000 -0.0000000000 0.0000000000 -0.0000000000 0.0000000000 0.0000000000 -0.0000000000 -0.0000000000 0.0000000000 -0.0000000000 -0.0000000000 -0.0000000000 -0.0000000000 0.0000000000 -0.0000000000 0.0000000000 -0.0000000000 -0.0000000000 0.0000000000 0.0000000000 -0.0000000000 0.0000000000 0.0000000000 -0.0000000000 0.0000000000 -0.0000000000 -0.0000000000 -0.0000000000 0.0000000000 0.0000000000 -0.0000000000 -0.0000000000 0.0000000000 -0.0000000000 0.0000000000 0.0000000000 -0.0000000000 0.0000000000 0.0000000000 0.0000000000 -0.0000000000 -0.0000000000 -0.0000000000 0.0000000000 -0.0000000000 0.0000000000 -0.0000000000 -0.0000000000 0.0000000000 0.0000000000 -0.0000000000 0.0000000000 -0.0000000000 
</DataArray>
<DataArray type="Int32" Name="region_id" format="ascii">
2 2 2 2 2 2 2 2 2 2 2 2 2 2 2 2 2 2 2 2 1 1 1 1 1 1 1 1 1 1 1 1 1 1 1 1 1 1 1 1 1 1 1 1 1 1 1 1 1 1 1 1 1 1 1 1 1 1 1 1 1 1 1 1 1 1 1 1 1 1 1 1 1 1 1 1 1 1 1 1 1 1 1 1 1 1 1 1 1 1 1 1 1 1 1 1 1 1 1 1 1 1 1 1 1 1 1 1 1 1 1 1 1 1 1 1 1 1 1 1 1 1 1 1 1 1 1 1 1 1 1 1 1 1 1 1 1 1 1 1 1 1 1 1 1 1 1 1 1 1 1 1 1 1 1 1 1 1 1 1 1 1 1 1 1 1 1 1 1 1 1 1 1 1 1 1 1 1 1 1 1 1 1 1 1 1 1 1 1 1 1 1 1 1 1 1 1 1 1 1 1 1 1 1 1 1 1 1 1 1 1 1 1 1 1 1 1 1 1 1 1 1 1 1 1 1 1 1 1 1 1 1 1 1 1 1 1 1 1 1 1 1 1 1 1 1 1 1 1 1 1 1 1 1 1 1 1 1 1 1 1 1 1 1 1 1 1 1 1 1 1 1 1 1 1 1 1 1 1 1 1 1 1 1 1 1 1 1 1 1 1 1 1 1 1 1 1 1 1 1 1 1 1 1 1 1 1 1 1 1 1 1 1 1 1 1 1 1 1 1 1 1 1 1 1 1 1 1 1 1 1 1 1 1 1 1 1 1 1 1 1 1 1 1 1 1 1 1 1 1 1 1 1 1 1 1 1 1 1 1 1 1 1 1 1 1 1 1 1 1 1 1 1 1 1 1 1 1 1 1 1 1 1 1 1 1 1 1 1 1 1 1 1 1 1 1 1 1 1 1 1 1 1 1 1 1 1 1 1 1 1 1 1 1 1 1 1 1 1 1 1 1 1 1 1 1 1 1 1 1 1 1 1 1 1 1 1 1 1 1 1 1 1 1 1 1 1 1 1 1 1 1 1 1 1 1 1 1 1 1 1 1 1 1 1 1 1 1 1 1 1 1 1 1 1 1 1 1 1 1 1 1 1 1 1 1 1 1 1 1 1 1 1 1 1 1 1 1 1 1 1 1 1 1 1 1 1 1 1 1 1 1 1 1 1 1 1 1 1 1 1 1 1 1 1 1 1 1 1 1 1 1 1 1 1 1 1 1 1 1 1 1 1 1 1 1 1 1 1 1 1 1 1 1 1 1 1 1 1 1 1 1 1 1 1 1 1 1 1 1 1 1 1 1 1 1 1 1 1 1 1 1 1 1 1 1 1 1 1 1 1 1 1 1 1 1 1 1 1 1 1 1 1 1 1 1 1 1 1 1 1 1 1 1 1 1 1 1 1 1 1 1 1 1 1 1 1 1 1 1 1 1 1 1 1 1 1 1 1 1 1 1 1 1 1 1 1 1 1 1 1 1 1 1 1 1 1 1 1 1 1 1 1 1 1 1 1 1 1 1 1 1 1 1 1 1 1 1 1 1 1 1 1 1 1 1 1 1 1 1 1 1 1 1 1 1 1 1 1 1 1 1 1 1 1 1 1 1 1 1 1 1 1 1 1 1 1 1 1 1 1 1 1 1 1 1 1 1 1 1 1 1 1 1 1 1 1 1 1 1 1 1 1 1 1 1 1 1 1 1 1 1 1 1 1 1 1 1 1 1 1 1 1 1 1 1 1 1 1 1 1 1 1 1 1 1 1 1 1 1 1 1 1 1 1 1 1 1 1 1 1 1 1 1 1 1 1 1 1 1 1 1 1 1 1 1 1 1 1 1 1 1 1 1 1 1 1 1 1 1 1 1 1 1 1 1 1 1 1 1 1 1 1 1 1 1 1 1 1 1 1 1 1 1 1 1 1 1 1 1 1 1 1 1 1 1 1 1 1 1 1 1 1 1 1 1 1 1 1 1 1 1 1 1 1 1 1 1 1 1 1 1 1 1 1 1 1 1 1 1 1 1 1 1 1 1 1 1 1 1 1 1 1 1 1 1 1 1 1 1 1 1 1 1 1 1 1 1 1 1 1 1 1 1 1 1 1 1 1 1 1 1 1 1 1 1 1 1 1 1 1 1 1 1 1 1 1 1 1 1 1 1 1 1 1 1 1 1 1 1 1 1 1 1 1 1 1 1 1 1 1 1 1 1 1 1 1 1 1 1 1 1 1 1 1 1 1 1 1 1 1 1 1 1 1 1 1 1 1 1 1 1 1 1 1 1 1 1 1 1 1 1 1 1 1 1 1 1 1 1 1 1 1 1 1 1 1 1 1 1 1 1 1 1 1 1 1 1 1 1 1 1 1 1 1 1 1 1 1 1 1 1 1 1 1 1 1 1 1 1 1 1 1 1 1 1 1 1 1 1 1 1 1 1 1 1 1 1 1 1 1 1 1 1 1 1 1 1 1 1 1 1 1 1 1 1 1 1 1 1 1 1 1 1 1 1 1 1 1 1 1 1 1 1 1 1 1 1 1 1 1 1 1 1 1 1 1 1 1 1 1 1 1 1 1 1 1 1 1 1 1 1 1 1 1 1 1 1 1 1 1 1 1 1 1 1 1 1 1 1 
</DataArray>
</PointData>
</Piece>
</UnstructuredGrid>
</VTKFile>
