<?xml version="1.0"?>
<VTKFile type="UnstructuredGrid" version="0.1" byte_order="LittleEndian">
<UnstructuredGrid>
<Piece NumberOfPoints="1160" NumberOfCells="390">
<Points>
<DataArray type="Float64" NumberOfComponents="3" format="ascii">
0 0.02712913039350634 0 0 0.037627845084982139 0 0.10000000000000001 0.037627845084982139 0 0 0.01007997645382676 0 0 0.014048877707311129 0 0.10000000000000001 0.014048877707311129 0 0 0.0072101992457088487 0 0 0.01007997645382676 0 0.10000000000000001 0.01007997645382676 0 0 0.0001221058858762623 0 0 0.00027714824767246312 0 0.10000000000000001 0.00027714824767246312 0 0 0.014048877707311129 0 0 0.019537864299142921 0 0.10000000000000001 0.019537864299142921 0 0 0.0051351601405289276 0 0 0.0072101992457088487 0 0.10000000000000001 0.0072101992457088487 0 0 0.00027714824767246312 0 0 0.00049157175393484403 0 0.10000000000000001 0.00049157175393484403 0 0 0.019537864299142921 0 0 0.02712913039350634 0 0.10000000000000001 0.02712913039350634 0 0 0 0 0.10000000000000001 0 0 0 0.0036347696815094469 0 0 0.0051351601405289276 0 0.10000000000000001 0.0051351601405289276 0 0 1.0000000000000001e-05 0 0 0.0001221058858762623 0 0.10000000000000001 0.0001221058858762623 0 0 0.0025498882091243972 0 0 0.0036347696815094469 0 0.10000000000000001 0.0036347696815094469 0 0 0.037627845084982139 0 0 0.052147564491031792 0 0.10000000000000001 0.052147564491031792 0 0 0.00049157175393484403 0 0 0.00078811928474293897 0 0.10000000000000001 0.00078811928474293897 0 0 0.00078811928474293897 0 0 0.001198244413521618 0 0.10000000000000001 0.001198244413521618 0 0 0.001198244413521618 0 0 0.001765447234118425 0 0.10000000000000001 0.001765447234118425 0 0 0 0 0 1.0000000000000001e-05 0 0.10000000000000001 1.0000000000000001e-05 0 0 0.001765447234118425 0 0 0.0025498882091243972 0 0.10000000000000001 0.0025498882091243972 0 0 0.052147564491031792 0 0 0.072228323778986164 0 0.10000000000000001 0.072228323778986164 0 0 0.072228323778986164 0 0 0.10000000000000001 0 0.10000000000000001 0.10000000000000001 0 0 0.072228323778986164 0 0.10000000000000001 0.10000000000000001 0 0.10000000000000001 0.072228323778986164 0 0 0.014048877707311129 0 0.10000000000000001 0.019537864299142921 0 0.10000000000000001 0.014048877707311129 0 0 0.019537864299142921 0 0.10000000000000001 0.02712913039350634 0 0.10000000000000001 0.019537864299142921 0 0 0.0051351601405289276 0 0.10000000000000001 0.0072101992457088487 0 0.10000000000000001 0.0051351601405289276 0 0 0.001198244413521618 0 0.10000000000000001 0.001765447234118425 0 0.10000000000000001 0.001198244413521618 0 0 0.001765447234118425 0 0.10000000000000001 0.0025498882091243972 0 0.10000000000000001 0.001765447234118425 0 0 0.00027714824767246312 0 0.10000000000000001 0.00049157175393484403 0 0.10000000000000001 0.00027714824767246312 0 0 0.0036347696815094469 0 0.10000000000000001 0.0051351601405289276 0 0.10000000000000001 0.0036347696815094469 0 0 0.01007997645382676 0 0.10000000000000001 0.014048877707311129 0 0.10000000000000001 0.01007997645382676 0 0 1.0000000000000001e-05 0 0.10000000000000001 0.0001221058858762623 0 0.10000000000000001 1.0000000000000001e-05 0 0 0.052147564491031792 0 0.10000000000000001 0.072228323778986164 0 0.10000000000000001 0.052147564491031792 0 0 0.0001221058858762623 0 0.10000000000000001 0.00027714824767246312 0 0.10000000000000001 0.0001221058858762623 0 0 0.02712913039350634 0 0.10000000000000001 0.037627845084982139 0 0.10000000000000001 0.02712913039350634 0 0 0.00078811928474293897 0 0.10000000000000001 0.001198244413521618 0 0.10000000000000001 0.00078811928474293897 0 0 0.0025498882091243972 0 0.10000000000000001 0.0036347696815094469 0 0.10000000000000001 0.0025498882091243972 0 0 0 0 0.10000000000000001 1.0000000000000001e-05 0 0.10000000000000001 0 0 0 0.0072101992457088487 0 0.10000000000000001 0.01007997645382676 0 0.10000000000000001 0.0072101992457088487 0 0 0.037627845084982139 0 0.10000000000000001 0.052147564491031792 0 0.10000000000000001 0.037627845084982139 0 0 0.00049157175393484403 0 0.10000000000000001 0.00078811928474293897 0 0.10000000000000001 0.00049157175393484403 0 0.10000000000000001 0.00078811928474293897 0 0.10000000000000001 0.001198244413521618 0 0.20000000000000001 0.001198244413521618 0 0.10000000000000001 0.00078811928474293897 0 0.20000000000000001 0.001198244413521618 0 0.20000000000000001 0.00078811928474293897 0 0.10000000000000001 0.0036347696815094469 0 0.20000000000000001 0.0051351601405289276 0 0.20000000000000001 0.0036347696815094469 0 0.10000000000000001 0.0051351601405289276 0 0.10000000000000001 0.0072101992457088487 0 0.20000000000000001 0.0072101992457088487 0 0.10000000000000001 0.0051351601405289276 0 0.20000000000000001 0.0072101992457088487 0 0.20000000000000001 0.0051351601405289276 0 0.10000000000000001 0.0072101992457088487 0 0.10000000000000001 0.01007997645382676 0 0.20000000000000001 0.01007997645382676 0 0.10000000000000001 0.0072101992457088487 0 0.20000000000000001 0.01007997645382676 0 0.20000000000000001 0.0072101992457088487 0 0.10000000000000001 0.00027714824767246312 0 0.10000000000000001 0.00049157175393484403 0 0.20000000000000001 0.00049157175393484403 0 0.10000000000000001 0.00027714824767246312 0 0.20000000000000001 0.00049157175393484403 0 0.20000000000000001 0.00027714824767246312 0 0.10000000000000001 0.0036347696815094469 0 0.10000000000000001 0.0051351601405289276 0 0.20000000000000001 0.0051351601405289276 0 0.10000000000000001 0.001198244413521618 0 0.10000000000000001 0.001765447234118425 0 0.20000000000000001 0.001765447234118425 0 0.10000000000000001 0.0025498882091243972 0 0.20000000000000001 0.0036347696815094469 0 0.20000000000000001 0.0025498882091243972 0 0.10000000000000001 0.01007997645382676 0 0.10000000000000001 0.014048877707311129 0 0.20000000000000001 0.014048877707311129 0 0.10000000000000001 0.0025498882091243972 0 0.10000000000000001 0.0036347696815094469 0 0.20000000000000001 0.0036347696815094469 0 0.10000000000000001 0.001765447234118425 0 0.20000000000000001 0.0025498882091243972 0 0.20000000000000001 0.001765447234118425 0 0.10000000000000001 0.001198244413521618 0 0.20000000000000001 0.001765447234118425 0 0.20000000000000001 0.001198244413521618 0 0.10000000000000001 0.00049157175393484403 0 0.10000000000000001 0.00078811928474293897 0 0.20000000000000001 0.00078811928474293897 0 0.10000000000000001 0.00049157175393484403 0 0.20000000000000001 0.00078811928474293897 0 0.20000000000000001 0.00049157175393484403 0 0.10000000000000001 0.001765447234118425 0 0.10000000000000001 0.0025498882091243972 0 0.20000000000000001 0.0025498882091243972 0 0.10000000000000001 0.02712913039350634 0 0.10000000000000001 0.037627845084982139 0 0.20000000000000001 0.037627845084982139 0 0.10000000000000001 0 0 0.20000000000000001 0 0 0.10000000000000001 0.052147564491031792 0 0.20000000000000001 0.072228323778986164 0 0.20000000000000001 0.052147564491031792 0 0.10000000000000001 0 0 0.10000000000000001 1.0000000000000001e-05 0 0.20000000000000001 1.0000000000000001e-05 0 0.10000000000000001 0 0 0.20000000000000001 1.0000000000000001e-05 0 0.20000000000000001 0 0 0.10000000000000001 0.037627845084982139 0 0.20000000000000001 0.052147564491031792 0 0.20000000000000001 0.037627845084982139 0 0.10000000000000001 0.037627845084982139 0 0.10000000000000001 0.052147564491031792 0 0.20000000000000001 0.052147564491031792 0 0.10000000000000001 0.02712913039350634 0 0.20000000000000001 0.037627845084982139 0 0.20000000000000001 0.02712913039350634 0 0.10000000000000001 1.0000000000000001e-05 0 0.10000000000000001 0.0001221058858762623 0 0.20000000000000001 0.0001221058858762623 0 0.10000000000000001 1.0000000000000001e-05 0 0.20000000000000001 0.0001221058858762623 0 0.20000000000000001 1.0000000000000001e-05 0 0.10000000000000001 0.019537864299142921 0 0.20000000000000001 0.02712913039350634 0 0.20000000000000001 0.019537864299142921 0 0.10000000000000001 0.019537864299142921 0 0.10000000000000001 0.02712913039350634 0 0.20000000000000001 0.02712913039350634 0 0.10000000000000001 0.014048877707311129 0 0.20000000000000001 0.019537864299142921 0 0.20000000000000001 0.014048877707311129 0 0.10000000000000001 0.0001221058858762623 0 0.10000000000000001 0.00027714824767246312 0 0.20000000000000001 0.00027714824767246312 0 0.10000000000000001 0.01007997645382676 0 0.20000000000000001 0.014048877707311129 0 0.20000000000000001 0.01007997645382676 0 0.10000000000000001 0.0001221058858762623 0 0.20000000000000001 0.00027714824767246312 0 0.20000000000000001 0.0001221058858762623 0 0.10000000000000001 0.014048877707311129 0 0.10000000000000001 0.019537864299142921 0 0.20000000000000001 0.019537864299142921 0 0.10000000000000001 0.072228323778986164 0 0.20000000000000001 0.10000000000000001 0 0.20000000000000001 0.072228323778986164 0 0.10000000000000001 0.072228323778986164 0 0.10000000000000001 0.10000000000000001 0 0.20000000000000001 0.10000000000000001 0 0.10000000000000001 0.052147564491031792 0 0.10000000000000001 0.072228323778986164 0 0.20000000000000001 0.072228323778986164 0 0.20000000000000001 0.072228323778986164 0 0.20000000000000001 0.10000000000000001 0 0.29999999999999999 0.10000000000000001 0 0.20000000000000001 0.052147564491031792 0 0.20000000000000001 0.072228323778986164 0 0.29999999999999999 0.072228323778986164 0 0.20000000000000001 0.00078811928474293897 0 0.20000000000000001 0.001198244413521618 0 0.29999999999999999 0.001198244413521618 0 0.20000000000000001 0.0001221058858762623 0 0.20000000000000001 0.00027714824767246312 0 0.29999999999999999 0.00027714824767246312 0 0.20000000000000001 0.001198244413521618 0 0.20000000000000001 0.001765447234118425 0 0.29999999999999999 0.001765447234118425 0 0.20000000000000001 0 0 0.20000000000000001 1.0000000000000001e-05 0 0.29999999999999999 1.0000000000000001e-05 0 0.20000000000000001 0.0072101992457088487 0 0.20000000000000001 0.01007997645382676 0 0.29999999999999999 0.01007997645382676 0 0
[...]
<PointData Scalars="Ba-133_conc,region_id," Vectors="" Tensors="">
<DataArray type="Float64" Name="Ba-133_conc" format="ascii">
-1.1438147899921506e-74 2.2133238430177003e-75 -9.2971129589441147e-76 8.1967474134157702e-46 -2.9232063170662191e-45 2.6701066070655882e-45 8.7392000603123571e-37 7.2391069476578723e-38 -4.8606128436428263e-37 -1.3012409221501007 -0.25670086517966167 1.1570554960729986 -4.8679037051444498e-54 3.016931737950895e-54 4.5475789966745902e-56 -2.5070196379149244e-29 4.4243890030635845e-30 5.159665454631381e-30 -0.043799202397709125 0.017157309784554532 -0.024242082539870879 -1.8563874655127199e-64 9.5561613679866662e-65 -6.6980647410807277e-65 1798.2204800963525 2530.8446415020867 5.6201441002146938e-23 -1.8107349921329288e-23 4.198191203844738e-24 95.565150250784001 -1.8913361222534604 -28.610699653909411 -1.041280226160448e-17 5.8550228086205159e-18 -6.5150378568357206e-18 -1.6585174281899468e-85 4.8298441855014979e-86 -1.6726911085380784e-86 0.0013878686381534997 -0.00026992995676453844 0.00011884043094527763 -5.7171503698653872e-06 8.1826086570576509e-07 1.2694051780489479e-06 3.6946090259132893e-09 1.5975545771408448e-10 -2.4095920683983141e-09 1796.2278594825125 111.00607803684244 192.54632637085382 -8.171555911531266e-14 -1.7474004312245847e-13 4.0025206771046214e-13 -8.1248783307998535e-97 2.447070084835278e-97 -8.7267557873777887e-98 -1.1165511951024779e-108 3.4838700513337326e-109 -1.3387390912085729e-109 -6.8977886345376623e-103 9.4734560505180508e-104 -1.0722776548871786e-103 -7.1650317465280072e-50 -2.2167383659351702e-50 2.8073894756712524e-49 2.0692801141656669e-60 -2.0521353086397445e-59 -1.1656129132457106e-59 -2.0163623431978615e-26 9.3427935025419368e-27 5.3812778919532137e-27 7.0641765850453252e-08 -5.5549399963463788e-08 1.131405744552815e-07 -7.1952480132602813e-12 2.1095470480686893e-11 -7.3786057214328665e-11 -0.069515219715081275 -0.052550240110106602 0.60272503110933062 1.68184126970898e-20 -1.1684862624656061e-21 -2.7029439398415656e-20 4.101683509224458e-42 3.7599164354253957e-41 -1.2289864841585527e-40 110.38018512762541 -42.33470288002534 191.70204366384962 -2.3882685953584011e-91 2.6865666298876783e-92 -3.9675293472399091e-92 -1.8487325453034633 1.9712343246076298 -21.842923332201998 -5.8778989702948462e-70 -1.4742206129359247e-70 -6.7426273051121598e-70 -4.2254758716753784e-05 1.6975591856875737e-05 1.0342182463316586e-05 -1.0690699457554549e-15 -7.32580137787939e-16 4.52333018517694e-15 1796.2500033342976 192.53039216254106 2528.6105677395681 1.8509677136392156e-33 -2.1321118957020778e-33 3.4299691544967987e-33 -2.2647353748319694e-80 1.1789204710601676e-81 -5.0645055695068832e-81 0.0044238429090963068 -8.5534204456281506e-05 -0.0071565355501642435 -1.0383452855375239e-05 9.9203521897711159e-06 -1.2415547409965088e-05 -7.7914310227353558e-05 -7.7166772619199846e-05 0.00054603415092049359 -4.886509929892751e-20 1.2041864069457773e-19 -3.5302688082472229e-19 -1.2750812677643622e-28 1.0218564708360449e-28 -9.766212250007957e-29 -9.6950008039517659e-26 -9.8038264452858647e-26 5.019789643873658e-25 1.8020073536572533e-35 -6.5716731363163473e-36 8.9269019707427333e-37 3.3623841786127262e-32 -1.0032554354859485e-33 -6.3255886295949499e-32 0.36421912598334827 0.0076909494094065051 -0.16348152022111281 0.51522307312912674 -0.41654128876100766 1.5211567658271583 -2.0089987162893098e-22 -1.2649549070074437e-22 2.985856981789507e-22 3.7566432939698364e-08 -1.119064111284799e-08 4.7829401515373843e-09 1.5704075966335841e-14 -1.252220161313909e-14 1.8670368632219541e-14 -1.4687693687832859e-43 2.6221045669226608e-44 2.9630344859326784e-44 1.5860835061066039e-16 -1.6676712699849232e-18 -7.7252235904743391e-17 -2.9931783338120654e-10 1.1141662837964528e-10 9.5309224137628607e-11 5.6305640096551589e-07 9.794195345626238e-09 -8.3608982281637073e-07 -0.0019937796085333429 -0.00097541991883615803 0.0033138584684378677 -0.0029100183177546528 0.011848341896341357 -0.057305322151923133 -7.8381385284579408e-12 1.3482446857156589e-12 1.3438102257438893e-12 2.7164526307044162e-73 -1.0698734242603546e-73 -5.045381403900958e-74 2531.6447552944605 3503.7849205997954 5.9794522705505801e-90 9.0258897423733636e-91 -2.7616746112374904e-90 2528.71055522491 192.52354186583989 287.29315113392477 2528.8405301931566 287.25923349445014 3500.3100663550431 5.6342036162088043e-79 2.1504373727302146e-79 -4.0622160243986621e-79 4.4696503993341545e-84 -1.4719116826273297e-84 -7.8130746743029741e-85 1.2208367941432558e-68 1.6194951160704945e-68 -1.2265812491826549e-68 175.21059498396298 -27.430134666094148 -42.53720310616756 191.81831299734145 -62.146629829895076 285.89375027575903 2.0153866297168309e-58 1.7492427799476201e-58 -1.0126623675057802e-57 4.3986848216467478e-63 -4.6922208588147654e-63 -8.812828408819798e-64 4.0453450883734339e-49 -1.6319374933234468e-48 2.4605585347399158e-48 -18.354676746620338 0.6252225821456846 2.6631468282032134 -6.7412950381531609e-40 4.2591432705983921e-40 3.0277071288238812e-40 -21.835985948430412 5.0006159187424739 -32.923745628047648 4.428027323083105e-53 2.48848994306883e-53 -2.949216283893074e-53 1.7309211856492439e-101 6.0948569508379236e-103 -5.0408337769566347e-102 2.8484689412830742e-107 -9.2408595945589809e-108 -2.3362272378719289e-108 2.1091796877155801e-95 -6.7812560537905503e-96 -2.7791536603902006e-96 1.5439203370213111e-106 -4.8974905356716377e-107 1.5015431622042883e-107 1.1324957729511846e-94 -3.4726033123362449e-95 8.8339313657040607e-96 9.745914369279306e-05 8.8663453322014514e-06 -6.0461501423057659e-05 -27.629278910157925 2.2490062267888025 3.8058014126135733 -3.3253516286477203e-08 -3.1946240946099384e-08 7.5587551762867109e-08 3500.2097387131298 287.30516456543461 422.99622918291891 -4.0201215004504716e-35 -2.895981088719404e-35 4.8829522912180886e-35 -0.02325434333403362 0.00074650456095876191 0.0072053046349515783 2.3820242667718206e-83 -7.0148273637059263e-84 1.4349160084115051e-84 9.4421796309473431e-52 -3.3642695770791336e-52 -1.0790481781535506e-52 -1.1531982771655311e-11 9.7544164922810643e-12 -9.5643610354399952e-12 0.97871192541021979 -0.11379094255333498 -0.25252356695863742 1.713070923283747e-72 -3.194702517757099e-73 4.5898331027766676e-74 -4.0994767582674458e-21 6.9003079910780157e-22 7.8925580161190883e-22 1.7106790318293762e-27 1.9020770392282352e-31 -7.4335608419466898e-28 -2.1065427078501631e-63 -2.5947334129082764e-62 1.3384750181984354e-62 8.6040896429119546e-16 -2.7396194474872755e-16 4.9046647338912985e-17 -5.0873870746958166e-43 4.1975041866855239e-43 -1.9859077505351349e-43 262.25478660028739 -40.666251374515561 -62.500713099470914 1.1271116039310555e-47 -3.5533960503105509e-48 -2.1973337331475036e-47 -2.9255254867494267e-39 -2.2472286420141104e-39 1.2310189198588313e-38 0.00033981919326888142 -0.00047603484017736959 0.0013175343876750604 3.3862457804152882e-89 -2.6209173308865379e-90 2.3124788340792853e-90 -9.9745370298590798e-59 3.9479991601890656e-57 -1.6287290365088415e-57 -9.7548909259830372e-19 4.368130119669784e-19 9.4724408589747233e-20 2.5362230463778282e-08 1.2412775765008309e-06 -4.7154949087966622e-06 8.4399419874409244e-14 -6.2303440647363495e-15 -9.9652639448444637e-14 -3.4356160505661911e-32 1.735044373619253e-31 -4.8596798224568812e-31 3.3826393482927092e-78 -7.6904663967650927e-80 -4.3649376353454183e-80 -5.6541973893025061e-10 -3.3104098522044458e-10 2.2049836615134524e-09 9.7660430219133026e-25 -9.5008104145627532e-25 1.446389531453467e-24 8.5034862901437435e-68 2.6093098009780992e-68 6.374345401224583e-68 286.24460986238705 -90.485642277683084 421.05796818435221 1.4518033138094761 -0.67150625993145707 2.2746201162389235 3500.1386726834221 423.01676112773509 4681.7952807356796 -0.049944364830040389 0.030063582864361078 -0.092653306932018134 -32.604854184487586 7.2484702457210224 -48.791276692316146 3503.329787202088 4685.9131203635525 6.0572032243837517e-11 9.7898561005846699e-12 -4.2627031630943125e-11 -3.0550947600456281e-61 1.9704042973096456e-61 6.0501423415187754e-62 -1.2128859966701504e-56 2.6003344640644219e-57 3.7123967929089204e-56 -6.369378977257438e-34 9.8301254593407242e-35 1.3142400960805491e-34 -8.0846603500257168e-72 4.7496394354972552e-72 1.5715498435178547e-72 9.8178864166148834e-10 -1.966811290732678e-09 5.4307231218044936e-09 421.47101237393042 -129.52674177866075 612.69738161099019 -3.6802368002273571e-67 -8.3372628450469508e-67 4.1708777342476804e-67 -0.038454790052826669 0.0045536552313791227 0.010596549326389067 -0.083249930337427613 0.046223959395834735 -0.13810590799470854 -1.7348624278023712e-82 5.8594519880250707e-83 3.0695208260284866e-83 -2.2045514357631837e-77 -8.1674162606842006e-78 1.732304796263672e-77 387.69295028632365 -59.930903373005194 -90.527570301033165 -9.1441306667992307e-31 5.5533131005877894e-31 -1.3055507839769387e-31 7.255315879494403e-27 -2.2539932235920861e-27 -1.4256026407488765e-28 -3.6874112690789303e-16 -6.8063011350428103e-16 1.1777261881826885e-15 3.3968713476090832e-14 1.3331760990139859e-13 -5.0218984490850291e-13 1.7850809555959734e-47 5.0949163638757352e-47 -1.5108232261893922e-46 -2.8118829038919796e-53 -1.990086722445397e-51 1.0109194254356439e-51 1.2134823889834858e-38 -2.0119329580826289e-38 3.1294304965565466e-38 4.2062881461198827e-42 3.2809910094079245e-43 -1.6611564054595213e-42 -48.355992787136124 10.501056495095227 -71.414546776289612 -41.218461673923706 3.3147280061610083 5.5854447919622121 2.1596051554172679 -0.98692904934555659 3.3896362722581466 1.467759001635941 -0.19694370899818361 -0.36412660620894483 -5.8738322852408257e-21 4.0651284758419477e-21 -2.7775074714994385e-21 -1.8388685565798966e-18 -6.5648922461061093e-19 5.0398063722781446e-18 -2.3649235678924217e-88 -3.4418987513966169e-89 1.1074703244220758e-88 4681.8275140974429 423.02634861319234 615.38620262856318 4681.8667622780449 615.39299622115288 6025.2183817989462 4.5816173538892127e-24 -8.2514567057455249e-25 -4.280627026765309e-24 4686.1519760076471 6030.1416384627646 0.00026873812553029317 -2.8424054396436253e-05 -9.8709077672020826e-05 0.0010786668309247327 -0.00082650875265246736 0.0020467594738887104 -3.9115496651085639e-07 5.2985135145270001e-09 1.710984628777192e-07 -3.2947203271770419e-06 3.2013208988905005e-06 -8.1274747831780152e-06 -8.3016313733860657e-94 2.6743892300827979e-94 1.0951275729356168e-94 -1.1211893729084831e-105 3.6198495941498521e-106 9.3169572758408419e-107 -6.830502768940883e-100 -2.3040128184895431e-101 1.9817333788107416e-100 9.6188178617531053e-101 -1.0982736542620136e-101 8.8151494012558589e-102 -2.1241248504979396e-99 1.2520645862603647e-100 1.1556353986871399e-100 6.9118753004342965e-38 -2.5015636830921021e-38 -5.0505741875908505e-38 -1.8684865644645859e-30 -3.268235604747433e-31 3.9004766821619404e-30 0.0017098859299080793 -0.0012788026051870421 0.0031429627250353707 3.2271667196939209 -1.442191599038614 4.987900211254396 6029.9393538783206 7340.7725057809703 -2.8148393153915715e-13 3.5921611742300195e-13 -9.0231463856650791e-13 -7.5667546161716357e-88 -3.1442499834023277e-90 1.0455503024904935e-88 -1.4946194586186158e-46 1.9595112023150401e-46 -1.030626994680802e-46 613.14113349122499 -181.57935195762641 875.01386946202945 1.4404719415073014e-18 -4.4457850169134508e-18 1.2633625245095831e-17 -7.9978282441253707e-77 -3.3774799452626184e-78 3.3280729096737994e-77 2.9944227273769119e-24 5.5348606291658755e-24 -2.1714992977881236e-23 6025.1326567889373 878.62073432282352 7335.7573932593141 -2.070477649972144e-56 -7.4221266773723343e-56 1.195066513915306e-55 -1.4068279225880946e-66 -1.7030318945894148e-66 -5.8954490249292625e-67 -0.12621743684136799 0.069784032884262021 -0.20894392176464976 3.6491057740231406e-09 -3.6239191922837e-09 8.6342983473901241e-09 -6.1127632570217528e-06 5.1813791309462853e-06 -1.2488639928644336e-05 -70.79347540408763 14.928733055936858 -102.87779074767946 -5.504431458506255e-82 1.6415010001835721e-82 1.6632071434278007e-83 -5.6368833222219169e-28 -5.245506283279865e-27 6.1922310058022879e-27 1.7984227551083318e-20 4.2263989806562774e-21 -1.2909033570217591e-20 6025.1944450292003 615.40395529461875 878.56663841658974 2.2153909517841917 -0.29486069989240565 -0.54098397204800486 0.00042345790656725369 -5.8572654784615689e-05 -0.00014708745191274248 -6.9948145562797297e-07 8.353098552432125e-08 2.5995218696068903e-07 1.7898472314688687e-41 -5.2424260406943796e-42 -1.6005212057891541e-42 -3.2728780166564458e-71 7.5578679436717062e-72 1.5285189874620381e-72 -0.058304225160622718 0.0072331191399016637 0.015979404549471134 1.7665206791709436e-10 -1.4536078554410201e-11 -7.2701092527888859e-11 -5.841936118657703e-15 -6.6983905447554077e-17 2.7685615530051442e-15 -60.774410173322117 4.9216602526392101 8.0618659065577578 -1.9913406800024933e-50 1.3919054804723677e-51 4.5644199002616557e-51 -9.5894465062941761e-34 5.6950355890059926e-34 -1.9828103902125635e-34 9.8425426242052411e-62 9.5615465883680055e-61 -2.4659553525428161e-61 566.73625462638995 -87.082481562899801 -128.7831056177269 -3.3988624172927798e-105 1.1022926866353475e-105 -1.1932053443713342e-106 -2.5149872116758462e-93 7.9467036884857765e-94 -7.8242338997121752e-96 2.3703182902938168e-29 -3.1729346387452587e-29 7.0076639719071473e-29 -324.4556935937012 90.267720110795906 -834.21656276825149 -1.0224778144609248e-22 1.2145881715368797e-22 -2.7525083038067216e-22 5.5607032866856174e-17 -6.0524939612551132e-17 1.3934307662404752e-16 -7.0747653897469237e-55 1.7070963244593599e-54 -2.10856186225584e-54 -3.8757624646854143e-12 3.986151306166307e-12 -9.4478223595014749e-12 2790.3886384236798 -993.7157254543198 4001.6015651331104 -6.6726510702058849e-37 1.0503100947679434e-36 -2.1997935292627887e-36 2.0935329631222875e-45 -4.1445374857909003e-45 7.6861208565400568e-45 3.5112013423056513e-08 -3.5952914728656668e-08 9.0330116796345926e-08 3148.9202995354863 4000.8195321016087 34.389555607667909 15.677700401273082 -10.064132845422064 51.090714282003376 -4.5808221010710681e-05 4.7645109535836912e-05 -0.00013517110104350238 5.0911527374349614e-65 -6.2530287330486574e-65 -5.0972999581708385e-65 -1.6600993820775919e-76 5.4827645352393105e-76 3.8082503218115885e-76 3141.2833387811361 26.483047994248334 0.010401590300411242 -0.01115899684734566 0.035538551863234583 3.8686329371290972e-88 8.3668940200842822e-88 -1.9366604518308436e-87 -0.69922571520727095 0.56478364989936414 -2.3777771795259874 1.1414409808966087e-99 1.1696205120216144e-99 -4.1157879194209227e-99 1.4821232500793181e-105 -4.0363181883269013e-106 -2.9335541791800782e-105 1.2802936587338757e-93 -3.0754942224207625e-95 -2.6615510601387565e-93 -0.36629980011312036 0.031168697412608633 0.1547458567705558 -7.5873732908325994e-14 9.6241878715441285e-15 2.8547044304921875e-14 2696.2572038681169 -366.65196379087683 -887.30266343325752 2.7850152738962713e-32 -3.3399894981058244e-33 -8.670237350246316e-33 8.0049125505266268e-70 -2.1509100891546134e-70 -1.2564220997183002e-70 -9.8826974365798945e-82 -9.8306592862882039e-82 -2.5317168926883155e-82 -6.1529196316077671e-06 7.42057916857541e-07 2.5707055587380743e-06 0.0031215901673341015 -0.00035172645471633231 -0.0014609267399477042 11.636563785714047 -1.25220003496167 -4.8460019516582875 -3.2491833895532953e-40 4.0114264276800643e-41 8.4182050799365905e-41 3148.8009150613971 2796.6101282326222 4000.9986390964514 4.1491649780628595e-19 -5.1189591969488591e-20 -1.513001407027591e-19 -5.6455384887429692e-59 1.0093757120843845e-59 5.4924603577931805e-60 -2.9854221066583934e-25 3.5900011199571871e-26 1.0296200970176463e-25 4.3437889188427283e-49 -5.8879174664283845e-50 -8.0225762350250761e-50 -296.51152339628203 20.977113392322671 64.599463045548859 1.8282532115948402e-09 -2.3631210009865967e-10 -7.1924134266295243e-10 2.7493282531714639e-49 -3.4814279496354094e-50 -5.1391332826618681e-50 -2.5123203035618273e-12 2.584704600098451e-12 -6.1044915174007531e-12 1.3002177760454068e-45 -2.5049759649133169e-45 4.573799347918913e-45 2199.6533710524545 -472.55071199252239 2792.5441251123702 -4.7132456878368159e-14 5.6789871138885314e-15 1.8265947395588057e-14 5.2003735993436109e-66 -3.2600926729930416e-65 -1.1152041465639916e-65 2.5363940096192488e-70 1.9641915671205425e-70 -1.0536197305427667e-70 10.212570086030881 -1.4376889006726492 -2.0229346214370092 2.5870485125189159e-08 -2.4320455310266344e-08 5.6829329831976276e-08 1.2138634510494604e-09 -1.5454458157108805e-10 -4.7106586029999449e-10 13.915111369789944 -4.9390912877884645 16.977033338087871 6563.832128726126 2206.235610369627 2796.843587616389 -1.9707506646239091e-40 2.5340087996257885e-41 5.0285467286345118e-41 -4.0367757043347388e-37 6.2612246682283509e-37 -1.3072810933371262e-36 -3.5982287686912141e-59 1.6345352273754225e-60 5.1727575540003374e-60 6563.6416877821766 2796.9944201771691 3148.3740749838398 2098.464822954109 -311.43854916408407 -374.31650836994163 -3.4580164741791117e-55 1.0609248860329618e-54 -1.3392841024052124e-54 -4.5146700239175242e-06 5.9943153937816579e-07 1.6416516849889395e-06 -239.91080431460415 20.478663268306445 24.066675059665631 -266.37480025564565 40.561155754560311 -326.92234260663821 -0.64072067824878065 0.31186836609694502 -0.88512137654286405 -0.31353553708887721 0.041897553181386965 0.076120031967759391 -1.7755489084530901e-25 2.0976900145286297e-26 6.2136931520875676e-26 -6.03084582926519e-23 7.3408040095626667e-23 -1.6932844399054137e-22 -2.7483832764169806e-87 9.1242343979415792e-88 4.9868377712134934e-89 3.3591354757783707e-17 -3.7613413971680654e-17 8.8243288513491124e-17 2.4938418959164467e-19 -2.9463198331870249e-20 -9.3649907918332109e-20 0.0025634294605207772 -0.00037490822306079664 -0.00084389812280981553 0.010066214395181749 -0.0070217923221644442 0.016469391747190962 -3.9641658510890127e-05 3.2334329009191398e-05 -7.6133678152188306e-05 6560.7344386319728 3139.9782316103406 -8.9370093415095328e-77 -1.4499820591805774e-77 -5.9113403941591011e-77 -1.4598663479928282e-81 -3.9901567962768571e-82 -9.7890079473551838e-83 1.660328146129885e-32 -2.0228164849194398e-33 -5.1602185832352329e-33 1.4029797970417551e-29 -1.8930371454594064e-29 4.2163682332277083e-29 -9.001745477487024e-93 2.3995838232782306e-93 -1.2774393254666212e-93 -6.7977554105141509e-99 1.1556461320559856e-99 -1.8616065673924016e-99 -1.1039499485735129e-104 3.4630143251497403e-105 -1.9000316436363456e-105 -2.2265447456843571e-99 1.3508721617234987e-100 9.9610334377188429e-101 -198.7806229824682 36.590040125644776 -268.60601910142395 -2.4446612101828383e-05 2.0406751225272727e-05 -4.9022693252934279e-05 9.8748723642599767 -4.0251656040789179 14.431580397090713 1.585326955979387e-08 -1.5002606499475122e-08 3.5255434089933564e-08 1.46036084362698e-55 5.3821309395825393e-55 -1.0310641912929834e-54 1.6906712830849018e-76 -2.2768335417954213e-76 -3.2079755155445868e-76 -0.42718950374603154 0.22573203284795479 -0.67945590307563652 -1.2211327900601361e-65 6.89326610051278e-66 1.2627335226405721e-65 -7.2337485692624863e-88 1.7358085725896824e-88 3.8401225794164483e-88 0.0063559757710851192 -0.0046534204792258223 0.011389245564620787 8218.8227751474897 2206.5822483202483 6563.451225321297 5.6597931794611576e-46 -1.5274191045060075e-45 2.9424790507369807e-45 1668.4321799763543 -415.16751902170267 2200.9341617795217 -2.4239090279865058e-37 3.8357427307299621e-37 -7.9680254850379222e-37 -1.5357542355875073e-12 1.5780010122964668e-12 -3.7226441282377957e-12 8.6181600011278622e-30 -1.1463581233984507e-29 2.5370233523941419e-29 2.0456923269632193e-17 -2.2822574061821243e-17 5.3398313076018065e-17 -3.6709464444128539e-23 4.4364242074867956e-23 -1.0199270374498925e-22 0.0016167956129832834 -0.00022972383337523331 -0.00055454366149881049 -0.20555676035677495 0.026102828501958858 0.054453578311641958 1.5132197006080583e-19 -1.8092275359576439e-20 -5.6567465309873931e-20 8220.4283511832182 6560.2738706413083 1.029293070998562e-32 -1.2329377565703969e-33 -3.1638046776009542e-33 2.2920897819310161e-82 6.5998852015966045e-83 6.3082336110595896e-84 -2.7971