<?xml version="1.0"?>
<VTKFile type="UnstructuredGrid" version="0.1" byte_order="LittleEndian">
<UnstructuredGrid>
<Piece NumberOfPoints="1160" NumberOfCells="390">
<Points>
<DataArray type="Float64" NumberOfComponents="3" format="ascii">
0.0000000000 0.0000000000 0.0000000000 0.1000000000 0.0000000000 0.0000000000 0.1000000000 0.0000000000 0.0000000000 0.2000000000 0.0000000000 0.0000000000 0.2000000000 0.0000000000 0.0000000000 0.3000000000 0.0000000000 0.0000000000 0.3000000000 0.0000000000 0.0000000000 0.4000000000 0.0000000000 0.0000000000 0.4000000000 0.0000000000 0.0000000000 0.5000000000 0.0000000000 0.0000000000 0.5000000000 0.0000000000 0.0000000000 0.6000000000 0.0000000000 0.0000000000 0.6000000000 0.0000000000 0.0000000000 0.7000000000 0.0000000000 0.0000000000 0.7000000000 0.0000000000 0.0000000000 0.8000000000 0.0000000000 0.0000000000 0.8000000000 0.0000000000 0.0000000000 0.9000000000 0.0000000000 0.0000000000 0.9000000000 0.0000000000 0.0000000000 1.0000000000 0.0000000000 0.0000000000 0.0000000000 0.0000000000 0.0000000000 0.0000000000 0.0000100000 0.0000000000 0.1000000000 0.0000100000 0.0000000000 0.0000000000 0.0000000000 0.0000000000 0.1000000000 0.0000100000 0.0000000000 0.1000000000 0.0000000000 0.0000000000 0.1000000000 0.0000000000 0.0000000000 0.1000000000 0.0000100000 0.0000000000 0.2000000000 0.0000100000 0.0000000000 0.1000000000 0.0000000000 0.0000000000 0.2000000000 0.0000100000 0.0000000000 0.2000000000 0.0000000000 0.0000000000 0.2000000000 0.0000000000 0.0000000000 0.2000000000 0.0000100000 0.0000000000 0.3000000000 0.0000100000 0.0000000000 0.2000000000 0.0000000000 0.0000000000 0.3000000000 0.0000100000 0.0000000000 0.3000000000 0.0000000000 0.0000000000 0.3000000000 0.0000000000 0.0000000000 0.3000000000 0.0000100000 0.0000000000 0.4000000000 0.0000100000 0.0000000000 0.3000000000 0.0000000000 0.0000000000 0.4000000000 0.0000100000 0.0000000000 0.4000000000 0.0000000000 0.0000000000 0.4000000000 0.0000000000 0.0000000000 0.4000000000 0.0000100000 0.0000000000 0.5000000000 0.0000100000 0.0000000000 0.4000000000 0.0000000000 0.0000000000 0.5000000000 0.0000100000 0.0000000000 0.5000000000 0.0000000000 0.0000000000 0.5000000000 0.0000000000 0.0000000000 0.5000000000 0.0000100000 0.0000000000 0.6000000000 0.0000100000 0.0000000000 0.5000000000 0.0000000000 0.0000000000 0.6000000000 0.0000100000 0.0000000000 0.6000000000 0.0000000000 0.0000000000 0.6000000000 0.0000000000 0.0000000000 0.6000000000 0.0000100000 0.0000000000 0.7000000000 0.0000100000 0.0000000000 0.6000000000 0.0000000000 0.0000000000 0.7000000000 0.0000100000 0.0000000000 0.7000000000 0.0000000000 0.0000000000 0.7000000000 0.0000000000 0.0000000000 0.7000000000 0.0000100000 0.0000000000 0.8000000000 0.0000100000 0.0000000000 0.7000000000 0.0000000000 0.0000000000 0.8000000000 0.0000100000 0.0000000000 0.8000000000 0.0000000000 0.0000000000 0.8000000000 0.0000000000 0.0000000000 0.8000000000 0.0000100000 0.0000000000 0.9000000000 0.0000100000 0.0000000000 0.8000000000 0.0000000000 0.0000000000 0.9000000000 0.0000100000 0.0000000000 0.9000000000 0.0000000000 0.0000000000 0.9000000000 0.0000000000 0.0000000000 0.9000000000 0.0000100000 0.0000000000 1.0000000000 0.0000100000 0.0000000000 0.9000000000 0.0000000000 0.0000000000 1.0000000000 0.0000100000 0.0000000000 1.0000000000 0.0000000000 0.0000000000 0.0000000000 0.0000100000 0.0000000000 0.0000000000 0.0001221059 0.0000000000 0.1000000000 0.0001221059 0.0000000000 0.0000000000 0.0000100000 0.0000000000 0.1000000000 0.0001221059 0.0000000000 0.1000000000 0.0000100000 0.0000000000 0.1000000000 0.0000100000 0.0000000000 0.1000000000 0.0001221059 0.0000000000 0.2000000000 0.0001221059 0.0000000000 0.1000000000 0.0000100000 0.0000000000 0.2000000000 0.0001221059 0.0000000000 0.2000000000 0.0000100000 0.0000000000 0.2000000000 0.0000100000 0.0000000000 0.2000000000 0.0001221059 0.0000000000 0.3000000000 0.0001221059 0.0000000000 0.2000000000 0.0000100000 0.0000000000 0.3000000000 0.0001221059 0.0000000000 0.3000000000 0.0000100000 0.0000000000 0.3000000000 0.0000100000 0.0000000000 0.3000000000 0.0001221059 0.0000000000 0.4000000000 0.0001221059 0.0000000000 0.3000000000 0.0000100000 0.0000000000 0.4000000000 0.0001221059 0.0000000000 0.4000000000 0.0000100000 0.0000000000 0.4000000000 0.0000100000 0.0000000000 0.4000000000 0.0001221059 0.0000000000 0.5000000000 0.0001221059 0.0000000000 0.4000000000 0.0000100000 0.0000000000 0.5000000000 0.0001221059 0.0000000000 0.5000000000 0.0000100000 0.0000000000 0.5000000000 0.0000100000 0.0000000000 0.5000000000 0.0001221059 0.0000000000 0.6000000000 0.0001221059 0.0000000000 0.5000000000 0.0000100000 0.0000000000 0.6000000000 0.0001221059 0.0000000000 0.6000000000 0.0000100000 0.0000000000 0.6000000000 0.0000100000 0.0000000000 0.6000000000 0.0001221059 0.0000000000 0.7000000000 0.0001221059 0.0000000000 0.6000000000 0.0000100000 0.0000000000 0.7000000000 0.0001221059 0.0000000000 0.7000000000 0.0000100000 0.0000000000 0.7000000000 0.0000100000 0.0000000000 0.7000000000 0.0001221059 0.0000000000 0.8000000000 0.0001221059 0.0000000000 0.7000000000 0.0000100000 0.0000000000 0.8000000000 0.0001221059 0.0000000000 0.8000000000 0.0000100000 0.0000000000 0.8000000000 0.0000100000 0.0000000000 0.8000000000 0.0001221059 0.0000000000 0.9000000000 0.0001221059 0.0000000000 0.8000000000 0.0000100000 0.0000000000 0.9000000000 0.0001221059 0.0000000000 0.9000000000 0.0000100000 0.0000000000 0.9000000000 0.0000100000 0.0000000000 0.9000000000 0.0001221059 0.0000000000 1.0000000000 0.0001221059 0.0000000000 0.9000000000 0.0000100000 0.0000000000 1.0000000000 0.0001221059 0.0000000000 1.0000000000 0.0000100000 0.0000000000 0.0000000000 0.0001221059 0.0000000000 0.0000000000 0.0002771482 0.0000000000 0.1000000000 0.0002771482 0.0000000000 0.0000000000 0.0001221059 0.0000000000 0.1000000000 0.0002771482 0.0000000000 0.1000000000 0.0001221059 0.0000000000 0.1000000000 0.0001221059 0.0000000000 0.1000000000 0.0002771482 0.0000000000 0.2000000000 0.0002771482 0.0000000000 0.1000000000 0.0001221059 0.0000000000 0.2000000000 0.0002771482 0.0000000000 0.2000000000 0.0001221059 0.0000000000 0.2000000000 0.0001221059 0.0000000000 0.2000000000 0.0002771482 0.0000000000 0.3000000000 0.0002771482 0.0000000000 0.2000000000 0.0001221059 0.0000000000 0.3000000000 0.0002771482 0.0000000000 0.3000000000 0.0001221059 0.0000000000 0.3000000000 0.0001221059 0.0000000000 0.3000000000 0.0002771482 0.0000000000 0.4000000000 0.0002771482 0.0000000000 0.3000000000 0.0001221059 0.0000000000 0.4000000000 0.0002771482 0.0000000000 0.4000000000 0.0001221059 0.0000000000 0.4000000000 0.0001221059 0.0000000000 0.4000000000 0.0002771482 0.0000000000 0.5000000000 0.0002771482 0.0000000000 0.4000000000 0.0001221059 0.0000000000 0.5000000000 0.0002771482 0.0000000000 0.5000000000 0.0001221059 0.0000000000 0.5000000000 0.0001221059 0.0000000000 0.5000000000 0.0002771482 0.0000000000 0.6000000000 0.0002771482 0.0000000000 0.5000000000 0.0001221059 0.0000000000 0.6000000000 0.0002771482 0.0000000000 0.6000000000 0.0001221059 0.0000000000 0.6000000000 0.0001221059 0.0000000000 0.6000000000 0.0002771482 0.0000000000 0.7000000000 0.0002771482 0.0000000000 0.6000000000 0.0001221059 0.0000000000 0.7000000000 0.0002771482 0.0000000000 0.7000000000 0.0001221059 0.0000000000 0.7000000000 0.0001221059 0.0000000000 0.7000000000 0.0002771482 0.0000000000 0.8000000000 0.0002771482 0.0000000000 0.7000000000 0.0001221059 0.0000000000 0.8000000000 0.0002771482 0.0000000000 0.8000000000 0.0001221059 0.0000000000 0.8000000000 0.0001221059 0.0000000000 0.8000000000 0.0002771482 0.0000000000 0.9000000000 0.0002771482 0.0000000000 0.8000000000 0.0001221059 0.0000000000 0.9000000000 0.0002771482 0.0000000000 0.9000000000 0.0001221059 0.0000000000 0.9000000000 0.0001221059 0.0000000000 0.9000000000 0.0002771482 0.0000000000 1.0000000000 0.0002771482 0.0000000000 0.9000000000 0.0001221059 0.0000000000 1.0000000000 0.0002771482 0.0000000000 1.0000000000 0.0001221059 0.0000000000 0.0000000000 0.0002771482 0.0000000000 0.0000000000 0.0004915718 0.0000000000 0.1000000000 0.0004915718 0.0000000000 0.0000000000 0.0002771482 0.0000000000 0.1000000000 0.0004915718 0.0000000000 0.1000000000 0.0002771482 0.0000000000 0.1000000000 0.0002771482 0.0000000000 0.1000000000 0.0004915718 0.0000000000 0.2000000000 0.0004915718 0.0000000000 0.1000000000 0.0002771482 0.0000000000 0.2000000000 0.0004915718 0.0000000000 0.2000000000 0.0002771482 0.0000000000 0.2000000000 0.0002771482 0.0000000000 0.2000000000 0.0004915718 0.0000000000 0.3000000000 0.0004915718 0.0000000000 0.2000000000 0.0002771482 0.0000000000 0.3000000000 0.0004915718 0.0000000000 0.3000000000 0.0002771482 0.0000000000 0.3000000000 0.0002771482 0.0000000000 0.3000000000 0.0004915718 0.0000000000 0.4000000000 0.0004915718 0.0000000000 0.3000000000 0.0002771482 0.0000000000 0.4000000000 0.0004915718 0.0000000000 0.4000000000 0.0002771482 0.0000000000 0.4000000000 0.0002771482 0.0000000000 0.4000000000 0.0004915718 0.0000000000 0.5000000000 0.0004915718 0.0000000000 0.4000000000 0.0002771482 0.0000000000 0.5000000000 0.0004915718 0.0000000000 0.5000000000 0.0002771482 0.0000000000 0.5000000000 0.0002771482 0.0000000000 0.5000000000 0.0004915718 0.0000000000 0.6000000000 0.0004915718 0.0000000000 0.5000000000 0.0002771482 0.0000000000 0.6000000000 0.0004915718 0.0000000000 0.6000000000 0.0002771482 0.0000000000 0.6000000000 0.0002771482 0.0000000000 0.6000000000 0.0004915718 0.0000000000 0.7000000000 0.0004915718 0.0000000000 0.6000000000 0.0002771482 0.0000000000 0.7000000000 0.0004915718 0.0000000000 0.7000000000 0.0002771482 0.0000000000 0.7000000000 0.0002771482 0.0000000000 0.7000000000 0.0004915718 0.0000000000 0.8000000000 0.0004915718 0.0000000000 0.7000000000 0.0002771482 0.0000000000 0.8000000000 0.0004915718 0.0000000000 0.8000000000 0.0002771482 0.0000000000 0.8000000000 0.0002771482 0.0000000000 0.8000000000 0.0004915718 0.0000000000 0.900000000
[...]
<PointData Scalars="Ba-133_conc,region_id," Vectors="" Tensors="">
<DataArray type="Float64" Name="Ba-133_conc" format="ascii">
983.9142829832 903.4180930391 903.4160432220 810.7837147947 810.7847771299 714.4019071369 714.4005095102 610.9890337792 610.9894822012 506.0933122313 506.0922851485 398.6026380734 398.6027149491 292.7208621937 292.7200719822 188.6611604173 188.6610328540 89.7151252412 89.7141289553 0.3061792503 982.2579219981 1062.7216886320 1116.2167711520 984.1059681217 1115.2256860302 903.6980355644 902.5209196950 1116.1616936616 1139.0704935522 903.7009984696 1138.0892881880 811.1153227564 809.9336904275 1139.0322725320 1148.4052481108 811.1238413944 1147.5570494324 714.7819047887 713.5439052229 1148.5779400274 1145.5026798743 714.7869194345 1144.7132811163 611.4144839050 610.1927559430 1145.8118480523 1130.1725556252 611.4174493600 1129.5336798735 506.5552963833 505.3485423133 1130.6683305157 1102.1064673161 506.5543835818 1101.5964075322 399.0952384196 397.9632316684 1102.7547192449 1061.4172561031 399.0913167182 1061.0999516513 293.2340043775 292.1839843608 1062.2426968008 1009.1852241927 293.2262199491 1009.0612383268 189.1870104394 188.2522482683 1010.1913526784 944.9977133831 189.1724777707 944.9986802954 90.2583781197 90.0620828589 945.8192758611 671.1875309351 90.2269156348 671.8535269990 0.7105529023 1073.6235141219 0.8461887420 -38.1916935995 1066.1978540671 -31.0091733126 1121.3917684631 1128.1263779341 -37.7582189682 -25.9393146401 1120.4235474745 -17.3449782594 1145.3267697878 1153.3516807524 -25.6334583073 -12.7486406723 1144.0782645879 -2.7658757142 1155.2597419211 1164.7549344147 -12.5010352787 2.6783339160 1154.2835999056 13.8010626922 1152.9384596663 1163.7154439605 2.7791730457 19.6791444463 1152.1702710582 31.7425803323 1137.9435797253 1149.8486802525 19.6217415186 38.0896841347 1137.4937067930 50.8467943293 1110.1221852085 1122.9237755334 37.8625712729 57.5225498455 1109.9718163281 70.7122716069 1069.4429807901 1082.9253706225 57.1070969534 77.7294808573 1069.6647929274 91.0795556534 1017.0862702197 1030.9772175923 77.1368122763 92.4613146835 1017.7065002429 105.5500193171 952.6526934098 966.8118647246 91.4123651221 217.3910624997 953.5417719635 233.5103973297 673.9686965324 0.0626097368 0.1492766124 -2.3381415607 0.7119676266 -2.9937231235 -40.8291850511 -42.6970488154 -2.0008145245 -1.6770319613 -40.3641874526 -3.0693057295 -29.0152604086 -31.1465510520 -1.6008710110 -3.0972489732 -28.6795205827 -4.5800359675 -16.2454953951 -18.4722678246 -3.0780593363 -4.4516114311 -15.9073977063 -5.9674340145 -1.2228536734 -3.5109503905 -4.4508034272 -5.9018853720 -0.9245070699 -7.4027804481 15.4553323812 13.1725347629 -5.9190329206 -7.3798499224 15.7060943529 -8.8168745680 33.6321796129 31.4255737965 -7.4169457903 -8.8491576629 33.8293547525 -10.1728864730 52.9233167051 50.8617035980 -8.9072029333 -10.3899317308 53.0557506042 -11.5459223702 73.0805480426 71.2271735747 -10.4568659119 -9.8489378905 73.1395825716 -10.8334719995 87.9442278525 86.4043936985 -10.0354144299 -28.7369466718 87.8497983581 -29.6685927286 212.4517318806 0.0144236355 -0.0498622941 0.1038758267 0.0289436641 0.1313555536 -1.9473076299 -1.7574306290 0.0700861705 0.4942862055 -1.8725572374 0.6782414932 -1.1975028111 -0.8970152229 0.4615375538 0.5969921350 -1.1412276063 0.8124012043 -2.6764746181 -2.3655663061 0.5783869302 0.7859945074 -2.6016560576 1.0006539608 -4.0391098734 -3.7348684143 0.7740639946 0.9667370052 -3.9570661636 1.1678257452 -5.5138745452 -5.2258297467 0.9543746062 1.1522096654 -5.4225094050 1.3305370827 -7.0333594201 -6.7738315957 1.1399684941 1.3315328573 -6.9340446426 1.4778536709 -8.5597058404 -8.3406592854 1.3199252435 1.5248172239 -8.4537226219 1.6283974273 -10.1752894560 -10.0065518807 1.5087296319 1.4195626153 -10.0640003647 1.4809516767 -9.6755577279 -9.5875249129 1.4277456497 3.9527276700 -9.5988100470 3.9361091831 -28.7976166000 -0.0360261926 0.0026522331 -0.0013024416 -0.0394175951 -0.0006543151 0.0821244791 0.0708730227 0.0022562315 -0.0404645945 0.0744734708 -0.0535587068 0.4020682396 0.3565095787 -0.0321092388 -0.0584600094 0.3961880144 -0.0891730664 0.5064937270 0.4567717315 -0.0559389063 -0.0722256405 0.5007654863 -0.1043196703 0.7037495425 0.6569639609 -0.0716607499 -0.0914015759 0.6997494750 -0.1223138890 0.8887645082 0.8451978832 -0.0917186122 -0.1099714190 0.8843887497 -0.1378688638 1.0826737946 1.0444782216 -0.1106769391 -0.1281578126 1.0778968965 -0.1515652888 1.2738316840 1.2432601989 -0.1294816109 -0.1494291253 1.2687622731 -0.1665792482 1.4835379373 1.4621213857 -0.1506206518 -0.1319108989 1.4765579457 -0.1421686465 1.3897357661 1.3829688817 -0.1360992593 -0.3897412958 1.3931377565 -0.3924588853 3.9737379576 0.0017663640 -0.0000667243 -0.0003752384 0.0020538852 -0.0005662649 -0.0009304576 -0.0005329112 -0.0006467521 0.0017018945 -0.0002245849 0.0024194918 -0.0313238849 -0.0266252269 0.0007737792 0.0062257324 -0.0292451284 0.0101870735 -0.0452537520 -0.0379388824 0.0053295791 0.0075750067 -0.0445853695 0.0128008989 -0.0608069291 -0.0532793764 0.0072341602 0.0094576290 -0.0600457136 0.0147680542 -0.0809595987 -0.0738630231 0.0093858532 0.0117395692 -0.0804472363 0.0168149100 -0.1006936195 -0.0941468487 0.0117499837 0.0139233849 -0.1001492954 0.0184854003 -0.1206899355 -0.1151052918 0.0140187871 0.0166225594 -0.1202009095 0.0204040561 -0.1444470348 -0.1401227358 0.0168054399 0.0149929500 -0.1437100356 0.0175515003 -0.1292278936 -0.1267938290 0.0150472734 0.0434029593 -0.1297273273 0.0456818107 -0.3915849653 -0.0000567338 -0.0000050089 0.0000279767 -0.0000689282 0.0000458380 -0.0002932123 -0.0002900543 0.0000424517 -0.0000428517 -0.0003707198 -0.0000447489 0.0010943863 0.0007714818 0.0000471406 -0.0004488117 0.0008752065 -0.0007886254 0.0041497255 0.0030690167 -0.0002614508 -0.0006511127 0.0039480395 -0.0014141210 0.0054135844 0.0041611355 -0.0005617443 -0.0008166216 0.0053066110 -0.0016887192 0.0075114821 0.0062675019 -0.0007807768 -0.0010659911 0.0074608724 -0.0019671475 0.0098890871 0.0086683857 -0.0010555613 -0.0013261371 0.0098603702 -0.0022145849 0.0122668742 0.0111189911 -0.0013273141 -0.0016449444 0.0122540545 -0.0024877317 0.0152621343 0.0142572279 -0.0016859793 -0.0015512771 0.0152531837 -0.0022270882 0.0141420513 0.0132943588 -0.0014537735 -0.0043459373 0.0141080678 -0.0052231854 0.0423441487 0.0000002616 0.0000005873 -0.0000012409 -0.0000005969 -0.0000019954 0.0000173531 0.0000155696 -0.0000013972 -0.0000013788 0.0000235521 -0.0000057720 -0.0000229199 -0.0000098893 -0.0000080660 0.0000189871 -0.0000047711 0.0000375547 -0.0002265686 -0.0001194315 -0.0000007958 0.0000481731 -0.0001852890 0.0001351734 -0.0003112846 -0.0001345198 0.0000278198 0.0000596759 -0.0002916272 0.0001840494 -0.0004861529 -0.0002886348 0.0000477591 0.0000830580 -0.0004711830 0.0002239926 -0.0007387548 -0.0005322014 0.0000761022 0.0001137604 -0.0007310484 0.0002657064 -0.0010029053 -0.0007883347 0.0001078256 0.0001500486 -0.0009969677 0.0003103308 -0.0013366142 -0.0011260748 0.0001518807 0.0001592012 -0.0013398177 0.0003063185 -0.0013310183 -0.0011088977 0.0001240510 0.0004010845 -0.0012804898 0.0006171417 -0.0039208633 -0.0000000220 -0.0000000266 0.0000000469 0.0000001314 0.0000000245 -0.0000005839 -0.0000004568 -0.0000000011 0.0000001225 -0.0000008619 0.0000005458 -0.0000000913 -0.0000000638 0.0000004145 -0.0000005340 -0.0000017010 -0.0000007500 0.0000049061 -0.0000011471 0.0000008250 -0.0000019583 0.0000009631 -0.0000079562 0.0000057133 -0.0000131366 0.0000005911 -0.0000017511 0.0000016939 -0.0000147167 0.0000097229 -0.0000149650 0.0000002106 -0.0000033122 0.0000066484 -0.0000199993 0.0000311837 0.0000030035 -0.0000016894 -0.0000063738 0.0000289977 -0.0000262074 0.0000579233 0.0000258795 -0.0000047728 -0.0000099358 0.0000558755 -0.0000329998 0.0000900427 0.0000551975 -0.0000091431 -0.0000133118 0.0000901897 -0.0000374731 0.0001084339 0.0000663263 -0.0000067990 -0.0000273966 0.0000945457 -0.0000648562 0.0002970178 0.0000000054 0.0000000009 -0.0000000030 -0.0000000032 0.0000000004 0.0000000340 0.0000000316 -0.0000000001 -0.0000000013 0.0000000353 -0.0000000190 -0.0000000641 -0.0000000975 -0.0000000073 0.0000000246 0.0000000273 -0.0000000192 -0.0000001360 0.0000000060 -0.0000000258 -0.0000000256 0.0000000855 0.0000001626 0.0000011855 0.0000022192 -0.0000001346 -0.0000002855 0.0000015821 0.0000004771 0.0000033733 0.0000052269 -0.0000004184 -0.0000003656 0.0000037314 0.0000008095 0.0000026811 0.0000051661 -0.0000005435 -0.0000001622 0.0000030718 0.0000014538 0.0000006520 0.0000038252 -0.0000003762 0.0000001026 0.0000010652 0.0000022347 -0.0000016015 0.0000022854 -0.0000001024 0.0000005680 -0.0000014200 0.0000031893 -0.0000049226 0.0000003101 -0.0000001058 0.0000005623 -0.0000027532 0.0000047128 -0.0000107705 -0.0000000000 -0.0000000001 0.0000000002 0.0000000002 0.0000000002 -0.0000000032 -0.0000000032 0.0000000002 0.0000000001 -0.0000000031 0.0000000005 0.0000000061 0.0000000070 0.0000000004 -0.0000000029 0.0000000038 -0.0000000015 0.0000000290 0.0000000305 -0.0000000030 0.0000000029 0.0000000230 0.0000000023 -0.0000001113 -0.0000001160 -0.0000000013 0.0000000444 -0.0000001164 0.0000000398 -0.0000005213 -0.0000005406 0.0000000357 0.0000000893 -0.0000005293 0.0000000861 -0.0000007178 -0.0000007717 0.0000000887 0.0000000920 -0.0000007466 0.0000000686 -0.0000006641 -0.0000007827 0.0000001023 0.0000000815 -0.0000007050 0.0000000170 -0.0000005844 -0.0000007861 0.0000001009 0.0000000499 -0.0000006247 -0.0000000748 -0.0000002899 -0.0000006125 0.0000000749 0.0000001568 -0.0000004583 -0.0000000469 -0.0000010054 -0.0000000000 0.0000000000 -0.0000000000 -0.0000000000 -0.0000000000 0.0000000002 0.0000000002 -0.0000000000 -0.0000000000 0.0000000002 -0.0000000001 0.0000000000 0.0000000000 -0.0000000001 0.0000000002 0.0000000001 0.0000000003 -0.0000000026 -0.0000000025 0.0000000002 0.0000000002 -0.0000000029 0.0000000005 0.0000000019 0.0000000003 0.0000000009 -0.0000000024 0.0000000001 -0.0000000040 0.0000000349 0.0000000263 -0.0000000005 -0.0000000080 0.0000000315 -0.0000000150 0.0000000739 0.0000000588 -0.0000000059 -0.0000000108 0.0000000723 -0.0000000214 0.0000000861 0.0000000714 -0.0000000098 -0.0000000113 0.0000000865 -0.0000000219 0.0000000900 0.0000000794 -0.0000000116 -0.0000000107 0.0000000929 -0.0000000187 0.0000000795 0.0000000718 -0.0000000087 -0.0000000224 0.0000000802 -0.0000000331 0.0000002002 0.0000000000 -0.0000000000 0.0000000000 0.0000000000 -0.0000000000 -0.0000000000 -0.0000000000 -0.0000000000 0.0000000000 -0.0000000000 0.0000000000 -0.0000000000 -0.0000000000 0.0000000000 -0.0000000000 -0.0000000000 -0.0000000000 0.0000000001 0.0000000001 -0.0000000000 -0.0000000000 0.0000000001 -0.0000000001 0.0000000002 0.0000000002 -0.0000000000 0.0000000000 0.0000000003 0.0000000001 -0.0000000011 -0.0000000005 -0.0000000001 0.0000000003 -0.0000000007 0.0000000008 -0.0000000040 -0.0000000024 0.0000000001 0.0000000006 -0.0000000036 0.0000000018 -0.0000000060 -0.0000000037 0.0000000005 0.0000000008 -0.0000000057 0.0000000022 -0.0000000068 -0.0000000044 0.0000000007 0.0000000008 -0.0000000068 0.0000000024 -0.0000000071 -0.0000000043 0.0000000005 0.0000000015 -0.0000000062 0.0000000037 -0.0000000155 -0.0000000000 0.0000000000 0.0000000000 -0.0000000000 0.0000000000 0.0000000000 0.0000000000 0.0000000000 -0.0000000000 0.0000000000 -0.0000000000 0.0000000000 0.0000000000 -0.0000000000 -0.0000000000 0.0000000000 -0.0000000000 -0.0000000000 -0.0000000000 -0.0000000000 0.0000000000 -0.0000000000 0.0000000000 -0.0000000000 -0.0000000000 0.0000000000 0.0000000000 -0.0000000000 0.0000000000 0.0000000000 -0.0000000000 0.0000000000 -0.0000000000 -0.0000000000 -0.0000000000 0.0000000001 0.0000000000 0.0000000000 -0.0000000000 0.0000000001 -0.0000000001 0.0000000002 0.0000000001 -0.0000000000 -0.0000000000 0.0000000002 -0.0000000001 0.0000000003 0.0000000001 -0.0000000000 -0.0000000000 0.0000000003 -0.0000000001 0.0000000003 0.0000000001 -0.0000000000 -0.0000000001 0.0000000003 -0.0000000002 0.0000000007 0.0000000000 0.0000000000 -0.0000000000 0.0000000000 -0.0000000000 0.0000000000 0.0000000000 -0.0000000000 0.0000000000 0.0000000000 0.0000000000 -0.0000000000 -0.0000000000 0.0000000000 0.0000000000 -0.0000000000 0.0000000000 -0.0000000000 -0.0000000000 0.0000000000 -0.0000000000 -0.0000000000 -0.0000000000 0.0000000000 0.0000000000 -0.0000000000 -0.0000000000 0.0000000000 -0.0000000000 0.0000000000 0.0000000000 -0.0000000000 0.0000000000 0.0000000000 0.0000000000 -0.0000000000 -0.0000000000 -0.0000000000 0.0000000000 -0.0000000000 0.0000000000 -0.0000000000 -0.0000000000 0.0000000000 0.0000000000 -0.0000000000 0.0000000000 -0.0000000000 -0.0000000000 0.0000000000 0.0000000000 -0.0000000000 0.0000000000 -0.0000000000 -0.0000000000 0.0000000000 0.0000000000 -0.0000000000 0.0000000000 -0.0000000000 -0.0000000000 -0.0000000000 0.0000000000 -0.0000000000 0.0000000000 -0.0000000000 -0.0000000000 0.0000000000 -0.0000000000 -0.0000000000 0.0000000000 0.0000000000 0.0000000000 0.0000000000 -0.0000000000 0.0000000000 -0.0000000000 0.0000000000 0.0000000000 -0.0000000000 0.0000000000 0.0000000000 -0.0000000000 -0.0000000000 -0.0000000000 -0.0000000000 0.0000000000 -0.0000000000 0.0000000000 -0.0000000000 -0.0000000000 0.0000000000 0.0000000000 -0.0000000000 0.0000000000 0.0000000000 -0.0000000000 0.0000000000 -0.0000000000 -0.0000000000 -0.0000000000 0.0000000000 0.0000000000 0.0000000000 -0.0000000000 0.0000000000 -0.0000000000 0.0000000000 0.0000000000 -0.0000000000 -0.0000000000 0.0000000000 -0.0000000000 0.0000000000 0.0000000000 -0.0000000000 -0.0000000000 0.0000000000 -0.0000000000 0.0000000000 -0.0000000000 0.0000000000 -0.0000000000 -0.0000000000 -0.0000000000 0.0000000000 0.0000000000 -0.0000000000 -0.0000000000 0.0000000000 -0.0000000000 0.0000000000 0.0000000000 -0.0000000000 0.0000000000 0.0000000000 0.0000000000 -0.0000000000 -0.0000000000 0.0000000000 0.0000000000 -0.0000000000 0.0000000000 0.0000000000 -0.0000000000 0.0000000000 -0.0000000000 -0.0000000000 -0.0000000000 0.0000000000 0.0000000000 -0.0000000000 -0.0000000000 0.0000000000 -0.0000000000 0.0000000000 0.0000000000 -0.0000000000 0.0000000000 0.0000000000 0.0000000000 -0.0000000000 -0.0000000000 -0.0000000000 0.0000000000 -0.0000000000 0.0000000000 -0.0000000000 -0.0000000000 0.0000000000 0.0000000000 -0.0000000000 0.0000000000 -0.0000000000 -0.0000000000 0.0000000000 0.0000000000 -0.0000000000 0.0000000000 -0.0000000000 0.0000000000 -0.0000000000 0.0000000000 0.0000000000 0.0000000000 -0.0000000000 -0.0000000000 -0.0000000000 0.0000000000 -0.0000000000 0.0000000000 -0.0000000000 -0.0000000000 0.0000000000 -0.0000000000 -0.0000000000 -0.0000000000 0.0000000000 0.0000000000 0.0000000000 -0.0000000000 0.0000000000 -0.0000000000 0.0000000000 0.0000000000 -0.0000000000 0.0000000000 0.0000000000 0.0000000000 -0.0000000000 -0.0000000000 -0.0000000000 0.0000000000 -0.0000000000 0.0000000000 -0.0000000000 -0.0000000000 0.0000000000 0.0000000000 -0.0000000000 0.0000000000 0.0000000000 -0.0000000000 0.0000000000 -0.0000000000 -0.0000000000 -0.0000000000 0.0000000000 0.0000000000 0.0000000000 -0.0000000000 0.0000000000 -0.0000000000 0.0000000000 0.0000000000 -0.0000000000 -0.0000000000 0.0000000000 -0.0000000000 0.0000000000 -0.0000000000 0.0000000000 0.0000000000 -0.0000000000 0.0000000000 0.0000000000 0.0000000000 0.0000000000 -0.0000000000 0.0000000000 -0.0000000000 0.0000000000 0.0000000000 -0.0000000000 -0.0000000000 0.0000000000 -0.0000000000 -0.0000000000 -0.0000000000 -0.0000000000 0.0000000000 -0.0000000000 0.0000000000 -0.0000000000 -0.0000000000 0.0000000000 0.0000000000 -0.0000000000 0.0000000000 0.0000000000 -0.0000000000 0.0000000000 -0.0000000000 -0.0000000000 -0.0000000000 0.0000000000 0.0000000000 -0.0000000000 -0.0000000000 0.0000000000 -0.0000000000 0.0000000000 0.0000000000 -0.0000000000 0.0000000000 0.0000000000 -0.0000000000 -0.0000000000 -0.0000000000 -0.0000000000 0.0000000000 -0.0000000000 0.0000000000 -0.0000000000 -0.0000000000 0.0000000000 0.0000000000 -0.0000000000 0.0000000000 -0.0000000000 
</DataArray>
<DataArray type="Int32" Name="region_id" format="ascii">
2 2 2 2 2 2 2 2 2 2 2 2 2 2 2 2 2 2 2 2 1 1 1 1 1 1 1 1 1 1 1 1 1 1 1 1 1 1 1 1 1 1 1 1 1 1 1 1 1 1 1 1 1 1 1 1 1 1 1 1 1 1 1 1 1 1 1 1 1 1 1 1 1 1 1 1 1 1 1 1 1 1 1 1 1 1 1 1 1 1 1 1 1 1 1 1 1 1 1 1 1 1 1 1 1 1 1 1 1 1 1 1 1 1 1 1 1 1 1 1 1 1 1 1 1 1 1 1 1 1 1 1 1 1 1 1 1 1 1 1 1 1 1 1 1 1 1 1 1 1 1 1 1 1 1 1 1 1 1 1 1 1 1 1 1 1 1 1 1 1 1 1 1 1 1 1 1 1 1 1 1 1 1 1 1 1 1 1 1 1 1 1 1 1 1 1 1 1 1 1 1 1 1 1 1 1 1 1 1 1 1 1 1 1 1 1 1 1 1 1 1 1 1 1 1 1 1 1 1 1 1 1 1 1 1 1 1 1 1 1 1 1 1 1 1 1 1 1 1 1 1 1 1 1 1 1 1 1 1 1 1 1 1 1 1 1 1 1 1 1 1 1 1 1 1 1 1 1 1 1 1 1 1 1 1 1 1 1 1 1 1 1 1 1 1 1 1 1 1 1 1 1 1 1 1 1 1 1 1 1 1 1 1 1 1 1 1 1 1 1 1 1 1 1 1 1 1 1 1 1 1 1 1 1 1 1 1 1 1 1 1 1 1 1 1 1 1 1 1 1 1 1 1 1 1 1 1 1 1 1 1 1 1 1 1 1 1 1 1 1 1 1 1 1 1 1 1 1 1 1 1 1 1 1 1 1 1 1 1 1 1 1 1 1 1 1 1 1 1 1 1 1 1 1 1 1 1 1 1 1 1 1 1 1 1 1 1 1 1 1 1 1 1 1 1 1 1 1 1 1 1 1 1 1 1 1 1 1 1 1 1 1 1 1 1 1 1 1 1 1 1 1 1 1 1 1 1 1 1 1 1 1 1 1 1 1 1 1 1 1 1 1 1 1 1 1 1 1 1 1 1 1 1 1 1 1 1 1 1 1 1 1 1 1 1 1 1 1 1 1 1 1 1 1 1 1 1 1 1 1 1 1 1 1 1 1 1 1 1 1 1 1 1 1 1 1 1 1 1 1 1 1 1 1 1 1 1 1 1 1 1 1 1 1 1 1 1 1 1 1 1 1 1 1 1 1 1 1 1 1 1 1 1 1 1 1 1 1 1 1 1 1 1 1 1 1 1 1 1 1 1 1 1 1 1 1 1 1 1 1 1 1 1 1 1 1 1 1 1 1 1 1 1 1 1 1 1 1 1 1 1 1 1 1 1 1 1 1 1 1 1 1 1 1 1 1 1 1 1 1 1 1 1 1 1 1 1 1 1 1 1 1 1 1 1 1 1 1 1 1 1 1 1 1 1 1 1 1 1 1 1 1 1 1 1 1 1 1 1 1 1 1 1 1 1 1 1 1 1 1 1 1 1 1 1 1 1 1 1 1 1 1 1 1 1 1 1 1 1 1 1 1 1 1 1 1 1 1 1 1 1 1 1 1 1 1 1 1 1 1 1 1 1 1 1 1 1 1 1 1 1 1 1 1 1 1 1 1 1 1 1 1 1 1 1 1 1 1 1 1 1 1 1 1 1 1 1 1 1 1 1 1 1 1 1 1 1 1 1 1 1 1 1 1 1 1 1 1 1 1 1 1 1 1 1 1 1 1 1 1 1 1 1 1 1 1 1 1 1 1 1 1 1 1 1 1 1 1 1 1 1 1 1 1 1 1 1 1 1 1 1 1 1 1 1 1 1 1 1 1 1 1 1 1 1 1 1 1 1 1 1 1 1 1 1 1 1 1 1 1 1 1 1 1 1 1 1 1 1 1 1 1 1 1 1 1 1 1 1 1 1 1 1 1 1 1 1 1 1 1 1 1 1 1 1 1 1 1 1 1 1 1 1 1 1 1 1 1 1 1 1 1 1 1 1 1 1 1 1 1 1 1 1 1 1 1 1 1 1 1 1 1 1 1 1 1 1 1 1 1 1 1 1 1 1 1 1 1 1 1 1 1 1 1 1 1 1 1 1 1 1 1 1 1 1 1 1 1 1 1 1 1 1 1 1 1 1 1 1 1 1 1 1 1 1 1 1 1 1 1 1 1 1 1 1 1 1 1 1 1 1 1 1 1 1 1 1 1 1 1 1 1 1 1 1 1 1 1 1 1 1 1 1 1 1 1 1 1 1 1 1 1 1 1 1 1 1 1 1 1 1 1 1 1 1 1 1 1 1 1 1 1 1 1 1 1 1 1 1 1 1 1 1 1 1 1 1 1 1 1 1 1 1 1 1 1 1 1 1 1 1 1 1 1 1 1 1 1 1 1 1 1 1 1 1 1 1 1 1 1 1 1 1 1 1 1 1 1 1 1 1 1 1 1 1 1 1 1 1 1 1 1 1 1 1 1 1 1 1 1 1 1 1 1 1 1 1 1 1 1 1 1 1 1 1 1 1 1 1 1 1 1 1 1 1 1 1 1 1 1 1 1 1 1 1 1 1 1 1 1 
</DataArray>
</PointData>
</Piece>
</UnstructuredGrid>
</VTKFile>
