<?xml version="1.0"?>
<VTKFile type="UnstructuredGrid" version="0.1" byte_order="LittleEndian">
<UnstructuredGrid>
<Piece NumberOfPoints="1160" NumberOfCells="390">
<Points>
<DataArray type="Float64" NumberOfComponents="3" format="ascii">
0.0000000000 0.0000000000 0.0000000000 0.1000000000 0.0000000000 0.0000000000 0.1000000000 0.0000000000 0.0000000000 0.2000000000 0.0000000000 0.0000000000 0.2000000000 0.0000000000 0.0000000000 0.3000000000 0.0000000000 0.0000000000 0.3000000000 0.0000000000 0.0000000000 0.4000000000 0.0000000000 0.0000000000 0.4000000000 0.0000000000 0.0000000000 0.5000000000 0.0000000000 0.0000000000 0.5000000000 0.0000000000 0.0000000000 0.6000000000 0.0000000000 0.0000000000 0.6000000000 0.0000000000 0.0000000000 0.7000000000 0.0000000000 0.0000000000 0.7000000000 0.0000000000 0.0000000000 0.8000000000 0.0000000000 0.0000000000 0.8000000000 0.0000000000 0.0000000000 0.9000000000 0.0000000000 0.0000000000 0.9000000000 0.0000000000 0.0000000000 1.0000000000 0.0000000000 0.0000000000 0.0000000000 0.0000000000 0.0000000000 0.0000000000 0.0000100000 0.0000000000 0.1000000000 0.0000100000 0.0000000000 0.0000000000 0.0000000000 0.0000000000 0.1000000000 0.0000100000 0.0000000000 0.1000000000 0.0000000000 0.0000000000 0.1000000000 0.0000000000 0.0000000000 0.1000000000 0.0000100000 0.0000000000 0.2000000000 0.0000100000 0.0000000000 0.1000000000 0.0000000000 0.0000000000 0.2000000000 0.0000100000 0.0000000000 0.2000000000 0.0000000000 0.0000000000 0.2000000000 0.0000000000 0.0000000000 0.2000000000 0.0000100000 0.0000000000 0.3000000000 0.0000100000 0.0000000000 0.2000000000 0.0000000000 0.0000000000 0.3000000000 0.0000100000 0.0000000000 0.3000000000 0.0000000000 0.0000000000 0.3000000000 0.0000000000 0.0000000000 0.3000000000 0.0000100000 0.0000000000 0.4000000000 0.0000100000 0.0000000000 0.3000000000 0.0000000000 0.0000000000 0.4000000000 0.0000100000 0.0000000000 0.4000000000 0.0000000000 0.0000000000 0.4000000000 0.0000000000 0.0000000000 0.4000000000 0.0000100000 0.0000000000 0.5000000000 0.0000100000 0.0000000000 0.4000000000 0.0000000000 0.0000000000 0.5000000000 0.0000100000 0.0000000000 0.5000000000 0.0000000000 0.0000000000 0.5000000000 0.0000000000 0.0000000000 0.5000000000 0.0000100000 0.0000000000 0.6000000000 0.0000100000 0.0000000000 0.5000000000 0.0000000000 0.0000000000 0.6000000000 0.0000100000 0.0000000000 0.6000000000 0.0000000000 0.0000000000 0.6000000000 0.0000000000 0.0000000000 0.6000000000 0.0000100000 0.0000000000 0.7000000000 0.0000100000 0.0000000000 0.6000000000 0.0000000000 0.0000000000 0.7000000000 0.0000100000 0.0000000000 0.7000000000 0.0000000000 0.0000000000 0.7000000000 0.0000000000 0.0000000000 0.7000000000 0.0000100000 0.0000000000 0.8000000000 0.0000100000 0.0000000000 0.7000000000 0.0000000000 0.0000000000 0.8000000000 0.0000100000 0.0000000000 0.8000000000 0.0000000000 0.0000000000 0.8000000000 0.0000000000 0.0000000000 0.8000000000 0.0000100000 0.0000000000 0.9000000000 0.0000100000 0.0000000000 0.8000000000 0.0000000000 0.0000000000 0.9000000000 0.0000100000 0.0000000000 0.9000000000 0.0000000000 0.0000000000 0.9000000000 0.0000000000 0.0000000000 0.9000000000 0.0000100000 0.0000000000 1.0000000000 0.0000100000 0.0000000000 0.9000000000 0.0000000000 0.0000000000 1.0000000000 0.0000100000 0.0000000000 1.0000000000 0.0000000000 0.0000000000 0.0000000000 0.0000100000 0.0000000000 0.0000000000 0.0001221059 0.0000000000 0.1000000000 0.0001221059 0.0000000000 0.0000000000 0.0000100000 0.0000000000 0.1000000000 0.0001221059 0.0000000000 0.1000000000 0.0000100000 0.0000000000 0.1000000000 0.0000100000 0.0000000000 0.1000000000 0.0001221059 0.0000000000 0.2000000000 0.0001221059 0.0000000000 0.1000000000 0.0000100000 0.0000000000 0.2000000000 0.0001221059 0.0000000000 0.2000000000 0.0000100000 0.0000000000 0.2000000000 0.0000100000 0.0000000000 0.2000000000 0.0001221059 0.0000000000 0.3000000000 0.0001221059 0.0000000000 0.2000000000 0.0000100000 0.0000000000 0.3000000000 0.0001221059 0.0000000000 0.3000000000 0.0000100000 0.0000000000 0.3000000000 0.0000100000 0.0000000000 0.3000000000 0.0001221059 0.0000000000 0.4000000000 0.0001221059 0.0000000000 0.3000000000 0.0000100000 0.0000000000 0.4000000000 0.0001221059 0.0000000000 0.4000000000 0.0000100000 0.0000000000 0.4000000000 0.0000100000 0.0000000000 0.4000000000 0.0001221059 0.0000000000 0.5000000000 0.0001221059 0.0000000000 0.4000000000 0.0000100000 0.0000000000 0.5000000000 0.0001221059 0.0000000000 0.5000000000 0.0000100000 0.0000000000 0.5000000000 0.0000100000 0.0000000000 0.5000000000 0.0001221059 0.0000000000 0.6000000000 0.0001221059 0.0000000000 0.5000000000 0.0000100000 0.0000000000 0.6000000000 0.0001221059 0.0000000000 0.6000000000 0.0000100000 0.0000000000 0.6000000000 0.0000100000 0.0000000000 0.6000000000 0.0001221059 0.0000000000 0.7000000000 0.0001221059 0.0000000000 0.6000000000 0.0000100000 0.0000000000 0.7000000000 0.0001221059 0.0000000000 0.7000000000 0.0000100000 0.0000000000 0.7000000000 0.0000100000 0.0000000000 0.7000000000 0.0001221059 0.0000000000 0.8000000000 0.0001221059 0.0000000000 0.7000000000 0.0000100000 0.0000000000 0.8000000000 0.0001221059 0.0000000000 0.8000000000 0.0000100000 0.0000000000 0.8000000000 0.0000100000 0.0000000000 0.8000000000 0.0001221059 0.0000000000 0.9000000000 0.0001221059 0.0000000000 0.8000000000 0.0000100000 0.0000000000 0.9000000000 0.0001221059 0.0000000000 0.9000000000 0.0000100000 0.0000000000 0.9000000000 0.0000100000 0.0000000000 0.9000000000 0.0001221059 0.0000000000 1.0000000000 0.0001221059 0.0000000000 0.9000000000 0.0000100000 0.0000000000 1.0000000000 0.0001221059 0.0000000000 1.0000000000 0.0000100000 0.0000000000 0.0000000000 0.0001221059 0.0000000000 0.0000000000 0.0002771482 0.0000000000 0.1000000000 0.0002771482 0.0000000000 0.0000000000 0.0001221059 0.0000000000 0.1000000000 0.0002771482 0.0000000000 0.1000000000 0.0001221059 0.0000000000 0.1000000000 0.0001221059 0.0000000000 0.1000000000 0.0002771482 0.0000000000 0.2000000000 0.0002771482 0.0000000000 0.1000000000 0.0001221059 0.0000000000 0.2000000000 0.0002771482 0.0000000000 0.2000000000 0.0001221059 0.0000000000 0.2000000000 0.0001221059 0.0000000000 0.2000000000 0.0002771482 0.0000000000 0.3000000000 0.0002771482 0.0000000000 0.2000000000 0.0001221059 0.0000000000 0.3000000000 0.0002771482 0.0000000000 0.3000000000 0.0001221059 0.0000000000 0.3000000000 0.0001221059 0.0000000000 0.3000000000 0.0002771482 0.0000000000 0.4000000000 0.0002771482 0.0000000000 0.3000000000 0.0001221059 0.0000000000 0.4000000000 0.0002771482 0.0000000000 0.4000000000 0.0001221059 0.0000000000 0.4000000000 0.0001221059 0.0000000000 0.4000000000 0.0002771482 0.0000000000 0.5000000000 0.0002771482 0.0000000000 0.4000000000 0.0001221059 0.0000000000 0.5000000000 0.0002771482 0.0000000000 0.5000000000 0.0001221059 0.0000000000 0.5000000000 0.0001221059 0.0000000000 0.5000000000 0.0002771482 0.0000000000 0.6000000000 0.0002771482 0.0000000000 0.5000000000 0.0001221059 0.0000000000 0.6000000000 0.0002771482 0.0000000000 0.6000000000 0.0001221059 0.0000000000 0.6000000000 0.0001221059 0.0000000000 0.6000000000 0.0002771482 0.0000000000 0.7000000000 0.0002771482 0.0000000000 0.6000000000 0.0001221059 0.0000000000 0.7000000000 0.0002771482 0.0000000000 0.7000000000 0.0001221059 0.0000000000 0.7000000000 0.0001221059 0.0000000000 0.7000000000 0.0002771482 0.0000000000 0.8000000000 0.0002771482 0.0000000000 0.7000000000 0.0001221059 0.0000000000 0.8000000000 0.0002771482 0.0000000000 0.8000000000 0.0001221059 0.0000000000 0.8000000000 0.0001221059 0.0000000000 0.8000000000 0.0002771482 0.0000000000 0.9000000000 0.0002771482 0.0000000000 0.8000000000 0.0001221059 0.0000000000 0.9000000000 0.0002771482 0.0000000000 0.9000000000 0.0001221059 0.0000000000 0.9000000000 0.0001221059 0.0000000000 0.9000000000 0.0002771482 0.0000000000 1.0000000000 0.0002771482 0.0000000000 0.9000000000 0.0001221059 0.0000000000 1.0000000000 0.0002771482 0.0000000000 1.0000000000 0.0001221059 0.0000000000 0.0000000000 0.0002771482 0.0000000000 0.0000000000 0.0004915718 0.0000000000 0.1000000000 0.0004915718 0.0000000000 0.0000000000 0.0002771482 0.0000000000 0.1000000000 0.0004915718 0.0000000000 0.1000000000 0.0002771482 0.0000000000 0.1000000000 0.0002771482 0.0000000000 0.1000000000 0.0004915718 0.0000000000 0.2000000000 0.0004915718 0.0000000000 0.1000000000 0.0002771482 0.0000000000 0.2000000000 0.0004915718 0.0000000000 0.2000000000 0.0002771482 0.0000000000 0.2000000000 0.0002771482 0.0000000000 0.2000000000 0.0004915718 0.0000000000 0.3000000000 0.0004915718 0.0000000000 0.2000000000 0.0002771482 0.0000000000 0.3000000000 0.0004915718 0.0000000000 0.3000000000 0.0002771482 0.0000000000 0.3000000000 0.0002771482 0.0000000000 0.3000000000 0.0004915718 0.0000000000 0.4000000000 0.0004915718 0.0000000000 0.3000000000 0.0002771482 0.0000000000 0.4000000000 0.0004915718 0.0000000000 0.4000000000 0.0002771482 0.0000000000 0.4000000000 0.0002771482 0.0000000000 0.4000000000 0.0004915718 0.0000000000 0.5000000000 0.0004915718 0.0000000000 0.4000000000 0.0002771482 0.0000000000 0.5000000000 0.0004915718 0.0000000000 0.5000000000 0.0002771482 0.0000000000 0.5000000000 0.0002771482 0.0000000000 0.5000000000 0.0004915718 0.0000000000 0.6000000000 0.0004915718 0.0000000000 0.5000000000 0.0002771482 0.0000000000 0.6000000000 0.0004915718 0.0000000000 0.6000000000 0.0002771482 0.0000000000 0.6000000000 0.0002771482 0.0000000000 0.6000000000 0.0004915718 0.0000000000 0.7000000000 0.0004915718 0.0000000000 0.6000000000 0.0002771482 0.0000000000 0.7000000000 0.0004915718 0.0000000000 0.7000000000 0.0002771482 0.0000000000 0.7000000000 0.0002771482 0.0000000000 0.7000000000 0.0004915718 0.0000000000 0.8000000000 0.0004915718 0.0000000000 0.7000000000 0.0002771482 0.0000000000 0.8000000000 0.0004915718 0.0000000000 0.8000000000 0.0002771482 0.0000000000 0.8000000000 0.0002771482 0.0000000000 0.8000000000 0.0004915718 0.0000000000 0.900000000
[...]
<PointData Scalars="Ba-133_conc,region_id," Vectors="" Tensors="">
<DataArray type="Float64" Name="Ba-133_conc" format="ascii">
738.7284564339 671.6163713374 671.5125541502 597.7185254313 597.7291032479 521.3968690440 521.3434875500 442.1954791176 442.1865990591 362.6067046161 362.5707561773 283.2159468540 283.2021440700 205.8901477638 205.8670486341 131.5783640515 131.5674772734 61.6993394064 61.6735832448 0.0084642618 738.9672726926 971.7375080114 958.5494788699 738.9716801017 958.5474195385 671.8432793270 671.8235174343 958.5542343494 959.8778743086 671.8164621704 959.8721522570 598.0220116249 598.0206900819 959.8737758207 948.5278272006 598.0303672679 948.5202768124 521.7118092681 521.6990954497 948.5257992816 928.0977211941 521.6966571007 928.0950148231 442.5471130768 442.5423179674 928.0995747281 898.9621635029 442.5465787059 898.9600365122 362.9693879780 362.9599139155 898.9668085718 861.0902985399 362.9580645925 861.0920463096 283.5973833792 283.5920381821 861.0987940977 815.0283271890 283.5924814928 815.0321200561 206.2751295383 206.2684067198 815.0401826838 761.8898515084 206.2654835970 761.8972536947 131.9666937426 131.9624179348 761.9057572934 701.1290409033 131.9597157133 701.1380900207 62.0824710431 62.0795897343 701.1456320782 475.8710735021 62.0675050535 475.8844305544 0.2745984859 982.8431465342 6.3262918608 3.4431682156 972.2255819572 12.6129260290 959.0404317413 968.2121890804 3.6219146411 16.1825858045 959.0169260492 26.0683587331 960.5155406148 970.5556783578 16.0896625912 28.3996934608 960.3842819549 39.0508453681 949.1723840069 960.0258004178 28.2060223033 41.7632163442 949.0846497727 52.9837996118 928.7435667488 940.2486471687 41.4276440968 55.5482321160 928.7002066267 67.1491276544 899.5930246841 911.5612830033 55.0709826935 69.5733747734 899.5993988926 81.3471065417 861.6940506497 873.9262261476 68.9506472294 83.5458297855 861.7540517663 95.2735283837 815.5897381854 827.8739604568 82.7731889964 97.2726781013 815.7069713479 108.7393168432 762.3963025266 774.5029171876 96.3674604128 105.5282092803 762.5734024266 116.4754946013 701.5773212226 713.4225443801 104.4514050128 224.3638164678 701.8066894003 237.2839581697 475.9033784072 5.0156522440 0.4707143417 -3.9903147334 6.2548663381 -5.0574919363 -1.1186236281 -4.5734283309 -3.3392433091 -4.6218680140 -0.4503433515 -6.9377624319 11.3466608675 7.6704608236 -4.5357363221 -5.5581934190 11.7213446711 -7.8647974248 23.2556778026 19.6676522396 -5.5972960804 -6.4505201441 23.6087255092 -8.6393203710 36.3714612073 32.9518764908 -6.5291765982 -7.3244664992 36.6765818501 -9.3253575025 50.0119485746 46.8628085995 -7.4443149858 -8.1167480370 50.2618068157 -9.8601805325 63.9984981972 61.2205894374 -8.2799279435 -8.8055182522 64.1848204570 -10.2245250409 78.0408950895 75.7308627930 -9.0136494988 -9.4409849866 78.1528940924 -10.4568237069 91.9386973612 90.1710610463 -9.6550771026 -8.6508420488 91.9751183547 -9.3711661367 100.5139183996 99.5193617048 -9.3185218870 -22.8649069342 100.3605726283 -22.9433673891 219.8757050450 0.1312515207 -0.0875169333 0.1878791529 0.2052427807 0.2635489649 -3.2410045166 -2.6904768071 0.0768502412 0.8827812218 -2.9873250257 1.4334967048 -3.6120537602 -2.6956821907 0.7738200223 0.9631746006 -3.3915690938 1.5868200248 -4.7731056959 -3.8683193829 0.8998712086 1.0690511685 -4.4921713540 1.6646727407 -5.7464002017 -4.9078244488 1.0331685284 1.1829298791 -5.4499057541 1.7071522964 -6.7368933915 -5.9933436871 1.1446778357 1.2832811277 -6.4222413306 1.7103406811 -7.6766825150 -7.0628898708 1.2447198623 1.3617868032 -7.3489724258 1.6651994414 -8.5395295144 -8.0886544783 1.3239132727 1.4362451206 -8.2037269916 1.5873800785 -9.3863633220 -9.1296204763 1.3860605680 1.2612257115 -9.0522013595 1.2523195706 -8.6392813601 -8.6461934441 1.2792645613 3.0872065973 -8.4443635526 2.7717957986 -23.8630772781 -0.0251387353 0.0057854176 -0.0042104447 -0.0460936245 -0.0000357642 0.1038363584 0.0546570992 0.0114699644 -0.0598190374 0.0837601038 -0.1304226516 0.4906037938 0.2479844512 -0.0272553675 -0.0789286723 0.4802973348 -0.2386483566 0.5806339468 0.3040168709 -0.0680499481 -0.0882846588 0.5594651545 -0.2629184291 0.7242918755 0.4482781518 -0.0834393058 -0.1059058702 0.7113176766 -0.2883860909 0.8578188262 0.5810283254 -0.1037102340 -0.1228169356 0.8435914038 -0.3071980117 0.9941343421 0.7261536014 -0.1225694547 -0.1392379752 0.9783837482 -0.3191842696 1.1233097250 0.8753099502 -0.1409074251 -0.1563129840 1.1069948050 -0.3270107284 1.2626521972 1.0440531094 -0.1649704374 -0.1504470789 1.2360802342 -0.2857312956 1.1702638464 0.9969130630 -0.1217189559 -0.3084362611 1.1778294627 -0.5158601242 3.1500624497 -0.0000630637 -0.0000803474 0.0000870206 0.0013883162 -0.0004480916 -0.0018318637 -0.0010716892 -0.0002870320 0.0002091940 -0.0005765133 0.0031156884 -0.0108506845 0.0035408866 0.0000323605 -0.0006648265 -0.0088700310 0.0123590902 -0.0076077813 0.0164557710 -0.0004002192 -0.0005178337 -0.0064768261 0.0158108360 -0.0156853114 0.0144639388 -0.0010808005 0.0008679745 -0.0136421194 0.0210447499 -0.0274365483 0.0092390281 0.0000079178 0.0023415070 -0.0252102066 0.0267761445 -0.0391996549 0.0041294871 0.0013300999 0.0039300310 -0.0367966029 0.0327626876 -0.0525846527 -0.0026090256 0.0028591494 0.0058118574 -0.0498498767 0.0389873781 -0.0676280036 -0.0114026902 0.0048769294 0.0081999497 -0.0658912817 0.0448952455 -0.0780301877 -0.0150642073 0.0045138726 0.0109007073 -0.0611071377 0.0623707703 -0.1564875527 0.0000044326 0.0000009590 -0.0000037532 0.0000059468 -0.0000115628 0.0000622192 0.0000501682 -0.0000127442 0.0000063541 0.0000930778 -0.0000033775 -0.0002610652 -0.0000932728 -0.0000361297 0.0001118094 -0.0000908741 0.0002936589 -0.0016033000 -0.0007440082 0.0000353350 0.0002219201 -0.0013294781 0.0007653711 -0.0020166196 -0.0010265031 0.0001805705 0.0002311989 -0.0019363740 0.0008058814 -0.0018915700 -0.0010931298 0.0002213740 0.0002311411 -0.0019076729 0.0007265013 -0.0017837652 -0.0011949604 0.0002393493 0.0002483514 -0.0018501079 0.0006325152 -0.0016485837 -0.0013020828 0.0002604391 0.0002631294 -0.0017322752 0.0004914110 -0.0014253216 -0.0014144503 0.0002856765 0.0002657361 -0.0015299363 0.0002555180 -0.0008746909 -0.0012889747 0.0002217406 0.0003967179 -0.0011473232 0.0004593401 -0.0027382628 0.0000000012 -0.0000000041 0.0000000083 0.0000000099 0.0000001163 -0.0000004930 -0.0000001521 0.0000000261 0.0000000217 -0.0000015484 0.0000005106 0.0000006838 -0.0000001578 0.0000001807 -0.0000002198 -0.0000023971 -0.0000024601 0.0000145011 0.0000015344 0.0000001108 -0.0000008762 0.0000088366 -0.0000123349 0.0000310847 0.0000038133 -0.0000005287 -0.0000011722 0.0000264370 -0.0000180230 0.0000363994 0.0000047034 -0.0000009572 -0.0000012603 0.0000328868 -0.0000207200 0.0000402063 0.0000055151 -0.0000011633 -0.0000014810 0.0000379111 -0.0000238526 0.0000464663 0.0000066438 -0.0000013973 -0.0000017760 0.0000439880 -0.0000274407 0.0000534175 0.0000080194 -0.0000016937 -0.0000021186 0.0000513226 -0.0000314133 0.0000602451 0.0000087003 -0.0000017694 -0.0000026689 0.0000495086 -0.0000369926 0.0000881698 -0.0000000000 0.0000000000 -0.0000000000 -0.0000000001 -0.0000000000 0.0000000003 0.0000000000 -0.0000000000 -0.0000000000 0.0000000009 -0.0000000007 0.0000000009 0.0000000001 -0.0000000000 0.0000000000 0.0000000046 0.0000000001 -0.0000000071 -0.0000000001 -0.0000000001 0.0000000002 -0.0000000005 0.0000000092 -0.0000000316 -0.0000000011 0.0000000001 0.0000000004 -0.0000000229 0.0000000212 -0.0000000457 -0.0000000017 0.0000000003 0.0000000005 -0.0000000375 0.0000000276 -0.0000000529 -0.0000000021 0.0000000004 0.0000000006 -0.0000000466 0.0000000336 -0.0000000644 -0.0000000026 0.0000000005 0.0000000007 -0.0000000576 0.0000000415 -0.0000000796 -0.0000000033 0.0000000007 0.0000000009 -0.0000000717 0.0000000515 -0.0000000983 -0.0000000040 0.0000000008 0.0000000012 -0.0000000809 0.0000000615 -0.0000001263 0.0000000000 -0.0000000000 0.0000000000 0.0000000000 -0.0000000000 -0.0000000000 -0.0000000000 -0.0000000000 0.0000000000 -0.0000000000 0.0000000000 -0.0000000000 -0.0000000000 0.0000000000 0.0000000000 -0.0000000000 0.0000000000 0.0000000000 -0.0000000000 0.0000000000 -0.0000000000 -0.0000000000 -0.0000000000 0.0000000000 0.0000000000 0.0000000000 -0.0000000000 0.0000000000 -0.0000000000 0.0000000000 0.0000000000 -0.0000000000 -0.0000000000 0.0000000000 -0.0000000000 0.0000000000 0.0000000000 -0.0000000000 -0.0000000000 0.0000000000 -0.0000000000 0.0000000000 0.0000000000 -0.0000000000 -0.0000000000 0.0000000000 -0.0000000000 0.0000000000 0.0000000000 -0.0000000000 -0.0000000000 0.0000000000 -0.0000000000 0.0000000000 0.0000000000 -0.0000000000 -0.0000000000 0.0000000000 -0.0000000000 0.0000000000 -0.0000000000 0.0000000000 0.0000000000 -0.0000000000 0.0000000000 0.0000000000 -0.0000000000 0.0000000000 -0.0000000000 -0.0000000000 -0.0000000000 0.0000000000 0.0000000000 -0.0000000000 -0.0000000000 0.0000000000 -0.0000000000 0.0000000000 0.0000000000 -0.0000000000 0.0000000000 0.0000000000 -0.0000000000 -0.0000000000 -0.0000000000 -0.0000000000 0.0000000000 0.0000000000 0.0000000000 -0.0000000000 -0.0000000000 0.0000000000 0.0000000000 -0.0000000000 0.0000000000 -0.0000000000 -0.0000000000 0.0000000000 0.0000000000 -0.0000000000 0.0000000000 -0.0000000000 -0.0000000000 0.0000000000 0.0000000000 -0.0000000000 0.0000000000 -0.0000000000 -0.0000000000 0.0000000000 0.0000000000 -0.0000000000 0.0000000000 -0.0000000000 -0.0000000000 0.0000000000 0.0000000000 -0.0000000000 0.0000000000 -0.0000000000 0.0000000000 0.0000000000 -0.0000000000 0.0000000000 -0.0000000000 0.0000000000 0.0000000000 -0.0000000000 0.0000000000 0.0000000000 -0.0000000000 -0.0000000000 -0.0000000000 -0.0000000000 0.0000000000 -0.0000000000 0.0000000000 -0.0000000000 -0.0000000000 0.0000000000 0.0000000000 -0.0000000000 0.0000000000 0.0000000000 -0.0000000000 0.0000000000 -0.0000000000 -0.0000000000 -0.0000000000 0.0000000000 0.0000000000 0.0000000000 -0.0000000000 0.0000000000 -0.0000000000 0.0000000000 0.0000000000 -0.0000000000 -0.0000000000 0.0000000000 -0.0000000000 0.0000000000 0.0000000000 -0.0000000000 -0.0000000000 0.0000000000 -0.0000000000 0.0000000000 0.0000000000 -0.0000000000 -0.0000000000 0.0000000000 -0.0000000000 0.0000000000 0.0000000000 -0.0000000000 -0.0000000000 0.0000000000 -0.0000000000 0.0000000000 0.0000000000 -0.0000000000 0.0000000000 0.0000000000 0.0000000000 -0.0000000000 -0.0000000000 0.0000000000 0.0000000000 -0.0000000000 0.0000000000 0.0000000000 -0.0000000000 0.0000000000 -0.0000000000 -0.0000000000 -0.0000000000 0.0000000000 0.0000000000 0.0000000000 -0.0000000000 0.0000000000 -0.0000000000 0.0000000000 0.0000000000 -0.0000000000 -0.0000000000 0.0000000000 -0.0000000000 -0.0000000000 -0.0000000000 -0.0000000000 0.0000000000 0.0000000000 0.0000000000 -0.0000000000 -0.0000000000 -0.0000000000 0.0000000000 -0.0000000000 0.0000000000 -0.0000000000 -0.0000000000 0.0000000000 0.0000000000 -0.0000000000 0.0000000000 -0.0000000000 -0.0000000000 0.0000000000 0.0000000000 -0.0000000000 0.0000000000 -0.0000000000 -0.0000000000 0.0000000000 0.0000000000 -0.0000000000 0.0000000000 -0.0000000000 -0.0000000000 0.0000000000 0.0000000000 -0.0000000000 -0.0000000000 0.0000000000 0.0000000000 0.0000000000 -0.0000000000 0.0000000000 -0.0000000000 0.0000000000 0.0000000000 -0.0000000000 -0.0000000000 0.0000000000 -0.0000000000 -0.0000000000 -0.0000000000 -0.0000000000 0.0000000000 0.0000000000 0.0000000000 -0.0000000000 -0.0000000000 0.0000000000 0.0000000000 -0.0000000000 0.0000000000 -0.0000000000 -0.0000000000 0.0000000000 -0.0000000000 -0.0000000000 -0.0000000000 0.0000000000 0.0000000000 0.0000000000 -0.0000000000 -0.0000000000 -0.0000000000 0.0000000000 0.0000000000 -0.0000000000 -0.0000000000 0.0000000000 -0.0000000000 0.0000000000 0.0000000000 -0.0000000000 -0.0000000000 0.0000000000 -0.0000000000 0.0000000000 0.0000000000 -0.0000000000 -0.0000000000 0.0000000000 -0.0000000000 0.0000000000 -0.0000000000 0.0000000000 -0.0000000000 0.0000000000 -0.0000000000 -0.0000000000 0.0000000000 -0.0000000000 -0.0000000000 0.0000000000 0.0000000000 -0.0000000000 -0.0000000000 -0.0000000000 0.0000000000 -0.0000000000 0.0000000000 -0.0000000000 -0.0000000000 0.0000000000 0.0000000000 -0.0000000000 0.0000000000 0.0000000000 0.0000000000 0.0000000000 -0.0000000000 -0.0000000000 -0.0000000000 0.0000000000 0.0000000000 -0.0000000000 -0.0000000000 0.0000000000 -0.0000000000 -0.0000000000 0.0000000000 -0.0000000000 0.0000000000 0.0000000000 0.0000000000 -0.0000000000 -0.0000000000 -0.0000000000 0.0000000000 0.0000000000 0.0000000000 -0.0000000000 -0.0000000000 0.0000000000 0.0000000000 -0.0000000000 0.0000000000 -0.0000000000 -0.0000000000 0.0000000000 0.0000000000 -0.0000000000 0.0000000000 -0.0000000000 -0.0000000000 0.0000000000 -0.0000000000 -0.0000000000 -0.0000000000 -0.0000000000 0.0000000000 -0.0000000000 -0.0000000000 0.0000000000 0.0000000000 -0.0000000000 0.0000000000 -0.0000000000 0.0000000000 0.0000000000 0.0000000000 0.0000000000 -0.0000000000 0.0000000000 0.0000000000 -0.0000000000 -0.0000000000 0.0000000000 -0.0000000000 0.0000000000 0.0000000000 -0.0000000000 -0.0000000000 -0.0000000000 0.0000000000 -0.0000000000 -0.0000000000 0.0000000000 0.0000000000 -0.0000000000 0.0000000000 -0.0000000000 0.0000000000 0.0000000000 0.0000000000 0.0000000000 -0.0000000000 0.0000000000 -0.0000000000 -0.0000000000 0.0000000000 0.0000000000 0.0000000000 0.0000000000 -0.0000000000 0.0000000000 -0.0000000000 -0.0000000000 0.0000000000 -0.0000000000 -0.0000000000 0.0000000000 -0.0000000000 -0.0000000000 -0.0000000000 0.0000000000 -0.0000000000 -0.0000000000 0.0000000000 -0.0000000000 0.0000000000 -0.0000000000 -0.0000000000 0.0000000000 0.0000000000 -0.0000000000 0.0000000000 -0.0000000000 0.0000000000 0.0000000000 -0.0000000000 0.0000000000 -0.0000000000 0.0000000000 0.0000000000 -0.0000000000 -0.0000000000 0.0000000000 -0.0000000000 0.0000000000 0.0000000000 -0.0000000000 -0.0000000000 0.0000000000 0.0000000000 -0.0000000000 -0.0000000000 0.0000000000 0.0000000000 -0.0000000000 0.0000000000 -0.0000000000 -0.0000000000 0.0000000000 -0.0000000000 -0.0000000000 -0.0000000000 0.0000000000 0.0000000000 0.0000000000 -0.0000000000 -0.0000000000 -0.0000000000 -0.0000000000 0.0000000000 -0.0000000000 0.0000000000 0.0000000000 -0.0000000000 -0.0000000000 -0.0000000000 -0.0000000000 0.0000000000 0.0000000000 -0.0000000000 0.0000000000 -0.0000000000 -0.0000000000 0.0000000000 -0.0000000000 0.0000000000 -0.0000000000 -0.0000000000 0.0000000000 0.0000000000 -0.0000000000 0.0000000000 -0.0000000000 0.0000000000 0.0000000000 -0.0000000000 0.0000000000 -0.0000000000 0.0000000000 0.0000000000 -0.0000000000 -0.0000000000 0.0000000000 -0.0000000000 0.0000000000 -0.0000000000 -0.0000000000 0.0000000000 0.0000000000 0.0000000000 -0.0000000000 -0.0000000000 0.0000000000 0.0000000000 -0.0000000000 0.0000000000 -0.0000000000 -0.0000000000 0.0000000000 0.0000000000 -0.0000000000 -0.0000000000 0.0000000000 0.0000000000 -0.0000000000 0.0000000000 0.0000000000 -0.0000000000 0.0000000000 -0.0000000000 -0.0000000000 0.0000000000 0.0000000000 -0.0000000000 0.0000000000 -0.0000000000 -0.0000000000 0.0000000000 -0.0000000000 -0.0000000000 0.0000000000 -0.0000000000 -0.0000000000 0.0000000000 -0.0000000000 0.0000000000 -0.0000000000 -0.0000000000 0.0000000000 0.0000000000 -0.0000000000 0.0000000000 -0.0000000000 0.0000000000 0.0000000000 -0.0000000000 0.0000000000 -0.0000000000 0.0000000000 0.0000000000 -0.0000000000 -0.0000000000 0.0000000000 -0.0000000000 0.0000000000 -0.0000000000 -0.0000000000 0.0000000000 0.0000000000 0.0000000000 -0.0000000000 -0.0000000000 0.0000000000 0.0000000000 -0.0000000000 0.0000000000 -0.0000000000 0.0000000000 0.0000000000 -0.0000000000 -0.0000000000 -0.0000000000 0.0000000000 0.0000000000 -0.0000000000 0.0000000000 0.0000000000 -0.0000000000 0.0000000000 -0.0000000000 -0.0000000000 0.0000000000 -0.0000000000 -0.0000000000 0.0000000000 -0.0000000000 -0.0000000000 0.0000000000 -0.0000000000 
</DataArray>
<DataArray type="Float64" Name="region_id" format="ascii">
2 2 2 2 2 2 2 2 2 2 2 2 2 2 2 2 2 2 2 2 1 1 1 1 1 1 1 1 1 1 1 1 1 1 1 1 1 1 1 1 1 1 1 1 1 1 1 1 1 1 1 1 1 1 1 1 1 1 1 1 1 1 1 1 1 1 1 1 1 1 1 1 1 1 1 1 1 1 1 1 1 1 1 1 1 1 1 1 1 1 1 1 1 1 1 1 1 1 1 1 1 1 1 1 1 1 1 1 1 1 1 1 1 1 1 1 1 1 1 1 1 1 1 1 1 1 1 1 1 1 1 1 1 1 1 1 1 1 1 1 1 1 1 1 1 1 1 1 1 1 1 1 1 1 1 1 1 1 1 1 1 1 1 1 1 1 1 1 1 1 1 1 1 1 1 1 1 1 1 1 1 1 1 1 1 1 1 1 1 1 1 1 1 1 1 1 1 1 1 1 1 1 1 1 1 1 1 1 1 1 1 1 1 1 1 1 1 1 1 1 1 1 1 1 1 1 1 1 1 1 1 1 1 1 1 1 1 1 1 1 1 1 1 1 1 1 1 1 1 1 1 1 1 1 1 1 1 1 1 1 1 1 1 1 1 1 1 1 1 1 1 1 1 1 1 1 1 1 1 1 1 1 1 1 1 1 1 1 1 1 1 1 1 1 1 1 1 1 1 1 1 1 1 1 1 1 1 1 1 1 1 1 1 1 1 1 1 1 1 1 1 1 1 1 1 1 1 1 1 1 1 1 1 1 1 1 1 1 1 1 1 1 1 1 1 1 1 1 1 1 1 1 1 1 1 1 1 1 1 1 1 1 1 1 1 1 1 1 1 1 1 1 1 1 1 1 1 1 1 1 1 1 1 1 1 1 1 1 1 1 1 1 1 1 1 1 1 1 1 1 1 1 1 1 1 1 1 1 1 1 1 1 1 1 1 1 1 1 1 1 1 1 1 1 1 1 1 1 1 1 1 1 1 1 1 1 1 1 1 1 1 1 1 1 1 1 1 1 1 1 1 1 1 1 1 1 1 1 1 1 1 1 1 1 1 1 1 1 1 1 1 1 1 1 1 1 1 1 1 1 1 1 1 1 1 1 1 1 1 1 1 1 1 1 1 1 1 1 1 1 1 1 1 1 1 1 1 1 1 1 1 1 1 1 1 1 1 1 1 1 1 1 1 1 1 1 1 1 1 1 1 1 1 1 1 1 1 1 1 1 1 1 1 1 1 1 1 1 1 1 1 1 1 1 1 1 1 1 1 1 1 1 1 1 1 1 1 1 1 1 1 1 1 1 1 1 1 1 1 1 1 1 1 1 1 1 1 1 1 1 1 1 1 1 1 1 1 1 1 1 1 1 1 1 1 1 1 1 1 1 1 1 1 1 1 1 1 1 1 1 1 1 1 1 1 1 1 1 1 1 1 1 1 1 1 1 1 1 1 1 1 1 1 1 1 1 1 1 1 1 1 1 1 1 1 1 1 1 1 1 1 1 1 1 1 1 1 1 1 1 1 1 1 1 1 1 1 1 1 1 1 1 1 1 1 1 1 1 1 1 1 1 1 1 1 1 1 1 1 1 1 1 1 1 1 1 1 1 1 1 1 1 1 1 1 1 1 1 1 1 1 1 1 1 1 1 1 1 1 1 1 1 1 1 1 1 1 1 1 1 1 1 1 1 1 1 1 1 1 1 1 1 1 1 1 1 1 1 1 1 1 1 1 1 1 1 1 1 1 1 1 1 1 1 1 1 1 1 1 1 1 1 1 1 1 1 1 1 1 1 1 1 1 1 1 1 1 1 1 1 1 1 1 1 1 1 1 1 1 1 1 1 1 1 1 1 1 1 1 1 1 1 1 1 1 1 1 1 1 1 1 1 1 1 1 1 1 1 1 1 1 1 1 1 1 1 1 1 1 1 1 1 1 1 1 1 1 1 1 1 1 1 1 1 1 1 1 1 1 1 1 1 1 1 1 1 1 1 1 1 1 1 1 1 1 1 1 1 1 1 1 1 1 1 1 1 1 1 1 1 1 1 1 1 1 1 1 1 1 1 1 1 1 1 1 1 1 1 1 1 1 1 1 1 1 1 1 1 1 1 1 1 1 1 1 1 1 1 1 1 1 1 1 1 1 1 1 1 1 1 1 1 1 1 1 1 1 1 1 1 1 1 1 1 1 1 1 1 1 1 1 1 1 1 1 1 1 1 1 1 1 1 1 1 1 1 1 1 1 1 1 1 1 1 1 1 1 1 1 1 1 1 1 1 1 1 1 1 1 1 1 1 1 1 1 1 1 1 1 1 1 1 1 1 1 1 1 1 1 1 1 1 1 1 1 1 1 1 1 1 1 1 1 1 1 1 1 1 1 1 1 1 1 1 1 1 1 1 1 1 1 1 1 1 1 1 1 1 1 1 1 1 1 1 1 1 1 1 1 1 1 1 1 1 1 1 1 1 1 1 1 1 1 1 1 1 1 1 1 1 1 1 1 1 1 1 1 1 1 1 1 1 1 1 1 1 1 1 1 1 1 1 1 1 1 1 1 1 1 1 1 1 1 1 1 1 1 1 1 1 1 1 1 1 1 1 1 1 1 1 1 1 1 1 1 1 1 1 1 1 
</DataArray>
</PointData>
</Piece>
</UnstructuredGrid>
</VTKFile>
