<?xml version="1.0"?>
<VTKFile type="UnstructuredGrid" version="0.1" byte_order="LittleEndian">
<UnstructuredGrid>
<Piece NumberOfPoints="1160" NumberOfCells="390">
<Points>
<DataArray type="Float64" NumberOfComponents="3" format="ascii">
0.0000000000 0.0000000000 0.0000000000 0.1000000000 0.0000000000 0.0000000000 0.1000000000 0.0000000000 0.0000000000 0.2000000000 0.0000000000 0.0000000000 0.2000000000 0.0000000000 0.0000000000 0.3000000000 0.0000000000 0.0000000000 0.3000000000 0.0000000000 0.0000000000 0.4000000000 0.0000000000 0.0000000000 0.4000000000 0.0000000000 0.0000000000 0.5000000000 0.0000000000 0.0000000000 0.5000000000 0.0000000000 0.0000000000 0.6000000000 0.0000000000 0.0000000000 0.6000000000 0.0000000000 0.0000000000 0.7000000000 0.0000000000 0.0000000000 0.7000000000 0.0000000000 0.0000000000 0.8000000000 0.0000000000 0.0000000000 0.8000000000 0.0000000000 0.0000000000 0.9000000000 0.0000000000 0.0000000000 0.9000000000 0.0000000000 0.0000000000 1.0000000000 0.0000000000 0.0000000000 0.0000000000 0.0000000000 0.0000000000 0.0000000000 0.0000100000 0.0000000000 0.1000000000 0.0000100000 0.0000000000 0.0000000000 0.0000000000 0.0000000000 0.1000000000 0.0000100000 0.0000000000 0.1000000000 0.0000000000 0.0000000000 0.1000000000 0.0000000000 0.0000000000 0.1000000000 0.0000100000 0.0000000000 0.2000000000 0.0000100000 0.0000000000 0.1000000000 0.0000000000 0.0000000000 0.2000000000 0.0000100000 0.0000000000 0.2000000000 0.0000000000 0.0000000000 0.2000000000 0.0000000000 0.0000000000 0.2000000000 0.0000100000 0.0000000000 0.3000000000 0.0000100000 0.0000000000 0.2000000000 0.0000000000 0.0000000000 0.3000000000 0.0000100000 0.0000000000 0.3000000000 0.0000000000 0.0000000000 0.3000000000 0.0000000000 0.0000000000 0.3000000000 0.0000100000 0.0000000000 0.4000000000 0.0000100000 0.0000000000 0.3000000000 0.0000000000 0.0000000000 0.4000000000 0.0000100000 0.0000000000 0.4000000000 0.0000000000 0.0000000000 0.4000000000 0.0000000000 0.0000000000 0.4000000000 0.0000100000 0.0000000000 0.5000000000 0.0000100000 0.0000000000 0.4000000000 0.0000000000 0.0000000000 0.5000000000 0.0000100000 0.0000000000 0.5000000000 0.0000000000 0.0000000000 0.5000000000 0.0000000000 0.0000000000 0.5000000000 0.0000100000 0.0000000000 0.6000000000 0.0000100000 0.0000000000 0.5000000000 0.0000000000 0.0000000000 0.6000000000 0.0000100000 0.0000000000 0.6000000000 0.0000000000 0.0000000000 0.6000000000 0.0000000000 0.0000000000 0.6000000000 0.0000100000 0.0000000000 0.7000000000 0.0000100000 0.0000000000 0.6000000000 0.0000000000 0.0000000000 0.7000000000 0.0000100000 0.0000000000 0.7000000000 0.0000000000 0.0000000000 0.7000000000 0.0000000000 0.0000000000 0.7000000000 0.0000100000 0.0000000000 0.8000000000 0.0000100000 0.0000000000 0.7000000000 0.0000000000 0.0000000000 0.8000000000 0.0000100000 0.0000000000 0.8000000000 0.0000000000 0.0000000000 0.8000000000 0.0000000000 0.0000000000 0.8000000000 0.0000100000 0.0000000000 0.9000000000 0.0000100000 0.0000000000 0.8000000000 0.0000000000 0.0000000000 0.9000000000 0.0000100000 0.0000000000 0.9000000000 0.0000000000 0.0000000000 0.9000000000 0.0000000000 0.0000000000 0.9000000000 0.0000100000 0.0000000000 1.0000000000 0.0000100000 0.0000000000 0.9000000000 0.0000000000 0.0000000000 1.0000000000 0.0000100000 0.0000000000 1.0000000000 0.0000000000 0.0000000000 0.0000000000 0.0000100000 0.0000000000 0.0000000000 0.0001221059 0.0000000000 0.1000000000 0.0001221059 0.0000000000 0.0000000000 0.0000100000 0.0000000000 0.1000000000 0.0001221059 0.0000000000 0.1000000000 0.0000100000 0.0000000000 0.1000000000 0.0000100000 0.0000000000 0.1000000000 0.0001221059 0.0000000000 0.2000000000 0.0001221059 0.0000000000 0.1000000000 0.0000100000 0.0000000000 0.2000000000 0.0001221059 0.0000000000 0.2000000000 0.0000100000 0.0000000000 0.2000000000 0.0000100000 0.0000000000 0.2000000000 0.0001221059 0.0000000000 0.3000000000 0.0001221059 0.0000000000 0.2000000000 0.0000100000 0.0000000000 0.3000000000 0.0001221059 0.0000000000 0.3000000000 0.0000100000 0.0000000000 0.3000000000 0.0000100000 0.0000000000 0.3000000000 0.0001221059 0.0000000000 0.4000000000 0.0001221059 0.0000000000 0.3000000000 0.0000100000 0.0000000000 0.4000000000 0.0001221059 0.0000000000 0.4000000000 0.0000100000 0.0000000000 0.4000000000 0.0000100000 0.0000000000 0.4000000000 0.0001221059 0.0000000000 0.5000000000 0.0001221059 0.0000000000 0.4000000000 0.0000100000 0.0000000000 0.5000000000 0.0001221059 0.0000000000 0.5000000000 0.0000100000 0.0000000000 0.5000000000 0.0000100000 0.0000000000 0.5000000000 0.0001221059 0.0000000000 0.6000000000 0.0001221059 0.0000000000 0.5000000000 0.0000100000 0.0000000000 0.6000000000 0.0001221059 0.0000000000 0.6000000000 0.0000100000 0.0000000000 0.6000000000 0.0000100000 0.0000000000 0.6000000000 0.0001221059 0.0000000000 0.7000000000 0.0001221059 0.0000000000 0.6000000000 0.0000100000 0.0000000000 0.7000000000 0.0001221059 0.0000000000 0.7000000000 0.0000100000 0.0000000000 0.7000000000 0.0000100000 0.0000000000 0.7000000000 0.0001221059 0.0000000000 0.8000000000 0.0001221059 0.0000000000 0.7000000000 0.0000100000 0.0000000000 0.8000000000 0.0001221059 0.0000000000 0.8000000000 0.0000100000 0.0000000000 0.8000000000 0.0000100000 0.0000000000 0.8000000000 0.0001221059 0.0000000000 0.9000000000 0.0001221059 0.0000000000 0.8000000000 0.0000100000 0.0000000000 0.9000000000 0.0001221059 0.0000000000 0.9000000000 0.0000100000 0.0000000000 0.9000000000 0.0000100000 0.0000000000 0.9000000000 0.0001221059 0.0000000000 1.0000000000 0.0001221059 0.0000000000 0.9000000000 0.0000100000 0.0000000000 1.0000000000 0.0001221059 0.0000000000 1.0000000000 0.0000100000 0.0000000000 0.0000000000 0.0001221059 0.0000000000 0.0000000000 0.0002771482 0.0000000000 0.1000000000 0.0002771482 0.0000000000 0.0000000000 0.0001221059 0.0000000000 0.1000000000 0.0002771482 0.0000000000 0.1000000000 0.0001221059 0.0000000000 0.1000000000 0.0001221059 0.0000000000 0.1000000000 0.0002771482 0.0000000000 0.2000000000 0.0002771482 0.0000000000 0.1000000000 0.0001221059 0.0000000000 0.2000000000 0.0002771482 0.0000000000 0.2000000000 0.0001221059 0.0000000000 0.2000000000 0.0001221059 0.0000000000 0.2000000000 0.0002771482 0.0000000000 0.3000000000 0.0002771482 0.0000000000 0.2000000000 0.0001221059 0.0000000000 0.3000000000 0.0002771482 0.0000000000 0.3000000000 0.0001221059 0.0000000000 0.3000000000 0.0001221059 0.0000000000 0.3000000000 0.0002771482 0.0000000000 0.4000000000 0.0002771482 0.0000000000 0.3000000000 0.0001221059 0.0000000000 0.4000000000 0.0002771482 0.0000000000 0.4000000000 0.0001221059 0.0000000000 0.4000000000 0.0001221059 0.0000000000 0.4000000000 0.0002771482 0.0000000000 0.5000000000 0.0002771482 0.0000000000 0.4000000000 0.0001221059 0.0000000000 0.5000000000 0.0002771482 0.0000000000 0.5000000000 0.0001221059 0.0000000000 0.5000000000 0.0001221059 0.0000000000 0.5000000000 0.0002771482 0.0000000000 0.6000000000 0.0002771482 0.0000000000 0.5000000000 0.0001221059 0.0000000000 0.6000000000 0.0002771482 0.0000000000 0.6000000000 0.0001221059 0.0000000000 0.6000000000 0.0001221059 0.0000000000 0.6000000000 0.0002771482 0.0000000000 0.7000000000 0.0002771482 0.0000000000 0.6000000000 0.0001221059 0.0000000000 0.7000000000 0.0002771482 0.0000000000 0.7000000000 0.0001221059 0.0000000000 0.7000000000 0.0001221059 0.0000000000 0.7000000000 0.0002771482 0.0000000000 0.8000000000 0.0002771482 0.0000000000 0.7000000000 0.0001221059 0.0000000000 0.8000000000 0.0002771482 0.0000000000 0.8000000000 0.0001221059 0.0000000000 0.8000000000 0.0001221059 0.0000000000 0.8000000000 0.0002771482 0.0000000000 0.9000000000 0.0002771482 0.0000000000 0.8000000000 0.0001221059 0.0000000000 0.9000000000 0.0002771482 0.0000000000 0.9000000000 0.0001221059 0.0000000000 0.9000000000 0.0001221059 0.0000000000 0.9000000000 0.0002771482 0.0000000000 1.0000000000 0.0002771482 0.0000000000 0.9000000000 0.0001221059 0.0000000000 1.0000000000 0.0002771482 0.0000000000 1.0000000000 0.0001221059 0.0000000000 0.0000000000 0.0002771482 0.0000000000 0.0000000000 0.0004915718 0.0000000000 0.1000000000 0.0004915718 0.0000000000 0.0000000000 0.0002771482 0.0000000000 0.1000000000 0.0004915718 0.0000000000 0.1000000000 0.0002771482 0.0000000000 0.1000000000 0.0002771482 0.0000000000 0.1000000000 0.0004915718 0.0000000000 0.2000000000 0.0004915718 0.0000000000 0.1000000000 0.0002771482 0.0000000000 0.2000000000 0.0004915718 0.0000000000 0.2000000000 0.0002771482 0.0000000000 0.2000000000 0.0002771482 0.0000000000 0.2000000000 0.0004915718 0.0000000000 0.3000000000 0.0004915718 0.0000000000 0.2000000000 0.0002771482 0.0000000000 0.3000000000 0.0004915718 0.0000000000 0.3000000000 0.0002771482 0.0000000000 0.3000000000 0.0002771482 0.0000000000 0.3000000000 0.0004915718 0.0000000000 0.4000000000 0.0004915718 0.0000000000 0.3000000000 0.0002771482 0.0000000000 0.4000000000 0.0004915718 0.0000000000 0.4000000000 0.0002771482 0.0000000000 0.4000000000 0.0002771482 0.0000000000 0.4000000000 0.0004915718 0.0000000000 0.5000000000 0.0004915718 0.0000000000 0.4000000000 0.0002771482 0.0000000000 0.5000000000 0.0004915718 0.0000000000 0.5000000000 0.0002771482 0.0000000000 0.5000000000 0.0002771482 0.0000000000 0.5000000000 0.0004915718 0.0000000000 0.6000000000 0.0004915718 0.0000000000 0.5000000000 0.0002771482 0.0000000000 0.6000000000 0.0004915718 0.0000000000 0.6000000000 0.0002771482 0.0000000000 0.6000000000 0.0002771482 0.0000000000 0.6000000000 0.0004915718 0.0000000000 0.7000000000 0.0004915718 0.0000000000 0.6000000000 0.0002771482 0.0000000000 0.7000000000 0.0004915718 0.0000000000 0.7000000000 0.0002771482 0.0000000000 0.7000000000 0.0002771482 0.0000000000 0.7000000000 0.0004915718 0.0000000000 0.8000000000 0.0004915718 0.0000000000 0.7000000000 0.0002771482 0.0000000000 0.8000000000 0.0004915718 0.0000000000 0.8000000000 0.0002771482 0.0000000000 0.8000000000 0.0002771482 0.0000000000 0.8000000000 0.0004915718 0.0000000000 0.900000000
[...]
<PointData Scalars="Ba-133_conc,region_id," Vectors="" Tensors="">
<DataArray type="Float64" Name="Ba-133_conc" format="ascii">
520.5365805250 467.1980598677 467.1585787546 411.4630676246 411.4543512937 354.9723769425 354.9565423745 298.2924383695 298.2863550431 242.4118473752 242.4036854382 187.9624778844 187.9617516557 135.7554911217 135.7561351267 86.3541390988 86.3604787393 40.3423862673 40.3407268967 -0.2015698285 520.7881888725 822.4079962865 764.2586322301 520.7823790827 764.2673182697 467.4133896758 467.4061434165 764.2719228029 750.8451789694 467.4046169585 750.8453652979 411.7131974107 411.7098423887 750.8492724409 727.7710538420 411.7104594905 727.7727773563 355.2336269965 355.2291447839 727.7776227134 699.0314235941 355.2273784670 699.0354366410 298.5657141201 298.5631191747 699.0404426432 665.1822353349 298.5618893344 665.1878830269 242.6900575309 242.6873239526 665.1935389704 626.4246939029 242.6843979776 626.4325885421 188.2443655385 188.2432127721 626.4384020577 583.3930234263 188.2401940439 583.4027920660 136.0355180742 136.0349028968 583.4089765325 537.0404081629 136.0307047584 537.0522780156 86.6300849239 86.6308140516 537.0585845587 486.6966492291 86.6259658843 486.7099110981 40.6114980445 40.6142407731 486.7151783737 330.4399924871 40.6035634684 330.4549070030 -0.0285044842 832.4936480774 10.0030676464 34.7449364724 822.8701227470 42.3909848716 764.5555283535 772.4212760730 34.5450729182 44.9097036274 764.6799462435 52.6891934271 751.2653303800 759.4070034379 44.5223304737 53.8510201232 751.2836968103 61.8007616278 728.1693211777 736.5494487432 53.3598495939 63.0597356024 728.2294376932 71.0575613218 699.4059557583 707.9054720134 62.4658174598 71.9620304495 699.5038553847 79.8845898454 665.5255541997 674.0192461126 71.2683832008 80.4302667758 665.6622765825 88.1511593215 626.7291787002 635.0913518078 79.6384634833 88.2710296347 626.9057500491 95.6657723757 583.6518440446 591.7564189977 87.3851859027 95.3779554192 583.8680600972 102.3294452172 537.2483259096 544.9730951151 94.4081067150 98.1722491405 537.5029937306 104.6146989332 486.8516789793 494.1305459086 97.2693479047 196.9771612833 487.1400960141 204.1954134395 330.3117868361 9.4298945507 0.5057095763 -3.8351160214 10.1016201975 -4.2569548600 31.0225582918 29.1667976628 -3.5036199747 -5.2664179090 31.4335164034 -6.3342149560 41.2465421050 39.4264278037 -5.3077081429 -5.6494537797 41.4085174418 -6.5811871483 50.1299919506 48.5384271846 -5.7778486078 -5.9832407882 50.2420207268 -6.7133783397 59.3467352939 58.0333821085 -6.1357831158 -6.2512176610 59.4029747910 -6.7492906883 68.3164213033 67.3282535732 -6.4307721589 -6.4103507261 68.3132891452 -6.6479456211 76.9136873854 76.2919033544 -6.6160576004 -6.4536179229 76.8456222342 -6.4075272965 84.9434811381 84.7241705462 -6.6858630441 -6.3891678223 84.8051458809 -6.0255217919 92.2919944396 92.4910275785 -6.6094166730 -5.8055675599 92.0936583201 -5.2926043081 95.3420278117 96.1123107195 -6.4984786472 -13.9713082124 94.9719255913 -12.5745028842 195.2389060985 0.3287151024 -0.0477453382 0.1554042508 0.4005577634 0.1636624565 -3.6754138974 -3.4657952337 0.0931052537 0.8624255855 -3.3568549429 0.9797347882 -4.9003653986 -4.5757188386 0.7667661120 0.8932609006 -4.7032229993 1.0197906734 -5.4913672899 -5.2409939076 0.8406218201 0.8975577231 -5.2655739196 0.9533424117 -5.9206060694 -5.7766386482 0.8643945183 0.9114293898 -5.6983463022 0.8712470292 -6.3013339016 -6.2763515809 0.8750366584 0.9060390515 -6.0845023757 0.7611581876 -6.5815218308 -6.6880272934 0.8688447939 0.8793803945 -6.3752048464 0.6223110394 -6.7508993736 -6.9987237076 0.8432675993 0.8346609531 -6.5583752592 0.4514702458 -6.8313788868 -7.2285850084 0.7783909522 0.6756722066 -6.6697895195 0.2272357463 -6.1922027819 -6.7843578338 0.7766153051 1.6384553130 -6.1778109094 0.7267407217 -15.4115542050 -0.0367371376 0.0049285579 -0.0013447166 -0.0430345010 0.0037058887 0.1311049163 0.1009926911 0.0115202566 -0.0652486753 0.1071953413 -0.0928092614 0.6924310792 0.5602587781 -0.0360339503 -0.0993069911 0.6688664503 -0.1876690188 0.7543169086 0.6225166694 -0.0950047921 -0.0994831245 0.7330367549 -0.1836988314 0.8184439577 0.7148562138 -0.1017945110 -0.1042261917 0.8031041886 -0.1765312615 0.8731636393 0.7962740510 -0.1099389087 -0.1087586806 0.8564515634 -0.1635633733 0.9182879137 0.8742154752 -0.1155425592 -0.1108337745 0.9000639121 -0.1442317658 0.9472199740 0.9418597072 -0.1190840392 -0.1125698205 0.9280536465 -0.1211595502 0.9688809240 1.0068809991 -0.1225345436 -0.0910019412 0.9413896310 -0.0661593090 0.8283258050 0.9200821020 -0.1000888447 -0.2178476926 0.8542674100 -0.1684151133 2.1692380634 0.0007289704 -0.0001479606 -0.0001090650 0.0023158315 -0.0009143533 -0.0012732716 -0.0005409572 -0.0010393842 0.0016869879 0.0007732390 0.0051034664 -0.0300161091 -0.0104220577 -0.0000004507 0.0051638271 -0.0237360569 0.0227595824 -0.0434953638 -0.0104884884 0.0040101084 0.0058756019 -0.0419800240 0.0275331738 -0.0514122216 -0.0151900531 0.0048985114 0.0068483207 -0.0487542400 0.0303884813 -0.0605934112 -0.0229172603 0.0062894132 0.0083805630 -0.0586572921 0.0333301493 -0.0694607045 -0.0302364896 0.0078435046 0.0098628991 -0.0673528885 0.0357501700 -0.0782000030 -0.0384347164 0.0093888923 0.0114451451 -0.0760461731 0.0377630394 -0.0876587261 -0.0482873883 0.0114409887 0.0127190422 -0.0853653080 0.0373812117 -0.0840430941 -0.0459464943 0.0087006025 0.0198732514 -0.0777848208 0.0563611821 -0.1972573441 0.0000012400 0.0000014801 -0.0000029577 -0.0000236313 0.0000075770 0.0000304295 0.0000395410 -0.0000059416 0.0000006381 -0.0000516120 -0.0000314985 0.0000563465 -0.0000735384 -0.0000279490 0.0000833599 0.0000542255 -0.0001378110 -0.0003409805 -0.0007197218 0.0000211256 0.0001905187 -0.0002195080 -0.0000378274 -0.0004371514 -0.0010011751 0.0001651286 0.0001839857 -0.0005216707 -0.0001586159 -0.0000709711 -0.0009646141 0.0001920977 0.0001521212 -0.0001708974 -0.0004013476 0.0003760417 -0.0009424018 0.0001822350 0.0001375663 0.0002336054 -0.0006623929 0.0008510782 -0.0009109399 0.0001723070 0.0001166493 0.0006949415 -0.0009634615 0.0014174831 -0.0008510593 0.0001606598 0.0000752977 0.0013047084 -0.0013484765 0.0022217738 -0.0006303527 0.0000847030 0.0001655990 0.0013986608 -0.0015019530 0.0024215719 0.0000000065 -0.0000000091 0.0000000167 0.0000000769 0.0000001452 -0.0000007404 -0.0000003047 0.0000000491 0.0000000458 -0.0000019885 0.0000006950 0.0000007061 -0.0000003358 0.0000003634 -0.0000004531 -0.0000035084 -0.0000034306 0.0000213731 0.0000032579 0.0000002268 -0.0000018513 0.0000127974 -0.0000181427 0.0000474717 0.0000082677 -0.0000011471 -0.0000024276 0.0000413137 -0.0000262861 0.0000534243 0.0000098590 -0.0000020653 -0.0000024699 0.0000494227 -0.0000285417 0.0000551148 0.0000110069 -0.0000024078 -0.0000027577 0.0000536161 -0.0000308303 0.0000600587 0.0000126942 -0.0000027596 -0.0000031655 0.0000587168 -0.0000333113 0.0000650546 0.0000146802 -0.0000032038 -0.0000036002 0.0000645872 -0.0000355286 0.0000681032 0.0000150970 -0.0000031224 -0.0000045266 0.0000579353 -0.0000415361 0.0001059737 -0.0000000000 0.0000000000 -0.0000000000 -0.0000000002 -0.0000000001 0.0000000008 0.0000000001 -0.0000000000 -0.0000000000 0.0000000024 -0.0000000018 0.0000000026 0.0000000004 -0.0000000002 0.0000000001 0.0000000124 0.0000000003 -0.0000000199 -0.0000000005 -0.0000000003 0.0000000007 -0.0000000018 0.0000000256 -0.0000000887 -0.0000000040 0.0000000002 0.0000000015 -0.0000000655 0.0000000592 -0.0000001257 -0.0000000060 0.0000000011 0.0000000017 -0.0000001055 0.0000000745 -0.0000001395 -0.0000000070 0.0000000015 0.0000000019 -0.0000001261 0.0000000871 -0.0000001628 -0.0000000085 0.0000000018 0.0000000023 -0.0000001499 0.0000001036 -0.0000001938 -0.0000000104 0.0000000022 0.0000000028 -0.0000001796 0.0000001234 -0.0000002299 -0.0000000121 0.0000000026 0.0000000034 -0.0000001932 0.0000001431 -0.0000002931 0.0000000000 -0.0000000000 0.0000000000 0.0000000000 -0.0000000000 -0.0000000000 -0.0000000000 -0.0000000000 0.0000000000 -0.0000000000 0.0000000000 -0.0000000000 -0.0000000000 0.0000000000 0.0000000000 -0.0000000000 0.0000000000 0.0000000000 -0.0000000000 0.0000000000 -0.0000000000 -0.0000000000 -0.0000000000 0.0000000000 0.0000000000 0.0000000000 -0.0000000000 0.0000000000 -0.0000000000 0.0000000000 0.0000000000 -0.0000000000 -0.0000000000 0.0000000000 -0.0000000000 0.0000000000 0.0000000000 -0.0000000000 -0.0000000000 0.0000000000 -0.0000000000 0.0000000000 0.0000000000 -0.0000000000 -0.0000000000 0.0000000000 -0.0000000000 0.0000000000 0.0000000000 -0.0000000000 -0.0000000000 0.0000000000 -0.0000000000 0.0000000000 0.0000000000 -0.0000000000 -0.0000000000 0.0000000000 -0.0000000000 0.0000000001 -0.0000000000 0.0000000000 0.0000000000 -0.0000000000 0.0000000000 0.0000000000 -0.0000000000 0.0000000000 -0.0000000000 -0.0000000000 -0.0000000000 0.0000000000 0.0000000000 -0.0000000000 -0.0000000000 0.0000000000 -0.0000000000 0.0000000000 0.0000000000 -0.0000000000 0.0000000000 0.0000000000 -0.0000000000 -0.0000000000 -0.0000000000 -0.0000000000 0.0000000000 0.0000000000 0.0000000000 -0.0000000000 -0.0000000000 0.0000000000 0.0000000000 -0.0000000000 0.0000000000 -0.0000000000 -0.0000000000 0.0000000000 0.0000000000 -0.0000000000 0.0000000000 -0.0000000000 -0.0000000000 0.0000000000 0.0000000000 -0.0000000000 0.0000000000 -0.0000000000 -0.0000000000 0.0000000000 0.0000000000 -0.0000000000 0.0000000000 -0.0000000000 -0.0000000000 0.0000000000 0.0000000000 -0.0000000000 0.0000000000 -0.0000000000 0.0000000000 0.0000000000 -0.0000000000 0.0000000000 -0.0000000000 0.0000000000 0.0000000000 -0.0000000000 0.0000000000 0.0000000000 -0.0000000000 -0.0000000000 -0.0000000000 -0.0000000000 0.0000000000 -0.0000000000 0.0000000000 -0.0000000000 -0.0000000000 0.0000000000 0.0000000000 -0.0000000000 0.0000000000 0.0000000000 -0.0000000000 0.0000000000 -0.0000000000 -0.0000000000 -0.0000000000 0.0000000000 0.0000000000 0.0000000000 -0.0000000000 0.0000000000 -0.0000000000 0.0000000000 0.0000000000 -0.0000000000 -0.0000000000 0.0000000000 -0.0000000000 0.0000000000 0.0000000000 -0.0000000000 -0.0000000000 0.0000000000 -0.0000000000 0.0000000000 0.0000000000 -0.0000000000 -0.0000000000 0.0000000000 -0.0000000000 0.0000000000 0.0000000000 -0.0000000000 -0.0000000000 0.0000000000 -0.0000000000 0.0000000000 0.0000000000 -0.0000000000 0.0000000000 0.0000000000 0.0000000000 -0.0000000000 -0.0000000000 0.0000000000 0.0000000000 -0.0000000000 0.0000000000 0.0000000000 -0.0000000000 0.0000000000 -0.0000000000 -0.0000000000 -0.0000000000 0.0000000000 0.0000000000 0.0000000000 -0.0000000000 0.0000000000 -0.0000000000 0.0000000000 0.0000000000 -0.0000000000 -0.0000000000 0.0000000000 -0.0000000000 -0.0000000000 -0.0000000000 -0.0000000000 0.0000000000 0.0000000000 0.0000000000 -0.0000000000 -0.0000000000 -0.0000000000 0.0000000000 -0.0000000000 0.0000000000 -0.0000000000 -0.0000000000 0.0000000000 0.0000000000 -0.0000000000 0.0000000000 -0.0000000000 -0.0000000000 0.0000000000 0.0000000000 -0.0000000000 0.0000000000 -0.0000000000 -0.0000000000 0.0000000000 0.0000000000 -0.0000000000 0.0000000000 -0.0000000000 -0.0000000000 0.0000000000 0.0000000000 -0.0000000000 -0.0000000000 0.0000000000 0.0000000000 0.0000000000 -0.0000000000 0.0000000000 -0.0000000000 0.0000000000 0.0000000000 -0.0000000000 -0.0000000000 0.0000000000 -0.0000000000 -0.0000000000 -0.0000000000 -0.0000000000 0.0000000000 0.0000000000 0.0000000000 -0.0000000000 -0.0000000000 0.0000000000 0.0000000000 -0.0000000000 0.0000000000 -0.0000000000 -0.0000000000 0.0000000000 -0.0000000000 -0.0000000000 -0.0000000000 0.0000000000 0.0000000000 0.0000000000 -0.0000000000 -0.0000000000 -0.0000000000 0.0000000000 0.0000000000 -0.0000000000 -0.0000000000 0.0000000000 -0.0000000000 0.0000000000 0.0000000000 -0.0000000000 -0.0000000000 0.0000000000 -0.0000000000 0.0000000000 0.0000000000 -0.0000000000 -0.0000000000 0.0000000000 -0.0000000000 0.0000000000 -0.0000000000 0.0000000000 -0.0000000000 0.0000000000 -0.0000000000 -0.0000000000 0.0000000000 -0.0000000000 -0.0000000000 0.0000000000 0.0000000000 -0.0000000000 -0.0000000000 -0.0000000000 0.0000000000 -0.0000000000 0.0000000000 -0.0000000000 -0.0000000000 0.0000000000 0.0000000000 -0.0000000000 0.0000000000 0.0000000000 0.0000000000 0.0000000000 -0.0000000000 -0.0000000000 -0.0000000000 0.0000000000 0.0000000000 -0.0000000000 -0.0000000000 0.0000000000 -0.0000000000 -0.0000000000 0.0000000000 -0.0000000000 0.0000000000 0.0000000000 0.0000000000 -0.0000000000 -0.0000000000 -0.0000000000 0.0000000000 0.0000000000 0.0000000000 -0.0000000000 -0.0000000000 0.0000000000 0.0000000000 -0.0000000000 0.0000000000 -0.0000000000 -0.0000000000 0.0000000000 0.0000000000 -0.0000000000 0.0000000000 -0.0000000000 -0.0000000000 0.0000000000 -0.0000000000 -0.0000000000 -0.0000000000 -0.0000000000 0.0000000000 -0.0000000000 -0.0000000000 0.0000000000 0.0000000000 -0.0000000000 0.0000000000 -0.0000000000 0.0000000000 0.0000000000 0.0000000000 0.0000000000 -0.0000000000 0.0000000000 0.0000000000 -0.0000000000 -0.0000000000 0.0000000000 -0.0000000000 0.0000000000 0.0000000000 -0.0000000000 -0.0000000000 -0.0000000000 0.0000000000 -0.0000000000 -0.0000000000 0.0000000000 0.0000000000 -0.0000000000 0.0000000000 -0.0000000000 0.0000000000 0.0000000000 0.0000000000 0.0000000000 -0.0000000000 0.0000000000 -0.0000000000 -0.0000000000 -0.0000000000 0.0000000000 0.0000000000 0.0000000000 -0.0000000000 0.0000000000 -0.0000000000 -0.0000000000 0.0000000000 -0.0000000000 -0.0000000000 0.0000000000 -0.0000000000 -0.0000000000 -0.0000000000 0.0000000000 -0.0000000000 -0.0000000000 0.0000000000 -0.0000000000 0.0000000000 -0.0000000000 -0.0000000000 0.0000000000 0.0000000000 -0.0000000000 0.0000000000 -0.0000000000 0.0000000000 0.0000000000 -0.0000000000 0.0000000000 -0.0000000000 0.0000000000 0.0000000000 -0.0000000000 -0.0000000000 0.0000000000 -0.0000000000 0.0000000000 0.0000000000 -0.0000000000 -0.0000000000 0.0000000000 0.0000000000 -0.0000000000 -0.0000000000 0.0000000000 0.0000000000 -0.0000000000 0.0000000000 -0.0000000000 -0.0000000000 0.0000000000 -0.0000000000 -0.0000000000 -0.0000000000 0.0000000000 0.0000000000 0.0000000000 -0.0000000000 -0.0000000000 -0.0000000000 -0.0000000000 0.0000000000 -0.0000000000 0.0000000000 0.0000000000 -0.0000000000 -0.0000000000 -0.0000000000 -0.0000000000 0.0000000000 0.0000000000 -0.0000000000 0.0000000000 -0.0000000000 -0.0000000000 0.0000000000 -0.0000000000 0.0000000000 -0.0000000000 -0.0000000000 0.0000000000 0.0000000000 -0.0000000000 0.0000000000 -0.0000000000 0.0000000000 0.0000000000 -0.0000000000 0.0000000000 -0.0000000000 0.0000000000 0.0000000000 -0.0000000000 -0.0000000000 0.0000000000 -0.0000000000 0.0000000000 -0.0000000000 -0.0000000000 0.0000000000 0.0000000000 0.0000000000 -0.0000000000 -0.0000000000 0.0000000000 0.0000000000 -0.0000000000 0.0000000000 -0.0000000000 -0.0000000000 0.0000000000 0.0000000000 -0.0000000000 -0.0000000000 0.0000000000 0.0000000000 -0.0000000000 0.0000000000 0.0000000000 -0.0000000000 0.0000000000 -0.0000000000 -0.0000000000 0.0000000000 0.0000000000 -0.0000000000 0.0000000000 -0.0000000000 -0.0000000000 0.0000000000 -0.0000000000 -0.0000000000 0.0000000000 -0.0000000000 -0.0000000000 0.0000000000 -0.0000000000 0.0000000000 -0.0000000000 -0.0000000000 0.0000000000 0.0000000000 -0.0000000000 0.0000000000 -0.0000000000 0.0000000000 0.0000000000 -0.0000000000 0.0000000000 -0.0000000000 0.0000000000 0.0000000000 -0.0000000000 -0.0000000000 0.0000000000 -0.0000000000 0.0000000000 -0.0000000000 -0.0000000000 0.0000000000 0.0000000000 0.0000000000 -0.0000000000 -0.0000000000 0.0000000000 0.0000000000 -0.0000000000 0.0000000000 -0.0000000000 0.0000000000 0.0000000000 -0.0000000000 -0.0000000000 -0.0000000000 0.0000000000 0.0000000000 -0.0000000000 0.0000000000 0.0000000000 -0.0000000000 0.0000000000 -0.0000000000 -0.0000000000 0.0000000000 -0.0000000000 -0.0000000000 0.0000000000 -0.0000000000 -0.0000000000 0.0000000000 -0.0000000000 
</DataArray>
<DataArray type="Int32" Name="region_id" format="ascii">
2 2 2 2 2 2 2 2 2 2 2 2 2 2 2 2 2 2 2 2 1 1 1 1 1 1 1 1 1 1 1 1 1 1 1 1 1 1 1 1 1 1 1 1 1 1 1 1 1 1 1 1 1 1 1 1 1 1 1 1 1 1 1 1 1 1 1 1 1 1 1 1 1 1 1 1 1 1 1 1 1 1 1 1 1 1 1 1 1 1 1 1 1 1 1 1 1 1 1 1 1 1 1 1 1 1 1 1 1 1 1 1 1 1 1 1 1 1 1 1 1 1 1 1 1 1 1 1 1 1 1 1 1 1 1 1 1 1 1 1 1 1 1 1 1 1 1 1 1 1 1 1 1 1 1 1 1 1 1 1 1 1 1 1 1 1 1 1 1 1 1 1 1 1 1 1 1 1 1 1 1 1 1 1 1 1 1 1 1 1 1 1 1 1 1 1 1 1 1 1 1 1 1 1 1 1 1 1 1 1 1 1 1 1 1 1 1 1 1 1 1 1 1 1 1 1 1 1 1 1 1 1 1 1 1 1 1 1 1 1 1 1 1 1 1 1 1 1 1 1 1 1 1 1 1 1 1 1 1 1 1 1 1 1 1 1 1 1 1 1 1 1 1 1 1 1 1 1 1 1 1 1 1 1 1 1 1 1 1 1 1 1 1 1 1 1 1 1 1 1 1 1 1 1 1 1 1 1 1 1 1 1 1 1 1 1 1 1 1 1 1 1 1 1 1 1 1 1 1 1 1 1 1 1 1 1 1 1 1 1 1 1 1 1 1 1 1 1 1 1 1 1 1 1 1 1 1 1 1 1 1 1 1 1 1 1 1 1 1 1 1 1 1 1 1 1 1 1 1 1 1 1 1 1 1 1 1 1 1 1 1 1 1 1 1 1 1 1 1 1 1 1 1 1 1 1 1 1 1 1 1 1 1 1 1 1 1 1 1 1 1 1 1 1 1 1 1 1 1 1 1 1 1 1 1 1 1 1 1 1 1 1 1 1 1 1 1 1 1 1 1 1 1 1 1 1 1 1 1 1 1 1 1 1 1 1 1 1 1 1 1 1 1 1 1 1 1 1 1 1 1 1 1 1 1 1 1 1 1 1 1 1 1 1 1 1 1 1 1 1 1 1 1 1 1 1 1 1 1 1 1 1 1 1 1 1 1 1 1 1 1 1 1 1 1 1 1 1 1 1 1 1 1 1 1 1 1 1 1 1 1 1 1 1 1 1 1 1 1 1 1 1 1 1 1 1 1 1 1 1 1 1 1 1 1 1 1 1 1 1 1 1 1 1 1 1 1 1 1 1 1 1 1 1 1 1 1 1 1 1 1 1 1 1 1 1 1 1 1 1 1 1 1 1 1 1 1 1 1 1 1 1 1 1 1 1 1 1 1 1 1 1 1 1 1 1 1 1 1 1 1 1 1 1 1 1 1 1 1 1 1 1 1 1 1 1 1 1 1 1 1 1 1 1 1 1 1 1 1 1 1 1 1 1 1 1 1 1 1 1 1 1 1 1 1 1 1 1 1 1 1 1 1 1 1 1 1 1 1 1 1 1 1 1 1 1 1 1 1 1 1 1 1 1 1 1 1 1 1 1 1 1 1 1 1 1 1 1 1 1 1 1 1 1 1 1 1 1 1 1 1 1 1 1 1 1 1 1 1 1 1 1 1 1 1 1 1 1 1 1 1 1 1 1 1 1 1 1 1 1 1 1 1 1 1 1 1 1 1 1 1 1 1 1 1 1 1 1 1 1 1 1 1 1 1 1 1 1 1 1 1 1 1 1 1 1 1 1 1 1 1 1 1 1 1 1 1 1 1 1 1 1 1 1 1 1 1 1 1 1 1 1 1 1 1 1 1 1 1 1 1 1 1 1 1 1 1 1 1 1 1 1 1 1 1 1 1 1 1 1 1 1 1 1 1 1 1 1 1 1 1 1 1 1 1 1 1 1 1 1 1 1 1 1 1 1 1 1 1 1 1 1 1 1 1 1 1 1 1 1 1 1 1 1 1 1 1 1 1 1 1 1 1 1 1 1 1 1 1 1 1 1 1 1 1 1 1 1 1 1 1 1 1 1 1 1 1 1 1 1 1 1 1 1 1 1 1 1 1 1 1 1 1 1 1 1 1 1 1 1 1 1 1 1 1 1 1 1 1 1 1 1 1 1 1 1 1 1 1 1 1 1 1 1 1 1 1 1 1 1 1 1 1 1 1 1 1 1 1 1 1 1 1 1 1 1 1 1 1 1 1 1 1 1 1 1 1 1 1 1 1 1 1 1 1 1 1 1 1 1 1 1 1 1 1 1 1 1 1 1 1 1 1 1 1 1 1 1 1 1 1 1 1 1 1 1 1 1 1 1 1 1 1 1 1 1 1 1 1 1 1 1 1 1 1 1 1 1 1 1 1 1 1 1 1 1 1 1 1 1 1 1 1 1 1 1 1 1 1 1 1 1 1 1 1 1 1 1 1 1 1 1 1 1 1 1 1 1 1 1 1 1 1 1 1 1 1 1 1 1 1 1 1 1 1 1 1 1 1 1 1 1 1 1 1 1 1 1 1 1 1 1 1 1 1 1 1 1 1 1 1 1 1 1 1 1 1 1 1 1 
</DataArray>
</PointData>
</Piece>
</UnstructuredGrid>
</VTKFile>
