<?xml version="1.0"?>
<VTKFile type="UnstructuredGrid" version="0.1" byte_order="LittleEndian">
<UnstructuredGrid>
<Piece NumberOfPoints="1160" NumberOfCells="390">
<Points>
<DataArray type="Float64" NumberOfComponents="3" format="ascii">
0.0000000000 0.0000000000 0.0000000000 0.1000000000 0.0000000000 0.0000000000 0.1000000000 0.0000000000 0.0000000000 0.2000000000 0.0000000000 0.0000000000 0.2000000000 0.0000000000 0.0000000000 0.3000000000 0.0000000000 0.0000000000 0.3000000000 0.0000000000 0.0000000000 0.4000000000 0.0000000000 0.0000000000 0.4000000000 0.0000000000 0.0000000000 0.5000000000 0.0000000000 0.0000000000 0.5000000000 0.0000000000 0.0000000000 0.6000000000 0.0000000000 0.0000000000 0.6000000000 0.0000000000 0.0000000000 0.7000000000 0.0000000000 0.0000000000 0.7000000000 0.0000000000 0.0000000000 0.8000000000 0.0000000000 0.0000000000 0.8000000000 0.0000000000 0.0000000000 0.9000000000 0.0000000000 0.0000000000 0.9000000000 0.0000000000 0.0000000000 1.0000000000 0.0000000000 0.0000000000 0.0000000000 0.0000000000 0.0000000000 0.0000000000 0.0000100000 0.0000000000 0.1000000000 0.0000100000 0.0000000000 0.0000000000 0.0000000000 0.0000000000 0.1000000000 0.0000100000 0.0000000000 0.1000000000 0.0000000000 0.0000000000 0.1000000000 0.0000000000 0.0000000000 0.1000000000 0.0000100000 0.0000000000 0.2000000000 0.0000100000 0.0000000000 0.1000000000 0.0000000000 0.0000000000 0.2000000000 0.0000100000 0.0000000000 0.2000000000 0.0000000000 0.0000000000 0.2000000000 0.0000000000 0.0000000000 0.2000000000 0.0000100000 0.0000000000 0.3000000000 0.0000100000 0.0000000000 0.2000000000 0.0000000000 0.0000000000 0.3000000000 0.0000100000 0.0000000000 0.3000000000 0.0000000000 0.0000000000 0.3000000000 0.0000000000 0.0000000000 0.3000000000 0.0000100000 0.0000000000 0.4000000000 0.0000100000 0.0000000000 0.3000000000 0.0000000000 0.0000000000 0.4000000000 0.0000100000 0.0000000000 0.4000000000 0.0000000000 0.0000000000 0.4000000000 0.0000000000 0.0000000000 0.4000000000 0.0000100000 0.0000000000 0.5000000000 0.0000100000 0.0000000000 0.4000000000 0.0000000000 0.0000000000 0.5000000000 0.0000100000 0.0000000000 0.5000000000 0.0000000000 0.0000000000 0.5000000000 0.0000000000 0.0000000000 0.5000000000 0.0000100000 0.0000000000 0.6000000000 0.0000100000 0.0000000000 0.5000000000 0.0000000000 0.0000000000 0.6000000000 0.0000100000 0.0000000000 0.6000000000 0.0000000000 0.0000000000 0.6000000000 0.0000000000 0.0000000000 0.6000000000 0.0000100000 0.0000000000 0.7000000000 0.0000100000 0.0000000000 0.6000000000 0.0000000000 0.0000000000 0.7000000000 0.0000100000 0.0000000000 0.7000000000 0.0000000000 0.0000000000 0.7000000000 0.0000000000 0.0000000000 0.7000000000 0.0000100000 0.0000000000 0.8000000000 0.0000100000 0.0000000000 0.7000000000 0.0000000000 0.0000000000 0.8000000000 0.0000100000 0.0000000000 0.8000000000 0.0000000000 0.0000000000 0.8000000000 0.0000000000 0.0000000000 0.8000000000 0.0000100000 0.0000000000 0.9000000000 0.0000100000 0.0000000000 0.8000000000 0.0000000000 0.0000000000 0.9000000000 0.0000100000 0.0000000000 0.9000000000 0.0000000000 0.0000000000 0.9000000000 0.0000000000 0.0000000000 0.9000000000 0.0000100000 0.0000000000 1.0000000000 0.0000100000 0.0000000000 0.9000000000 0.0000000000 0.0000000000 1.0000000000 0.0000100000 0.0000000000 1.0000000000 0.0000000000 0.0000000000 0.0000000000 0.0000100000 0.0000000000 0.0000000000 0.0001221059 0.0000000000 0.1000000000 0.0001221059 0.0000000000 0.0000000000 0.0000100000 0.0000000000 0.1000000000 0.0001221059 0.0000000000 0.1000000000 0.0000100000 0.0000000000 0.1000000000 0.0000100000 0.0000000000 0.1000000000 0.0001221059 0.0000000000 0.2000000000 0.0001221059 0.0000000000 0.1000000000 0.0000100000 0.0000000000 0.2000000000 0.0001221059 0.0000000000 0.2000000000 0.0000100000 0.0000000000 0.2000000000 0.0000100000 0.0000000000 0.2000000000 0.0001221059 0.0000000000 0.3000000000 0.0001221059 0.0000000000 0.2000000000 0.0000100000 0.0000000000 0.3000000000 0.0001221059 0.0000000000 0.3000000000 0.0000100000 0.0000000000 0.3000000000 0.0000100000 0.0000000000 0.3000000000 0.0001221059 0.0000000000 0.4000000000 0.0001221059 0.0000000000 0.3000000000 0.0000100000 0.0000000000 0.4000000000 0.0001221059 0.0000000000 0.4000000000 0.0000100000 0.0000000000 0.4000000000 0.0000100000 0.0000000000 0.4000000000 0.0001221059 0.0000000000 0.5000000000 0.0001221059 0.0000000000 0.4000000000 0.0000100000 0.0000000000 0.5000000000 0.0001221059 0.0000000000 0.5000000000 0.0000100000 0.0000000000 0.5000000000 0.0000100000 0.0000000000 0.5000000000 0.0001221059 0.0000000000 0.6000000000 0.0001221059 0.0000000000 0.5000000000 0.0000100000 0.0000000000 0.6000000000 0.0001221059 0.0000000000 0.6000000000 0.0000100000 0.0000000000 0.6000000000 0.0000100000 0.0000000000 0.6000000000 0.0001221059 0.0000000000 0.7000000000 0.0001221059 0.0000000000 0.6000000000 0.0000100000 0.0000000000 0.7000000000 0.0001221059 0.0000000000 0.7000000000 0.0000100000 0.0000000000 0.7000000000 0.0000100000 0.0000000000 0.7000000000 0.0001221059 0.0000000000 0.8000000000 0.0001221059 0.0000000000 0.7000000000 0.0000100000 0.0000000000 0.8000000000 0.0001221059 0.0000000000 0.8000000000 0.0000100000 0.0000000000 0.8000000000 0.0000100000 0.0000000000 0.8000000000 0.0001221059 0.0000000000 0.9000000000 0.0001221059 0.0000000000 0.8000000000 0.0000100000 0.0000000000 0.9000000000 0.0001221059 0.0000000000 0.9000000000 0.0000100000 0.0000000000 0.9000000000 0.0000100000 0.0000000000 0.9000000000 0.0001221059 0.0000000000 1.0000000000 0.0001221059 0.0000000000 0.9000000000 0.0000100000 0.0000000000 1.0000000000 0.0001221059 0.0000000000 1.0000000000 0.0000100000 0.0000000000 0.0000000000 0.0001221059 0.0000000000 0.0000000000 0.0002771482 0.0000000000 0.1000000000 0.0002771482 0.0000000000 0.0000000000 0.0001221059 0.0000000000 0.1000000000 0.0002771482 0.0000000000 0.1000000000 0.0001221059 0.0000000000 0.1000000000 0.0001221059 0.0000000000 0.1000000000 0.0002771482 0.0000000000 0.2000000000 0.0002771482 0.0000000000 0.1000000000 0.0001221059 0.0000000000 0.2000000000 0.0002771482 0.0000000000 0.2000000000 0.0001221059 0.0000000000 0.2000000000 0.0001221059 0.0000000000 0.2000000000 0.0002771482 0.0000000000 0.3000000000 0.0002771482 0.0000000000 0.2000000000 0.0001221059 0.0000000000 0.3000000000 0.0002771482 0.0000000000 0.3000000000 0.0001221059 0.0000000000 0.3000000000 0.0001221059 0.0000000000 0.3000000000 0.0002771482 0.0000000000 0.4000000000 0.0002771482 0.0000000000 0.3000000000 0.0001221059 0.0000000000 0.4000000000 0.0002771482 0.0000000000 0.4000000000 0.0001221059 0.0000000000 0.4000000000 0.0001221059 0.0000000000 0.4000000000 0.0002771482 0.0000000000 0.5000000000 0.0002771482 0.0000000000 0.4000000000 0.0001221059 0.0000000000 0.5000000000 0.0002771482 0.0000000000 0.5000000000 0.0001221059 0.0000000000 0.5000000000 0.0001221059 0.0000000000 0.5000000000 0.0002771482 0.0000000000 0.6000000000 0.0002771482 0.0000000000 0.5000000000 0.0001221059 0.0000000000 0.6000000000 0.0002771482 0.0000000000 0.6000000000 0.0001221059 0.0000000000 0.6000000000 0.0001221059 0.0000000000 0.6000000000 0.0002771482 0.0000000000 0.7000000000 0.0002771482 0.0000000000 0.6000000000 0.0001221059 0.0000000000 0.7000000000 0.0002771482 0.0000000000 0.7000000000 0.0001221059 0.0000000000 0.7000000000 0.0001221059 0.0000000000 0.7000000000 0.0002771482 0.0000000000 0.8000000000 0.0002771482 0.0000000000 0.7000000000 0.0001221059 0.0000000000 0.8000000000 0.0002771482 0.0000000000 0.8000000000 0.0001221059 0.0000000000 0.8000000000 0.0001221059 0.0000000000 0.8000000000 0.0002771482 0.0000000000 0.9000000000 0.0002771482 0.0000000000 0.8000000000 0.0001221059 0.0000000000 0.9000000000 0.0002771482 0.0000000000 0.9000000000 0.0001221059 0.0000000000 0.9000000000 0.0001221059 0.0000000000 0.9000000000 0.0002771482 0.0000000000 1.0000000000 0.0002771482 0.0000000000 0.9000000000 0.0001221059 0.0000000000 1.0000000000 0.0002771482 0.0000000000 1.0000000000 0.0001221059 0.0000000000 0.0000000000 0.0002771482 0.0000000000 0.0000000000 0.0004915718 0.0000000000 0.1000000000 0.0004915718 0.0000000000 0.0000000000 0.0002771482 0.0000000000 0.1000000000 0.0004915718 0.0000000000 0.1000000000 0.0002771482 0.0000000000 0.1000000000 0.0002771482 0.0000000000 0.1000000000 0.0004915718 0.0000000000 0.2000000000 0.0004915718 0.0000000000 0.1000000000 0.0002771482 0.0000000000 0.2000000000 0.0004915718 0.0000000000 0.2000000000 0.0002771482 0.0000000000 0.2000000000 0.0002771482 0.0000000000 0.2000000000 0.0004915718 0.0000000000 0.3000000000 0.0004915718 0.0000000000 0.2000000000 0.0002771482 0.0000000000 0.3000000000 0.0004915718 0.0000000000 0.3000000000 0.0002771482 0.0000000000 0.3000000000 0.0002771482 0.0000000000 0.3000000000 0.0004915718 0.0000000000 0.4000000000 0.0004915718 0.0000000000 0.3000000000 0.0002771482 0.0000000000 0.4000000000 0.0004915718 0.0000000000 0.4000000000 0.0002771482 0.0000000000 0.4000000000 0.0002771482 0.0000000000 0.4000000000 0.0004915718 0.0000000000 0.5000000000 0.0004915718 0.0000000000 0.4000000000 0.0002771482 0.0000000000 0.5000000000 0.0004915718 0.0000000000 0.5000000000 0.0002771482 0.0000000000 0.5000000000 0.0002771482 0.0000000000 0.5000000000 0.0004915718 0.0000000000 0.6000000000 0.0004915718 0.0000000000 0.5000000000 0.0002771482 0.0000000000 0.6000000000 0.0004915718 0.0000000000 0.6000000000 0.0002771482 0.0000000000 0.6000000000 0.0002771482 0.0000000000 0.6000000000 0.0004915718 0.0000000000 0.7000000000 0.0004915718 0.0000000000 0.6000000000 0.0002771482 0.0000000000 0.7000000000 0.0004915718 0.0000000000 0.7000000000 0.0002771482 0.0000000000 0.7000000000 0.0002771482 0.0000000000 0.7000000000 0.0004915718 0.0000000000 0.8000000000 0.0004915718 0.0000000000 0.7000000000 0.0002771482 0.0000000000 0.8000000000 0.0004915718 0.0000000000 0.8000000000 0.0002771482 0.0000000000 0.8000000000 0.0002771482 0.0000000000 0.8000000000 0.0004915718 0.0000000000 0.900000000
[...]
<PointData Scalars="Ba-133_conc,region_id," Vectors="" Tensors="">
<DataArray type="Float64" Name="Ba-133_conc" format="ascii">
1227.8746937358 1133.4039855737 1133.4012509970 1021.5847047623 1021.5863633543 904.3327802267 904.3309702234 777.0299342010 777.0306727253 647.1554140815 647.1541109325 512.7746957760 512.7748663625 379.1842286029 379.1832145455 246.3647658727 246.3646081576 118.5531130971 118.5518749050 0.7494682269 1225.4187593736 1096.4909726407 1213.2199432344 1228.0143713875 1211.4752415157 1133.6841594334 1132.3492130385 1212.5551287142 1260.4623638140 1133.6849302680 1259.0930940108 1021.9302664506 1020.5253701048 1260.0646941031 1294.1764467697 1021.9464243856 1292.8948922520 904.7456551545 903.1699894237 1294.0451206309 1313.5270810806 904.7582050727 1312.2320088497 777.5078175815 775.8812298721 1313.5508159553 1317.0112061430 777.5182047292 1315.8487226769 647.6862416409 645.9979467986 1317.2716385011 1304.3792538777 647.6926051429 1303.3174110824 513.3529123974 511.6947044024 1304.8327732797 1274.8604041269 513.3558741016 1273.9967353143 379.7974354972 378.1767324782 1275.5463136402 1229.5726958468 379.7961170200 1228.9139890221 247.0040510926 245.4637678524 1230.5102382069 1168.0090079232 246.9954370037 1167.4757824219 119.2217008529 118.4415293331 1168.7791856945 876.5577052429 119.1931199255 876.6378691263 1.2956048041 1102.8746043508 -3.2115431855 -72.3316350611 1098.4430345925 -67.0246748808 1218.2319764942 1222.7352982202 -71.6195713889 -62.8521708888 1216.2001314888 -55.2003646144 1266.6544731124 1273.4258269733 -62.2198341092 -51.1736846246 1264.7124879769 -41.2812981647 1301.5496719857 1310.6003071427 -50.6026670842 -36.3556679105 1299.8138891924 -24.4169392574 1322.0437900088 1333.1980835746 -35.9109700121 -18.8025020769 1320.4624909737 -5.0475519838 1326.3383784966 1339.4349451693 -18.5095157159 1.3641587390 1325.0798213759 16.6195441657 1314.4160882533 1329.1564379388 1.4895612200 23.7413524850 1313.4550045513 40.1417948167 1285.2763716248 1301.3798397934 23.6651130285 48.0534472077 1284.7266399831 65.2181364966 1240.1776846898 1257.2711149408 47.7891698364 67.8832511434 1240.0996400241 85.1116162336 1178.6252849878 1196.5340399948 66.7735467429 182.3514221625 1178.8115470828 204.5108766987 882.0825153260 -4.0261785973 -0.0163883706 -0.6658217917 -3.3877887535 -1.3693990536 -74.3229884050 -76.2178570301 -0.3098725367 1.3468933410 -73.7888480372 -0.1808008354 -65.6143339639 -67.9589405491 1.4714525109 -0.1539498708 -65.1556937438 -1.9164579546 -54.6727839686 -57.3299874440 -0.0777657799 -1.6385428753 -54.2107654876 -3.5780111289 -40.5819633871 -43.5042107338 -1.5814491123 -3.3332291129 -40.1439392272 -5.3939078254 -23.6586917128 -26.7628502445 -3.2982256994 -5.1796360114 -23.2603094560 -7.2946982709 -4.0069439650 -7.1919530038 -5.1712112308 -7.1333161373 -3.6533014023 -9.2300597024 17.9816194436 14.8186004103 -7.1539000111 -9.2950821393 18.2750334441 -11.2953765232 42.0341254290 38.9961345054 -9.3431305890 -9.0658219601 42.2483276017 -10.8842870696 61.9247419233 59.1218872816 -9.1049875146 -29.2134404228 61.9653917075 -31.3854194087 174.7863642954 -0.1594908460 -0.0346822361 0.0510094562 -0.1500509164 0.0832591874 -0.2060501057 -0.0002318757 0.0160682677 0.1455111576 -0.1743021317 0.3733733668 1.9068766380 2.2627879098 0.1148248793 0.2265124320 1.9501679679 0.5057993032 0.4061008018 0.8061846095 0.2052195371 0.4468157763 0.4698342482 0.7512297497 -1.0419466792 -0.6147169933 0.4311187497 0.6624980668 -0.9668711563 0.9783278196 -2.7215812728 -2.2800377609 0.6466858793 0.9005318273 -2.6329630475 1.2151851476 -4.5785930479 -4.1400808815 0.8853023025 1.1482793977 -4.4770819297 1.4475992748 -6.5685724068 -6.1516493433 1.1341165979 1.4333458355 -6.4551975595 1.7019475630 -8.7923502011 -8.4147002366 1.4182930864 1.3824921945 -8.6678512930 1.6021347466 -8.6357449043 -8.3209451400 1.3610148623 4.1670617138 -8.5031868792 4.3856075560 -28.7846729204 -0.0162924062 0.0018291803 -0.0021851179 -0.0209735713 -0.0014716416 0.0259999742 0.0142870835 0.0016706315 -0.0209673821 0.0201019074 -0.0377032173 0.0394041609 -0.0136359983 -0.0116932557 -0.0202682969 0.0361706397 -0.0584899218 0.1126022926 0.0487721216 -0.0165271150 -0.0356353007 0.1070345821 -0.0792011081 0.3302871337 0.2630877794 -0.0335347079 -0.0585229450 0.3261548961 -0.1052333234 0.5412682484 0.4714571720 -0.0572478592 -0.0819095487 0.5367512266 -0.1297296057 0.7798858551 0.7103382040 -0.0812174432 -0.1068383016 0.7749745847 -0.1536403575 1.0335485507 0.9676191416 -0.1069462682 -0.1373885406 1.0283905816 -0.1808834981 1.3304504664 1.2713078211 -0.1385148673 -0.1271168392 1.3239193867 -0.1630861296 1.2970173054 1.2478777589 -0.1250179785 -0.3994650139 1.2918050879 -0.4418155432 4.0791794407 0.0006935664 -0.0000558400 -0.0001273639 0.0010711635 -0.0003713310 -0.0017054839 -0.0013304884 -0.0004339068 0.0009030950 -0.0010991379 0.0017292534 -0.0099377704 -0.0047203428 -0.0000558982 0.0021100187 -0.0081431198 0.0067128238 -0.0040477593 0.0045167699 0.0011687177 0.0028640509 -0.0033896006 0.0092031646 -0.0196199788 -0.0098255566 0.0023078975 0.0051258743 -0.0187233418 0.0122851197 -0.0418554526 -0.0314117314 0.0047793036 0.0078384764 -0.0411352615 0.0155451770 -0.0650251472 -0.0541348967 0.0075677193 0.0106680034 -0.0642791980 0.0186118038 -0.0906320859 -0.0798006982 0.0104816697 0.0142714770 -0.0899338775 0.0221612258 -0.1226516117 -0.1124421435 0.0143780913 0.0139730003 -0.1219285748 0.0207910356 -0.1159154246 -0.1063043131 0.0128051715 0.0414659218 -0.1141653077 0.0505999494 -0.3832233578 -0.0000353403 -0.0000016825 0.0000097904 -0.0000508383 0.0000294831 -0.0000341441 -0.0000266369 0.0000242808 -0.0000361684 -0.0001150393 -0.0000386608 0.0002508574 -0.0000538447 0.0000441085 -0.0001500628 0.0000580111 -0.0004957377 -0.0001299865 -0.0012102267 0.0000202293 -0.0000978464 -0.0003063882 -0.0008696755 0.0002989836 -0.0010787711 0.0000092830 -0.0002560171 0.0001548792 -0.0012199278 0.0024615650 0.0009167057 -0.0001765363 -0.0005363074 0.0023560205 -0.0016517141 0.0049766667 0.0032678241 -0.0004709200 -0.0008392401 0.0048851364 -0.0020763218 0.0077320261 0.0059081719 -0.0007785215 -0.0012191226 0.0076527420 -0.0025566089 0.0113484000 0.0095063250 -0.0012216784 -0.0013268297 0.0113318465 -0.0025855859 0.0116495301 0.0096672073 -0.0010253869 -0.0036273910 0.0111813251 -0.0054979377 0.0371936121 0.0000026678 0.0000001733 -0.0000004581 0.0000021585 -0.0000012366 -0.0000007868 -0.0000025123 -0.0000007043 0.0000014452 0.0000050880 -0.0000023830 -0.0000179782 -0.0000086187 -0.0000035161 0.0000035051 -0.0000041279 0.0000181300 0.0000560787 0.0001418300 -0.0000100298 -0.0000098103 0.0000868231 0.0000595452 0.0002294190 0.0003789183 -0.0000248989 -0.0000107331 0.0002495298 0.0000935851 0.0001076533 0.0002964659 -0.0000246364 0.0000124938 0.0001291434 0.0001455513 -0.0001251005 0.0000995881 -0.0000005252 0.0000433059 -0.0001066972 0.0002049979 -0.0003829870 -0.0001208604 0.0000291657 0.0000796040 -0.0003636031 0.0002708174 -0.0007218503 -0.0004335600 0.0000730365 0.0001121500 -0.0007191941 0.0003126913 -0.0008988085 -0.0005480633 0.0000555406 0.0002551203 -0.0007814222 0.0005707103 -0.0027523633 -0.0000002422 -0.0000000019 0.0000000432 -0.0000001570 0.0000000457 0.0000000674 0.0000001529 0.0000000321 -0.0000001414 -0.0000001515 0.0000001251 0.0000023668 0.0000024653 0.0000000050 -0.0000001343 0.0000013549 -0.0000002452 -0.0000061978 -0.0000092761 0.0000003686 0.0000022172 -0.0000082621 -0.0000009723 -0.0000395527 -0.0000498904 0.0000031590 0.0000054451 -0.0000418341 -0.0000013790 -0.0000501384 -0.0000658074 0.0000066595 0.0000046925 -0.0000531433 -0.0000055185 -0.0000356409 -0.0000569255 0.0000063471 0.0000022111 -0.0000387236 -0.0000122010 -0.0000154610 -0.0000434549 0.0000042597 -0.0000004605 -0.0000190982 -0.0000197277 0.0000090547 -0.0000252899 0.0000012962 -0.0000052265 0.0000076470 -0.0000286110 0.0000422683 -0.0000043731 0.0000015967 -0.0000063248 0.0000228627 -0.0000443907 0.0001124653 0.0000000131 0.0000000003 -0.0000000043 0.0000000109 -0.0000000047 0.0000000299 0.0000000286 -0.0000000051 0.0000000102 0.0000000354 0.0000000036 -0.0000002259 -0.0000002391 0.0000000074 0.0000000362 -0.0000001941 0.0000000283 0.0000000177 0.0000000126 0.0000000475 -0.0000001906 0.0000000464 -0.0000001779 0.0000034006 0.0000034763 -0.0000001326 -0.0000007741 0.0000034201 -0.0000007561 0.0000075480 0.0000077869 -0.0000007243 -0.0000010069 0.0000076992 -0.0000009193 0.0000079889 0.0000087317 -0.0000010751 -0.0000009144 0.0000082902 -0.0000004989 0.0000070578 0.0000085307 -0.0000010665 -0.0000008060 0.0000074820 0.0000000778 0.0000061724 0.0000084766 -0.0000010162 -0.0000004119 0.0000065108 0.0000010828 0.0000027361 0.0000063927 -0.0000008100 -0.0000015024 0.0000046455 0.0000010292 0.0000091119 -0.0000000002 -0.0000000001 0.0000000003 -0.0000000002 0.0000000004 -0.0000000033 -0.0000000032 0.0000000004 -0.0000000001 -0.0000000040 0.0000000002 0.0000000100 0.0000000095 0.0000000003 -0.0000000037 0.0000000104 -0.0000000056 0.0000000334 0.0000000351 -0.0000000057 0.0000000053 0.0000000411 0.0000000066 -0.0000001539 -0.0000001157 -0.0000000065 0.0000000572 -0.0000001297 0.0000000923 -0.0000006570 -0.0000005449 0.0000000352 0.0000001103 -0.0000006315 0.0000001932 -0.0000009281 -0.0000008007 0.0000000969 0.0000001230 -0.0000009293 0.0000002140 -0.0000009757 -0.0000008833 0.0000001209 0.0000001265 -0.0000009946 0.0000002011 -0.0000010241 -0.0000009867 0.0000001355 0.0000001142 -0.0000010598 0.0000001493 -0.0000008485 -0.0000008720 0.0000001038 0.0000002632 -0.0000009081 0.0000002989 -0.0000022577 -0.0000000000 0.0000000000 -0.0000000000 -0.0000000000 -0.0000000000 0.0000000001 0.0000000001 -0.0000000000 -0.0000000000 0.0000000002 -0.0000000001 -0.0000000001 -0.0000000000 -0.0000000001 0.0000000002 -0.0000000000 0.0000000003 -0.0000000023 -0.0000000021 0.0000000002 0.0000000002 -0.0000000031 0.0000000006 0.0000000019 0.0000000000 0.0000000009 -0.0000000021 -0.0000000007 -0.0000000042 0.0000000316 0.0000000199 -0.0000000002 -0.0000000068 0.0000000268 -0.0000000159 0.0000000665 0.0000000451 -0.0000000046 -0.0000000095 0.0000000631 -0.0000000236 0.0000000814 0.0000000571 -0.0000000080 -0.0000000105 0.0000000795 -0.0000000266 0.0000000914 0.0000000674 -0.0000000099 -0.0000000112 0.0000000922 -0.0000000275 0.0000000922 0.0000000652 -0.0000000078 -0.0000000217 0.0000000842 -0.0000000451 0.0000002166 0.0000000000 -0.0000000000 0.0000000000 0.0000000000 -0.0000000000 -0.0000000000 -0.0000000000 -0.0000000000 0.0000000000 -0.0000000000 0.0000000000 -0.0000000000 -0.0000000000 0.0000000000 -0.0000000000 -0.0000000000 -0.0000000000 0.0000000001 0.0000000000 -0.0000000000 -0.0000000000 0.0000000001 -0.0000000001 0.0000000001 0.0000000001 -0.0000000000 0.0000000000 0.0000000003 0.0000000000 -0.0000000007 -0.0000000003 -0.0000000000 0.0000000002 -0.0000000004 0.0000000006 -0.0000000028 -0.0000000014 0.0000000001 0.0000000004 -0.0000000024 0.0000000013 -0.0000000042 -0.0000000023 0.0000000003 0.0000000005 -0.0000000039 0.0000000017 -0.0000000050 -0.0000000028 0.0000000004 0.0000000006 -0.0000000049 0.0000000020 -0.0000000056 -0.0000000029 0.0000000004 0.0000000010 -0.0000000047 0.0000000031 -0.0000000119 -0.0000000000 0.0000000000 0.0000000000 -0.0000000000 0.0000000000 0.0000000000 0.0000000000 0.0000000000 -0.0000000000 0.0000000000 -0.0000000000 0.0000000000 0.0000000000 -0.0000000000 -0.0000000000 0.0000000000 -0.0000000000 -0.0000000000 -0.0000000000 -0.0000000000 0.0000000000 -0.0000000000 0.0000000000 -0.0000000000 -0.0000000000 0.0000000000 0.0000000000 -0.0000000000 0.0000000000 0.0000000000 -0.0000000000 0.0000000000 -0.0000000000 -0.0000000000 -0.0000000000 0.0000000001 0.0000000000 0.0000000000 -0.0000000000 0.0000000000 -0.0000000000 0.0000000001 0.0000000001 -0.0000000000 -0.0000000000 0.0000000001 -0.0000000001 0.0000000002 0.0000000001 -0.0000000000 -0.0000000000 0.0000000002 -0.0000000001 0.0000000002 0.0000000001 -0.0000000000 -0.0000000000 0.0000000002 -0.0000000001 0.0000000004 0.0000000000 -0.0000000000 -0.0000000000 0.0000000000 -0.0000000000 0.0000000000 0.0000000000 -0.0000000000 0.0000000000 0.0000000000 0.0000000000 -0.0000000000 -0.0000000000 0.0000000000 0.0000000000 -0.0000000000 0.0000000000 -0.0000000000 -0.0000000000 0.0000000000 -0.0000000000 -0.0000000000 -0.0000000000 0.0000000000 0.0000000000 -0.0000000000 -0.0000000000 0.0000000000 -0.0000000000 0.0000000000 0.0000000000 -0.0000000000 0.0000000000 0.0000000000 0.0000000000 -0.0000000000 -0.0000000000 -0.0000000000 0.0000000000 -0.0000000000 0.0000000000 -0.0000000000 -0.0000000000 0.0000000000 0.0000000000 -0.0000000000 0.0000000000 -0.0000000000 -0.0000000000 0.0000000000 0.0000000000 -0.0000000000 0.0000000000 -0.0000000000 -0.0000000000 0.0000000000 0.0000000000 -0.0000000000 0.0000000000 -0.0000000000 -0.0000000000 -0.0000000000 0.0000000000 -0.0000000000 0.0000000000 -0.0000000000 -0.0000000000 0.0000000000 -0.0000000000 -0.0000000000 0.0000000000 0.0000000000 0.0000000000 0.0000000000 -0.0000000000 0.0000000000 -0.0000000000 0.0000000000 0.0000000000 -0.0000000000 0.0000000000 0.0000000000 -0.0000000000 -0.0000000000 -0.0000000000 -0.0000000000 0.0000000000 -0.0000000000 0.0000000000 -0.0000000000 -0.0000000000 0.0000000000 0.0000000000 -0.0000000000 0.0000000000 0.0000000000 -0.0000000000 0.0000000000 -0.0000000000 -0.0000000000 -0.0000000000 0.0000000000 0.0000000000 0.0000000000 -0.0000000000 0.0000000000 -0.0000000000 0.0000000000 0.0000000000 -0.0000000000 -0.0000000000 0.0000000000 -0.0000000000 0.0000000000 0.0000000000 -0.0000000000 -0.0000000000 0.0000000000 -0.0000000000 0.0000000000 -0.0000000000 0.0000000000 -0.0000000000 -0.0000000000 -0.0000000000 0.0000000000 0.0000000000 -0.0000000000 -0.0000000000 0.0000000000 -0.0000000000 -0.0000000000 0.0000000000 -0.0000000000 0.0000000000 0.0000000000 0.0000000000 -0.0000000000 -0.0000000000 0.0000000000 0.0000000000 -0.0000000000 0.0000000000 0.0000000000 -0.0000000000 0.0000000000 -0.0000000000 -0.0000000000 -0.0000000000 0.0000000000 0.0000000000 -0.0000000000 -0.0000000000 0.0000000000 -0.0000000000 0.0000000000 0.0000000000 -0.0000000000 0.0000000000 0.0000000000 0.0000000000 -0.0000000000 -0.0000000000 -0.0000000000 0.0000000000 -0.0000000000 0.0000000000 -0.0000000000 -0.0000000000 0.0000000000 0.0000000000 -0.0000000000 0.0000000000 -0.0000000000 -0.0000000000 0.0000000000 0.0000000000 -0.0000000000 0.0000000000 -0.0000000000 0.0000000000 -0.0000000000 0.0000000000 0.0000000000 0.0000000000 -0.0000000000 -0.0000000000 -0.0000000000 0.0000000000 -0.0000000000 0.0000000000 -0.0000000000 -0.0000000000 0.0000000000 -0.0000000000 -0.0000000000 -0.0000000000 0.0000000000 0.0000000000 0.0000000000 -0.0000000000 0.0000000000 -0.0000000000 0.0000000000 0.0000000000 -0.0000000000 0.0000000000 0.0000000000 0.0000000000 -0.0000000000 -0.0000000000 -0.0000000000 0.0000000000 -0.0000000000 0.0000000000 -0.0000000000 -0.0000000000 0.0000000000 0.0000000000 -0.0000000000 0.0000000000 0.0000000000 -0.0000000000 0.0000000000 -0.0000000000 -0.0000000000 -0.0000000000 0.0000000000 0.0000000000 0.0000000000 -0.0000000000 0.0000000000 -0.0000000000 0.0000000000 0.0000000000 -0.0000000000 -0.0000000000 0.0000000000 -0.0000000000 0.0000000000 -0.0000000000 0.0000000000 0.0000000000 -0.0000000000 0.0000000000 0.0000000000 0.0000000000 0.0000000000 -0.0000000000 0.0000000000 -0.0000000000 0.0000000000 0.0000000000 -0.0000000000 -0.0000000000 0.0000000000 -0.0000000000 -0.0000000000 -0.0000000000 -0.0000000000 0.0000000000 -0.0000000000 0.0000000000 -0.0000000000 -0.0000000000 0.0000000000 0.0000000000 -0.0000000000 0.0000000000 0.0000000000 -0.0000000000 0.0000000000 -0.0000000000 -0.0000000000 -0.0000000000 0.0000000000 0.0000000000 -0.0000000000 -0.0000000000 0.0000000000 -0.0000000000 0.0000000000 0.0000000000 -0.0000000000 0.0000000000 0.0000000000 -0.0000000000 -0.0000000000 -0.0000000000 -0.0000000000 0.0000000000 0.0000000000 0.0000000000 -0.0000000000 -0.0000000000 -0.0000000000 0.0000000000 -0.0000000000 0.0000000000 -0.0000000000 
</DataArray>
<DataArray type="Int32" Name="region_id" format="ascii">
2 2 2 2 2 2 2 2 2 2 2 2 2 2 2 2 2 2 2 2 1 1 1 1 1 1 1 1 1 1 1 1 1 1 1 1 1 1 1 1 1 1 1 1 1 1 1 1 1 1 1 1 1 1 1 1 1 1 1 1 1 1 1 1 1 1 1 1 1 1 1 1 1 1 1 1 1 1 1 1 1 1 1 1 1 1 1 1 1 1 1 1 1 1 1 1 1 1 1 1 1 1 1 1 1 1 1 1 1 1 1 1 1 1 1 1 1 1 1 1 1 1 1 1 1 1 1 1 1 1 1 1 1 1 1 1 1 1 1 1 1 1 1 1 1 1 1 1 1 1 1 1 1 1 1 1 1 1 1 1 1 1 1 1 1 1 1 1 1 1 1 1 1 1 1 1 1 1 1 1 1 1 1 1 1 1 1 1 1 1 1 1 1 1 1 1 1 1 1 1 1 1 1 1 1 1 1 1 1 1 1 1 1 1 1 1 1 1 1 1 1 1 1 1 1 1 1 1 1 1 1 1 1 1 1 1 1 1 1 1 1 1 1 1 1 1 1 1 1 1 1 1 1 1 1 1 1 1 1 1 1 1 1 1 1 1 1 1 1 1 1 1 1 1 1 1 1 1 1 1 1 1 1 1 1 1 1 1 1 1 1 1 1 1 1 1 1 1 1 1 1 1 1 1 1 1 1 1 1 1 1 1 1 1 1 1 1 1 1 1 1 1 1 1 1 1 1 1 1 1 1 1 1 1 1 1 1 1 1 1 1 1 1 1 1 1 1 1 1 1 1 1 1 1 1 1 1 1 1 1 1 1 1 1 1 1 1 1 1 1 1 1 1 1 1 1 1 1 1 1 1 1 1 1 1 1 1 1 1 1 1 1 1 1 1 1 1 1 1 1 1 1 1 1 1 1 1 1 1 1 1 1 1 1 1 1 1 1 1 1 1 1 1 1 1 1 1 1 1 1 1 1 1 1 1 1 1 1 1 1 1 1 1 1 1 1 1 1 1 1 1 1 1 1 1 1 1 1 1 1 1 1 1 1 1 1 1 1 1 1 1 1 1 1 1 1 1 1 1 1 1 1 1 1 1 1 1 1 1 1 1 1 1 1 1 1 1 1 1 1 1 1 1 1 1 1 1 1 1 1 1 1 1 1 1 1 1 1 1 1 1 1 1 1 1 1 1 1 1 1 1 1 1 1 1 1 1 1 1 1 1 1 1 1 1 1 1 1 1 1 1 1 1 1 1 1 1 1 1 1 1 1 1 1 1 1 1 1 1 1 1 1 1 1 1 1 1 1 1 1 1 1 1 1 1 1 1 1 1 1 1 1 1 1 1 1 1 1 1 1 1 1 1 1 1 1 1 1 1 1 1 1 1 1 1 1 1 1 1 1 1 1 1 1 1 1 1 1 1 1 1 1 1 1 1 1 1 1 1 1 1 1 1 1 1 1 1 1 1 1 1 1 1 1 1 1 1 1 1 1 1 1 1 1 1 1 1 1 1 1 1 1 1 1 1 1 1 1 1 1 1 1 1 1 1 1 1 1 1 1 1 1 1 1 1 1 1 1 1 1 1 1 1 1 1 1 1 1 1 1 1 1 1 1 1 1 1 1 1 1 1 1 1 1 1 1 1 1 1 1 1 1 1 1 1 1 1 1 1 1 1 1 1 1 1 1 1 1 1 1 1 1 1 1 1 1 1 1 1 1 1 1 1 1 1 1 1 1 1 1 1 1 1 1 1 1 1 1 1 1 1 1 1 1 1 1 1 1 1 1 1 1 1 1 1 1 1 1 1 1 1 1 1 1 1 1 1 1 1 1 1 1 1 1 1 1 1 1 1 1 1 1 1 1 1 1 1 1 1 1 1 1 1 1 1 1 1 1 1 1 1 1 1 1 1 1 1 1 1 1 1 1 1 1 1 1 1 1 1 1 1 1 1 1 1 1 1 1 1 1 1 1 1 1 1 1 1 1 1 1 1 1 1 1 1 1 1 1 1 1 1 1 1 1 1 1 1 1 1 1 1 1 1 1 1 1 1 1 1 1 1 1 1 1 1 1 1 1 1 1 1 1 1 1 1 1 1 1 1 1 1 1 1 1 1 1 1 1 1 1 1 1 1 1 1 1 1 1 1 1 1 1 1 1 1 1 1 1 1 1 1 1 1 1 1 1 1 1 1 1 1 1 1 1 1 1 1 1 1 1 1 1 1 1 1 1 1 1 1 1 1 1 1 1 1 1 1 1 1 1 1 1 1 1 1 1 1 1 1 1 1 1 1 1 1 1 1 1 1 1 1 1 1 1 1 1 1 1 1 1 1 1 1 1 1 1 1 1 1 1 1 1 1 1 1 1 1 1 1 1 1 1 1 1 1 1 1 1 1 1 1 1 1 1 1 1 1 1 1 1 1 1 1 1 1 1 1 1 1 1 1 1 1 1 1 1 1 1 1 1 1 1 1 1 1 1 1 1 1 1 1 1 1 1 1 1 1 1 1 1 1 1 1 1 1 1 1 1 1 1 1 1 1 1 1 1 1 1 1 1 1 1 1 1 1 1 1 1 1 1 1 1 1 1 1 1 1 1 1 1 1 1 1 1 1 1 1 1 1 1 
</DataArray>
</PointData>
</Piece>
</UnstructuredGrid>
</VTKFile>
