<?xml version="1.0"?>
<VTKFile type="UnstructuredGrid" version="0.1" byte_order="LittleEndian">
<UnstructuredGrid>
<Piece NumberOfPoints="1160" NumberOfCells="390">
<Points>
<DataArray type="Float64" NumberOfComponents="3" format="ascii">
0 0.02712913039350634 0 0 0.037627845084982139 0 0.10000000000000001 0.037627845084982139 0 0 0.01007997645382676 0 0 0.014048877707311129 0 0.10000000000000001 0.014048877707311129 0 0 0.0072101992457088487 0 0 0.01007997645382676 0 0.10000000000000001 0.01007997645382676 0 0 0.0001221058858762623 0 0 0.00027714824767246312 0 0.10000000000000001 0.00027714824767246312 0 0 0.014048877707311129 0 0 0.019537864299142921 0 0.10000000000000001 0.019537864299142921 0 0 0.0051351601405289276 0 0 0.0072101992457088487 0 0.10000000000000001 0.0072101992457088487 0 0 0.00027714824767246312 0 0 0.00049157175393484403 0 0.10000000000000001 0.00049157175393484403 0 0 0.019537864299142921 0 0 0.02712913039350634 0 0.10000000000000001 0.02712913039350634 0 0 0 0 0.10000000000000001 0 0 0 0.0036347696815094469 0 0 0.0051351601405289276 0 0.10000000000000001 0.0051351601405289276 0 0 1.0000000000000001e-05 0 0 0.0001221058858762623 0 0.10000000000000001 0.0001221058858762623 0 0 0.0025498882091243972 0 0 0.0036347696815094469 0 0.10000000000000001 0.0036347696815094469 0 0 0.037627845084982139 0 0 0.052147564491031792 0 0.10000000000000001 0.052147564491031792 0 0 0.00049157175393484403 0 0 0.00078811928474293897 0 0.10000000000000001 0.00078811928474293897 0 0 0.00078811928474293897 0 0 0.001198244413521618 0 0.10000000000000001 0.001198244413521618 0 0 0.001198244413521618 0 0 0.001765447234118425 0 0.10000000000000001 0.001765447234118425 0 0 0 0 0 1.0000000000000001e-05 0 0.10000000000000001 1.0000000000000001e-05 0 0 0.001765447234118425 0 0 0.0025498882091243972 0 0.10000000000000001 0.0025498882091243972 0 0 0.052147564491031792 0 0 0.072228323778986164 0 0.10000000000000001 0.072228323778986164 0 0 0.072228323778986164 0 0 0.10000000000000001 0 0.10000000000000001 0.10000000000000001 0 0 0.072228323778986164 0 0.10000000000000001 0.10000000000000001 0 0.10000000000000001 0.072228323778986164 0 0 0.014048877707311129 0 0.10000000000000001 0.019537864299142921 0 0.10000000000000001 0.014048877707311129 0 0 0.019537864299142921 0 0.10000000000000001 0.02712913039350634 0 0.10000000000000001 0.019537864299142921 0 0 0.0051351601405289276 0 0.10000000000000001 0.0072101992457088487 0 0.10000000000000001 0.0051351601405289276 0 0 0.001198244413521618 0 0.10000000000000001 0.001765447234118425 0 0.10000000000000001 0.001198244413521618 0 0 0.001765447234118425 0 0.10000000000000001 0.0025498882091243972 0 0.10000000000000001 0.001765447234118425 0 0 0.00027714824767246312 0 0.10000000000000001 0.00049157175393484403 0 0.10000000000000001 0.00027714824767246312 0 0 0.0036347696815094469 0 0.10000000000000001 0.0051351601405289276 0 0.10000000000000001 0.0036347696815094469 0 0 0.01007997645382676 0 0.10000000000000001 0.014048877707311129 0 0.10000000000000001 0.01007997645382676 0 0 1.0000000000000001e-05 0 0.10000000000000001 0.0001221058858762623 0 0.10000000000000001 1.0000000000000001e-05 0 0 0.052147564491031792 0 0.10000000000000001 0.072228323778986164 0 0.10000000000000001 0.052147564491031792 0 0 0.0001221058858762623 0 0.10000000000000001 0.00027714824767246312 0 0.10000000000000001 0.0001221058858762623 0 0 0.02712913039350634 0 0.10000000000000001 0.037627845084982139 0 0.10000000000000001 0.02712913039350634 0 0 0.00078811928474293897 0 0.10000000000000001 0.001198244413521618 0 0.10000000000000001 0.00078811928474293897 0 0 0.0025498882091243972 0 0.10000000000000001 0.0036347696815094469 0 0.10000000000000001 0.0025498882091243972 0 0 0 0 0.10000000000000001 1.0000000000000001e-05 0 0.10000000000000001 0 0 0 0.0072101992457088487 0 0.10000000000000001 0.01007997645382676 0 0.10000000000000001 0.0072101992457088487 0 0 0.037627845084982139 0 0.10000000000000001 0.052147564491031792 0 0.10000000000000001 0.037627845084982139 0 0 0.00049157175393484403 0 0.10000000000000001 0.00078811928474293897 0 0.10000000000000001 0.00049157175393484403 0 0.10000000000000001 0.00078811928474293897 0 0.10000000000000001 0.001198244413521618 0 0.20000000000000001 0.001198244413521618 0 0.10000000000000001 0.00078811928474293897 0 0.20000000000000001 0.001198244413521618 0 0.20000000000000001 0.00078811928474293897 0 0.10000000000000001 0.0036347696815094469 0 0.20000000000000001 0.0051351601405289276 0 0.20000000000000001 0.0036347696815094469 0 0.10000000000000001 0.0051351601405289276 0 0.10000000000000001 0.0072101992457088487 0 0.20000000000000001 0.0072101992457088487 0 0.10000000000000001 0.0051351601405289276 0 0.20000000000000001 0.0072101992457088487 0 0.20000000000000001 0.0051351601405289276 0 0.10000000000000001 0.0072101992457088487 0 0.10000000000000001 0.01007997645382676 0 0.20000000000000001 0.01007997645382676 0 0.10000000000000001 0.0072101992457088487 0 0.20000000000000001 0.01007997645382676 0 0.20000000000000001 0.0072101992457088487 0 0.10000000000000001 0.00027714824767246312 0 0.10000000000000001 0.00049157175393484403 0 0.20000000000000001 0.00049157175393484403 0 0.10000000000000001 0.00027714824767246312 0 0.20000000000000001 0.00049157175393484403 0 0.20000000000000001 0.00027714824767246312 0 0.10000000000000001 0.0036347696815094469 0 0.10000000000000001 0.0051351601405289276 0 0.20000000000000001 0.0051351601405289276 0 0.10000000000000001 0.001198244413521618 0 0.10000000000000001 0.001765447234118425 0 0.20000000000000001 0.001765447234118425 0 0.10000000000000001 0.0025498882091243972 0 0.20000000000000001 0.0036347696815094469 0 0.20000000000000001 0.0025498882091243972 0 0.10000000000000001 0.01007997645382676 0 0.10000000000000001 0.014048877707311129 0 0.20000000000000001 0.014048877707311129 0 0.10000000000000001 0.0025498882091243972 0 0.10000000000000001 0.0036347696815094469 0 0.20000000000000001 0.0036347696815094469 0 0.10000000000000001 0.001765447234118425 0 0.20000000000000001 0.0025498882091243972 0 0.20000000000000001 0.001765447234118425 0 0.10000000000000001 0.001198244413521618 0 0.20000000000000001 0.001765447234118425 0 0.20000000000000001 0.001198244413521618 0 0.10000000000000001 0.00049157175393484403 0 0.10000000000000001 0.00078811928474293897 0 0.20000000000000001 0.00078811928474293897 0 0.10000000000000001 0.00049157175393484403 0 0.20000000000000001 0.00078811928474293897 0 0.20000000000000001 0.00049157175393484403 0 0.10000000000000001 0.001765447234118425 0 0.10000000000000001 0.0025498882091243972 0 0.20000000000000001 0.0025498882091243972 0 0.10000000000000001 0.02712913039350634 0 0.10000000000000001 0.037627845084982139 0 0.20000000000000001 0.037627845084982139 0 0.10000000000000001 0 0 0.20000000000000001 0 0 0.10000000000000001 0.052147564491031792 0 0.20000000000000001 0.072228323778986164 0 0.20000000000000001 0.052147564491031792 0 0.10000000000000001 0 0 0.10000000000000001 1.0000000000000001e-05 0 0.20000000000000001 1.0000000000000001e-05 0 0.10000000000000001 0 0 0.20000000000000001 1.0000000000000001e-05 0 0.20000000000000001 0 0 0.10000000000000001 0.037627845084982139 0 0.20000000000000001 0.052147564491031792 0 0.20000000000000001 0.037627845084982139 0 0.10000000000000001 0.037627845084982139 0 0.10000000000000001 0.052147564491031792 0 0.20000000000000001 0.052147564491031792 0 0.10000000000000001 0.02712913039350634 0 0.20000000000000001 0.037627845084982139 0 0.20000000000000001 0.02712913039350634 0 0.10000000000000001 1.0000000000000001e-05 0 0.10000000000000001 0.0001221058858762623 0 0.20000000000000001 0.0001221058858762623 0 0.10000000000000001 1.0000000000000001e-05 0 0.20000000000000001 0.0001221058858762623 0 0.20000000000000001 1.0000000000000001e-05 0 0.10000000000000001 0.019537864299142921 0 0.20000000000000001 0.02712913039350634 0 0.20000000000000001 0.019537864299142921 0 0.10000000000000001 0.019537864299142921 0 0.10000000000000001 0.02712913039350634 0 0.20000000000000001 0.02712913039350634 0 0.10000000000000001 0.014048877707311129 0 0.20000000000000001 0.019537864299142921 0 0.20000000000000001 0.014048877707311129 0 0.10000000000000001 0.0001221058858762623 0 0.10000000000000001 0.00027714824767246312 0 0.20000000000000001 0.00027714824767246312 0 0.10000000000000001 0.01007997645382676 0 0.20000000000000001 0.014048877707311129 0 0.20000000000000001 0.01007997645382676 0 0.10000000000000001 0.0001221058858762623 0 0.20000000000000001 0.00027714824767246312 0 0.20000000000000001 0.0001221058858762623 0 0.10000000000000001 0.014048877707311129 0 0.10000000000000001 0.019537864299142921 0 0.20000000000000001 0.019537864299142921 0 0.10000000000000001 0.072228323778986164 0 0.20000000000000001 0.10000000000000001 0 0.20000000000000001 0.072228323778986164 0 0.10000000000000001 0.072228323778986164 0 0.10000000000000001 0.10000000000000001 0 0.20000000000000001 0.10000000000000001 0 0.10000000000000001 0.052147564491031792 0 0.10000000000000001 0.072228323778986164 0 0.20000000000000001 0.072228323778986164 0 0.20000000000000001 0.072228323778986164 0 0.20000000000000001 0.10000000000000001 0 0.29999999999999999 0.10000000000000001 0 0.20000000000000001 0.052147564491031792 0 0.20000000000000001 0.072228323778986164 0 0.29999999999999999 0.072228323778986164 0 0.20000000000000001 0.00078811928474293897 0 0.20000000000000001 0.001198244413521618 0 0.29999999999999999 0.001198244413521618 0 0.20000000000000001 0.0001221058858762623 0 0.20000000000000001 0.00027714824767246312 0 0.29999999999999999 0.00027714824767246312 0 0.20000000000000001 0.001198244413521618 0 0.20000000000000001 0.001765447234118425 0 0.29999999999999999 0.001765447234118425 0 0.20000000000000001 0 0 0.20000000000000001 1.0000000000000001e-05 0 0.29999999999999999 1.0000000000000001e-05 0 0.20000000000000001 0.0072101992457088487 0 0.20000000000000001 0.01007997645382676 0 0.29999999999999999 0.01007997645382676 0 0
[...]
<PointData Scalars="Ba-133_conc,region_id," Vectors="" Tensors="">
<DataArray type="Float64" Name="Ba-133_conc" format="ascii">
-1.1010150940099656e-67 2.1664579092156879e-68 -8.5028177138614329e-69 1.0345669428628427e-39 -3.1888265618481771e-39 2.8540210506761099e-39 3.8978001034443139e-31 3.7473610945862384e-32 -2.2454435990208572e-31 -4.3503702667547604 0.1755057218463239 -1.131719163609769 -1.1540838786674473e-47 7.0783683157474096e-48 1.6011827430115931e-49 -4.4458683807275685e-24 7.5322859038531687e-25 9.5477977658628277e-25 -0.23611598217913046 -0.063550091174807949 0.063494314528068321 -9.1218362551618846e-58 4.7911329791543504e-58 -3.2134545094802946e-58 1229.4591589575048 1135.5689173398353 3.5073846409900352e-18 -1.0991321296755652e-18 2.0356585998421481e-19 1104.7017143376577 -2.641951673985742 -70.261459131229344 -2.0209119052932468e-13 1.0764208493771374e-13 -1.1355911972422596e-13 -2.9891338868976883e-78 8.7240274902445241e-79 -2.8932957583231473e-79 0.012162372324596762 0.000554558974163218 -0.0027320953071806372 -0.00062544867254855474 3.6170017741737401e-05 0.00016926708106432419 2.7837614009078712e-06 2.723573160121259e-07 -1.9179725572014947e-06 1229.594513503507 1098.9966266895783 1214.036248893183 -7.5776704040216196e-11 -8.0260815046695474e-10 1.7422724945092675e-09 -2.6335432358610323e-89 7.9388609157272641e-90 -2.7485363617460408e-90 -6.2990161196473857e-101 1.9663502472801795e-101 -7.40963273820655e-102 -2.9601832723960681e-95 4.0058210590188606e-96 -4.4470431505102044e-96 -1.1599544510449245e-43 -3.3293063880531053e-44 4.4867276910589715e-43 6.6033116022852801e-54 -7.0251625843000998e-53 -3.6966662898628082e-53 -2.1373112239429264e-21 1.021904256331655e-21 4.3353746887345335e-22 1.7309868010666924e-05 -1.5195231382808544e-05 4.3568619040606888e-05 -6.4569993866370868e-09 3.9112689203110213e-08 -1.4816152821448262e-07 -0.20811036507106337 0.17579735588957759 0.18731455658079818 5.8516138805949405e-16 -5.4714433298733083e-17 -8.8847907916458857e-16 3.4905446744919186e-36 2.6417555869131974e-35 -8.796366509366047e-35 1099.2106011149999 -63.644169023708614 1214.7125184086649 -5.7939391921065299e-84 6.3196958375222203e-85 -9.1467788127075118e-85 -2.9147450928973884 -2.6900262587423058 -73.635136025274676 -4.0706390700464837e-63 -1.0641667872340356e-63 -4.5104223989608869e-63 -0.00085777941192661622 0.00041638092413358232 -0.00085843565527509336 -1.0737478021810597e-11 -6.0794885545225885e-12 4.1798003275863394e-11 1229.6205612532012 1214.0081902597178 1135.7598785810951 5.2035667469635948e-28 -6.1967054956635295e-28 1.0264595825660238e-27 -2.9983319189662003e-73 1.3793267654580284e-74 -6.2714045091618368e-74 -0.0057778814078938544 -0.0039375417386622417 -0.020492500960902254 -0.001021760077069632 0.0006364018765554223 -0.0011396896687649171 -0.0019469527848476737 -0.001752619164082089 0.018746083149659542 -1.7934715868197038e-15 3.947286743858654e-15 -1.1133631127459514e-14 -2.055364208768915e-23 1.7362663467778232e-23 -1.7063927390874953e-23 -9.1903021133547868e-21 -1.0347158134513293e-20 5.1291227762799706e-20 7.9553941713852334e-30 -2.9442613114770597e-30 4.5612713950158855e-31 9.2865439865393496e-27 -1.0424338291225045e-28 -1.8014155900079362e-26 0.84479329847767715 -0.01703426664448696 0.1262971619717187 0.12770203827779864 0.93858763753564223 2.460275423070482 -1.3096147292483209e-17 -7.0480452154760614e-18 1.7542503883080258e-17 2.6655687660674265e-05 -7.8263002401300204e-06 4.2125262348090359e-06 1.4045186062604658e-10 -1.047642923261024e-10 1.430349013242762e-10 -1.5571878753395295e-37 2.8436135386127615e-38 3.0559494637898393e-38 2.859236964688031e-12 -6.9502589861003738e-14 -1.279598610660797e-12 -5.2457941768209383e-07 1.7298322380894717e-07 2.3653150269373122e-07 0.00012930545574880848 9.475140635720373e-06 -0.0002740246042856276 -0.039398867038797893 -0.00102776124105127 0.0095546488203741373 -0.015122254682871065 -0.04035409581708943 -0.24259596108601361 -3.2595516331048601e-08 5.7794565419525533e-09 4.6580515548851576e-09 2.5636191376486837e-66 -1.0056660373337988e-66 -4.7041849911520803e-67 1135.3343081153266 1024.4692128047413 1.4248666426197331e-82 2.122788018723961e-83 -6.5133535455163016e-83 1135.7161873381804 1214.0164593807638 1262.1929601122758 1135.69400282011 1262.1769635945741 1024.8373140803826 7.3106017788088591e-72 2.767637416853836e-72 -5.2161794969330124e-72 7.8931868871986119e-77 -2.5971634523290668e-77 -1.3645788373001294e-77 8.2887074597277063e-62 1.0943674851446148e-61 -8.1302067691806101e-62 1221.3441969723028 -69.422284512749513 -60.110870078246599 1214.3240221755786 -50.815712829876922 1263.0278334920863 6.7431728146149352e-52 6.0137025673072826e-52 -3.3842248869886155e-51 2.134212257795176e-56 -2.2543816032005794e-56 -4.1567814674739066e-57 6.6229339218759713e-43 -2.5644406576221171e-42 3.7574699038619699e-42 -78.068486735332897 -0.29530100107459833 0.85125204667582588 -4.6840697540409196e-34 2.882957278397923e-34 2.3227801880627835e-34 -72.798492831599802 -2.4974093737578387 -64.9172299840655 1.0530564314109478e-46 5.5914436626353667e-47 -6.8430741897607247e-47 7.3100817618977148e-94 2.4807138393982282e-95 -2.1046849175240837e-94 1.5822340025929833e-99 -5.1313394381237672e-100 -1.2749206140374614e-100 6.7173847033710988e-88 -2.1586676215486492e-88 -8.7365070573791723e-89 8.1427329085548074e-99 -2.5800583213078641e-99 8.6152871002988948e-100 3.4159841884491535e-87 -1.0449269109139115e-87 3.0257473224337597e-88 0.012231777715622534 0.00025301715466727608 -0.005398390562255273 -70.480626389916694 1.2494155683588433 -0.68105960052080405 -4.3879677501285757e-05 -1.9973337407084199e-05 5.9000826348952052e-05 1024.8469497529532 1262.1702150326259 1296.5667121917527 -2.0787495337165554e-29 -1.1941163079286761e-29 2.1767393426337049e-29 -0.37475654620127835 0.0093959490837756416 0.032582853643799328 3.9731452742281002e-76 -1.1632793324433195e-76 2.8916597158297667e-77 2.155109632241511e-45 -7.9609706657502618e-46 -2.2884368705089247e-46 -3.4852940601403102e-08 3.8920430391670038e-08 -4.5161450772187807e-08 3.7213815790621356 0.072998420215184393 0.22278740462699415 1.5317837348819932e-65 -2.7224698425678048e-66 5.669206800892596e-67 -2.4162953912881804e-16 4.4695189537563526e-17 3.9527659604107499e-17 3.059868915696975e-22 -6.8219990216258377e-24 -1.2258408159580965e-22 -1.5815697623462659e-56 -1.1759570010983224e-55 6.5132116824838823e-56 1.410671028701235e-11 -4.8829359679640739e-12 1.5404796006114443e-12 -4.8727583921480174e-37 4.3467731807706109e-37 -2.198159063112098e-37 1272.4329654312121 -59.58835834025809 -48.139736727188833 1.7577250289861238e-41 -4.7894296296066012e-42 -3.5851471728858451e-41 -1.8727906935838732e-33 -1.6624193741560004e-33 8.4984049212296921e-33 0.013572661018950216 -0.010628913735290173 0.042645127078285418 7.6524947860763024e-82 -6.7783041838191392e-83 7.1964641015372083e-83 -5.1974071161552548e-52 1.302812684382763e-50 -4.4454682438946283e-51 -3.2087319195675719e-14 1.2766783246418345e-14 8.6511422354981183e-15 -8.8435081159901421e-05 0.00035910178179357239 -0.0014383702484107672 6.9622169409425657e-10 -1.8016375493907575e-13 -1.0170618302998491e-09 -1.3223163125367668e-26 4.9201144007747161e-26 -1.3083926525080698e-25 4.1646711848295159e-71 -1.7699711478061998e-72 8.4513098431974391e-73 -7.9692005246601682e-07 -7.5774447325674779e-07 4.4216692549445798e-06 1.0580169220205064e-19 -9.4578777742862342e-20 1.2857427202475269e-19 5.4924597975031232e-61 1.4427830628493644e-61 4.5058098896900953e-61 1262.5993816834562 -36.013532295032824 1297.5291675065935 2.5917926217447329 1.228078280544721 1.0533754940085174 1024.8785053898744 1296.5383920585723 907.46638002678344 -0.2240338079440044 -0.056096425882377947 -0.22600368701524823 -64.288143364840863 -4.6474058938961127 -54.240804113285819 1024.5529672196776 907.08624678337958 3.0661419040681364e-07 2.5809231673318699e-08 -1.803043937690053e-07 -1.4510847339357158e-54 9.7720471500672539e-55 2.7279779326903177e-55 -4.0603538070544205e-50 5.0310088966394492e-51 1.2678916068733635e-49 -2.8446851362251489e-28 4.9316660664988922e-29 5.2510477728633399e-29 -7.9693099255329904e-65 4.521696235288937e-65 1.4704297693691326e-65 2.6304961425598331e-06 -3.7989123568109994e-06 9.5177160389889274e-06 1297.114394313031 -18.343385819933886 1317.486731050481 -2.621657915167804e-60 -5.655327204217192e-60 2.7294619529427707e-60 -0.42649923551594865 0.03966764748244643 0.019352419622585864 -0.23737560893295082 -0.10512248971303056 -0.070461921581410111 -3.1386352020502004e-75 1.0560361462822889e-75 5.3441038328721074e-76 -2.9419521923919612e-70 -1.0520155491132936e-70 2.2395529200052332e-70 1309.6800547264374 -47.651837976227007 -33.06281648355133 -2.619102923015618e-25 1.4327215732510531e-25 1.2420493482453007e-26 1.1870082720398968e-21 -4.0337628833046479e-22 2.356653599304126e-23 -1.3183476223620779e-11 -1.0755254869734227e-11 2.2118199942340656e-11 -7.8965590463943915e-12 1.3199734073455897e-09 -4.561661289847517e-09 2.3020196476889506e-41 8.2952957483811577e-41 -2.307887163643946e-40 -6.8632234534245145e-46 -4.416662283303156e-45 2.4300712786401049e-45 9.2425882347383061e-33 -1.3712449765011061e-32 1.9320410018296821e-32 4.6554037650593128e-36 2.1312287926373907e-37 -1.7121368241281038e-36 -53.56313842965627 -6.6943679611504541 -40.433042495124354 -60.619740578212578 -0.38265915806763712 -2.2145999943103365 1.2479051899555842 1.6626441808350594 -0.29211297637498407 2.5763325219357167 0.15008643371881894 0.4717155467069421 -2.7348804424226606e-16 2.3792353972358519e-16 -1.9495854487670265e-16 -5.1452719478453417e-14 -2.9345281843833435e-14 1.7971704233488426e-13 -5.7728073335044094e-81 -8.0342565354371918e-82 2.6150345253490143e-81 907.43885674997102 1296.5425307262103 1316.4057142688196 907.43539390120679 1316.3866156837216 780.79897928648541 4.549388162476434e-19 -5.0368052564923305e-20 -5.2768383831468782e-19 906.96539739722391 780.32136893557788 0.030473623779553375 -0.0037434983686900846 -0.0064689987735490114 0.041331492383646404 -0.013305631171409028 0.043668187838167269 -0.00034608970124885098 1.7602121043676705e-05 0.00011504561336942489 -0.0011862259850972687 0.0008165139594965645 -0.0019241082511502142 -2.7033903474939764e-86 8.6980873094842053e-87 3.4148704942015239e-87 -6.3616319808300044e-98 2.0531373398127418e-98 4.9895676043799351e-99 -2.949796327456245e-92 -8.7787708164744276e-94 8.2564660216306762e-93 3.8572015408294646e-93 -4.678416643840724e-94 4.237094365641615e-94 -8.4933418611477352e-92 5.5171406447254339e-93 3.3123261685036912e-93 4.7501888885007019e-32 -1.3600794043203222e-32 -4.4645778234442397e-32 -4.7237816376859909e-25 -1.5570579823125685e-25 1.2084458865406908e-24 0.043117712706446577 -0.011092846239172394 0.040269729827997307 -0.054163654031281781 2.0678424093564769 -1.8900159563467778 780.32645025149611 649.83902639206269 -3.1874579012987416e-09 3.1115895579973491e-09 -6.8863577284772422e-09 -1.7055779373768021e-80 8.7115810680876752e-83 1.9792783250399772e-81 -2.5072506355876276e-40 2.9476684032556694e-40 -9.598595283424931e-41 1317.0986731892779 1.6966876187381656 1321.5499707704869 8.1585854523943312e-14 -1.5692520830227633e-13 3.9969298148756395e-13 -9.8558139129893224e-70 -2.3657266596879918e-71 3.8434673846869611e-70 1.5654950774944523e-19 6.6298258523071893e-19 -2.3134033629116465e-18 780.81192984631946 1320.3655261272932 650.34601706094622 -5.9818957992894436e-50 -2.5578254945418512e-49 3.7608223859491307e-49 -9.1731835628758922e-60 -1.0270488922548185e-59 -4.5823203816109487e-60 -0.082001252128266491 -0.17083567518978895 0.083163853494486489 7.7771579785879769e-06 -5.7747547544274155e-06 1.1897290809748735e-05 -0.0017442586489587212 0.00098596927434198094 -0.0021186407235667766 -39.763008330152758 -8.8180717787423291 -23.794463665039014 -9.1801085836446285e-75 2.7150432798255286e-75 1.8493835901359512e-76 -5.4493273621796389e-22 -8.3760879789481502e-22 1.1764435144998596e-21 1.3209560819809518e-15 1.8143056176207041e-16 -7.8875726390824049e-16 780.79328481607706 1316.3868950399674 1320.3881746153997 1.4617945139293145 0.40466123352316552 0.71725153005141085 0.034232001013804678 -0.005880559434276832 -0.006128270487311684 -0.00049729979250065764 8.5908539965312783e-05 0.00013085990250014389 1.8198937998294393e-35 -5.847922723234055e-36 -1.2053454205379011e-36 -2.9677017452735894e-64 6.2608376762301363e-65 1.1533498867576957e-65 -0.33953694958248282 0.031301311836867414 -0.0024103869532158323 7.6897990742446221e-07 -1.0129526191980905e-07 -2.5264859862699282e-07 -1.1528059079700314e-10 4.3555516029237919e-12 4.5759693431148898e-11 -47.525127146766607 -1.9689292570822905 -3.9441877854449285 -4.6972526411481485e-44 4.5670035418024153e-45 1.0160152422939017e-44 -3.5893731329304153e-28 2.5427661545320087e-28 -1.1480790666412195e-28 8.1318279156313421e-55 4.3948062714971747e-54 -1.2596060655428417e-54 1332.2023958717402 -32.708759632894335 -15.325316837002401 -1.7872835762574481e-97 5.7965744430484547e-98 -7.6342613052914541e-99 -7.5642059906406529e-86 2.3863408246471923e-86 -9.2647568456281366e-88 5.2865816464271796e-24 -5.3716510163750822e-24 1.0125216238852434e-23 61.050324842226274 -34.172529658812032 169.49539026920627 -7.060583587370105e-18 6.4457905965378132e-18 -1.255616568750095e-17 1.0160770141967451e-12 -8.5841452776610263e-13 1.7102470693043631e-12 -2.9851795543633012e-48 5.2865148073832253e-48 -4.8724046309225136e-48 -1.5139997611730369e-08 1.2095536934070472e-08 -2.5302943403248865e-08 1172.5168183287126 210.64265929865206 879.73840425542346 -4.2950314871093474e-31 5.0335340187938473e-31 -8.8980182796587007e-31 3.6059192769861893e-39 -5.1620911671490795e-39 7.8553758372458517e-39 2.1475202713856633e-05 -1.6910446949995327e-05 3.9024864724840016e-05 119.72229012105549 879.10184609400687 1.40524040374996 -7.4217851586940204 5.9279209525691616 -25.881909741483632 -0.0027647698300345982 0.0019731099227132359 -0.0058661138948023191 3.7360351027063017e-58 -4.8534952713659476e-58 -3.7009947296580334e-58 -4.7967309772641927e-69 7.7509852998116054e-69 8.1710850342726673e-69 119.04202856063409 0.86662511465928926 0.018575583726633225 0.011685098106114204 0.034143926890403284 -1.4781589399822653e-80 1.2511693114629325e-80 -3.5207821811288907e-80 0.81459579463066989 -0.73874372665730814 2.4597518861185392 -7.3055391633736541e-92 4.1565132564911581e-92 -1.2664060420569308e-91 -1.6532728658736925e-97 6.3433764545028692e-98 -1.382027205657848e-97 -6.2856052854241009e-86 3.7250358870883493e-86 -6.8055330429322327e-86 0.29784546864034772 -0.044948125316436958 -0.19617338283135852 -5.5388178274023278e-10 1.0523933474581867e-10 1.6891623020199909e-10 1194.9263227140368 69.490408276428738 182.78819411683844 8.5887744335548932e-27 -1.5911832903184781e-27 -2.1925229526992009e-27 7.4151037358780911e-63 -2.551496206788834e-63 -9.8848396496068818e-64 -3.6304525972994567e-74 -1.0168569147133798e-74 -1.4917186951825631e-75 -0.001050260422230456 0.00018461586708987032 0.00034569637749868752 0.036421521703958813 -0.0046943326556394722 -0.0091267709149025142 -5.8873366787972818 1.3177988946612822 3.8752648046856546 -2.6753734804344662e-34 5.1573009031939783e-35 5.7150158631005834e-35 119.73132060114165 1171.3539928442317 879.09953880371199 1.2537211217139892e-14 -2.3447135226721258e-15 -3.717320379253367e-15 -2.6372419696999743e-52 7.1752283622615354e-53 2.1578080883036896e-53 -3.0957019540783066e-20 5.6948923106759158e-21 8.7022745851523497e-21 8.7969520961392986e-43 -1.884500423789464e-43 -1.3477226012070384e-43 53.613041226277858 -9.4413590538425769 -28.178690359591354 2.468295814781498e-06 -4.7464484882273753e-07 -7.9059490355412126e-07 6.3771262401054621e-43 -1.2524057297928273e-43 -1.0124972659466978e-43 -1.2474752235036551e-08 9.5951152505197544e-09 -1.9141056840793945e-08 2.5334130505542048e-39 -3.5812153699954151e-39 5.3767844077551595e-39 1234.4425332316507 92.494059078161527 1172.5754863771999 -4.2925519455227689e-10 8.0652663342325472e-11 1.2988011932692338e-10 5.6049889417425303e-59 -2.8635030951284561e-58 -9.9120012865135213e-59 2.546829281769437e-63 1.7466871145821967e-63 -9.7808245551493569e-64 -5.7188210449116008 1.5695104001858187 1.6451915119641494 2.0367793179114274e-05 -1.3862769588429169e-05 2.7343875603559252e-05 2.1064663710151714e-06 -4.1400713565541755e-07 -6.1208003015091397e-07 -7.4072694522647984 3.0533286029968778 -7.9528085852358164 248.48113676662135 1233.3363602624368 1171.3525616162312 -1.872202005064981e-34 3.6734286262824276e-35 3.9487192773628963e-35 -3.0018780321579464e-31 3.4790797665665571e-31 -6.132381998465003e-31 -1.8913743080443971e-52 2.3541207418844808e-53 2.4887462132244955e-53 248.4873350006437 1171.3439334322527 119.74728794405419 1255.9983239711823 51.06884453611606 70.966086685260365 -1.6990788932340034e-48 3.7234210447889739e-48 -3.627574784833784e-48 -0.0010242416370947549 0.00020109733185769179 0.00024677868783196067 33.256636150762077 -9.9399513181477008 -9.5709544063648142 41.377772776108003 -14.215120290849057 60.701709059636755 0.74865928985121988 -0.45948317226640473 0.91935812725565169 0.20603245358483374 -0.071551912724728703 -0.11789378175630179 -2.1854564667396697e-20 3.9941529110825167e-21 6.2106155837449062e-21 -5.0414861775779227e-18 4.65380058270474e-18 -9.1577975745543578e-18 -8.8662255039253796e-80 1.9196840684451445e-80 8.5671209848661239e-81 7.6339358555044081e-13 -6.4682084743705251e-13 1.287540699483331e-12 9.1569130109932447e-15 -1.6851978812069872e-15 -2.7541511598118699e-15 0.042392093214611966 -0.0068883509134585871 -0.0046891284863359427 0.022958123000757367 0.010604169190157142 0.0029552068083883516 -0.0030322476188237085 0.0015354093923287892 -0.0032420784771876481 247.83001268775132 119.11427937795686 -3.0198249934196088e-69 1.6312813457246893e-70 1.2115353363203315e-69 -4.1114646030912049e-74 -2.9601913586891556e-75 4.2288951379551122e-77 5.9695471840852613e-27 -1.1189599801454089e-27 -1.5216972595064057e-27 3.6914318039166691e-24 -3.7676041626713957e-24 7.150575286664e-24 -3.8658017576470173e-85 1.1010185872883922e-85 -3.3837685093195684e-86 -3.9747880273619483e-91 4.8768419507394129e-92 -5.5782948049710386e-92 -8.398467148976963e-97 2.6847889675234442e-97 -9.9650847904373653e-98 -1.6706528175822614e-91 5.9291160809944791e-93 1.8514523788757338e-92 17.769396174975661 -14.934722425480713 40.913115855557848 -0.0026518757102856967 0.0014117830696927514 -0.003074347947918458 -5.265818229308211 3.1897980195682791 -7.8743117043884165 1.6161624572525968e-05 -1.1145807374671123e-05 2.2243579106676506e-05 2.2333566987625762e-49 2.1310071022312363e-48 -3.3442566120217105e-48 1.3189721079774698e-69 -3.0418845757841086e-69 -3.383825417938859e-69 0.47968685340234085 -0.3999149165603389 0.76569031521063613 -7.8497505109744041e-59 1.1637198255429382e-59 8.063852272655322e-59 -3.2490373805991761e-80 2.998876874302496e-81 1.4595820398586484e-80 0.032517949005816948 0.0019535185340068071 0.021685406816260747 381.62037386640441 1233.3260271105337 248.49608442870067 1.3217006682037963e-39 -2.4915123962476091e-39 4.0600818236562257e-39 1279.7154825214677 72.845699309796515 1234.5740450935832 -2.0653830519530457e-31 2.4712599873168898e-31 -4.3567084495942058e-31 -9.4347200437760192e-09 7.2843854821965136e-09 -1.4573450079302684e-08 2.643657373448606e-24 -2.6712684774674193e-24 5.0349268947539215e-24 5.5936153421396971e-13 -4.7414694223384479e-13 9.4377276986217958e-13 -3.6295687561620596e-18 3.3331768768421574e-18 -6.5422151723105957e-18 0.041208144733215574 -0.0067830877151595845 -0.0059187639154354996 0.0051185020165157614 -0.033784138194871548 -0.08396930869385015 6.6354058817062433e-15 -1.2300238278454679e-15 -1.9901879479799403e-15 380.9776652342963 247.87329179763557 4.3283752231794148e-27 -7.8290105538388451e-28 -1.0973579925025342e-27 -4.6014525008333364e-75 3.59051744952251e-75 1.2334505891890934e-75 -0.00084930998546531018 0.00016499260648701722 0.00021188326403926596 -1.5670575250496834e-20 2.9005714256269414e-21 4.