<?xml version="1.0"?>
<VTKFile type="UnstructuredGrid" version="0.1" byte_order="LittleEndian">
<UnstructuredGrid>
<Piece NumberOfPoints="1160" NumberOfCells="390">
<Points>
<DataArray type="Float64" NumberOfComponents="3" format="ascii">
0 0 0 0.10000000000000001 0 0 0 0.02712913039350634 0 0 0.037627845084982139 0 0.10000000000000001 0.037627845084982139 0 0 0.037627845084982139 0 0 0.052147564491031792 0 0.10000000000000001 0.052147564491031792 0 0 0.019537864299142921 0 0 0.02712913039350634 0 0.10000000000000001 0.02712913039350634 0 0 0.014048877707311129 0 0 0.019537864299142921 0 0.10000000000000001 0.019537864299142921 0 0 0.01007997645382676 0 0 0.014048877707311129 0 0.10000000000000001 0.014048877707311129 0 0 0.0072101992457088487 0 0 0.01007997645382676 0 0.10000000000000001 0.01007997645382676 0 0 0.0051351601405289276 0 0 0.0072101992457088487 0 0.10000000000000001 0.0072101992457088487 0 0 0.0036347696815094469 0 0 0.0051351601405289276 0 0.10000000000000001 0.0051351601405289276 0 0 0.001765447234118425 0 0 0.0025498882091243972 0 0.10000000000000001 0.0025498882091243972 0 0 0.0025498882091243972 0 0 0.0036347696815094469 0 0.10000000000000001 0.0036347696815094469 0 0 0 0 0 1.0000000000000001e-05 0 0.10000000000000001 1.0000000000000001e-05 0 0 1.0000000000000001e-05 0 0 0.0001221058858762623 0 0.10000000000000001 0.0001221058858762623 0 0 0.0001221058858762623 0 0 0.00027714824767246312 0 0.10000000000000001 0.00027714824767246312 0 0 0.00027714824767246312 0 0 0.00049157175393484403 0 0.10000000000000001 0.00049157175393484403 0 0 0.00049157175393484403 0 0 0.00078811928474293897 0 0.10000000000000001 0.00078811928474293897 0 0 0.00078811928474293897 0 0 0.001198244413521618 0 0.10000000000000001 0.001198244413521618 0 0 0.001198244413521618 0 0 0.001765447234118425 0 0.10000000000000001 0.001765447234118425 0 0 0.0036347696815094469 0 0.10000000000000001 0.0051351601405289276 0 0.10000000000000001 0.0036347696815094469 0 0 0.0051351601405289276 0 0.10000000000000001 0.0072101992457088487 0 0.10000000000000001 0.0051351601405289276 0 0 0.0025498882091243972 0 0.10000000000000001 0.0036347696815094469 0 0.10000000000000001 0.0025498882091243972 0 0 0.001765447234118425 0 0.10000000000000001 0.0025498882091243972 0 0.10000000000000001 0.001765447234118425 0 0 0.001198244413521618 0 0.10000000000000001 0.001765447234118425 0 0.10000000000000001 0.001198244413521618 0 0 0.00078811928474293897 0 0.10000000000000001 0.001198244413521618 0 0.10000000000000001 0.00078811928474293897 0 0 0.00049157175393484403 0 0.10000000000000001 0.00078811928474293897 0 0.10000000000000001 0.00049157175393484403 0 0 0.00027714824767246312 0 0.10000000000000001 0.00049157175393484403 0 0.10000000000000001 0.00027714824767246312 0 0 1.0000000000000001e-05 0 0.10000000000000001 0.0001221058858762623 0 0.10000000000000001 1.0000000000000001e-05 0 0 0 0 0.10000000000000001 1.0000000000000001e-05 0 0.10000000000000001 0 0 0 0.0001221058858762623 0 0.10000000000000001 0.00027714824767246312 0 0.10000000000000001 0.0001221058858762623 0 0 0.01007997645382676 0 0.10000000000000001 0.014048877707311129 0 0.10000000000000001 0.01007997645382676 0 0 0.0072101992457088487 0 0.10000000000000001 0.01007997645382676 0 0.10000000000000001 0.0072101992457088487 0 0 0.014048877707311129 0 0.10000000000000001 0.019537864299142921 0 0.10000000000000001 0.014048877707311129 0 0 0.019537864299142921 0 0.10000000000000001 0.02712913039350634 0 0.10000000000000001 0.019537864299142921 0 0 0.02712913039350634 0 0.10000000000000001 0.037627845084982139 0 0.10000000000000001 0.02712913039350634 0 0 0.037627845084982139 0 0.10000000000000001 0.052147564491031792 0 0.10000000000000001 0.037627845084982139 0 0 0.052147564491031792 0 0.10000000000000001 0.072228323778986164 0 0.10000000000000001 0.052147564491031792 0 0 0.072228323778986164 0 0.10000000000000001 0.10000000000000001 0 0.10000000000000001 0.072228323778986164 0 0 0.052147564491031792 0 0 0.072228323778986164 0 0.10000000000000001 0.072228323778986164 0 0 0.072228323778986164 0 0 0.10000000000000001 0 0.10000000000000001 0.10000000000000001 0 0.20000000000000001 0.052147564491031792 0 0.20000000000000001 0.072228323778986164 0 0.29999999999999999 0.072228323778986164 0 0.20000000000000001 0.072228323778986164 0 0.20000000000000001 0.10000000000000001 0 0.29999999999999999 0.10000000000000001 0 0.10000000000000001 0.072228323778986164 0 0.10000000000000001 0.10000000000000001 0 0.20000000000000001 0.10000000000000001 0 0.10000000000000001 0.052147564491031792 0 0.10000000000000001 0.072228323778986164 0 0.20000000000000001 0.072228323778986164 0 0.10000000000000001 0.072228323778986164 0 0.20000000000000001 0.10000000000000001 0 0.20000000000000001 0.072228323778986164 0 0.10000000000000001 0.037627845084982139 0 0.20000000000000001 0.052147564491031792 0 0.20000000000000001 0.037627845084982139 0 0.10000000000000001 0.052147564491031792 0 0.20000000000000001 0.072228323778986164 0 0.20000000000000001 0.052147564491031792 0 0.10000000000000001 0.037627845084982139 0 0.10000000000000001 0.052147564491031792 0 0.20000000000000001 0.052147564491031792 0 0.10000000000000001 0.02712913039350634 0 0.10000000000000001 0.037627845084982139 0 0.20000000000000001 0.037627845084982139 0 0.10000000000000001 0.019537864299142921 0 0.10000000000000001 0.02712913039350634 0 0.20000000000000001 0.02712913039350634 0 0.10000000000000001 0.014048877707311129 0 0.10000000000000001 0.019537864299142921 0 0.20000000000000001 0.019537864299142921 0 0.10000000000000001 0.0072101992457088487 0 0.10000000000000001 0.01007997645382676 0 0.20000000000000001 0.01007997645382676 0 0.10000000000000001 0.01007997645382676 0 0.10000000000000001 0.014048877707311129 0 0.20000000000000001 0.014048877707311129 0 0.10000000000000001 0 0 0.10000000000000001 1.0000000000000001e-05 0 0.20000000000000001 1.0000000000000001e-05 0 0.10000000000000001 1.0000000000000001e-05 0 0.10000000000000001 0.0001221058858762623 0 0.20000000000000001 0.0001221058858762623 0 0.10000000000000001 0.0001221058858762623 0 0.10000000000000001 0.00027714824767246312 0 0.20000000000000001 0.00027714824767246312 0 0.10000000000000001 0.00027714824767246312 0 0.10000000000000001 0.00049157175393484403 0 0.20000000000000001 0.00049157175393484403 0 0.10000000000000001 0.00049157175393484403 0 0.10000000000000001 0.00078811928474293897 0 0.20000000000000001 0.00078811928474293897 0 0.10000000000000001 0.001198244413521618 0 0.10000000000000001 0.001765447234118425 0 0.20000000000000001 0.001765447234118425 0 0.10000000000000001 0.00078811928474293897 0 0.10000000000000001 0.001198244413521618 0 0.20000000000000001 0.001198244413521618 0 0.10000000000000001 0.001765447234118425 0 0.10000000000000001 0.0025498882091243972 0 0.20000000000000001 0.0025498882091243972 0 0.10000000000000001 0.0025498882091243972 0 0.10000000000000001 0.0036347696815094469 0 0.20000000000000001 0.0036347696815094469 0 0.10000000000000001 0.0036347696815094469 0 0.10000000000000001 0.0051351601405289276 0 0.20000000000000001 0.0051351601405289276 0 0.10000000000000001 0.0051351601405289276 0 0.10000000000000001 0.0072101992457088487 0 0.20000000000000001 0.0072101992457088487 0 0.10000000000000001 0.0025498882091243972 0 0.20000000000000001 0.0036347696815094469 0 0.20000000000000001 0.0025498882091243972 0 0.10000000000000001 0.001765447234118425 0 0.20000000000000001 0.0025498882091243972 0 0.20000000000000001 0.001765447234118425 0 0.10000000000000001 0.001198244413521618 0 0.20000000000000001 0.001765447234118425 0 0.20000000000000001 0.001198244413521618 0 0.10000000000000001 0.00049157175393484403 0 0.20000000000000001 0.00078811928474293897 0 0.20000000000000001 0.00049157175393484403 0 0.10000000000000001 0.00078811928474293897 0 0.20000000000000001 0.001198244413521618 0 0.20000000000000001 0.00078811928474293897 0 0.10000000000000001 1.0000000000000001e-05 0 0.20000000000000001 0.0001221058858762623 0 0.20000000000000001 1.0000000000000001e-05 0 0.10000000000000001 0 0 0.20000000000000001 1.0000000000000001e-05 0 0.20000000000000001 0 0 0.10000000000000001 0.0001221058858762623 0 0.20000000000000001 0.00027714824767246312 0 0.20000000000000001 0.0001221058858762623 0 0.10000000000000001 0.00027714824767246312 0 0.20000000000000001 0.00049157175393484403 0 0.20000000000000001 0.00027714824767246312 0 0.10000000000000001 0.0051351601405289276 0 0.20000000000000001 0.0072101992457088487 0 0.20000000000000001 0.0051351601405289276 0 0.10000000000000001 0.0036347696815094469 0 0.20000000000000001 0.0051351601405289276 0 0.20000000000000001 0.0036347696815094469 0 0.10000000000000001 0.01007997645382676 0 0.20000000000000001 0.014048877707311129 0 0.20000000000000001 0.01007997645382676 0 0.10000000000000001 0.0072101992457088487 0 0.20000000000000001 0.01007997645382676 0 0.20000000000000001 0.0072101992457088487 0 0.10000000000000001 0.02712913039350634 0 0.20000000000000001 0.037627845084982139 0 0.20000000000000001 0.02712913039350634 0 0.10000000000000001 0.019537864299142921 0 0.20000000000000001 0.02712913039350634 0 0.20000000000000001 0.019537864299142921 0 0.10000000000000001 0.014048877707311129 0 0.20000000000000001 0.019537864299142921 0 0.20000000000000001 0.014048877707311129 0 0.20000000000000001 0.02712913039350634 0 0.20000000000000001 0.037627845084982139 0 0.29999999999999999 0.037627845084982139 0 0.20000000000000001 0.037627845084982139 0 0.20000000000000001 0.052147564491031792 0 0.29999999999999999 0.052147564491031792 0 0.20000000000000001 0.019537864299142921 0 0.20000000000000001 0.02712913039350634 0 0.29999999999999999 0.02712913039350634 0 0.20000000000000001 0.014048877707311129 0 0.20000000000000001 0.019537864299142921 0 0.29999999999999999 0.019537864299142921 0 0.20000000000000001 0.01007997645382676 0 0.20000000000000001 0.014048877707311129 0 0.29999999999999999 0.014048877707311129 0 0.20000000000000001 0.0072101992457088487 0 
[...]
<PointData Scalars="Ba-133_conc,region_id," Vectors="" Tensors="">
<DataArray type="Float64" Name="Ba-133_conc" format="ascii">
674.76667677135686 611.3169918930023 -3.5487740657958843e-65 7.0882305303464841e-66 -2.5839873811430607e-66 -1.3218918663370983e-75 3.8657290202103658e-76 -1.2223801570866713e-76 -2.0950621947394928e-55 1.1224647563796441e-55 -7.1890058581179774e-56 -1.8304644703664502e-45 1.1094011030697627e-45 3.4678921936915198e-47 1.2876640212119264e-37 -3.4375114617098432e-37 3.0069399746100105e-37 2.6141358083116882e-29 2.9429066047233156e-30 -1.5672975199613501e-29 -1.8989333594968116e-22 3.0653445642185757e-23 4.2914433699803725e-23 8.9031773583680994e-17 -2.7006001929873037e-17 3.446056996281397e-18 2.0248441208988516e-09 -5.1804097741620158e-09 1.0247966815892746e-08 -2.892842902653543e-12 1.4376600470563461e-12 -1.4127052316037153e-12 675.01317303590781 935.36343869209475 907.04147383860789 946.38326755793162 7.5385234644617167 13.402745499858414 6.4171469259522755 0.49030571871457185 -4.0952963381067029 0.19185182124659389 -0.07945838107750719 0.18731889189205528 -0.030046938815934957 0.0059526791031852431 -0.0037264682130214695 0.00013709902612224598 -0.00010447446640108923 4.3345483914484133e-05 4.0892687707803926e-06 1.1159210548132396e-06 -3.8054465948520002e-06 1.1006109366174001e-14 -1.3535159534716474e-15 -1.5534399360859664e-14 -7.0302029269226149e-20 3.4927670121768392e-20 8.8967276302374622e-21 -1.0968073844340707e-10 -4.7422863237244971e-11 3.7922801347155788e-10 2.1227316430040669e-08 1.2956341967867821e-07 -5.6846775514667568e-07 -5.1829773047318278e-07 -7.726991369692442e-06 5.8413243053895225e-05 0.0017481334835943419 -0.000608064394853348 -0.0018090236185570724 -0.047732533208737049 0.0010086044357647101 0.11734230788880895 0.26788989266050284 0.24534979715719729 -3.5133405735991903 935.85397269373379 22.2754269464942 907.47955133194921 675.01436025926796 907.04287478015783 611.5434291358381 7.5176168883169616 -4.9882518384055805 9.0117495921839286 3.5933907116610535e-34 2.2512461995430318e-33 -7.6510866884609908e-33 2.7628244502684559e-26 -3.4185657572335013e-26 5.8622142935932695e-26 -1.5199564878131023e-41 -3.9856101112546899e-42 5.7958518558104716e-41 1.1636785327255989e-51 -1.340682582569323e-50 -6.4471494263197616e-51 -1.1103971131507976e-60 -3.0455385066206061e-61 -1.1895903898578376e-60 -1.1341282895313555e-70 4.4658221307269418e-72 -2.2061852116880398e-71 -2.9752333465402357e-81 3.1371178018169925e-82 -4.4397553814776909e-82 -2.0292781840232136e-92 2.7028000723709171e-93 -2.9367088410675055e-93 -1.5663388383303406e-86 4.7260192596190427e-87 -1.5843098045883898e-87 -4.9621004441897355e-98 1.5497732318154551e-98 -5.7181214578587927e-99 1.9576778870547995e-84 -5.9830020216178909e-85 1.8128299764132599e-85 6.1951410058724154e-96 -1.9620637585144308e-96 6.7618761542467315e-97 1.2257592050814873e-96 -3.9750190612999392e-97 -9.8657414235491981e-98 3.9204961186847005e-85 -1.2598067390401628e-85 -5.0977213096936907e-86 4.9246032867087389e-91 1.6681587219966972e-92 -1.4170227167483841e-91 2.7046167586086314e-69 1.0252297213550148e-69 -1.9297524410580569e-69 7.1750908695285631e-80 1.0691357529898326e-80 -3.2796135030739437e-80 3.4153080693125733e-74 -1.1236798576601451e-74 -5.9067167518577804e-75 8.0740237651657364e-64 -3.1674935585835592e-64 -1.4823702104797895e-64 4.8197864362006015e-54 -5.058622009903442e-54 -9.3809875421827247e-55 1.6362078145062584e-44 8.7229865857109332e-45 -1.0669465469607586e-44 5.4276927934546423e-28 -2.0029502305572685e-28 3.0524381496262194e-29 -1.6374665836793009e-35 2.9757448287769902e-36 3.2106294435902753e-36 611.5274068776373 907.04910029779649 903.4649950932095 916.41314379543792 13.467746346914677 25.665667441455223 5.9825078320444272 -3.5287298256008897 -5.0114920518323398 -3.0505474114716655 0.086725154341319347 0.91552407380395728 0.07080160229865555 0.012197128795461039 -0.065468794768562003 5.0637705078590019e-05 -1.2089595237351195e-05 5.650303499308713e-06 -0.00098270295990183706 -0.00051531078754154895 0.00061468203114500972 -1.879461320126063e-07 3.1866521061734295e-08 2.7004510335987472e-08 3.680315064693578e-11 -8.1111441112667388e-13 -1.6174888181616911e-11 -3.160933970018625e-16 -1.7097676345959073e-16 4.2559725609909703e-16 -8.6842112228715415e-22 7.2971936405523216e-22 -7.1491770412636829e-22 1.2224605305641422e-09 -9.0415709449986891e-10 1.2534037378594974e-09 -1.7295703508620804e-06 5.7482438744016389e-07 7.4327114209402349e-07 6.2669016027652532e-05 -9.7120258875816456e-06 -0.00020246992242029934 0.095214766257378583 -0.12732975896733906 0.57545239409393023 -0.00024105878681575873 0.0039075476976221275 -0.0169571142856711 907.50328148316567 35.060419881990654 904.04528674392907 611.52219381258237 903.46097385570727 542.72858155168547 9.6165847366605064 -6.9853879964382486 21.113705403175128 -3.2301836459109912 1.3500923781942511 -4.1844839106720082 -2.9626949535015928e-19 -3.323910175626757e-19 1.6532190437639869e-18 -3.1560904917535467e-14 7.0329059743084179e-14 -1.975225776436187e-13 -3.977633867832759e-32 2.4503046785017754e-32 1.9596265701229636e-32 4.9984121540184512e-25 -6.28785766278403e-27 -9.6776778701969138e-25 2.2078494185745611e-59 2.9246359894448352e-59 -2.1619751401600433e-59 1.266667416607716e-49 1.1252057171751403e-49 -6.3489509421928244e-49 8.4386568579889769e-41 -3.2919051128846759e-40 4.8166264846377338e-40 4.7448987614752614e-63 -8.3054670745824268e-64 1.9329054348147434e-64 1.6878869136500772e-73 -4.9320761439994768e-74 1.3064137123948876e-74 -3.9064179195099048e-54 -2.5973622813857131e-53 1.4689008017001055e-53 3.3434581032955939e-43 -1.2471472871116015e-43 -3.4716987156075818e-44 -4.9708276275240548e-35 4.5342314766383031e-35 -2.3350875443313769e-35 -1.468194079632604e-27 -7.9346998105988236e-28 1.4809119992514581e-27 1.3037181014344501e-20 -3.6910270445297252e-22 -5.0909635487169678e-21 -5.902687880583328e-15 1.1192179550624246e-15 9.1438742868517469e-16 -1.9638286140466429e-07 2.2333554483755914e-07 -2.7355602038728844e-07 1.7991592662799831e-10 -6.3336385328966135e-11 2.2403961535156705e-11 542.72634141652918 903.46343763047582 887.8719983489118 913.65360907230217 25.480897891511351 37.154878615615431 17.954408627830482 -4.9655713150367022 -5.7986811724091361 -3.4266992180302669 0.80763227155677386 0.98318533630849303 0.35280263054903893 -0.031641109042668446 -0.08997068842212122 -9.5328958317693043e-05 -3.6241450696898307e-05 0.00011228197003197661 0.00011307666510218417 8.7854484288565474e-06 0.00086978985606010121 2.2483160802216916e-39 -5.8478136435018276e-40 -4.6455216453208566e-39 -1.0640650255758563e-49 2.4310420554091605e-48 -7.7779820432984435e-49 1.4435284372758207e-58 3.5947531442068984e-59 1.2190615562089053e-58 -1.552238982827806e-31 -1.4370178658906422e-31 7.2081414387979021e-31 -7.679056250161147e-25 2.6596755919670826e-24 -6.9568181510357786e-24 3.4822392814097098e-18 -3.0329226098923101e-18 3.9683912654554357e-18 -5.7862373531712635e-13 2.2172361655884241e-13 1.865038435388252e-13 6.1018424387907052e-09 1.2350521266770412e-10 -9.5530655296904096e-09 -2.7307477095567024e-06 -2.8011886336073308e-06 1.6654543121736011e-05 -6.5764805871141915e-05 0.00020835457659374912 -0.0013864428670438322 903.95871603994635 47.115891521715334 888.44874118721089 542.73313144097381 887.86730917739555 471.97028622099879 21.433804103160075 -7.7123229295149072 32.381426292391787 -3.9630312856314012 1.4698324364998656 -5.2033089722552628 0.56108522678411632 -0.23717340099159712 0.6622774611365263 -0.013586458889325078 0.016216299452822769 -0.018463069796903358 3.7884348734212764e-79 -3.5143457662168667e-80 3.924575899412915e-80 1.5169658187214239e-68 -7.5409310510610601e-70 4.8081393199500171e-70 2.5532281468378391e-90 -3.1669059832302413e-91 2.9836973501294397e-91 -1.5928207318269171e-83 5.1225958861993703e-84 1.981758797684193e-84 -4.9735744686750485e-95 1.6049481552802127e-95 3.8195431845779308e-96 -2.0063105332010949e-89 -5.696436391608036e-91 5.5448726467074206e-90 -2.9369436307867123e-78 -4.0253733219664679e-79 1.3154081423469667e-78 -1.1012496985411385e-67 -3.8938688646552492e-68 8.2948548581115595e-68 -1.371858226414583e-72 4.6097459996740088e-73 2.3059114501937259e-73 -2.5535395154181329e-62 1.4319256758148892e-62 4.6326161226568718e-63 -1.3836141766600552e-43 -6.7830769732347168e-43 3.8333940996420986e-43 -3.2492662468452598e-52 2.2185540263632969e-52 6.001193396462178e-53 0.010079568519692685 0.0007477011943373029 0.0012228013692847746 -0.00077873630695514677 3.4939258228253544e-05 0.0002266740992995106 0.41577835223979415 -0.080541816212503517 -0.096859628160223213 -4.4828585732085875 0.92272126397367704 1.0594203095941228 471.95998033536921 887.87273424869113 864.14833333926026 898.68149145774044 36.865139477289695 49.522794490770956 29.370661684135452 -5.8688102996749745 -6.537694992969393 -1.9629690383304443e-10 -1.3742582201557378e-10 2.9615266322719363e-10 1.9224117284739554e-06 1.3653419843885714e-07 -1.0947132999181021e-06 -6.2334439977437125e-15 5.8468298570013421e-15 -5.0410893634217774e-15 4.9446645572991676e-20 -1.7279124228347689e-20 1.6534911746436875e-21 4.9662181012198998e-34 1.7786839189972151e-35 -1.784410914376997e-34 -1.9423020627601819e-26 3.4887569642771031e-27 3.4471521847218722e-27 2.7410953774249157e-39 1.0772148632009126e-38 -2.9331105324838713e-38 -7.6124174982263191e-48 7.106598233669205e-49 2.3943201560000952e-47 -7.1202369180940732e-58 -1.511559062763659e-57 7.2078375168184603e-58 8.1040701907627881e-31 -1.1606805883512615e-30 1.5773482762823677e-30 -1.4269079368151745e-23 7.533155401655847e-24 1.5536946186484576e-24 1.4693561806576973e-17 -1.2965607762643334e-18 -1.8162617439452305e-17 -8.9535144636165531e-13 -5.7574555428323229e-13 3.3667263051394258e-12 -7.1859439269690504e-10 1.2311858913795867e-08 -4.2370062620354127e-08 1.0140048664532984e-05 -1.4150953432475582e-05 3.5873773179408037e-05 -0.0011399725290146387 0.0006118693170613427 -0.0017306553532309928 888.40647194356245 59.8745368860667 864.71700616564328 471.95776507735542 864.14773039597355 399.24201819022863 32.669734786085741 -8.2937818734622901 44.590645857813975 -4.9291202965667233 1.4990832577561648 -6.0350834443177561 -0.01713541397121893 0.020322953402566932 -0.027067196663855809 0.64082617390432739 -0.2532271966371753 0.78714490253153924 -3.8944648835499566e-72 1.1479992843066574e-72 6.3023592538499024e-74 -9.2382358686446482e-62 1.8810369195469142e-62 3.31984524511166e-63 2.0876645699845948e-52 9.7280099285807276e-52 -2.8897196178845057e-52 -7.3718961574572125e-42 7.8465078312298465e-43 1.5631023441099319e-42 -2.3061866501109425e-26 1.7420342412156112e-26 -8.4565814344118754e-27 1.8915324434650099e-33 -6.2682872097605743e-34 -1.096619055761553e-34 -2.8981424819701439e-20 -3.4791212415169087e-20 5.1515342305857973e-20 3.4542176509099384e-14 4.0288409743220325e-15 -1.9775295801403854e-14 -1.5759070662638371e-09 7.4886612803058819e-11 5.9615545808992558e-10 4.7906938687092994e-06 -6.6638376887333266e-07 -1.4553207041735045e-06 -0.0010716358436337039 0.0001872209584027211 0.00023222993729988907 0.0071006637547700114 0.00049324057629766469 0.0025998517737232337 0.55144626648511619 -0.094240767715484106 -0.11123502152891596 399.2377116431548 864.15256751226161 832.76755240490297 875.42339783046555 49.099992490665663 62.066642896611953 41.800377059257379 -6.6429009258540219 -7.2398650735228447 -5.4013805846777592 1.0249608080170944 1.1445001799977077 -2.4189014075243997e-57 -2.6266064101109544e-57 -1.2788818268137768e-57 -1.0611183652643909e-47 -4.8491934302037564e-47 6.9036107477768178e-47 -3.2924582591125136e-38 3.7313419113381171e-38 -9.3999144488583196e-39 4.0432749329931648e-30 -1.0546780079467299e-30 -4.0896210348000798e-30 -2.4789673142241627e-23 -9.5661608196055318e-24 6.7714461252301238e-23 3.6995920943423362e-18 2.2656046441337409e-17 -7.6866057037325547e-17 1.6586148480059344e-12 -2.9367757724515021e-12 7.2784584309099962e-12 -3.0913794756898327e-08 2.8413349988547833e-08 -6.0904260990033818e-08 3.0703021288481185e-05 -2.0588829585279937e-05 4.1560673377967761e-05 -0.001690777897966692 0.00060957547816257638 -0.0015312330120457365 -0.024772084372484422 0.025217939505502489 -0.038751280386402048 0.77366942525439653 -0.26883464902998327 0.90149886810445756 -5.7507679040120783 1.4980200217186757 -6.8601733381626779 864.71825193008749 72.638518139037302 833.31461099669093 399.2401938862784 832.76792884655526 326.54213022466331 44.827456151517666 -8.780100154239415 57.066383274071413 -8.4241327132205593e-78 7.4171401663188987e-80 9.0338723120078178e-79 -3.5861583368131379e-67 -6.1012906567389464e-69 1.3622791626306375e-67 -5.6089397218719467e-89 3.7810490882457468e-90 1.8351785862365214e-90 -1.3566242377593937e-94 4.3998886253693293e-95 -6.2203508698675123e-96 -4.324587565940413e-83 1.3634340662540186e-83 -6.8939645224022548e-85 611.23259779887212 542.43849388270746 542.44176124709077 471.66863697402835 471.62633552157268 398.91153313712937 398.90264505904474 326.20261817461079 326.17472641294574 254.16361288957091 254.15331651415838 184.34093719699231 184.32484498565907 117.56942265740662 117.56363666297197 55.006212367661561 1.4376593837561169e-88 3.0155627181502459e-90 -3.7084552384006476e-89 1.1487159259513519e-82 -3.6432023183858135e-83 -1.3719813039910067e-83 3.5733783229239288e-94 -1.1339523906402046e-94 -2.6552745581292931e-95 7.9589642339193854e-62 -1.4318861018690518e-61 -1.0073688445860369e-62 9.4670655348137524e-72 -3.2163423909705766e-72 -1.5902612137020553e-72 54.582044817014669 -7.3821190070496359 -7.8465909818715058 844.32351611387799 61.512340951178331 74.616806409406507 326.53461877606895 832.7744902650976 793.77000732822614 -6.337400712802328 1.1070940611392681 1.2131634257062935 0.67525650015275918 -0.11176873015099548 -0.12497444936577587 0.00082256768753667187 0.0017589682076403069 0.0041943949096411711 -0.0011174465630738374 0.00022657827174263736 0.00022467274169399215 5.8538147215638826e-06 -1.2021368464958064e-06 -1.5422573096268953e-06 -2.4199096089625003e-09 4.3455596363200086e-10 6.956876372451357e-10 -2.9684377980279113e-19 9.2219017755912212e-21 1.0930053235473645e-19 8.934014383523287e-14 -1.1436516609268646e-14 -2.8293974164286606e-14 7.307764194936734e-26 1.4148266520777149e-26 -3.8648496545065462e-26 -1.188340209579253e-34 -1.390472505664789e-33 1.0213129062643033e-33 -1.3255379005898961e-41 7.9195940206304152e-42 -2.9214977880289323e-43 5.9756043196220151e-51 -1.1378236449036277e-51 -1.1429631869862558e-51 -6.5645405990705514 1.4596764411449727 -7.6135740714137894 57.245511924363697 -9.1140533028820059 69.641518229205488 833.36331261868861 85.224614895428985 794.28452451055728 326.53237016330172 793.77380565626117 254.51689568739437 -0.036555802747317005 0.030481076484648473 -0.050354612462627957 0.88672653790073097 -0.27751661055881055 1.0142561933936709 -0.001573572856111068 0.00048046011576529941 -0.00132433393745583 -5.032352555578434e-08 3.6562741158986564e-08 -6.9721852371560783e-08 3.7791254250135361e-05 -2.3337001448712861e-05 4.5151555552261016e-05 -4.7444399828173045e-17 5.522944247247209e-17 -1.1653801447033937e-16 5.4445432529168448e-12 -4.6679676605893649e-12 9.1286222939151847e-12 2.9690208970792624e-30 5.0489959986480107e-30 -1.8071582892125292e-29 2.0799055014643625e-23 -6.0120002325713715e-23 1.4831043948090166e-22 7.8997809335595539e-47 -1.1007412843479324e-46 -6.2976452895269501e-47 -9.3359072878658376e-38 -2.7585868072732355e-39 1.7686831857588296e-37 2.9858946780228429e-57 1.5260995387826796e-56 -3.8018622353856582e-57 7.1728322810185337e-67 2.9830429892230327e-67 -5.4834082994758596e-67 2.1030581064983258e-77 2.4658979287166825e-78 -9.2812720070694596e-78 0.80655050422706287 -0.12737410061595975 -0.13746136047644453 -7.2298732277582127 1.1750349646687523 1.2589324805672635 67.545378924135122 -8.0270366404987747 -8.3404036868247999 805.41749674324547 73.928953868393435 86.90488759594156 254.51273527908853 793.7804053734028 747.76515808564739 -0.001194774252571454 0.00023899464976221338 0.00023487806066424115 -0.005292855529754479 0.0032490190740750136 0.0058651792354328111 6.7769073273238193e-06 -1.444899240401423e-06 -1.7886775985223936e-06 -2.9142322875469928e-09 6.0806421591342415e-10 8.1050418694799036e-10 1.1780925294526025e-13 -2.3425207941771759e-14 -3.2606881679609557e-14 -4.91834473391998e-19 8.5008712629215908e-20 1.3388534555740198e-19 2.0867688774931269e-25 -2.4193092999471036e-26 -5.8224468565710483e-26 -7.9636393311973748e-33 -1.1798058883961703e-34 2.4839666457021205e-33 7.5735090057523141e-51 -8.2523316433267497e-51 2.9650975173016687e-52 1.566624665660934e-41 1.0002222081127243e-41 -8.1115279315364131e-42 -7.962568503141466e-30 1.4084195079565973e-29 -2.7782817523423805e-29 9.6913539210871027e-23 -1.0272413835488823e-22 1.913629221666232e-22 7.5031802590058987e-12 -5.8694227050762501e-12 1.1049206546248422e-11 -8.7599563055917048e-17 7.6012428765820786e-17 -1.4133754434091575e-16 -6.1827247769753881e-08 4.4061464247841135e-08 -8.3941201214211441e-08 4.2919137766601431e-05 -2.645779182893797e-05 5.1438137718831074e-05 69.755196065263348 -9.2819109232651815 82.048748458525168 794.38371091328293 97.35763586839208 748.23448832521115 254.51199827627178 747.77100873906591 184.69576106713606 -7.3119926658688392 1.3776885442453761 -8.2735149278303588 0.99791457661157712 -0.27896170301309808 1.1161083684760773 -0.047995036908179967 0.035753617171735863 -0.063090376902124712 -0.0014177542760531628 0.00033353641648721863 -0.0010852855844189426 6.9773751231338948e-58 3.979372907129385e-56 1.1604264883756408e-56 -2.2257606028031802e-38 -1.6511529961063642e-37 3.967526195975696e-37 2.0128197294459948e-46 5.0519657666880025e-47 -4.2937775265589974e-46 2.2661225645298828e-66 -5.134506120682742e-68 -1.5973919868567578e-66 5.0553885169375259e-77 1.4868206525286202e-78 -1.1360540297998694e-77 1.9023680715805292e-61 -1.1137604372995507e-61 2.9723848428489235e-63 2.4358835256202271e-71 -6.5827034498660456e-72 -1.694593045342944e-72 2.5884425852213727e-82 -8.2818032104790275e-83 -6.2217769349195207e-84 8.051778150158357e-94 -2.6413279431059567e-94 9.8987940310756393e-96 3.3324951106116893e-88 -1.2460946507237379e-89 -3.677450053044334e-89 -3.4683098454338246e-94 9.5336075188415935e-95 2.2302534502405226e-95 -1.1718614996774917e-82 3.0526881276247933e-83 1.1282916672338302e-83 -1.2062703708148175e-61 6.1438842425708835e-61 -8.0060760389181207e-62 -3.5519613993099936e-72 2.0009236672291385e-72 7.3389697954396129e-73 0.93701393048147785 -0.14180772831315908 -0.15023913723017346 -8.0547940601014236 1.2214124261600685 1.2959976180772201 80.418401735082057 -8.5602948907301659 -8.7596184129052439 759.30446448749649 86.08211743927896 98.761343272704394 184.69086301962184 747.77862636202644 695.84204138486461 -0.0012729619764953299 0.0002536566554684407 0.00024133277345811865 -0.012907143465038512 0.004898627345855105 0.0077837653362944131 8.0707946583398167e-06 -1.7144584781252774e-06 -2.120532170453935e-06 -3.6223989846282412e-09 7.5153594898871041e-10 1.0114418976944197e-09 1.477468776312003e-13 -3.0436728869306261e-14 -4.1128060697721507e-14 -6.2377812267304069e-19 1.2841739860068635e-19 1.6342232581421637e-19 2.8852502197231215e-25 -5.7880565102070074e-26 -6.8327229044291471e-26 -1.4441447057396203e-32 2.4814328900743596e-33 3.0727150887099531e-33 -1.5354564178760334e-50 -7.5382801810029858e-51 4.4781204736391085e-51 6.7046019970547907e-41 -5.0628367010658001e-42 -1.373332572564756e-41 54.987639636104056 -0.069600148796538808 -0.001196504473585485 0.00013773774790974488 -0.00075135458352948881 -0.060484649498432422 0.04104147821447722 -0.077222144906208531 1.0990944220468246 -0.27609940511429021 1.2228323096963247 -7.9705392185713508 1.2624510409671168 -8.8908604833739453 82.087693215229123 -9.3099859953958379 94.110789758249169 184.68742699314578 695.85108078968676 117.9248919450234 748.38648985790246 108.87325623673927 696.25584899066951 -7.56544491