<?xml version="1.0"?>
<VTKFile type="UnstructuredGrid" version="0.1" byte_order="LittleEndian">
<UnstructuredGrid>
<Piece NumberOfPoints="1160" NumberOfCells="390">
<Points>
<DataArray type="Float64" NumberOfComponents="3" format="ascii">
0 0.037627845084982139 0 0 0.02712913039350634 0 0.10000000000000001 0.037627845084982139 0 0 0.014048877707311129 0 0 0.01007997645382676 0 0.10000000000000001 0.014048877707311129 0 0 0.01007997645382676 0 0 0.0072101992457088487 0 0.10000000000000001 0.01007997645382676 0 0 0.00027714824767246312 0 0 0.0001221058858762623 0 0.10000000000000001 0.00027714824767246312 0 0 0.019537864299142921 0 0 0.014048877707311129 0 0.10000000000000001 0.019537864299142921 0 0 0.0072101992457088487 0 0 0.0051351601405289276 0 0.10000000000000001 0.0072101992457088487 0 0 0.00049157175393484403 0 0 0.00027714824767246312 0 0.10000000000000001 0.00049157175393484403 0 0 0.02712913039350634 0 0 0.019537864299142921 0 0.10000000000000001 0.02712913039350634 0 0 0 0 0.10000000000000001 0 0 0 0.0051351601405289276 0 0 0.0036347696815094469 0 0.10000000000000001 0.0051351601405289276 0 0 1.0000000000000001e-05 0 0 0.0001221058858762623 0 0.10000000000000001 0.0001221058858762623 0 0 0.0036347696815094469 0 0 0.0025498882091243972 0 0.10000000000000001 0.0036347696815094469 0 0 0.052147564491031792 0 0 0.037627845084982139 0 0.10000000000000001 0.052147564491031792 0 0 0.00078811928474293897 0 0 0.00049157175393484403 0 0.10000000000000001 0.00078811928474293897 0 0 0.001198244413521618 0 0 0.00078811928474293897 0 0.10000000000000001 0.001198244413521618 0 0 0.001198244413521618 0 0 0.001765447234118425 0 0.10000000000000001 0.001765447234118425 0 0 1.0000000000000001e-05 0 0 0 0 0.10000000000000001 1.0000000000000001e-05 0 0 0.0025498882091243972 0 0 0.001765447234118425 0 0.10000000000000001 0.0025498882091243972 0 0 0.052147564491031792 0 0 0.072228323778986164 0 0.10000000000000001 0.072228323778986164 0 0 0.10000000000000001 0 0 0.072228323778986164 0 0.10000000000000001 0.10000000000000001 0 0 0.072228323778986164 0 0.10000000000000001 0.10000000000000001 0 0.10000000000000001 0.072228323778986164 0 0 0.014048877707311129 0 0.10000000000000001 0.014048877707311129 0 0.10000000000000001 0.019537864299142921 0 0 0.019537864299142921 0 0.10000000000000001 0.019537864299142921 0 0.10000000000000001 0.02712913039350634 0 0 0.0051351601405289276 0 0.10000000000000001 0.0072101992457088487 0 0.10000000000000001 0.0051351601405289276 0 0 0.001198244413521618 0 0.10000000000000001 0.001198244413521618 0 0.10000000000000001 0.001765447234118425 0 0 0.001765447234118425 0 0.10000000000000001 0.0025498882091243972 0 0.10000000000000001 0.001765447234118425 0 0 0.00027714824767246312 0 0.10000000000000001 0.00027714824767246312 0 0.10000000000000001 0.00049157175393484403 0 0 0.0036347696815094469 0 0.10000000000000001 0.0036347696815094469 0 0.10000000000000001 0.0051351601405289276 0 0 0.01007997645382676 0 0.10000000000000001 0.014048877707311129 0 0.10000000000000001 0.01007997645382676 0 0 1.0000000000000001e-05 0 0.10000000000000001 0.0001221058858762623 0 0.10000000000000001 1.0000000000000001e-05 0 0 0.052147564491031792 0 0.10000000000000001 0.072228323778986164 0 0.10000000000000001 0.052147564491031792 0 0 0.0001221058858762623 0 0.10000000000000001 0.00027714824767246312 0 0.10000000000000001 0.0001221058858762623 0 0 0.02712913039350634 0 0.10000000000000001 0.02712913039350634 0 0.10000000000000001 0.037627845084982139 0 0 0.00078811928474293897 0 0.10000000000000001 0.00078811928474293897 0 0.10000000000000001 0.001198244413521618 0 0 0.0025498882091243972 0 0.10000000000000001 0.0025498882091243972 0 0.10000000000000001 0.0036347696815094469 0 0 0 0 0.10000000000000001 1.0000000000000001e-05 0 0.10000000000000001 0 0 0 0.0072101992457088487 0 0.10000000000000001 0.01007997645382676 0 0.10000000000000001 0.0072101992457088487 0 0 0.037627845084982139 0 0.10000000000000001 0.052147564491031792 0 0.10000000000000001 0.037627845084982139 0 0 0.00049157175393484403 0 0.10000000000000001 0.00049157175393484403 0 0.10000000000000001 0.00078811928474293897 0 0.10000000000000001 0.00078811928474293897 0 0.10000000000000001 0.001198244413521618 0 0.20000000000000001 0.001198244413521618 0 0.10000000000000001 0.00078811928474293897 0 0.20000000000000001 0.001198244413521618 0 0.20000000000000001 0.00078811928474293897 0 0.10000000000000001 0.0036347696815094469 0 0.20000000000000001 0.0051351601405289276 0 0.20000000000000001 0.0036347696815094469 0 0.10000000000000001 0.0072101992457088487 0 0.10000000000000001 0.0051351601405289276 0 0.20000000000000001 0.0072101992457088487 0 0.10000000000000001 0.0051351601405289276 0 0.20000000000000001 0.0072101992457088487 0 0.20000000000000001 0.0051351601405289276 0 0.10000000000000001 0.01007997645382676 0 0.10000000000000001 0.0072101992457088487 0 0.20000000000000001 0.01007997645382676 0 0.10000000000000001 0.0072101992457088487 0 0.20000000000000001 0.0072101992457088487 0 0.20000000000000001 0.01007997645382676 0 0.10000000000000001 0.00027714824767246312 0 0.10000000000000001 0.00049157175393484403 0 0.20000000000000001 0.00049157175393484403 0 0.10000000000000001 0.00027714824767246312 0 0.20000000000000001 0.00027714824767246312 0 0.20000000000000001 0.00049157175393484403 0 0.10000000000000001 0.0036347696815094469 0 0.10000000000000001 0.0051351601405289276 0 0.20000000000000001 0.0051351601405289276 0 0.10000000000000001 0.001198244413521618 0 0.10000000000000001 0.001765447234118425 0 0.20000000000000001 0.001765447234118425 0 0.10000000000000001 0.0025498882091243972 0 0.20000000000000001 0.0036347696815094469 0 0.20000000000000001 0.0025498882091243972 0 0.10000000000000001 0.014048877707311129 0 0.10000000000000001 0.01007997645382676 0 0.20000000000000001 0.014048877707311129 0 0.10000000000000001 0.0025498882091243972 0 0.10000000000000001 0.0036347696815094469 0 0.20000000000000001 0.0036347696815094469 0 0.10000000000000001 0.001765447234118425 0 0.20000000000000001 0.001765447234118425 0 0.20000000000000001 0.0025498882091243972 0 0.10000000000000001 0.001198244413521618 0 0.20000000000000001 0.001198244413521618 0 0.20000000000000001 0.001765447234118425 0 0.10000000000000001 0.00049157175393484403 0 0.10000000000000001 0.00078811928474293897 0 0.20000000000000001 0.00078811928474293897 0 0.10000000000000001 0.00049157175393484403 0 0.20000000000000001 0.00078811928474293897 0 0.20000000000000001 0.00049157175393484403 0 0.10000000000000001 0.0025498882091243972 0 0.10000000000000001 0.001765447234118425 0 0.20000000000000001 0.0025498882091243972 0 0.10000000000000001 0.02712913039350634 0 0.10000000000000001 0.037627845084982139 0 0.20000000000000001 0.037627845084982139 0 0.10000000000000001 0 0 0.20000000000000001 0 0 0.10000000000000001 0.052147564491031792 0 0.20000000000000001 0.072228323778986164 0 0.20000000000000001 0.052147564491031792 0 0.10000000000000001 1.0000000000000001e-05 0 0.10000000000000001 0 0 0.20000000000000001 1.0000000000000001e-05 0 0.10000000000000001 0 0 0.20000000000000001 1.0000000000000001e-05 0 0.20000000000000001 0 0 0.10000000000000001 0.037627845084982139 0 0.20000000000000001 0.037627845084982139 0 0.20000000000000001 0.052147564491031792 0 0.10000000000000001 0.052147564491031792 0 0.10000000000000001 0.037627845084982139 0 0.20000000000000001 0.052147564491031792 0 0.10000000000000001 0.02712913039350634 0 0.20000000000000001 0.037627845084982139 0 0.20000000000000001 0.02712913039350634 0 0.10000000000000001 0.0001221058858762623 0 0.10000000000000001 1.0000000000000001e-05 0 0.20000000000000001 0.0001221058858762623 0 0.10000000000000001 1.0000000000000001e-05 0 0.20000000000000001 0.0001221058858762623 0 0.20000000000000001 1.0000000000000001e-05 0 0.10000000000000001 0.019537864299142921 0 0.20000000000000001 0.02712913039350634 0 0.20000000000000001 0.019537864299142921 0 0.10000000000000001 0.019537864299142921 0 0.10000000000000001 0.02712913039350634 0 0.20000000000000001 0.02712913039350634 0 0.10000000000000001 0.014048877707311129 0 0.20000000000000001 0.019537864299142921 0 0.20000000000000001 0.014048877707311129 0 0.10000000000000001 0.00027714824767246312 0 0.10000000000000001 0.0001221058858762623 0 0.20000000000000001 0.00027714824767246312 0 0.10000000000000001 0.01007997645382676 0 0.20000000000000001 0.014048877707311129 0 0.20000000000000001 0.01007997645382676 0 0.10000000000000001 0.0001221058858762623 0 0.20000000000000001 0.0001221058858762623 0 0.20000000000000001 0.00027714824767246312 0 0.10000000000000001 0.014048877707311129 0 0.10000000000000001 0.019537864299142921 0 0.20000000000000001 0.019537864299142921 0 0.10000000000000001 0.072228323778986164 0 0.20000000000000001 0.10000000000000001 0 0.20000000000000001 0.072228323778986164 0 0.10000000000000001 0.10000000000000001 0 0.10000000000000001 0.072228323778986164 0 0.20000000000000001 0.10000000000000001 0 0.10000000000000001 0.072228323778986164 0 0.10000000000000001 0.052147564491031792 0 0.20000000000000001 0.072228323778986164 0 0.20000000000000001 0.10000000000000001 0 0.20000000000000001 0.072228323778986164 0 0.29999999999999999 0.10000000000000001 0 0.20000000000000001 0.072228323778986164 0 0.20000000000000001 0.052147564491031792 0 0.29999999999999999 0.072228323778986164 0 0.20000000000000001 0.001198244413521618 0 0.20000000000000001 0.00078811928474293897 0 0.29999999999999999 0.001198244413521618 0 0.20000000000000001 0.0001221058858762623 0 0.20000000000000001 0.00027714824767246312 0 0.29999999999999999 0.00027714824767246312 0 0.20000000000000001 0.001198244413521618 0 0.20000000000000001 0.001765447234118425 0 0.29999999999999999 0.001765447234118425 0 0.20000000000000001 1.0000000000000001e-05 0 0.20000000000000001 0 0 0.29999999999999999 1.0000000000000001e-05 0 0.20000000000000001 0.0072101992457088487 0 0.20000000000000001 0.01007997645382676 0 0.29999999999999999 0.01007997645382676 0 0
[...]
<PointData Scalars="Ba-133_conc,region_id," Vectors="" Tensors="">
<DataArray type="Float64" Name="Ba-133_conc" format="ascii">
2.2133238393483587e-75 -1.1438147880965915e-74 -9.2971129435605572e-76 -2.9232063122898807e-45 8.1967473999817473e-46 2.6701066027044518e-45 7.2391069358865154e-38 8.7392000461360649e-37 -4.8606128357541513e-37 -0.25670086485945925 -1.3012409204328794 1.1570554945883074 3.0169317329960232e-54 -4.8679036971478e-54 4.5475789891230349e-56 4.4243889959458599e-30 -2.507019633879863e-29 5.1596654463221442e-30 0.017157309761993703 -0.043799202339213937 -0.024242082507567 9.5561613522059776e-65 -1.8563874624482996e-64 -6.698064730031671e-65 1798.2204780978871 2530.8446388688817 -1.8107349892486909e-23 5.6201440912601717e-23 4.1981911971707792e-24 95.565150124817364 -1.8913361197952621 -28.610699617612458 5.8550227994167309e-18 -1.0412802245229417e-17 -6.5150378465987959e-18 4.8298441774699284e-86 -1.6585174254321086e-85 -1.6726911057605376e-86 -0.0002699299563895366 0.0013878686362141749 0.00011884043078114384 8.1826086451750874e-07 -5.717150361525522e-06 1.2694051761996554e-06 3.6946090203477166e-09 1.5975545747229181e-10 -2.4095920647694872e-09 111.00607789218176 1796.2278574860172 192.5463261249611 -1.7474004285263007e-13 -8.1715558989749948e-14 4.0025206709254328e-13 -8.1248783172505762e-97 2.4470700807543686e-97 -8.7267557728405397e-98 3.4838700455091062e-109 -1.1165511932357611e-108 -1.3387390889722003e-109 -6.8977886230198507e-103 9.4734560347087352e-104 -1.0722776530990942e-103 -7.1650317347883348e-50 2.8073894710725542e-49 -2.2167383623051595e-50 2.0692801107637931e-60 -1.1656129113294771e-59 -2.0521353052605299e-59 -2.0163623399681799e-26 9.342793487571702e-27 5.3812778833564075e-27 7.0641765745775041e-08 1.1314057428730868e-07 -5.5549399881142621e-08 -7.19524800231036e-12 2.1095470448494019e-11 -7.378605710167486e-11 -0.06951521962445549 0.60272503031161151 -0.052550240041757706 1.6818412670459994e-20 -2.7029439355639515e-20 -1.1684862606098003e-21 4.1016835025219418e-42 3.7599164293036467e-41 -1.2289864821569664e-40 110.38018498373908 -42.334702827383317 191.70204341894885 -2.3882685913813252e-91 2.6865666254186803e-92 -3.9675293406443661e-92 -1.8487325429150852 1.9712343221286652 -21.842923303985682 -5.8778989605726426e-70 -6.7426272939682394e-70 -1.4742206104940781e-70 -4.2254758656553763e-05 1.0342182448742629e-05 1.6975591832732056e-05 -1.0690699440880143e-15 4.5233301781254054e-15 -7.3258013664675921e-16 1796.2500013377946 192.53039191665013 2528.6105651083485 1.8509677106481865e-33 -2.1321118922594532e-33 3.4299691489493297e-33 -2.2647353710723406e-80 1.1789204691105785e-81 -5.0645055611150279e-81 0.0044238429030981109 -0.0071565355403305324 -8.5534204340536108e-05 -1.0383452840420254e-05 9.9203521753947374e-06 -1.2415547391871784e-05 -7.791431011797622e-05 -7.7166772508780821e-05 0.00054603415014058728 -4.886509922148541e-20 1.2041864050402798e-19 -3.5302688026633756e-19 1.0218564691919579e-28 -1.2750812657134126e-28 -9.7662122342926335e-29 -9.6950007884374503e-26 -9.8038264295844377e-26 5.0197896358362999e-25 -6.5716731256546769e-36 1.8020073507337143e-35 8.9269019562592335e-37 3.3623841731793036e-32 -6.3255886193720977e-32 -1.0032554338681273e-33 0.36421912549016977 0.0076909494002972692 -0.16348152000491467 0.5152230724441007 1.5211567638424841 -0.41654128822525566 -2.0089987130867954e-22 -1.2649549049942954e-22 2.9858569770351914e-22 3.7566432883244637e-08 -1.1190641096012386e-08 4.7829401442938547e-09 1.5704075941860671e-14 -1.252220159364215e-14 1.8670368603192593e-14 2.6221045626406328e-44 -1.4687693663844167e-43 2.9630344810930618e-44 1.5860835036137381e-16 -1.6676712673090829e-18 -7.7252235783454474e-17 -2.9931783292488713e-10 9.530922399104817e-11 1.1141662821018321e-10 5.6305640013399678e-07 -8.3608982157402169e-07 9.7941953296631477e-09 -0.0019937796056906359 -0.00097541991749585625 0.003313858463829969 -0.002910018313572813 0.011848341880263151 -0.057305322073706234 1.3482446836336076e-12 -7.8381385163652824e-12 1.3438102236771771e-12 2.7164526262057562e-73 -1.0698734224884443e-73 -5.0453813955438563e-74 2531.6447526604961 3503.7849172723472 5.9794522606137116e-90 9.0258897272818404e-91 -2.7616746066120208e-90 192.52354161997772 2528.7105525935713 287.2931507777501 2528.8405275617183 287.25923313828127 3500.310063030242 5.6342036068619443e-79 -4.0622160176585463e-79 2.1504373691621225e-79 -1.4719116801854951e-84 4.4696503919221263e-84 -7.813074661253167e-85 1.2208367921252901e-68 1.619495113393139e-68 -1.2265812471547122e-68 -27.430134631119071 175.21059475835946 -42.537203053803182 191.81831275239509 -62.146629755234706 285.89374992113881 2.0153866263990211e-58 1.7492427770689615e-58 -1.0126623658387429e-57 4.3986848143894839e-63 -4.6922208510739257e-63 -8.8128283942759328e-64 4.045345081749809e-49 -1.6319374906504718e-48 2.4605585307093381e-48 0.62522258130957076 -18.354676722617089 2.663146824837554 -6.7412950271781641e-40 4.2591432636642406e-40 3.0277071238950985e-40 -21.835985920226587 -32.923745586637942 5.0006159125790886 4.4280273158131008e-53 2.4884899389813015e-53 -2.9492162790498189e-53 1.7309211827717791e-101 6.0948569402798486e-103 -5.0408337684331918e-102 -9.2408595791634721e-108 2.8484689365390112e-107 -2.3362272339031186e-108 -6.7812560425301743e-96 2.1091796842189618e-95 -2.7791536557037016e-96 -4.8974905274932016e-107 1.5439203344452518e-106 1.5015431597071554e-107 -3.4726033065474986e-95 1.1324957710642295e-94 8.8339313510963444e-96 8.8663453195547684e-06 9.7459143550308552e-05 -6.046150133526386e-05 -27.62927887488874 2.249006223878752 3.8058014079454479 -3.3253516235778105e-08 -3.1946240898186211e-08 7.5587551649054283e-08 287.30516420926142 3500.2097353883823 422.99622867785666 -4.0201214939272275e-35 -2.895981084022143e-35 4.8829522832970424e-35 0.00074650455987055155 -0.02325434330145365 0.0072053046250211738 2.382024262812178e-83 -7.0148273520412882e-84 1.4349160060557583e-84 -3.3642695715572339e-52 9.4421796154451047e-52 -1.07904817638142e-52 -1.1531982753939576e-11 9.7544164772423052e-12 -9.5643610206606348e-12 0.97871192410162777 -0.11379094240012479 -0.25252356663117226 -3.1947025124539887e-73 1.7130709204472696e-72 4.5898330953593872e-74 6.9003079800845029e-22 -4.0994767517404459e-21 7.8925580035648444e-22 1.9020770386751348e-31 1.7106790290766599e-27 -7.4335608299888939e-28 -2.5947334086278195e-62 -2.1065427043647512e-63 1.3384750159960313e-62 -2.7396194431829452e-16 8.6040896294050151e-16 4.9046647261278798e-17 4.197504179831841e-43 -5.087387066389351e-43 -1.9859077472937302e-43 -40.666251324138813 262.25478627191671 -62.500713025294523 1.1271116020853196e-47 -3.5533960444879799e-48 -2.1973337295509309e-47 -2.9255254819872334e-39 1.2310189178549155e-38 -2.2472286383558152e-39 0.00033981919277991941 0.0013175343858049793 -0.00047603483950042113 3.3862457747788919e-89 2.3124788303228749e-90 -2.6209173265622174e-90 -9.9745370135395487e-59 -1.6287290338244306e-57 3.9479991536919221e-57 -9.7548909105485846e-19 4.3681301127644999e-19 9.4724408437816229e-20 2.5362230437778827e-08 -4.7154949018099558e-06 1.241277574570255e-06 8.4399419743030254e-14 -9.9652639292952302e-14 -6.230344055143296e-15 -3.435616045009238e-32 1.7350443708155431e-31 -4.8596798146050547e-31 3.3826393426806489e-78 -4.3649376267846128e-80 -7.6904663845775086e-80 -5.654197380713863e-10 -3.3104098471362094e-10 2.2049836581471892e-09 9.7660430062732034e-25 -9.5008103993539171e-25 1.4463895291392748e-24 8.5034862760869448e-68 6.3743453907906362e-68 2.6093097966429592e-68 286.24460950753758 -90.485642173547987 421.0579676812917 1.4518033119064722 2.2746201133365984 -0.67150625908784645 3500.1386693587783 4681.7952768551304 423.01676062260975 -0.049944364761474236 -0.092653306807334856 0.030063582823967944 -32.604854143470604 7.2484702371068579 -48.791276632853226 3503.3297838750686 4685.9131164807486 9.7898560855249066e-12 6.0572032150113249e-11 -4.2627031565079683e-11 -3.0550947549913032e-61 1.9704042940818987e-61 6.0501423317254121e-62 -1.2128859946808112e-56 2.600334459680249e-57 3.7123967869077867e-56 9.8301254433988138e-35 -6.3693789669284554e-34 1.3142400939507458e-34 -8.0846603365780182e-72 4.7496394276404918e-72 1.5715498411020144e-72 9.8178864015076889e-10 -1.9668112877271297e-09 5.430723113519929e-09 421.47101187077413 612.69738092816556 -129.52674164087497 -3.6802367941172718e-67 -8.3372628314091366e-67 4.1708777277237539e-67 -0.038454789999385251 0.0045536552249268733 0.010596549312052443 -0.083249930224213647 0.046223959334970109 -0.1381059078141029 -1.7348624249203327e-82 5.8594519783344396e-83 3.0695208211343935e-83 -2.2045514320872323e-77 1.7323047935260182e-77 -8.1674162476113528e-78 -59.930903301197723 387.69294981774578 -90.527570201199552 -9.1441306520140045e-31 -1.3055507818623073e-31 5.5533130916081681e-31 -2.2539932199629852e-27 7.2553158678146038e-27 -1.4256026384547124e-28 -3.6874112632629803e-16 -6.8063011243394311e-16 1.1777261863282962e-15 3.3968713423559903e-14 -5.0218984412477665e-13 1.3331760969063412e-13 1.7850809526794714e-47 5.0949163555617207e-47 -1.5108232237292151e-46 -1.9900867191982095e-51 -2.8118828979220044e-53 1.0109194237976798e-51 1.2134823870087919e-38 3.1294304914671218e-38 -2.0119329548092174e-38 4.2062881392574755e-42 3.280991004080872e-43 -1.6611564027600379e-42 -48.355992728185988 10.501056483380244 -71.41454669493055 3.3147280019537591 -41.218461622763435 5.5854447854974811 2.1596051526418858 3.3896362681398196 -0.98692904815575266 1.4677589997046592 -0.19694370873565106 -0.36412660575408962 4.0651284693588681e-21 -5.8738322758721733e-21 -2.7775074670653794e-21 -1.8388685536676251e-18 5.0398063642856493e-18 -6.5648922356885963e-19 -2.3649235639474209e-88 1.1074703226397666e-88 -3.441898745956774e-89 4681.8275102168118 423.02634810811219 615.3862019434988 4681.8667583974338 6025.2183777611426 615.39299553604951 4.5816173465433744e-24 -4.2806270198950309e-24 -8.2514566925236306e-25 4686.1519721247214 6030.1416344235731 0.00026873812513840151 -2.8424054354327003e-05 -9.8709077529666789e-05 0.0010786668293773891 -0.00082650875148616973 0.0020467594710200316 -3.9115496592008638e-07 5.2985135059395601e-09 1.7109846262053461e-07 -3.2947203222552392e-06 3.2013208941514113e-06 -8.1274747711883147e-06 -8.3016313595948914e-94 2.6743892256407595e-94 1.0951275711871569e-94 3.6198495881233275e-106 -1.1211893710428683e-105 9.3169572610802001e-107 -6.8305027575478662e-100 -2.3040128151070038e-101 1.9817333756099148e-100 9.6188178457025888e-101 -1.0982736524365761e-101 8.815149386732582e-102 -2.1241248469340102e-99 1.2520645842137537e-100 1.1556353966136686e-100 6.9118752891725648e-38 -2.5015636790148935e-38 -5.0505741793518016e-38 -1.868486561443405e-30 -3.2682355994579951e-31 3.9004766758587513e-30 0.0017098859275098788 0.0031429627207412861 -0.0012788026034247922 3.2271667157711295 4.9879002050504564 -1.4421915973680011 6029.9393498400841 7340.7725025416476 -2.8148393109596439e-13 3.592161168618002e-13 -9.0231463716260075e-13 -7.5667546034477918e-88 -3.1442499762967311e-90 1.0455503007089067e-88 -1.4946194561696114e-46 1.9595111991005878e-46 -1.0306269929869379e-46 613.14113280739343 875.01386799286774 -181.57935131908792 1.4404719391968324e-18 -4.4457850098531341e-18 1.2633625225069286e-17 -7.9978282307695039e-77 -3.3774799391958346e-78 3.3280729040995675e-77 2.9944227225907419e-24 5.5348606202755426e-24 -2.1714992943043889e-23 6025.1326527513911 878.62073284402618 7335.7573900195284 -2.0704776465693874e-56 -7.42212666518347e-56 1.1950665119483717e-55 -1.4068279202459526e-66 -1.7030318917590354e-66 -5.8954490156824134e-67 -0.12621743667617863 -0.2089439214958411 0.069784032795619039 3.6491057684027242e-09 8.6342983343465513e-09 -3.6239191867679058e-09 -6.1127632479380995e-06 -1.2488639910542347e-05 5.1813791230834021e-06 -70.793475323661454 -102.877790627574 14.928733039396159 -5.5044314492475962e-82 1.6415009974268027e-82 1.6632071404973497e-83 -5.6368833128120134e-28 -5.2455062748378088e-27 6.192230995836358e-27 1.7984227522313743e-20 4.2263989739317726e-21 -1.2909033549622202e-20 6025.1944409913722 615.40395460961656 878.56663693861265 2.2153909490103452 -0.29486069951906602 -0.54098397138757004 -5.8572654698150017e-05 0.00042345790595889305 -0.00014708745170513384 8.3530985395855905e-08 -6.9948145457427129e-07 2.5995218657465535e-07 1.7898472285413543e-41 -5.2424260321234342e-42 -1.6005212031668885e-42 7.5578679309898395e-72 -3.2728780111854201e-71 1.5285189848157295e-72 0.0072331191299112594 -0.058304225082062823 0.015979404528509218 -1.4536078531447436e-11 1.7665206764320051e-10 -7.2701092416026601e-11 -5.8419361094341496e-15 -6.6983905351162546e-17 2.7685615486498246e-15 4.9216602468141524 -60.774410102738898 8.0618658970795085 1.3919054781981582e-51 -1.9913406767406046e-50 4.5644198927745566e-51 -9.5894464907090687e-34 5.6950355797582523e-34 -1.9828103869891785e-34 9.5615465726165986e-61 9.8425426099029704e-62 -2.4659553485321691e-61 566.73625398589297 -87.08248146708813 -128.78310547274774 1.1022926847934717e-105 -3.398862411656175e-105 -1.1932053424600572e-106 -2.514987207477359e-93 7.946703675159184e-94 -7.8242338942176523e-96 -3.1729346325001148e-29 7.0076639605924424e-29 2.370318284415074e-29 -834.21656303058046 90.267720129065424 -324.45569361777586 -2.7525083003728144e-22 1.2145881694812201e-22 -1.0224778119531914e-22 1.3934307649429156e-16 -6.0524939531938558e-17 5.5607032747999069e-17 -2.1085618576565232e-54 1.7070963216700702e-54 -7.0747653816921174e-55 -9.447822352859822e-12 3.9861513021530302e-12 -3.8757624582229542e-12 -993.7157231900029 4001.6015687323165 2790.3886381704883 -2.199793525020456e-36 1.0503100925835886e-36 -6.6726510559366589e-37 7.6861208402505675e-45 -4.1445374775711671e-45 2.0935329600881432e-45 9.0330116748832936e-08 -3.5952914701124213e-08 3.5112013378554242e-08 34.389555775982572 4000.819535642212 3148.9203034901734 51.090714290314459 -10.064132846376614 15.677700398098448 -0.00013517110099511368 4.7645109506132381e-05 -4.5808220964754156e-05 -5.0972999488920108e-65 -6.2530287253636582e-65 5.091152727686607e-65 3.8082503207451223e-76 5.4827645233804116e-76 -1.6600993865269926e-76 26.4830481435759 3141.2833427435844 0.035538551856534782 -0.011158996843474954 0.010401590292359422 -1.9366604450911322e-87 8.3668939954514294e-88 3.8686328519251992e-88 -2.3777771796044576 0.56478364982240914 -0.69922571493840258 1.1696205094325148e-99 -4.1157879062289316e-99 1.1414409560492735e-99 -2.9335541713407752e-105 1.4821232098602662e-105 -4.0363180603602319e-106 -2.6615510522454386e-93 -3.0754933256812491e-95 1.2802936288820516e-93 0.15474585675210256 -0.36629979997827133 0.031168697376737241 2.854704428057172e-14 9.6241878452873429e-15 -7.5873732803337645e-14 -887.30266370070376 -366.65196382665312 2696.2572036120946 -8.6702373334499694e-33 2.7850152678834589e-32 -3.3399894899914359e-33 -1.2564220971667377e-70 8.0049125344413265e-70 -2.1509100839942486e-70 -2.5317168788792813e-82 -9.8306592504499983e-82 -9.8826974775478608e-82 2.5707055575701302e-06 7.4205791560665312e-07 -6.1529196268075805e-06 -0.0014609267395206383 0.0031215901654147913 -0.00035172645423678367 -4.8460019520750386 -1.2522000343946402 11.636563782958092 8.4182050620784197e-41 4.0114264215559324e-41 -3.2491833830200691e-40 4000.9986426400324 2796.6101279937561 3148.8009190168568 -1.5130014052313898e-19 -5.1189591812505186e-20 4.1491649705959598e-19 5.4924603504676811e-60 1.0093757110529909e-59 -5.645538480453428e-59 1.029620095380357e-25 -2.9854221004296357e-25 3.5900011092224464e-26 -8.0225762187201598e-50 -5.8879174620752602e-50 4.3437889115882565e-49 64.599463056902849 -296.51152341375871 20.977113389434002 -7.1924134221415205e-10 1.8282532097224753e-09 -2.3631209958968696e-10 -5.1391332746264015e-50 2.7493282489676864e-49 -3.4814279449249336e-50 2.5847045961248676e-12 -6.1044915104624042e-12 -2.5123202981754392e-12 -2.5049759609361166e-45 4.5737993397466968e-45 1.3002177742725158e-45 -472.55071080064761 2792.5441249162136 2199.6533704993703 1.8265947369159027e-14 5.6789870989839189e-15 -4.7132456788546285e-14 -1.1152041443336248e-65 -3.2600926674535256e-65 5.2003735945917658e-66 -1.0536197287483779e-70 2.5363940061253981e-70 1.9641915636760148e-70 -2.0229346212072783 -1.4376889000121833 10.212570082594723 5.6829329785836545e-08 -2.4320455282039874e-08 2.5870485078151867e-08 -4.710658598037402e-10 1.2138634490508029e-09 -1.5454458116420951e-10 -4.9390912873251791 16.977033335991553 13.915111365408171 2796.8435873805806 6563.8321334859475 2206.2356098269765 5.0285467198266181e-41 -1.970750661572609e-40 2.5340087967748468e-41 6.2612246573529557e-37 -1.3072810908451329e-36 -4.0367756986171046e-37 5.1727575459251743e-60 -3.5982287626755522e-59 1.6345352234291857e-60 2796.9944199379543 3148.3740789480166 6563.641692545154 -374.31650842676419 -311.43854914733311 2098.4648224013677 1.0609248844142309e-54 -1.3392841002735945e-54 -3.4580164683748148e-55 1.6416516838103798e-06 5.9943153803064669e-07 -4.5146700185533332e-06 24.066675058861158 20.478663262585084 -239.91080429623136 -326.92234263764027 40.561155756154399 -266.37480023924672 -0.88512137635080457 0.31186836599126344 -0.64072067794324505 0.076120031944946806 -0.31353553693365599 0.041897553143361334 6.2136931403413405e-26 2.0976900110834742e-26 -1.7755489051262902e-25 -1.6932844369054158e-22 7.340803995663444e-23 -6.0308458170051731e-23 9.1242343813110167e-88 4.9868377778754175e-89 -2.7483832700953642e-87 -3.7613413904218422e-17 8.8243288380828558e-17 3.3591354683598488e-17 -9.3649907754631013e-20 -2.9463198266516374e-20 2.4938418910315643e-19 -0.00084389812240916954 0.0025634294584433877 -0.00037490822250042739 0.016469391740633617 -0.0070217923182965521 0.010066214386899893 3.2334328980914829e-05 -7.6133678108715201e-05 -3.9641658460502928e-05 3139.9782355762586 6560.7344434044553 -1.449982057364251e-77 -5.9113403849252796e-77 -8.9370093092393967e-77 -9.7890079230127886e-83 -3.9901567934450697e-82 -1.4598663443485161e-81 -5.1602185734385152e-33 1.660328143310467e-32 -2.0228164824338049e-33 4.2163682252203901e-29 -1.8930371419276001e-29 1.4029797946559035e-29 -1.2774393228522213e-93 2.3995838174778605e-93 -9.0017454566658882e-93 -1.861606563782771e-99 1.1556461295269854e-99 -6.7977553941594523e-99 -1.9000316396652652e-105 3.4630143168419409e-105 -1.1039499459264381e-104 1.3508721605867068e-100 9.9610333923674517e-101 -2.226544741981813e-99 36.590040120703407 -268.60601909062154 -198.78062292474539 2.0406751196731803e-05 -4.9022693202421611e-05 -2.4446612058636395e-05 -4.0251656028366529 14.431580393234658 9.874872357975736 3.525543403997206e-08 -1.5002606475089556e-08 1.5853269530259046e-08 -1.0310641896096243e-54 5.3821309306472109e-55 1.4603608413034527e-55 -2.2768335379416752e-76 -3.2079755104049114e-76 1.69067128027221e-76 -0.67945590278612267 0.22573203270370606 -0.4271895033342894 1.2627335204434648e-65 6.8932660896113114e-66 -1.2211327880360984e-65 1.735808570261947e-88 3.8401225716015611e-88 -7.2337485573101154e-88 0.011389245556520287 -0.0046534204746015752 0.0063559757613460589 6563.4512300841097 2206.5822477789525 8218.8227777086249 2.9424790460086814e-45 -1.5274191020467671e-45 5.6597931700385238e-46 -415.16751904375025 2200.934161270884 1668.432179237587 -7.9680254720832789e-37 3.8357427246547286e-37 -2.4239090242392872e-37 1.5780010095984396e-12 -3.7226441221252937e-12 -1.5357542328009441e-12 2.5370233481321436e-29 -1.1463581215667178e-29 8.6181599883075886e-30 -2.2822574022757224e-17 5.3398312984154535e-17 2.0456923236272374e-17 4.4364242001632465e-23 -1.019927035685537e-22 -3.6709464388671802e-23 -0.00055454366098564188 0.0016167956105736555 -0.00022972383292205602 0.054453578279620593 0.026102828456551565 -0.20555676015938121 -5.6567465212274795e-20 1.5132196981622503e-19 -1.8092275334386653e-20 6560.2738754099928 8220.4283537464453 -3.1638046724934758e-33 -1.2329377547680063e-33 1.0292930693974017e-32 6.3082335581402162e-84 2.2920897782327104e-82 6.5998851914911827e-83 1.