<?xml version="1.0"?>
<VTKFile type="UnstructuredGrid" version="0.1" byte_order="LittleEndian">
<UnstructuredGrid>
<Piece NumberOfPoints="1160" NumberOfCells="390">
<Points>
<DataArray type="Float64" NumberOfComponents="3" format="ascii">
0.0000000000 0.0000000000 0.0000000000 0.1000000000 0.0000000000 0.0000000000 0.1000000000 0.0000000000 0.0000000000 0.2000000000 0.0000000000 0.0000000000 0.2000000000 0.0000000000 0.0000000000 0.3000000000 0.0000000000 0.0000000000 0.3000000000 0.0000000000 0.0000000000 0.4000000000 0.0000000000 0.0000000000 0.4000000000 0.0000000000 0.0000000000 0.5000000000 0.0000000000 0.0000000000 0.5000000000 0.0000000000 0.0000000000 0.6000000000 0.0000000000 0.0000000000 0.6000000000 0.0000000000 0.0000000000 0.7000000000 0.0000000000 0.0000000000 0.7000000000 0.0000000000 0.0000000000 0.8000000000 0.0000000000 0.0000000000 0.8000000000 0.0000000000 0.0000000000 0.9000000000 0.0000000000 0.0000000000 0.9000000000 0.0000000000 0.0000000000 1.0000000000 0.0000000000 0.0000000000 0.0000000000 0.0000000000 0.0000000000 0.0000000000 0.0000100000 0.0000000000 0.1000000000 0.0000100000 0.0000000000 0.0000000000 0.0000000000 0.0000000000 0.1000000000 0.0000100000 0.0000000000 0.1000000000 0.0000000000 0.0000000000 0.1000000000 0.0000000000 0.0000000000 0.1000000000 0.0000100000 0.0000000000 0.2000000000 0.0000100000 0.0000000000 0.1000000000 0.0000000000 0.0000000000 0.2000000000 0.0000100000 0.0000000000 0.2000000000 0.0000000000 0.0000000000 0.2000000000 0.0000000000 0.0000000000 0.2000000000 0.0000100000 0.0000000000 0.3000000000 0.0000100000 0.0000000000 0.2000000000 0.0000000000 0.0000000000 0.3000000000 0.0000100000 0.0000000000 0.3000000000 0.0000000000 0.0000000000 0.3000000000 0.0000000000 0.0000000000 0.3000000000 0.0000100000 0.0000000000 0.4000000000 0.0000100000 0.0000000000 0.3000000000 0.0000000000 0.0000000000 0.4000000000 0.0000100000 0.0000000000 0.4000000000 0.0000000000 0.0000000000 0.4000000000 0.0000000000 0.0000000000 0.4000000000 0.0000100000 0.0000000000 0.5000000000 0.0000100000 0.0000000000 0.4000000000 0.0000000000 0.0000000000 0.5000000000 0.0000100000 0.0000000000 0.5000000000 0.0000000000 0.0000000000 0.5000000000 0.0000000000 0.0000000000 0.5000000000 0.0000100000 0.0000000000 0.6000000000 0.0000100000 0.0000000000 0.5000000000 0.0000000000 0.0000000000 0.6000000000 0.0000100000 0.0000000000 0.6000000000 0.0000000000 0.0000000000 0.6000000000 0.0000000000 0.0000000000 0.6000000000 0.0000100000 0.0000000000 0.7000000000 0.0000100000 0.0000000000 0.6000000000 0.0000000000 0.0000000000 0.7000000000 0.0000100000 0.0000000000 0.7000000000 0.0000000000 0.0000000000 0.7000000000 0.0000000000 0.0000000000 0.7000000000 0.0000100000 0.0000000000 0.8000000000 0.0000100000 0.0000000000 0.7000000000 0.0000000000 0.0000000000 0.8000000000 0.0000100000 0.0000000000 0.8000000000 0.0000000000 0.0000000000 0.8000000000 0.0000000000 0.0000000000 0.8000000000 0.0000100000 0.0000000000 0.9000000000 0.0000100000 0.0000000000 0.8000000000 0.0000000000 0.0000000000 0.9000000000 0.0000100000 0.0000000000 0.9000000000 0.0000000000 0.0000000000 0.9000000000 0.0000000000 0.0000000000 0.9000000000 0.0000100000 0.0000000000 1.0000000000 0.0000100000 0.0000000000 0.9000000000 0.0000000000 0.0000000000 1.0000000000 0.0000100000 0.0000000000 1.0000000000 0.0000000000 0.0000000000 0.0000000000 0.0000100000 0.0000000000 0.0000000000 0.0001221059 0.0000000000 0.1000000000 0.0001221059 0.0000000000 0.0000000000 0.0000100000 0.0000000000 0.1000000000 0.0001221059 0.0000000000 0.1000000000 0.0000100000 0.0000000000 0.1000000000 0.0000100000 0.0000000000 0.1000000000 0.0001221059 0.0000000000 0.2000000000 0.0001221059 0.0000000000 0.1000000000 0.0000100000 0.0000000000 0.2000000000 0.0001221059 0.0000000000 0.2000000000 0.0000100000 0.0000000000 0.2000000000 0.0000100000 0.0000000000 0.2000000000 0.0001221059 0.0000000000 0.3000000000 0.0001221059 0.0000000000 0.2000000000 0.0000100000 0.0000000000 0.3000000000 0.0001221059 0.0000000000 0.3000000000 0.0000100000 0.0000000000 0.3000000000 0.0000100000 0.0000000000 0.3000000000 0.0001221059 0.0000000000 0.4000000000 0.0001221059 0.0000000000 0.3000000000 0.0000100000 0.0000000000 0.4000000000 0.0001221059 0.0000000000 0.4000000000 0.0000100000 0.0000000000 0.4000000000 0.0000100000 0.0000000000 0.4000000000 0.0001221059 0.0000000000 0.5000000000 0.0001221059 0.0000000000 0.4000000000 0.0000100000 0.0000000000 0.5000000000 0.0001221059 0.0000000000 0.5000000000 0.0000100000 0.0000000000 0.5000000000 0.0000100000 0.0000000000 0.5000000000 0.0001221059 0.0000000000 0.6000000000 0.0001221059 0.0000000000 0.5000000000 0.0000100000 0.0000000000 0.6000000000 0.0001221059 0.0000000000 0.6000000000 0.0000100000 0.0000000000 0.6000000000 0.0000100000 0.0000000000 0.6000000000 0.0001221059 0.0000000000 0.7000000000 0.0001221059 0.0000000000 0.6000000000 0.0000100000 0.0000000000 0.7000000000 0.0001221059 0.0000000000 0.7000000000 0.0000100000 0.0000000000 0.7000000000 0.0000100000 0.0000000000 0.7000000000 0.0001221059 0.0000000000 0.8000000000 0.0001221059 0.0000000000 0.7000000000 0.0000100000 0.0000000000 0.8000000000 0.0001221059 0.0000000000 0.8000000000 0.0000100000 0.0000000000 0.8000000000 0.0000100000 0.0000000000 0.8000000000 0.0001221059 0.0000000000 0.9000000000 0.0001221059 0.0000000000 0.8000000000 0.0000100000 0.0000000000 0.9000000000 0.0001221059 0.0000000000 0.9000000000 0.0000100000 0.0000000000 0.9000000000 0.0000100000 0.0000000000 0.9000000000 0.0001221059 0.0000000000 1.0000000000 0.0001221059 0.0000000000 0.9000000000 0.0000100000 0.0000000000 1.0000000000 0.0001221059 0.0000000000 1.0000000000 0.0000100000 0.0000000000 0.0000000000 0.0001221059 0.0000000000 0.0000000000 0.0002771482 0.0000000000 0.1000000000 0.0002771482 0.0000000000 0.0000000000 0.0001221059 0.0000000000 0.1000000000 0.0002771482 0.0000000000 0.1000000000 0.0001221059 0.0000000000 0.1000000000 0.0001221059 0.0000000000 0.1000000000 0.0002771482 0.0000000000 0.2000000000 0.0002771482 0.0000000000 0.1000000000 0.0001221059 0.0000000000 0.2000000000 0.0002771482 0.0000000000 0.2000000000 0.0001221059 0.0000000000 0.2000000000 0.0001221059 0.0000000000 0.2000000000 0.0002771482 0.0000000000 0.3000000000 0.0002771482 0.0000000000 0.2000000000 0.0001221059 0.0000000000 0.3000000000 0.0002771482 0.0000000000 0.3000000000 0.0001221059 0.0000000000 0.3000000000 0.0001221059 0.0000000000 0.3000000000 0.0002771482 0.0000000000 0.4000000000 0.0002771482 0.0000000000 0.3000000000 0.0001221059 0.0000000000 0.4000000000 0.0002771482 0.0000000000 0.4000000000 0.0001221059 0.0000000000 0.4000000000 0.0001221059 0.0000000000 0.4000000000 0.0002771482 0.0000000000 0.5000000000 0.0002771482 0.0000000000 0.4000000000 0.0001221059 0.0000000000 0.5000000000 0.0002771482 0.0000000000 0.5000000000 0.0001221059 0.0000000000 0.5000000000 0.0001221059 0.0000000000 0.5000000000 0.0002771482 0.0000000000 0.6000000000 0.0002771482 0.0000000000 0.5000000000 0.0001221059 0.0000000000 0.6000000000 0.0002771482 0.0000000000 0.6000000000 0.0001221059 0.0000000000 0.6000000000 0.0001221059 0.0000000000 0.6000000000 0.0002771482 0.0000000000 0.7000000000 0.0002771482 0.0000000000 0.6000000000 0.0001221059 0.0000000000 0.7000000000 0.0002771482 0.0000000000 0.7000000000 0.0001221059 0.0000000000 0.7000000000 0.0001221059 0.0000000000 0.7000000000 0.0002771482 0.0000000000 0.8000000000 0.0002771482 0.0000000000 0.7000000000 0.0001221059 0.0000000000 0.8000000000 0.0002771482 0.0000000000 0.8000000000 0.0001221059 0.0000000000 0.8000000000 0.0001221059 0.0000000000 0.8000000000 0.0002771482 0.0000000000 0.9000000000 0.0002771482 0.0000000000 0.8000000000 0.0001221059 0.0000000000 0.9000000000 0.0002771482 0.0000000000 0.9000000000 0.0001221059 0.0000000000 0.9000000000 0.0001221059 0.0000000000 0.9000000000 0.0002771482 0.0000000000 1.0000000000 0.0002771482 0.0000000000 0.9000000000 0.0001221059 0.0000000000 1.0000000000 0.0002771482 0.0000000000 1.0000000000 0.0001221059 0.0000000000 0.0000000000 0.0002771482 0.0000000000 0.0000000000 0.0004915718 0.0000000000 0.1000000000 0.0004915718 0.0000000000 0.0000000000 0.0002771482 0.0000000000 0.1000000000 0.0004915718 0.0000000000 0.1000000000 0.0002771482 0.0000000000 0.1000000000 0.0002771482 0.0000000000 0.1000000000 0.0004915718 0.0000000000 0.2000000000 0.0004915718 0.0000000000 0.1000000000 0.0002771482 0.0000000000 0.2000000000 0.0004915718 0.0000000000 0.2000000000 0.0002771482 0.0000000000 0.2000000000 0.0002771482 0.0000000000 0.2000000000 0.0004915718 0.0000000000 0.3000000000 0.0004915718 0.0000000000 0.2000000000 0.0002771482 0.0000000000 0.3000000000 0.0004915718 0.0000000000 0.3000000000 0.0002771482 0.0000000000 0.3000000000 0.0002771482 0.0000000000 0.3000000000 0.0004915718 0.0000000000 0.4000000000 0.0004915718 0.0000000000 0.3000000000 0.0002771482 0.0000000000 0.4000000000 0.0004915718 0.0000000000 0.4000000000 0.0002771482 0.0000000000 0.4000000000 0.0002771482 0.0000000000 0.4000000000 0.0004915718 0.0000000000 0.5000000000 0.0004915718 0.0000000000 0.4000000000 0.0002771482 0.0000000000 0.5000000000 0.0004915718 0.0000000000 0.5000000000 0.0002771482 0.0000000000 0.5000000000 0.0002771482 0.0000000000 0.5000000000 0.0004915718 0.0000000000 0.6000000000 0.0004915718 0.0000000000 0.5000000000 0.0002771482 0.0000000000 0.6000000000 0.0004915718 0.0000000000 0.6000000000 0.0002771482 0.0000000000 0.6000000000 0.0002771482 0.0000000000 0.6000000000 0.0004915718 0.0000000000 0.7000000000 0.0004915718 0.0000000000 0.6000000000 0.0002771482 0.0000000000 0.7000000000 0.0004915718 0.0000000000 0.7000000000 0.0002771482 0.0000000000 0.7000000000 0.0002771482 0.0000000000 0.7000000000 0.0004915718 0.0000000000 0.8000000000 0.0004915718 0.0000000000 0.7000000000 0.0002771482 0.0000000000 0.8000000000 0.0004915718 0.0000000000 0.8000000000 0.0002771482 0.0000000000 0.8000000000 0.0002771482 0.0000000000 0.8000000000 0.0004915718 0.0000000000 0.900000000
[...]
<PointData Scalars="Ba-133_conc,region_id," Vectors="" Tensors="">
<DataArray type="Float64" Name="Ba-133_conc" format="ascii">
1798.2204800364 2530.8446413893 2531.6447551816 3503.7849204096 3503.3297870118 4685.9131201974 4686.1519758425 6030.1416381842 6029.9393536044 7340.7725055207 7340.8537311122 8262.7560535013 8262.7131094735 8220.2338003636 8220.4283512532 6560.2738709996 6560.7344390618 3139.9782323995 3141.2833395191 26.4830477848 1796.2278594226 111.0060780332 192.5463263613 1796.2500032744 192.5303921534 2528.6105676268 2528.7105551122 192.5235418567 287.2931511159 2528.8405300804 287.2592334770 3500.3100661649 3500.2097385230 287.3051645480 422.9962291636 3500.1386724933 423.0167611092 4681.7952805698 4681.8275139316 423.0263485946 615.3862025856 4681.8667621123 615.3929961791 6025.2183815224 6025.1944447533 615.4039552524 878.5666383645 6025.1326565137 878.6207342719 7335.7573929984 7335.8281566228 878.5793417735 1228.6364838851 7335.7728823594 1228.7246175737 8258.5976100393 8258.7187769133 1228.6178456606 1674.0911213110 8258.5750843959 1674.2458771042 8218.7475922036 8219.0071836322 1674.0241147516 2206.3860669168 8218.8227752085 2206.5822482590 6563.4512257065 6563.8321291221 2206.2356103057 2796.8435878781 6563.6416881890 2796.9944204383 3148.3740757595 3148.8009158288 2796.6101284958 4000.9986392392 3148.9203002946 4000.8195322477 34.3895553934 95.5651502477 -1.8913361222 -28.6106996528 110.3801851240 -42.3347028784 191.7020436548 175.2105949756 -27.4301346650 -42.5372031039 191.8183129882 -62.1466298266 285.8937502584 262.2547865842 -40.6662513723 -62.5007130963 286.2446098450 -90.4856420543 421.0579681658 387.6929502692 -59.9309033699 -90.5275702958 421.4710123554 -129.5267417714 612.6973815693 566.7362545872 -87.0824815579 -128.7831056100 613.1411334493 -181.5793515023 875.0138694113 813.7581601045 -124.3280029837 -179.0907222558 875.3901426717 -247.9344971850 1224.1388490775 1145.9506183126 -173.6719065103 -242.2853704344 1224.2750754897 -327.5605901396 1668.8158285749 1574.9187387229 -236.2225462713 -317.0090413796 1668.4321799092 -415.1675190099 2200.9341617181 2098.4648228914 -311.4385491528 -374.3165083865 2199.6533709897 -472.5507107299 2792.5441253737 2696.2572041208 -366.6519638062 -887.3026634949 2790.3886386858 -993.7157229758 4001.6015652779 -1.3012409221 -0.2567008652 1.1570554960 -1.8487325452 1.9712343245 -21.8429233313 -18.3546767459 0.6252225821 2.6631468281 -21.8359859476 5.0006159185 -32.9237456263 -27.6292789087 2.2490062267 3.8058014124 -32.6048541827 7.2484702453 -48.7912766898 -41.2184616717 3.3147280060 5.5854447917 -48.3559927846 10.5010564946 -71.4145467721 -60.7744101697 4.9216602524 8.0618659061 -70.7934753999 14.9287330551 -102.8777907414 -88.3111865541 7.2042739364 11.4102892535 -101.9950904259 20.7321607783 -145.2858130571 -126.0327282540 10.3682039955 15.7568958293 -144.0768209574 27.9447620424 -200.3591189392 -176.0719275388 14.5963184312 21.3525917684 -198.7806229740 36.5900401244 -268.6060190912 -239.9108043048 20.4786632673 24.0666750596 -266.3748002453 40.5611557544 -326.9223426199 -296.5115234076 20.9771133915 64.5994630493 -324.4556936067 90.2677201162 -834.2165628247 -0.0437992024 0.0171573098 -0.0242420825 -0.0695152197 -0.0525502401 0.6027250311 0.3642191260 0.0076909494 -0.1634815202 0.5152230731 -0.4165412887 1.5211567658 0.9787119254 -0.1137909425 -0.2525235669 1.4518033137 -0.6715062599 2.2746201161 1.4677590016 -0.1969437090 -0.3641266062 2.1596051553 -0.9869290493 3.3896362721 2.2153909517 -0.2948606999 -0.5409839720 3.2271667195 -1.4421915990 4.9879002109 3.3073746932 -0.4426710215 -0.7914095187 4.7611964419 -2.0715187412 7.2265274252 4.8741884781 -0.6565770765 -1.1373262641 6.9188101251 -2.9112909524 10.2720292846 7.0717424196 -0.9554902410 -1.6211488508 9.8748723638 -4.0251656039 14.4315803964 10.2125700855 -1.4376889006 -2.0229346214 13.9151113691 -4.9390912876 16.9770333378 11.6365637854 -1.2522000348 -4.8460019518 15.6777004008 -10.0641328458 51.0907142847 0.0013878686 -0.0002699300 0.0001188404 0.0044238429 -0.0000855342 -0.0071565355 -0.0019937796 -0.0009754199 0.0033138585 -0.0029100183 0.0118483419 -0.0573053221 -0.0232543433 0.0007465046 0.0072053046 -0.0499443648 0.0300635829 -0.0926533069 -0.0384547901 0.0045536552 0.0105965493 -0.0832499303 0.0462239594 -0.1381059080 -0.0583042252 0.0072331191 0.0159794045 -0.1262174368 0.0697840329 -0.2089439218 -0.0895948705 0.0111733113 0.0242853946 -0.1916538350 0.1044550369 -0.3126497376 -0.1364824479 0.0172141382 0.0364650490 -0.2880558768 0.1543172188 -0.4615822007 -0.2055567603 0.0261028285 0.0544535783 -0.4271895037 0.2257320328 -0.6794559030 -0.3135355371 0.0418975532 0.0761200320 -0.6407206782 0.3118683661 -0.8851213765 -0.3662998001 0.0311686974 0.1547458568 -0.6992257151 0.5647836499 -2.3777771796 -0.0000057172 0.0000008183 0.0000012694 -0.0000422548 0.0000169756 0.0000103422 -0.0000103835 0.0000099204 -0.0000124155 -0.0000779143 -0.0000771668 0.0005460342 0.0000974591 0.0000088663 -0.0000604615 0.0003398192 -0.0004760348 0.0013175344 0.0002687381 -0.0000284241 -0.0000987091 0.0010786668 -0.0008265088 0.0020467595 0.0004234579 -0.0000585727 -0.0001470875 0.0017098859 -0.0012788026 0.0031429627 0.0006620344 -0.0000925896 -0.0002297375 0.0026644918 -0.0019810863 0.0048612358 0.0010392130 -0.0001465405 -0.0003578774 0.0041379492 -0.0030473955 0.0074521671 0.0016167956 -0.0002297238 -0.0005545437 0.0063559758 -0.0046534205 0.0113892456 0.0025634295 -0.0003749082 -0.0008438981 0.0100662144 -0.0070217923 0.0164693917 0.0031215902 -0.0003517265 -0.0014609267 0.0104015903 -0.0111589968 0.0355385519 0.0000000037 0.0000000002 -0.0000000024 0.0000000706 -0.0000000555 0.0000001131 0.0000000376 -0.0000000112 0.0000000048 0.0000005631 0.0000000098 -0.0000008361 -0.0000000333 -0.0000000319 0.0000000756 0.0000000254 0.0000012413 -0.0000047155 -0.0000003912 0.0000000053 0.0000001711 -0.0000032947 0.0000032013 -0.0000081275 -0.0000006995 0.0000000835 0.0000002600 -0.0000061128 0.0000051814 -0.0000124886 -0.0000010958 0.0000001428 0.0000004061 -0.0000097161 0.0000081896 -0.0000197448 -0.0000017537 0.0000002286 0.0000006481 -0.0000154679 0.0000129663 -0.0000311756 -0.0000027972 0.0000003675 0.0000010300 -0.0000244466 0.0000204068 -0.0000490227 -0.0000045147 0.0000005994 0.0000016417 -0.0000396417 0.0000323343 -0.0000761337 -0.0000061529 0.0000007421 0.0000025707 -0.0000458082 0.0000476451 -0.0001351711 -0.0000000000 -0.0000000000 0.0000000000 -0.0000000000 0.0000000000 -0.0000000001 -0.0000000000 0.0000000000 0.0000000000 -0.0000000003 0.0000000001 0.0000000001 -0.0000000000 0.0000000000 -0.0000000000 -0.0000000006 -0.0000000003 0.0000000022 0.0000000001 0.0000000000 -0.0000000000 0.0000000010 -0.0000000020 0.0000000054 0.0000000002 -0.0000000000 -0.0000000001 0.0000000036 -0.0000000036 0.0000000086 0.0000000003 -0.0000000000 -0.0000000001 0.0000000061 -0.0000000058 0.0000000136 0.0000000005 -0.0000000001 -0.0000000002 0.0000000098 -0.0000000093 0.0000000220 0.0000000007 -0.0000000001 -0.0000000003 0.0000000159 -0.0000000150 0.0000000353 0.0000000012 -0.0000000002 -0.0000000005 0.0000000259 -0.0000000243 0.0000000568 0.0000000018 -0.0000000002 -0.0000000007 0.0000000351 -0.0000000360 0.0000000903 -0.0000000000 0.0000000000 -0.0000000000 -0.0000000000 -0.0000000000 0.0000000000 0.0000000000 -0.0000000000 -0.0000000000 0.0000000000 -0.0000000000 0.0000000000 0.0000000000 -0.0000000000 0.0000000000 0.0000000000 -0.0000000000 -0.0000000000 -0.0000000000 -0.0000000000 0.0000000000 0.0000000000 0.0000000000 -0.0000000000 -0.0000000000 -0.0000000000 0.0000000000 -0.0000000000 0.0000000000 -0.0000000000 -0.0000000000 0.0000000000 0.0000000000 -0.0000000000 0.0000000000 -0.0000000000 -0.0000000000 0.0000000000 0.0000000000 -0.0000000000 0.0000000000 -0.0000000000 -0.0000000000 0.0000000000 0.0000000000 -0.0000000000 0.0000000000 -0.0000000000 -0.0000000000 0.0000000000 0.0000000000 -0.0000000000 0.0000000000 -0.0000000000 -0.0000000000 0.0000000000 0.0000000000 -0.0000000000 0.0000000000 -0.0000000000 0.0000000000 -0.0000000000 0.0000000000 0.0000000000 -0.0000000000 -0.0000000000 -0.0000000000 -0.0000000000 0.0000000000 -0.0000000000 0.0000000000 -0.0000000000 -0.0000000000 0.0000000000 0.0000000000 -0.0000000000 0.0000000000 0.0000000000 -0.0000000000 0.0000000000 -0.0000000000 -0.0000000000 -0.0000000000 0.0000000000 0.0000000000 0.0000000000 -0.0000000000 0.0000000000 -0.0000000000 0.0000000000 0.0000000000 -0.0000000000 -0.0000000000 0.0000000000 -0.0000000000 0.0000000000 0.0000000000 -0.0000000000 -0.0000000000 0.0000000000 -0.0000000000 0.0000000000 0.0000000000 -0.0000000000 -0.0000000000 0.0000000000 -0.0000000000 0.0000000000 0.0000000000 -0.0000000000 -0.0000000000 0.0000000000 -0.0000000000 0.0000000000 0.0000000000 -0.0000000000 -0.0000000000 0.0000000000 -0.0000000000 0.0000000000 -0.0000000000 0.0000000000 0.0000000000 -0.0000000000 0.0000000000 0.0000000000 -0.0000000000 0.0000000000 -0.0000000000 -0.0000000000 -0.0000000000 0.0000000000 0.0000000000 0.0000000000 -0.0000000000 0.0000000000 -0.0000000000 0.0000000000 0.0000000000 -0.0000000000 -0.0000000000 0.0000000000 -0.0000000000 -0.0000000000 -0.0000000000 -0.0000000000 0.0000000000 0.0000000000 0.0000000000 -0.0000000000 -0.0000000000 -0.0000000000 0.0000000000 -0.0000000000 0.0000000000 -0.0000000000 -0.0000000000 0.0000000000 0.0000000000 -0.0000000000 0.0000000000 -0.0000000000 -0.0000000000 0.0000000000 0.0000000000 -0.0000000000 0.0000000000 -0.0000000000 -0.0000000000 0.0000000000 0.0000000000 -0.0000000000 0.0000000000 -0.0000000000 -0.0000000000 0.0000000000 0.0000000000 -0.0000000000 0.0000000000 -0.0000000000 0.0000000000 0.0000000000 -0.0000000000 0.0000000000 -0.0000000000 0.0000000000 0.0000000000 -0.0000000000 0.0000000000 0.0000000000 -0.0000000000 -0.0000000000 -0.0000000000 -0.0000000000 0.0000000000 -0.0000000000 0.0000000000 -0.0000000000 -0.0000000000 0.0000000000 0.0000000000 -0.0000000000 0.0000000000 -0.0000000000 -0.0000000000 0.0000000000 -0.0000000000 -0.0000000000 -0.0000000000 0.0000000000 0.0000000000 0.0000000000 -0.0000000000 0.0000000000 -0.0000000000 0.0000000000 0.0000000000 -0.0000000000 -0.0000000000 0.0000000000 -0.0000000000 0.0000000000 0.0000000000 -0.0000000000 -0.0000000000 0.0000000000 -0.0000000000 0.0000000000 0.0000000000 -0.0000000000 -0.0000000000 0.0000000000 -0.0000000000 0.0000000000 0.0000000000 -0.0000000000 -0.0000000000 0.0000000000 -0.0000000000 0.0000000000 0.0000000000 -0.0000000000 0.0000000000 0.0000000000 0.0000000000 -0.0000000000 -0.0000000000 0.0000000000 0.0000000000 -0.0000000000 0.0000000000 0.0000000000 -0.0000000000 0.0000000000 -0.0000000000 -0.0000000000 -0.0000000000 0.0000000000 0.0000000000 0.0000000000 -0.0000000000 0.0000000000 -0.0000000000 0.0000000000 0.0000000000 -0.0000000000 -0.0000000000 0.0000000000 -0.0000000000 -0.0000000000 0.0000000000 -0.0000000000 0.0000000000 0.0000000000 0.0000000000 -0.0000000000 -0.0000000000 -0.0000000000 0.0000000000 -0.0000000000 0.0000000000 -0.0000000000 -0.0000000000 0.0000000000 0.0000000000 -0.0000000000 0.0000000000 -0.0000000000 -0.0000000000 0.0000000000 0.0000000000 -0.0000000000 0.0000000000 -0.0000000000 -0.0000000000 0.0000000000 0.0000000000 -0.0000000000 0.0000000000 -0.0000000000 -0.0000000000 0.0000000000 0.0000000000 -0.0000000000 -0.0000000000 0.0000000000 0.0000000000 0.0000000000 -0.0000000000 0.0000000000 -0.0000000000 0.0000000000 0.0000000000 -0.0000000000 -0.0000000000 0.0000000000 -0.0000000000 -0.0000000000 -0.0000000000 -0.0000000000 0.0000000000 0.0000000000 0.0000000000 -0.0000000000 -0.0000000000 0.0000000000 0.0000000000 -0.0000000000 0.0000000000 -0.0000000000 -0.0000000000 0.0000000000 0.0000000000 -0.0000000000 0.0000000000 0.0000000000 0.0000000000 0.0000000000 -0.0000000000 -0.0000000000 -0.0000000000 0.0000000000 0.0000000000 0.0000000000 -0.0000000000 0.0000000000 -0.0000000000 0.0000000000 0.0000000000 -0.0000000000 -0.0000000000 0.0000000000 -0.0000000000 0.0000000000 0.0000000000 -0.0000000000 -0.0000000000 0.0000000000 -0.0000000000 0.0000000000 -0.0000000000 0.0000000000 -0.0000000000 0.0000000000 -0.0000000000 -0.0000000000 0.0000000000 -0.0000000000 -0.0000000000 0.0000000000 0.0000000000 -0.0000000000 -0.0000000000 -0.0000000000 0.0000000000 -0.0000000000 0.0000000000 -0.0000000000 -0.0000000000 0.0000000000 0.0000000000 -0.0000000000 0.0000000000 0.0000000000 0.0000000000 0.0000000000 -0.0000000000 -0.0000000000 -0.0000000000 0.0000000000 0.0000000000 -0.0000000000 -0.0000000000 0.0000000000 -0.0000000000 -0.0000000000 0.0000000000 -0.0000000000 -0.0000000000 0.0000000000 0.0000000000 -0.0000000000 -0.0000000000 -0.0000000000 0.0000000000 0.0000000000 0.0000000000 -0.0000000000 -0.0000000000 0.0000000000 0.0000000000 -0.0000000000 0.0000000000 -0.0000000000 -0.0000000000 0.0000000000 0.0000000000 -0.0000000000 0.0000000000 -0.0000000000 -0.0000000000 0.0000000000 -0.0000000000 -0.0000000000 -0.0000000000 -0.0000000000 0.0000000000 -0.0000000000 -0.0000000000 0.0000000000 0.0000000000 -0.0000000000 0.0000000000 -0.0000000000 0.0000000000 0.0000000000 0.0000000000 0.0000000000 -0.0000000000 0.0000000000 0.0000000000 -0.0000000000 -0.0000000000 0.0000000000 -0.0000000000 0.0000000000 0.0000000000 -0.0000000000 -0.0000000000 -0.0000000000 0.0000000000 -0.0000000000 -0.0000000000 0.0000000000 0.0000000000 -0.0000000000 0.0000000000 -0.0000000000 0.0000000000 -0.0000000000 0.0000000000 0.0000000000 -0.0000000000 0.0000000000 -0.0000000000 -0.0000000000 0.0000000000 0.0000000000 0.0000000000 0.0000000000 -0.0000000000 0.0000000000 -0.0000000000 -0.0000000000 0.0000000000 -0.0000000000 -0.0000000000 0.0000000000 -0.0000000000 -0.0000000000 -0.0000000000 0.0000000000 -0.0000000000 -0.0000000000 0.0000000000 -0.0000000000 0.0000000000 -0.0000000000 -0.0000000000 0.0000000000 0.0000000000 -0.0000000000 0.0000000000 -0.0000000000 0.0000000000 0.0000000000 -0.0000000000 -0.0000000000 -0.0000000000 0.0000000000 0.0000000000 -0.0000000000 -0.0000000000 0.0000000000 -0.0000000000 0.0000000000 0.0000000000 -0.0000000000 -0.0000000000 0.0000000000 0.0000000000 -0.0000000000 -0.0000000000 0.0000000000 0.0000000000 -0.0000000000 0.0000000000 -0.0000000000 -0.0000000000 0.0000000000 -0.0000000000 -0.0000000000 0.0000000000 0.0000000000 0.0000000000 0.0000000000 -0.0000000000 -0.0000000000 -0.0000000000 -0.0000000000 -0.0000000000 -0.0000000000 -0.0000000000 -0.0000000000 -0.0000000000 -0.0000000000 -0.0000000000 -0.0000000000 0.0000000000 0.0000000000 -0.0000000000 0.0000000000 -0.0000000000 -0.0000000000 0.0000000000 -0.0000000000 0.0000000000 -0.0000000000 -0.0000000000 0.0000000000 0.0000000000 -0.0000000000 0.0000000000 -0.0000000000 0.0000000000 0.0000000000 -0.0000000000 0.0000000000 -0.0000000000 0.0000000000 0.0000000000 -0.0000000000 -0.0000000000 0.0000000000 -0.0000000000 0.0000000000 -0.0000000000 -0.0000000000 -0.0000000000 0.0000000000 0.0000000000 -0.0000000000 -0.0000000000 0.0000000000 0.0000000000 -0.0000000000 0.0000000000 -0.0000000000 -0.0000000000 0.0000000000 0.0000000000 -0.0000000000 -0.0000000000 0.0000000000 0.0000000000 -0.0000000000 0.0000000000 0.0000000000 -0.0000000000 0.0000000000 -0.0000000000 -0.0000000000 0.0000000000 0.0000000000 0.0000000000 -0.0000000000 -0.0000000000 0.0000000000 0.0000000000 -0.0000000000 -0.0000000000 0.0000000000 -0.0000000000 -0.0000000000 0.0000000000 -0.0000000000 0.0000000000 -0.0000000000 -0.0000000000 0.0000000000 0.0000000000 -0.0000000000 0.0000000000 -0.0000000000 0.0000000000 0.0000000000 -0.0000000000 0.0000000000 -0.0000000000 0.0000000000 0.0000000000 -0.0000000000 -0.0000000000 0.0000000000 -0.0000000000 0.0000000000 -0.0000000000 -0.0000000000 0.0000000000 0.0000000000 0.0000000000 -0.0000000000 -0.0000000000 0.0000000000 0.0000000000 -0.0000000000 0.0000000000 -0.0000000000 0.0000000000 0.0000000000 -0.0000000000 -0.0000000000 -0.0000000000 0.0000000000 0.0000000000 -0.0000000000 0.0000000000 0.0000000000 -0.0000000000 0.0000000000 -0.0000000000 -0.0000000000 0.0000000000 -0.0000000000 0.0000000000 -0.0000000000 -0.0000000000 0.0000000000 0.0000000000 -0.0000000000 
</DataArray>
<DataArray type="Float64" Name="region_id" format="ascii">
2 2 2 2 2 2 2 2 2 2 2 2 2 2 2 2 2 2 2 2 1 1 1 1 1 1 1 1 1 1 1 1 1 1 1 1 1 1 1 1 1 1 1 1 1 1 1 1 1 1 1 1 1 1 1 1 1 1 1 1 1 1 1 1 1 1 1 1 1 1 1 1 1 1 1 1 1 1 1 1 1 1 1 1 1 1 1 1 1 1 1 1 1 1 1 1 1 1 1 1 1 1 1 1 1 1 1 1 1 1 1 1 1 1 1 1 1 1 1 1 1 1 1 1 1 1 1 1 1 1 1 1 1 1 1 1 1 1 1 1 1 1 1 1 1 1 1 1 1 1 1 1 1 1 1 1 1 1 1 1 1 1 1 1 1 1 1 1 1 1 1 1 1 1 1 1 1 1 1 1 1 1 1 1 1 1 1 1 1 1 1 1 1 1 1 1 1 1 1 1 1 1 1 1 1 1 1 1 1 1 1 1 1 1 1 1 1 1 1 1 1 1 1 1 1 1 1 1 1 1 1 1 1 1 1 1 1 1 1 1 1 1 1 1 1 1 1 1 1 1 1 1 1 1 1 1 1 1 1 1 1 1 1 1 1 1 1 1 1 1 1 1 1 1 1 1 1 1 1 1 1 1 1 1 1 1 1 1 1 1 1 1 1 1 1 1 1 1 1 1 1 1 1 1 1 1 1 1 1 1 1 1 1 1 1 1 1 1 1 1 1 1 1 1 1 1 1 1 1 1 1 1 1 1 1 1 1 1 1 1 1 1 1 1 1 1 1 1 1 1 1 1 1 1 1 1 1 1 1 1 1 1 1 1 1 1 1 1 1 1 1 1 1 1 1 1 1 1 1 1 1 1 1 1 1 1 1 1 1 1 1 1 1 1 1 1 1 1 1 1 1 1 1 1 1 1 1 1 1 1 1 1 1 1 1 1 1 1 1 1 1 1 1 1 1 1 1 1 1 1 1 1 1 1 1 1 1 1 1 1 1 1 1 1 1 1 1 1 1 1 1 1 1 1 1 1 1 1 1 1 1 1 1 1 1 1 1 1 1 1 1 1 1 1 1 1 1 1 1 1 1 1 1 1 1 1 1 1 1 1 1 1 1 1 1 1 1 1 1 1 1 1 1 1 1 1 1 1 1 1 1 1 1 1 1 1 1 1 1 1 1 1 1 1 1 1 1 1 1 1 1 1 1 1 1 1 1 1 1 1 1 1 1 1 1 1 1 1 1 1 1 1 1 1 1 1 1 1 1 1 1 1 1 1 1 1 1 1 1 1 1 1 1 1 1 1 1 1 1 1 1 1 1 1 1 1 1 1 1 1 1 1 1 1 1 1 1 1 1 1 1 1 1 1 1 1 1 1 1 1 1 1 1 1 1 1 1 1 1 1 1 1 1 1 1 1 1 1 1 1 1 1 1 1 1 1 1 1 1 1 1 1 1 1 1 1 1 1 1 1 1 1 1 1 1 1 1 1 1 1 1 1 1 1 1 1 1 1 1 1 1 1 1 1 1 1 1 1 1 1 1 1 1 1 1 1 1 1 1 1 1 1 1 1 1 1 1 1 1 1 1 1 1 1 1 1 1 1 1 1 1 1 1 1 1 1 1 1 1 1 1 1 1 1 1 1 1 1 1 1 1 1 1 1 1 1 1 1 1 1 1 1 1 1 1 1 1 1 1 1 1 1 1 1 1 1 1 1 1 1 1 1 1 1 1 1 1 1 1 1 1 1 1 1 1 1 1 1 1 1 1 1 1 1 1 1 1 1 1 1 1 1 1 1 1 1 1 1 1 1 1 1 1 1 1 1 1 1 1 1 1 1 1 1 1 1 1 1 1 1 1 1 1 1 1 1 1 1 1 1 1 1 1 1 1 1 1 1 1 1 1 1 1 1 1 1 1 1 1 1 1 1 1 1 1 1 1 1 1 1 1 1 1 1 1 1 1 1 1 1 1 1 1 1 1 1 1 1 1 1 1 1 1 1 1 1 1 1 1 1 1 1 1 1 1 1 1 1 1 1 1 1 1 1 1 1 1 1 1 1 1 1 1 1 1 1 1 1 1 1 1 1 1 1 1 1 1 1 1 1 1 1 1 1 1 1 1 1 1 1 1 1 1 1 1 1 1 1 1 1 1 1 1 1 1 1 1 1 1 1 1 1 1 1 1 1 1 1 1 1 1 1 1 1 1 1 1 1 1 1 1 1 1 1 1 1 1 1 1 1 1 1 1 1 1 1 1 1 1 1 1 1 1 1 1 1 1 1 1 1 1 1 1 1 1 1 1 1 1 1 1 1 1 1 1 1 1 1 1 1 1 1 1 1 1 1 1 1 1 1 1 1 1 1 1 1 1 1 1 1 1 1 1 1 1 1 1 1 1 1 1 1 1 1 1 1 1 1 1 1 1 1 1 1 1 1 1 1 1 1 1 1 1 1 1 1 1 1 1 1 1 1 1 1 1 1 1 1 1 1 1 1 1 1 1 1 1 1 1 1 1 1 1 1 1 1 1 1 1 1 1 1 1 1 1 1 1 1 1 1 1 1 1 1 1 1 1 1 1 1 1 1 1 1 1 1 1 1 1 1 1 1 1 1 1 1 1 1 1 1 
</DataArray>
</PointData>
</Piece>
</UnstructuredGrid>
</VTKFile>
