<?xml version="1.0"?>
<VTKFile type="UnstructuredGrid" version="0.1" byte_order="LittleEndian">
<UnstructuredGrid>
<Piece NumberOfPoints="1160" NumberOfCells="390">
<Points>
<DataArray type="Float64" NumberOfComponents="3" format="ascii">
0 0.037627845084982139 0 0 0.02712913039350634 0 0.10000000000000001 0.037627845084982139 0 0 0.014048877707311129 0 0 0.01007997645382676 0 0.10000000000000001 0.014048877707311129 0 0 0.01007997645382676 0 0 0.0072101992457088487 0 0.10000000000000001 0.01007997645382676 0 0 0.00027714824767246312 0 0 0.0001221058858762623 0 0.10000000000000001 0.00027714824767246312 0 0 0.019537864299142921 0 0 0.014048877707311129 0 0.10000000000000001 0.019537864299142921 0 0 0.0072101992457088487 0 0 0.0051351601405289276 0 0.10000000000000001 0.0072101992457088487 0 0 0.00049157175393484403 0 0 0.00027714824767246312 0 0.10000000000000001 0.00049157175393484403 0 0 0.02712913039350634 0 0 0.019537864299142921 0 0.10000000000000001 0.02712913039350634 0 0 0 0 0.10000000000000001 0 0 0 0.0051351601405289276 0 0 0.0036347696815094469 0 0.10000000000000001 0.0051351601405289276 0 0 1.0000000000000001e-05 0 0 0.0001221058858762623 0 0.10000000000000001 0.0001221058858762623 0 0 0.0036347696815094469 0 0 0.0025498882091243972 0 0.10000000000000001 0.0036347696815094469 0 0 0.052147564491031792 0 0 0.037627845084982139 0 0.10000000000000001 0.052147564491031792 0 0 0.00078811928474293897 0 0 0.00049157175393484403 0 0.10000000000000001 0.00078811928474293897 0 0 0.001198244413521618 0 0 0.00078811928474293897 0 0.10000000000000001 0.001198244413521618 0 0 0.001198244413521618 0 0 0.001765447234118425 0 0.10000000000000001 0.001765447234118425 0 0 1.0000000000000001e-05 0 0 0 0 0.10000000000000001 1.0000000000000001e-05 0 0 0.0025498882091243972 0 0 0.001765447234118425 0 0.10000000000000001 0.0025498882091243972 0 0 0.052147564491031792 0 0 0.072228323778986164 0 0.10000000000000001 0.072228323778986164 0 0 0.10000000000000001 0 0 0.072228323778986164 0 0.10000000000000001 0.10000000000000001 0 0 0.072228323778986164 0 0.10000000000000001 0.10000000000000001 0 0.10000000000000001 0.072228323778986164 0 0 0.014048877707311129 0 0.10000000000000001 0.014048877707311129 0 0.10000000000000001 0.019537864299142921 0 0 0.019537864299142921 0 0.10000000000000001 0.019537864299142921 0 0.10000000000000001 0.02712913039350634 0 0 0.0051351601405289276 0 0.10000000000000001 0.0072101992457088487 0 0.10000000000000001 0.0051351601405289276 0 0 0.001198244413521618 0 0.10000000000000001 0.001198244413521618 0 0.10000000000000001 0.001765447234118425 0 0 0.001765447234118425 0 0.10000000000000001 0.0025498882091243972 0 0.10000000000000001 0.001765447234118425 0 0 0.00027714824767246312 0 0.10000000000000001 0.00027714824767246312 0 0.10000000000000001 0.00049157175393484403 0 0 0.0036347696815094469 0 0.10000000000000001 0.0036347696815094469 0 0.10000000000000001 0.0051351601405289276 0 0 0.01007997645382676 0 0.10000000000000001 0.014048877707311129 0 0.10000000000000001 0.01007997645382676 0 0 1.0000000000000001e-05 0 0.10000000000000001 0.0001221058858762623 0 0.10000000000000001 1.0000000000000001e-05 0 0 0.052147564491031792 0 0.10000000000000001 0.072228323778986164 0 0.10000000000000001 0.052147564491031792 0 0 0.0001221058858762623 0 0.10000000000000001 0.00027714824767246312 0 0.10000000000000001 0.0001221058858762623 0 0 0.02712913039350634 0 0.10000000000000001 0.02712913039350634 0 0.10000000000000001 0.037627845084982139 0 0 0.00078811928474293897 0 0.10000000000000001 0.00078811928474293897 0 0.10000000000000001 0.001198244413521618 0 0 0.0025498882091243972 0 0.10000000000000001 0.0025498882091243972 0 0.10000000000000001 0.0036347696815094469 0 0 0 0 0.10000000000000001 1.0000000000000001e-05 0 0.10000000000000001 0 0 0 0.0072101992457088487 0 0.10000000000000001 0.01007997645382676 0 0.10000000000000001 0.0072101992457088487 0 0 0.037627845084982139 0 0.10000000000000001 0.052147564491031792 0 0.10000000000000001 0.037627845084982139 0 0 0.00049157175393484403 0 0.10000000000000001 0.00049157175393484403 0 0.10000000000000001 0.00078811928474293897 0 0.10000000000000001 0.00078811928474293897 0 0.10000000000000001 0.001198244413521618 0 0.20000000000000001 0.001198244413521618 0 0.10000000000000001 0.00078811928474293897 0 0.20000000000000001 0.001198244413521618 0 0.20000000000000001 0.00078811928474293897 0 0.10000000000000001 0.0036347696815094469 0 0.20000000000000001 0.0051351601405289276 0 0.20000000000000001 0.0036347696815094469 0 0.10000000000000001 0.0072101992457088487 0 0.10000000000000001 0.0051351601405289276 0 0.20000000000000001 0.0072101992457088487 0 0.10000000000000001 0.0051351601405289276 0 0.20000000000000001 0.0072101992457088487 0 0.20000000000000001 0.0051351601405289276 0 0.10000000000000001 0.01007997645382676 0 0.10000000000000001 0.0072101992457088487 0 0.20000000000000001 0.01007997645382676 0 0.10000000000000001 0.0072101992457088487 0 0.20000000000000001 0.0072101992457088487 0 0.20000000000000001 0.01007997645382676 0 0.10000000000000001 0.00027714824767246312 0 0.10000000000000001 0.00049157175393484403 0 0.20000000000000001 0.00049157175393484403 0 0.10000000000000001 0.00027714824767246312 0 0.20000000000000001 0.00027714824767246312 0 0.20000000000000001 0.00049157175393484403 0 0.10000000000000001 0.0036347696815094469 0 0.10000000000000001 0.0051351601405289276 0 0.20000000000000001 0.0051351601405289276 0 0.10000000000000001 0.001198244413521618 0 0.10000000000000001 0.001765447234118425 0 0.20000000000000001 0.001765447234118425 0 0.10000000000000001 0.0025498882091243972 0 0.20000000000000001 0.0036347696815094469 0 0.20000000000000001 0.0025498882091243972 0 0.10000000000000001 0.014048877707311129 0 0.10000000000000001 0.01007997645382676 0 0.20000000000000001 0.014048877707311129 0 0.10000000000000001 0.0025498882091243972 0 0.10000000000000001 0.0036347696815094469 0 0.20000000000000001 0.0036347696815094469 0 0.10000000000000001 0.001765447234118425 0 0.20000000000000001 0.001765447234118425 0 0.20000000000000001 0.0025498882091243972 0 0.10000000000000001 0.001198244413521618 0 0.20000000000000001 0.001198244413521618 0 0.20000000000000001 0.001765447234118425 0 0.10000000000000001 0.00049157175393484403 0 0.10000000000000001 0.00078811928474293897 0 0.20000000000000001 0.00078811928474293897 0 0.10000000000000001 0.00049157175393484403 0 0.20000000000000001 0.00078811928474293897 0 0.20000000000000001 0.00049157175393484403 0 0.10000000000000001 0.0025498882091243972 0 0.10000000000000001 0.001765447234118425 0 0.20000000000000001 0.0025498882091243972 0 0.10000000000000001 0.02712913039350634 0 0.10000000000000001 0.037627845084982139 0 0.20000000000000001 0.037627845084982139 0 0.10000000000000001 0 0 0.20000000000000001 0 0 0.10000000000000001 0.052147564491031792 0 0.20000000000000001 0.072228323778986164 0 0.20000000000000001 0.052147564491031792 0 0.10000000000000001 1.0000000000000001e-05 0 0.10000000000000001 0 0 0.20000000000000001 1.0000000000000001e-05 0 0.10000000000000001 0 0 0.20000000000000001 1.0000000000000001e-05 0 0.20000000000000001 0 0 0.10000000000000001 0.037627845084982139 0 0.20000000000000001 0.037627845084982139 0 0.20000000000000001 0.052147564491031792 0 0.10000000000000001 0.052147564491031792 0 0.10000000000000001 0.037627845084982139 0 0.20000000000000001 0.052147564491031792 0 0.10000000000000001 0.02712913039350634 0 0.20000000000000001 0.037627845084982139 0 0.20000000000000001 0.02712913039350634 0 0.10000000000000001 0.0001221058858762623 0 0.10000000000000001 1.0000000000000001e-05 0 0.20000000000000001 0.0001221058858762623 0 0.10000000000000001 1.0000000000000001e-05 0 0.20000000000000001 0.0001221058858762623 0 0.20000000000000001 1.0000000000000001e-05 0 0.10000000000000001 0.019537864299142921 0 0.20000000000000001 0.02712913039350634 0 0.20000000000000001 0.019537864299142921 0 0.10000000000000001 0.019537864299142921 0 0.10000000000000001 0.02712913039350634 0 0.20000000000000001 0.02712913039350634 0 0.10000000000000001 0.014048877707311129 0 0.20000000000000001 0.019537864299142921 0 0.20000000000000001 0.014048877707311129 0 0.10000000000000001 0.00027714824767246312 0 0.10000000000000001 0.0001221058858762623 0 0.20000000000000001 0.00027714824767246312 0 0.10000000000000001 0.01007997645382676 0 0.20000000000000001 0.014048877707311129 0 0.20000000000000001 0.01007997645382676 0 0.10000000000000001 0.0001221058858762623 0 0.20000000000000001 0.0001221058858762623 0 0.20000000000000001 0.00027714824767246312 0 0.10000000000000001 0.014048877707311129 0 0.10000000000000001 0.019537864299142921 0 0.20000000000000001 0.019537864299142921 0 0.10000000000000001 0.072228323778986164 0 0.20000000000000001 0.10000000000000001 0 0.20000000000000001 0.072228323778986164 0 0.10000000000000001 0.10000000000000001 0 0.10000000000000001 0.072228323778986164 0 0.20000000000000001 0.10000000000000001 0 0.10000000000000001 0.072228323778986164 0 0.10000000000000001 0.052147564491031792 0 0.20000000000000001 0.072228323778986164 0 0.20000000000000001 0.10000000000000001 0 0.20000000000000001 0.072228323778986164 0 0.29999999999999999 0.10000000000000001 0 0.20000000000000001 0.072228323778986164 0 0.20000000000000001 0.052147564491031792 0 0.29999999999999999 0.072228323778986164 0 0.20000000000000001 0.001198244413521618 0 0.20000000000000001 0.00078811928474293897 0 0.29999999999999999 0.001198244413521618 0 0.20000000000000001 0.0001221058858762623 0 0.20000000000000001 0.00027714824767246312 0 0.29999999999999999 0.00027714824767246312 0 0.20000000000000001 0.001198244413521618 0 0.20000000000000001 0.001765447234118425 0 0.29999999999999999 0.001765447234118425 0 0.20000000000000001 1.0000000000000001e-05 0 0.20000000000000001 0 0 0.29999999999999999 1.0000000000000001e-05 0 0.20000000000000001 0.0072101992457088487 0 0.20000000000000001 0.01007997645382676 0 0.29999999999999999 0.01007997645382676 0 0
[...]
<PointData Scalars="Ba-133_conc,region_id," Vectors="" Tensors="">
<DataArray type="Float64" Name="Ba-133_conc" format="ascii">
5.7701104319688898e-70 -2.9509198139743057e-69 -2.3297228628651207e-70 -1.554413238048444e-40 4.7442544487882795e-41 1.4033898643516403e-40 2.2055208727321762e-33 2.4444421534410396e-32 -1.3872223272993546e-32 -0.28438343254936449 -9.2409153086222968 2.5079350873455337 2.8030428639679498e-49 -4.5496912415834929e-49 5.4261716930802174e-51 6.1787908807107113e-26 -3.5831535382570894e-25 7.5492377747752978e-26 0.021221859376953263 -0.39084256339160839 -0.089676898688847109 1.5322718082215298e-59 -2.9409927893323763e-59 -1.0465680338250114e-59 1866.2570029302713 1749.7420027865385 -1.1940566314309057e-19 3.7651110690247118e-19 2.4593562749176048e-20 1033.8775824001798 -8.6790329283215488 -121.62196698103641 1.628778939558495e-14 -2.9819351321900848e-14 -1.7600376594875011e-14 1.9664776538265165e-80 -6.7433783220287682e-80 -6.6415605539359137e-81 -0.0031034732600552406 0.0257242421744132 3.1786535305748236e-06 4.6459414224107018e-05 -0.00046047074404413879 0.00010926642055915883 1.1014513115746649e-06 7.6075754322613204e-08 -7.2756126814746444e-07 1044.0913343794703 1866.1676179399703 1272.5381189675466 -1.7905669648657305e-10 -4.7298530844690209e-11 3.9987634237091145e-10 -5.0563258373973373e-91 1.5236893061787024e-91 -5.3409577420938068e-92 3.2406366756047326e-103 -1.0383086527366339e-102 -1.2311234413085409e-103 -5.2613459699105794e-97 7.1638150173022474e-98 -8.0177799103665614e-98 -5.0770642481307616e-45 1.9745539159545107e-44 -1.5057126457440889e-45 2.4235008581647204e-55 -1.3613983736388778e-54 -2.5034575419590822e-54 -1.9860310166752979e-22 9.3622757124761293e-23 4.5886869612185601e-23 1.0066018793588789e-05 1.9995994553838821e-05 -8.2225478432037585e-06 -2.9031382025265473e-09 1.1625736150225015e-08 -4.2385374009085704e-08 -0.42025201369073223 3.0468372814404936 -0.059641336454383 7.389792487967668e-17 -1.1509606982207677e-16 -6.1079085053942811e-18 1.7785578605739796e-37 1.4582728518972369e-36 -4.8178693396854429e-36 1043.6075662754511 -126.7781564164753 1272.8550176803762 -1.2047804788559305e-85 1.3312570801553386e-86 -1.9429958854077938e-86 -8.7618650137046199 1.9421169623960339 -119.07271309237539 -1.1945948281619264e-64 -1.3416568308275507e-64 -3.065149771167757e-65 -0.0013341625467867691 -0.00011378008725270293 0.00055065229426396161 -1.901567959372903e-12 7.7126590262345148e-12 -1.1765476227368758e-12 1866.1972318723608 1272.4973923945697 1749.816313638664 3.7065341306094665e-29 -4.3513555866299591e-29 7.11402475525127e-29 -7.3636213797359792e-75 3.5772269768268435e-76 -1.5832494192028328e-75 0.029323068706452696 -0.084439831969118528 -0.003291547358532541 -0.00065176136716687432 0.00059225838535743771 -0.00092133290588157545 -0.0019878256007047411 -0.0026995406008925417 0.021005591908922584 -2.2838511744595035e-16 5.0962401092603223e-16 -1.4477704047150295e-15 1.4141595766513239e-24 -1.6857189592988138e-24 -1.3850322983385291e-24 -8.7329584030768325e-22 -9.6782104746531192e-22 4.8170026349766341e-21 -1.8390515661045175e-31 4.9766228689739012e-31 2.8084835571924225e-32 6.6117742051625157e-28 -1.2772601560065265e-27 -9.0687351451680868e-30 3.0820347891129716 -0.048818827418944548 -0.67437260399299648 2.7180607419821046 7.3887531613731872 -0.45859923217342341 -1.4143442576111007e-18 -7.7851913071876234e-19 1.9215150342566235e-18 1.0425343704514136e-05 -3.1475478215887795e-06 1.6470342607317421e-06 2.6300167995924034e-11 -1.9872905644792882e-11 2.7467026586891855e-11 1.3977761537611775e-39 -7.6704506776809727e-39 1.5118911433520781e-39 4.3775797772759948e-13 -9.9411022758999792e-15 -1.9941361120384468e-13 -1.5799795898094932e-07 6.7853335180671509e-08 5.3272530329436086e-08 7.3402120640940881e-05 -0.00013940799294241604 5.1833796523511084e-06 -0.059600100889241094 -0.0098584106573864645 0.046940521337491339 -0.058433482578761339 0.064505427265175039 -0.62596347941561759 1.3477927447859146e-09 -7.5766387254706956e-09 1.1179843853701268e-09 6.9312690676191413e-68 -2.7205889751434657e-68 -1.2739574611051444e-68 1749.4725573093742 1591.0026093009897 2.9852881456624288e-84 4.4559009668800315e-85 -1.3667281743253912e-84 1272.4959468994928 1749.7718363976851 1382.9847401546654 1749.7409803100527 1382.9656081368703 1591.3671332052363 1.8108155876676507e-73 -1.2940119552791038e-73 6.86128359365484e-74 -5.9098680499935345e-79 1.7958456967247743e-78 -3.1093947813151059e-79 2.4542296675737611e-63 3.239854179323851e-63 -2.4168981407308544e-63 -120.48525963723799 1268.1996120770721 -122.45408131774951 1272.1955301057815 -123.33918698933545 1383.4580852506376 2.4207640548274925e-53 2.1523714141711396e-53 -1.215508810418481e-52 6.923191446346102e-58 -7.3352695836015089e-58 -1.3543028651102956e-58 2.9146429116181825e-44 -1.1332419253281134e-43 1.668200594459275e-43 2.6938154668868526 -120.06573117802176 6.872874492262846 -2.592369434695155e-35 1.6015085938668238e-35 1.2696870450123825e-35 -118.44686132576258 -122.31249669400636 5.6411476612196854 4.1710735433136816e-48 2.2312535715048247e-48 -2.7179562859127248e-48 1.3080497896366116e-95 4.4653602938367645e-97 -3.7729659692442084e-96 -8.5137544097409076e-102 2.6250281905765665e-101 -2.1213048245720949e-102 -4.1754190692954661e-90 1.2992058188796746e-89 -1.6930618646287995e-90 -4.3343983593130643e-101 1.3675626906191567e-100 1.418025543835356e-101 -2.0479140361028926e-89 6.6909343194564685e-89 5.7534492222335664e-90 0.00028474110530117558 0.0085447847998644886 -0.0041767512932162926 -124.94188946886267 7.3686330811613754 5.7645954644989441 -1.5272568558384061e-05 -8.052467266545557e-06 2.2632984089877783e-05 1382.9479643319603 1591.3875288950353 1483.5210434169474 -1.2609753532636334e-30 -7.5963783217508255e-31 1.3607345701629057e-30 0.022579577274249078 -0.5226054541987728 0.091055164360297369 9.1587251943007498e-78 -2.6852188815178982e-78 6.3879892019640567e-79 -3.1494102956989628e-47 8.5916226188328859e-47 -9.2759717653864849e-48 -8.632994431397154e-09 9.1175423299145987e-09 -1.0189283316035118e-08 7.6786219936421309 -0.61181208869904158 -0.69827245242118408 -7.5342349355487744e-68 4.1921981737601344e-67 1.4486380487888236e-68 4.7910025098641568e-18 -2.6414473375381548e-17 4.4896868426950698e-18 -4.338558022722277e-25 2.4653947857287231e-23 -1.0058519574147199e-23 -3.8750269609703077e-57 -4.7432806563057145e-58 2.1127456768025523e-57 -7.4790882504071655e-13 2.1973485315193518e-12 2.1411375584997094e-13 2.1530178709487474e-38 -2.4557290750496735e-38 -1.0734559021639207e-38 -121.49707879182323 1383.2981404852155 -119.61347618296482 7.783441024985314e-43 -2.193718326496222e-43 -1.5721195725127016e-42 -1.0556405512889742e-34 4.7096233806283401e-34 -9.0789378974834582e-35 0.015054568988848455 0.044732215297033529 -0.014927037959037118 1.6228991292313154e-83 1.4249556221653818e-84 -1.393396951384789e-84 -1.725722481833625e-53 -1.6760603342959198e-52 4.6944565071045631e-52 -4.1296304569305532e-15 1.6882587688387999e-15 9.5580035478729254e-16 -3.6688956135886277e-05 -0.00072685891800784806 0.00019118769175837755 1.3191406234025319e-10 -1.83722707015331e-10 -2.1932129048964873e-12 -8.8379983506182901e-28 3.4857986137328706e-27 -9.3790809714557304e-27 1.0437184156821969e-72 1.3026586682486493e-74 -3.9391774945190321e-74 -2.485404079310318e-07 -2.1430466201792055e-07 1.2705414513514095e-06 9.8031651899289843e-21 -8.9288886701661994e-21 1.2466322428273748e-20 1.6438778755122505e-62 1.3213296569621563e-62 4.4829654968467756e-63 1382.8575699080648 -115.49370212104969 1484.291988766362 7.4108880789177229 6.921795973630033 -0.35509052742910208 1591.4281494425338 1410.6081544391645 1483.4807589019324 -0.58721597663108815 -0.73428925037470105 0.15075425061030878 -121.53857872295455 3.4146417398363949 -121.90819751730788 1591.1328882102525 1410.1692787298912 6.6214048473405575e-09 6.8091470263622033e-08 -4.1354830177172413e-08 -4.7323934952527417e-56 3.156192938682812e-56 9.0052394415536877e-57 -1.4583516126176655e-51 2.1097033063083906e-52 4.5326243356826572e-51 3.003374017108139e-30 -1.7764156725229074e-29 3.366052393157883e-30 -2.1322784270639544e-66 1.2194390695329204e-66 3.9807806313619342e-67 7.2628076682273945e-07 -1.1016307049122979e-06 2.7958107276926108e-06 1483.6429114381783 1569.0459649854845 -102.60585461150819 -7.6728827820451607e-62 -1.6734427594431092e-61 8.1440190558185817e-62 -0.65605245862841 0.084529476492258449 0.090833871278324235 -0.72551917902907637 0.13698979581147938 -0.70225443947506794 -7.0986918012067268e-77 2.3905464817266742e-77 1.2193735237278291e-77 -7.2370292796389079e-72 5.5491617671536749e-72 -2.6085611770907829e-72 -118.71536212975791 1489.1937686189851 -112.16980297102745 -1.8495847882029882e-26 9.5117802689708387e-29 1.0364236902959857e-26 -3.2462525392088768e-23 9.7446591737910044e-23 1.0403903116258406e-24 -1.8046710702998798e-12 -1.6837971665550834e-12 3.3381582776234637e-12 9.9156435075719277e-12 -8.4043723892908933e-10 2.4007714019605136e-10 1.0679789338306387e-42 3.6370488465835291e-42 -1.02675584315671e-41 -1.7725647052073487e-46 -2.1690128122665398e-47 9.576169150485948e-47 5.0102686082460286e-34 1.0989618175298702e-33 -7.6177143560266765e-34 2.2713669291104914e-37 1.199524814068237e-38 -8.488503308311226e-38 -121.08142566152397 1.0101124389434208 -117.17181479704718 6.3834818338453667 -126.45240641586287 4.6416103375968314 6.9526850910207765 6.3593493687996494 0.12593302278949003 7.5891335418867083 -0.7289965424755539 -0.50487443458308068 2.600120615260713e-17 -3.1538312103444608e-17 -2.0520507027072131e-17 -6.8458536492777094e-15 2.2659117816554056e-14 -3.5544522261992607e-15 -1.2022787173500751e-82 5.488114898007408e-83 -1.6906647799137177e-83 1410.5791129377333 1483.4777720686384 1567.9590631884066 1410.5793326271494 1211.0381448986377 1567.9252975222316 4.2892232842757644e-20 -4.753412733903378e-20 -5.4214706601778423e-21 1410.0413249403798 1210.4356296641158 0.020805601726856377 -0.0027446739645397272 -0.0053794300614814546 0.041902984073160045 -0.020362008654260581 0.051939401521351007 -0.00012692387308270482 5.9257898047985496e-06 4.5101609340212606e-05 -0.00058548507729578312 0.00043758067081130334 -0.0010266924901811535 -5.1998282384787852e-88 1.6735198242137616e-88 6.6351210108802828e-89 3.3885611185534443e-100 -1.0498520157222484e-99 8.3481524337267181e-101 -5.2490199477041487e-94 -1.6102583461303096e-95 1.4815992305419438e-94 6.9860181771767941e-95 -8.3512203616383078e-96 7.3616329285437861e-96 -1.5399079111079201e-93 9.7716829151357735e-95 6.597924119721458e-95 2.6323860425882265e-33 -7.9889332441448618e-34 -2.3486417848005972e-33 -3.4293369570378323e-26 -1.0035157003328546e-26 8.3853945158458562e-26 0.049522241670152491 0.057275264872545376 -0.022391846078948802 6.440292303142102 5.3599688430115453 0.65862122787067268 1210.4524270246839 1004.4802323915833 -5.6593276949543364e-10 5.8001416293537528e-10 -1.3167543930482947e-09 -3.6207562480710494e-82 1.0192209741476232e-84 4.3998852222509612e-83 -1.0917886901160197e-41 1.3157133700430282e-41 -4.9102566105590497e-42 1568.3668719085667 1632.4528583998506 -84.494494256752091 9.5747018190926439e-15 -1.983220319300996e-14 5.1626543969823982e-14 -2.4704421520738802e-71 -7.0283260322688017e-73 9.7910682631965039e-72 1.7637365626122305e-20 6.009167119709485e-20 -2.1447763079779482e-19 1211.0609209851293 1631.0457463158159 1005.151422712669 -2.2268702398146204e-51 -9.12416223936949e-51 1.370344021342851e-50 -2.7397684557062565e-61 -3.1269666094948702e-61 -1.316199756009759e-61 -0.70489461330566805 -0.67453409993560121 0.1008817428549636 2.2065283704295289e-06 3.6835475719110164e-06 -1.7415743381857804e-06 -0.00089845681962613579 -0.0012259804909134616 0.00056666789859995343 -116.31377145630867 -107.400498738911 -1.9191417849273116 -2.1170403671050844e-76 6.2741146629472948e-77 4.7896836631378901e-78 -3.6272103969145778e-23 -6.9064216978034325e-23 9.3419746214676415e-23 1.3796204275511762e-16 2.1320860896426672e-17 -8.5275448486835073e-17 1211.0320171163855 1567.9192218017192 1631.0877450131973 7.4939415832870395 -0.58083157719962131 -0.32530982303328076 -0.0044879237060487763 0.025436258554475882 -0.0058386791532545222 3.1335716621132082e-05 -0.00019062269580789835 5.4754900847264817e-05 9.0476764246720015e-37 -2.8472293546596076e-37 -6.4831474877797314e-38 1.7467316970992401e-66 -8.0960787879015536e-66 3.2984989521279854e-67 0.093971781724520198 -0.68623724413512388 0.086701572271957239 -2.1559441628739123e-08 1.749223872820073e-07 -6.0401159749140774e-08 -1.721223655327027e-11 5.000656512842893e-13 7.0824488400524985e-12 5.2988595393859841 -123.77599233015999 3.0507570909354009 1.691925983079521e-46 -1.8586096731799009e-45 4.0742605751944028e-46 -2.3363919909931128e-29 1.5868703211360367e-29 -6.7976396297732091e-30 1.4444140073566567e-55 2.3899785095111429e-56 -4.0410822848205669e-56 1579.3607484528452 -111.36884571530953 -99.638832445573641 9.7455536967102177e-100 -3.0049184208656898e-99 -1.2261240089706621e-100 -1.4832035174428371e-87 4.6810136551332609e-88 -1.4791528467478828e-89 -4.292410945783173e-25 8.3864872784369835e-25 3.9997387413121215e-25 25.051670459047013 -32.302150931002124 -17.697327164847046 -1.4139883703940043e-18 7.0200943411895238e-19 -7.303886244792466e-19 2.7325744499612889e-13 -1.3309392776984509e-13 1.5010514753399949e-13 -1.9272690953540156e-49 1.9454132998331949e-49 -1.028924792462453e-49 -6.0782750517618028e-09 2.8434369038082594e-09 -3.4019975318093314e-09 94.314580409246034 1383.4643684005639 1635.940274922026 -5.6004986941275777e-32 3.0466151055008674e-32 -2.4505003717996185e-32 3.8600660792778029e-40 -2.4209688604464067e-40 1.583536705210356e-40 1.5409396751446723e-05 -6.6682099168364085e-06 8.1020040549310664e-06 2.9372146563471317 1381.9846184751211 189.72582595667063 -12.234978504737683 6.2385231180663459 -1.2858092077046333 -0.0045560418874276221 0.0016384834252093311 -0.0021069156511859706 -1.0791178573265339e-59 -1.4017740979726417e-59 1.0879869153796971e-59 1.8489984483097569e-70 1.8804006318879816e-70 -1.0443876392031098e-70 2.0471943551998004 188.75885670939402 0.15431815295351481 -0.034819166412363871 0.066539810672852667 -7.8376867841006723e-82 2.9683679077098858e-82 -2.0476147703926178e-82 0.08364851730072756 -0.35752560577181886 -0.15273427158590139 7.7449542519241299e-94 -2.4490452757842674e-93 -8.4351064744423439e-94 -2.3804258386647454e-99 -1.8603898177598304e-99 7.4400779366239071e-100 -1.3841986267175095e-87 5.6296204559091849e-88 -7.9594399567322192e-88 0.059425902758286193 -0.54566624827888877 0.06498342352836492 3.2891758339250805e-11 1.8294948011109645e-11 -1.0327080064374701e-10 49.67619360364877 -5.30582063873391 1669.0173634136063 -1.5676748409848253e-28 5.8709553352094981e-28 -1.0041900210987498e-28 -2.7986383097735836e-65 2.0161297118608153e-64 -6.5455914302519808e-65 -4.8011049838784258e-77 -2.6712916198719314e-76 -7.3371318112063876e-76 0.00019275960902923482 9.5008099538049524e-05 -0.00056066251682338614 -0.015631377794747582 0.046968389524842863 -0.00705881402780626 2.3043870154626203 0.42095613519533215 1.6025703444061039 3.1407976126963804e-36 2.4934322709341463e-36 -1.405619430490556e-35 1381.9983468663295 1634.3219170158866 189.72594838024045 -4.9469768388719509e-16 -2.7693548470734695e-16 1.5949911145084447e-15 7.4386089117053571e-55 2.1694375537350936e-54 -8.6714610697963186e-54 8.3316300952464809e-22 -2.8322225959329739e-21 4.8234230452403558e-22 -5.8198880052459693e-45 -7.1229909539678075e-45 3.628038572112449e-44 -19.139305023656668 -32.534789870290204 -3.8142143326767743 -2.4290714694573549e-07 7.2939135100283208e-07 -1.3197948971492698e-07 -4.1989250840177646e-45 2.542779090803702e-44 -4.5970326226636422e-45 2.1597970234304899e-09 -4.4640105733584948e-09 -2.6551577197788586e-09 -1.6241442683393456e-40 2.5546432000811238e-40 1.0784115933887761e-40 28.37011655025259 1636.4030500646484 1674.5121748976992 2.4322044280926337e-11 1.3265982502827354e-11 -7.6182455938007555e-11 -2.7700255357760453e-60 -8.0334310661368184e-60 1.5240130205008341e-60 -2.6549407639730034e-65 6.808479946692846e-65 4.790503053687926e-65 1.0276615142812866 0.59324785770065258 2.5988579506114986 1.0721817145398631e-05 -5.2691793393547975e-06 7.2273593807352298e-06 -1.825196820692053e-07 5.8805350262557907e-07 -1.0779692539557844e-07 3.3413978203337567 -2.1106392513299044 -0.26414502616950902 1634.3452220415704 386.96046290525538 1673.0726125974184 2.0956136650717055e-36 -9.5004966664963076e-36 1.7206557338135166e-36 2.0332369320567273e-32 -3.7281522155691387e-32 -1.6536857851320514e-32 8.1187788896967697e-55 -6.0395590970599509e-54 6.452216622236145e-55 1634.3123299192546 189.7527618194172 386.97851708764443 -3.1946487414204641 -30.8051248254211 1704.1534409635372 1.3282055340551927e-49 -1.3775786188432814e-49 -5.6628504382633081e-50 0.00013735094308374806 9.5037540917246492e-05 -0.00051038261102704014 -5.4915011468910784 -4.1135500486546777 -59.233214434141374 -18.47390400821714 -13.952607040015572 -45.214672300906543 0.021505743549175723 -0.23406022153022704 -0.2867808630284861 0.01458117586980299 -0.68087560492649124 0.075488624394221923 5.7231929287767794e-22 3.2461408236299828e-22 -1.922489307597468e-21 -9.9249787821377753e-19 4.8684162127788489e-19 -4.9967964625586042e-19 4.1425730151875215e-82 1.4366026023055016e-82 -1.7392354261178407e-81 -9.6081918913956146e-14 1.9818197466989077e-13 1.07473099405732e-13 -3.5211182557678111e-16 -1.8980680478704873e-16 1.1151191167507823e-15 -0.0094479828470175782 0.049155539561886258 -0.0088882186346365515 0.0657666631785776 -0.023430743456883847 0.073098028381803626 0.0012677235146889749 -0.002668208000031667 -0.0021640299631845716 188.85743626205218 386.0551802307952 1.9320063222487434e-72 1.8510127819850032e-71 -6.3689495338581694e-71 -8.255728106948224e-78 -8.9626112284058312e-77 -8.5106726543159594e-76 -1.0498625818840526e-28 3.9356404701079415e-28 -6.8089138024155931e-29 5.7084961325592614e-25 -2.9001568910868627e-25 2.6877541958866602e-25 -6.8365662686562386e-88 1.9708559629279407e-87 -7.0054882604795233e-87 -1.09301567208134e-93 8.7078831997728413e-94 -6.628426562654543e-93 -1.6722110815146366e-99 4.1438955222999772e-99 -1.3010293234037696e-98 1.0476225720675118e-94 2.6635243490887092e-94 -2.6538770876997519e-93 -12.855252887685372 -45.942340463823463 -70.82189749138837 0.0010522352105629595 -0.0022753335837345096 -0.0017358975527019022 2.8429136987358046 -0.64255011878438917 2.1738878922863849 8.2118254690446961e-06 -3.9945407172183446e-06 5.4171628685517809e-06 -1.2123030301556415e-49 7.3899349602065639e-50 1.0258659096264472e-50 -7.4714734963823029e-71 -8.8486411950497729e-71 3.8102100188691928e-71 -0.27606491218968671 -0.11264487203061153 -0.48624601464719569 2.4187391279613818e-60 5.9098656088797906e-61 -2.3470195231534859e-60 6.8839591006819458e-83 2.7706284678406412e-82 -5.9925975358832698e-82 0.073295631805634906 -0.025918089094216744 0.068412156515136865 386.98553779499389 1673.0627343478577 589.97707832479284 1.8535444284728312e-40 -1.0943620062848328e-40 5.4181333353346753e-41 -1.7238942651819289 1675.0400829672756 1686.2926212333853 -2.552410841538419e-32 1.3936937343334336e-32 -1.1010860824090807e-32 1.563012441511957e-09 -3.2378761255981695e-09 -1.914999237164628e-09 3.8742433236414571e-25 -1.9810232219051569e-25 1.8551733127192928e-25 -6.7505124711255182e-14 1.3920720414702428e-13 7.5478411116550841e-14 3.3530420343831457e-19 -6.8199789084944114e-19 -3.4580185864512393e-19 -0.0088992982384542927 0.0420359158932435 -0.0074913944437026642 0.053770520367521855 0.089716690744808286 -0.73754372025371218 -2.4436983144076466e-16 7.7584754018749145e-16 -1.3294466154904232e-16 386.12098435936491 589.0948869025184 -7.2803754582938451e-29 -4.6060836454104204e-29 2.7480281257662048e-28 2.1704816525812756e-77 -5.4924446693373067e-77 6.7602145568331896e-77 0.00010948158606671757 -0.0003963058654316041 7.2964077242824768e-05 3.915358911230133e-22 -1.3259852869712399e-21 2.2