<?xml version="1.0"?>
<VTKFile type="UnstructuredGrid" version="0.1" byte_order="LittleEndian">
<UnstructuredGrid>
<Piece NumberOfPoints="1160" NumberOfCells="390">
<Points>
<DataArray type="Float64" NumberOfComponents="3" format="ascii">
0.0000000000 0.0000000000 0.0000000000 0.1000000000 0.0000000000 0.0000000000 0.1000000000 0.0000000000 0.0000000000 0.2000000000 0.0000000000 0.0000000000 0.2000000000 0.0000000000 0.0000000000 0.3000000000 0.0000000000 0.0000000000 0.3000000000 0.0000000000 0.0000000000 0.4000000000 0.0000000000 0.0000000000 0.4000000000 0.0000000000 0.0000000000 0.5000000000 0.0000000000 0.0000000000 0.5000000000 0.0000000000 0.0000000000 0.6000000000 0.0000000000 0.0000000000 0.6000000000 0.0000000000 0.0000000000 0.7000000000 0.0000000000 0.0000000000 0.7000000000 0.0000000000 0.0000000000 0.8000000000 0.0000000000 0.0000000000 0.8000000000 0.0000000000 0.0000000000 0.9000000000 0.0000000000 0.0000000000 0.9000000000 0.0000000000 0.0000000000 1.0000000000 0.0000000000 0.0000000000 0.0000000000 0.0000000000 0.0000000000 0.0000000000 0.0000100000 0.0000000000 0.1000000000 0.0000100000 0.0000000000 0.0000000000 0.0000000000 0.0000000000 0.1000000000 0.0000100000 0.0000000000 0.1000000000 0.0000000000 0.0000000000 0.1000000000 0.0000000000 0.0000000000 0.1000000000 0.0000100000 0.0000000000 0.2000000000 0.0000100000 0.0000000000 0.1000000000 0.0000000000 0.0000000000 0.2000000000 0.0000100000 0.0000000000 0.2000000000 0.0000000000 0.0000000000 0.2000000000 0.0000000000 0.0000000000 0.2000000000 0.0000100000 0.0000000000 0.3000000000 0.0000100000 0.0000000000 0.2000000000 0.0000000000 0.0000000000 0.3000000000 0.0000100000 0.0000000000 0.3000000000 0.0000000000 0.0000000000 0.3000000000 0.0000000000 0.0000000000 0.3000000000 0.0000100000 0.0000000000 0.4000000000 0.0000100000 0.0000000000 0.3000000000 0.0000000000 0.0000000000 0.4000000000 0.0000100000 0.0000000000 0.4000000000 0.0000000000 0.0000000000 0.4000000000 0.0000000000 0.0000000000 0.4000000000 0.0000100000 0.0000000000 0.5000000000 0.0000100000 0.0000000000 0.4000000000 0.0000000000 0.0000000000 0.5000000000 0.0000100000 0.0000000000 0.5000000000 0.0000000000 0.0000000000 0.5000000000 0.0000000000 0.0000000000 0.5000000000 0.0000100000 0.0000000000 0.6000000000 0.0000100000 0.0000000000 0.5000000000 0.0000000000 0.0000000000 0.6000000000 0.0000100000 0.0000000000 0.6000000000 0.0000000000 0.0000000000 0.6000000000 0.0000000000 0.0000000000 0.6000000000 0.0000100000 0.0000000000 0.7000000000 0.0000100000 0.0000000000 0.6000000000 0.0000000000 0.0000000000 0.7000000000 0.0000100000 0.0000000000 0.7000000000 0.0000000000 0.0000000000 0.7000000000 0.0000000000 0.0000000000 0.7000000000 0.0000100000 0.0000000000 0.8000000000 0.0000100000 0.0000000000 0.7000000000 0.0000000000 0.0000000000 0.8000000000 0.0000100000 0.0000000000 0.8000000000 0.0000000000 0.0000000000 0.8000000000 0.0000000000 0.0000000000 0.8000000000 0.0000100000 0.0000000000 0.9000000000 0.0000100000 0.0000000000 0.8000000000 0.0000000000 0.0000000000 0.9000000000 0.0000100000 0.0000000000 0.9000000000 0.0000000000 0.0000000000 0.9000000000 0.0000000000 0.0000000000 0.9000000000 0.0000100000 0.0000000000 1.0000000000 0.0000100000 0.0000000000 0.9000000000 0.0000000000 0.0000000000 1.0000000000 0.0000100000 0.0000000000 1.0000000000 0.0000000000 0.0000000000 0.0000000000 0.0000100000 0.0000000000 0.0000000000 0.0001221059 0.0000000000 0.1000000000 0.0001221059 0.0000000000 0.0000000000 0.0000100000 0.0000000000 0.1000000000 0.0001221059 0.0000000000 0.1000000000 0.0000100000 0.0000000000 0.1000000000 0.0000100000 0.0000000000 0.1000000000 0.0001221059 0.0000000000 0.2000000000 0.0001221059 0.0000000000 0.1000000000 0.0000100000 0.0000000000 0.2000000000 0.0001221059 0.0000000000 0.2000000000 0.0000100000 0.0000000000 0.2000000000 0.0000100000 0.0000000000 0.2000000000 0.0001221059 0.0000000000 0.3000000000 0.0001221059 0.0000000000 0.2000000000 0.0000100000 0.0000000000 0.3000000000 0.0001221059 0.0000000000 0.3000000000 0.0000100000 0.0000000000 0.3000000000 0.0000100000 0.0000000000 0.3000000000 0.0001221059 0.0000000000 0.4000000000 0.0001221059 0.0000000000 0.3000000000 0.0000100000 0.0000000000 0.4000000000 0.0001221059 0.0000000000 0.4000000000 0.0000100000 0.0000000000 0.4000000000 0.0000100000 0.0000000000 0.4000000000 0.0001221059 0.0000000000 0.5000000000 0.0001221059 0.0000000000 0.4000000000 0.0000100000 0.0000000000 0.5000000000 0.0001221059 0.0000000000 0.5000000000 0.0000100000 0.0000000000 0.5000000000 0.0000100000 0.0000000000 0.5000000000 0.0001221059 0.0000000000 0.6000000000 0.0001221059 0.0000000000 0.5000000000 0.0000100000 0.0000000000 0.6000000000 0.0001221059 0.0000000000 0.6000000000 0.0000100000 0.0000000000 0.6000000000 0.0000100000 0.0000000000 0.6000000000 0.0001221059 0.0000000000 0.7000000000 0.0001221059 0.0000000000 0.6000000000 0.0000100000 0.0000000000 0.7000000000 0.0001221059 0.0000000000 0.7000000000 0.0000100000 0.0000000000 0.7000000000 0.0000100000 0.0000000000 0.7000000000 0.0001221059 0.0000000000 0.8000000000 0.0001221059 0.0000000000 0.7000000000 0.0000100000 0.0000000000 0.8000000000 0.0001221059 0.0000000000 0.8000000000 0.0000100000 0.0000000000 0.8000000000 0.0000100000 0.0000000000 0.8000000000 0.0001221059 0.0000000000 0.9000000000 0.0001221059 0.0000000000 0.8000000000 0.0000100000 0.0000000000 0.9000000000 0.0001221059 0.0000000000 0.9000000000 0.0000100000 0.0000000000 0.9000000000 0.0000100000 0.0000000000 0.9000000000 0.0001221059 0.0000000000 1.0000000000 0.0001221059 0.0000000000 0.9000000000 0.0000100000 0.0000000000 1.0000000000 0.0001221059 0.0000000000 1.0000000000 0.0000100000 0.0000000000 0.0000000000 0.0001221059 0.0000000000 0.0000000000 0.0002771482 0.0000000000 0.1000000000 0.0002771482 0.0000000000 0.0000000000 0.0001221059 0.0000000000 0.1000000000 0.0002771482 0.0000000000 0.1000000000 0.0001221059 0.0000000000 0.1000000000 0.0001221059 0.0000000000 0.1000000000 0.0002771482 0.0000000000 0.2000000000 0.0002771482 0.0000000000 0.1000000000 0.0001221059 0.0000000000 0.2000000000 0.0002771482 0.0000000000 0.2000000000 0.0001221059 0.0000000000 0.2000000000 0.0001221059 0.0000000000 0.2000000000 0.0002771482 0.0000000000 0.3000000000 0.0002771482 0.0000000000 0.2000000000 0.0001221059 0.0000000000 0.3000000000 0.0002771482 0.0000000000 0.3000000000 0.0001221059 0.0000000000 0.3000000000 0.0001221059 0.0000000000 0.3000000000 0.0002771482 0.0000000000 0.4000000000 0.0002771482 0.0000000000 0.3000000000 0.0001221059 0.0000000000 0.4000000000 0.0002771482 0.0000000000 0.4000000000 0.0001221059 0.0000000000 0.4000000000 0.0001221059 0.0000000000 0.4000000000 0.0002771482 0.0000000000 0.5000000000 0.0002771482 0.0000000000 0.4000000000 0.0001221059 0.0000000000 0.5000000000 0.0002771482 0.0000000000 0.5000000000 0.0001221059 0.0000000000 0.5000000000 0.0001221059 0.0000000000 0.5000000000 0.0002771482 0.0000000000 0.6000000000 0.0002771482 0.0000000000 0.5000000000 0.0001221059 0.0000000000 0.6000000000 0.0002771482 0.0000000000 0.6000000000 0.0001221059 0.0000000000 0.6000000000 0.0001221059 0.0000000000 0.6000000000 0.0002771482 0.0000000000 0.7000000000 0.0002771482 0.0000000000 0.6000000000 0.0001221059 0.0000000000 0.7000000000 0.0002771482 0.0000000000 0.7000000000 0.0001221059 0.0000000000 0.7000000000 0.0001221059 0.0000000000 0.7000000000 0.0002771482 0.0000000000 0.8000000000 0.0002771482 0.0000000000 0.7000000000 0.0001221059 0.0000000000 0.8000000000 0.0002771482 0.0000000000 0.8000000000 0.0001221059 0.0000000000 0.8000000000 0.0001221059 0.0000000000 0.8000000000 0.0002771482 0.0000000000 0.9000000000 0.0002771482 0.0000000000 0.8000000000 0.0001221059 0.0000000000 0.9000000000 0.0002771482 0.0000000000 0.9000000000 0.0001221059 0.0000000000 0.9000000000 0.0001221059 0.0000000000 0.9000000000 0.0002771482 0.0000000000 1.0000000000 0.0002771482 0.0000000000 0.9000000000 0.0001221059 0.0000000000 1.0000000000 0.0002771482 0.0000000000 1.0000000000 0.0001221059 0.0000000000 0.0000000000 0.0002771482 0.0000000000 0.0000000000 0.0004915718 0.0000000000 0.1000000000 0.0004915718 0.0000000000 0.0000000000 0.0002771482 0.0000000000 0.1000000000 0.0004915718 0.0000000000 0.1000000000 0.0002771482 0.0000000000 0.1000000000 0.0002771482 0.0000000000 0.1000000000 0.0004915718 0.0000000000 0.2000000000 0.0004915718 0.0000000000 0.1000000000 0.0002771482 0.0000000000 0.2000000000 0.0004915718 0.0000000000 0.2000000000 0.0002771482 0.0000000000 0.2000000000 0.0002771482 0.0000000000 0.2000000000 0.0004915718 0.0000000000 0.3000000000 0.0004915718 0.0000000000 0.2000000000 0.0002771482 0.0000000000 0.3000000000 0.0004915718 0.0000000000 0.3000000000 0.0002771482 0.0000000000 0.3000000000 0.0002771482 0.0000000000 0.3000000000 0.0004915718 0.0000000000 0.4000000000 0.0004915718 0.0000000000 0.3000000000 0.0002771482 0.0000000000 0.4000000000 0.0004915718 0.0000000000 0.4000000000 0.0002771482 0.0000000000 0.4000000000 0.0002771482 0.0000000000 0.4000000000 0.0004915718 0.0000000000 0.5000000000 0.0004915718 0.0000000000 0.4000000000 0.0002771482 0.0000000000 0.5000000000 0.0004915718 0.0000000000 0.5000000000 0.0002771482 0.0000000000 0.5000000000 0.0002771482 0.0000000000 0.5000000000 0.0004915718 0.0000000000 0.6000000000 0.0004915718 0.0000000000 0.5000000000 0.0002771482 0.0000000000 0.6000000000 0.0004915718 0.0000000000 0.6000000000 0.0002771482 0.0000000000 0.6000000000 0.0002771482 0.0000000000 0.6000000000 0.0004915718 0.0000000000 0.7000000000 0.0004915718 0.0000000000 0.6000000000 0.0002771482 0.0000000000 0.7000000000 0.0004915718 0.0000000000 0.7000000000 0.0002771482 0.0000000000 0.7000000000 0.0002771482 0.0000000000 0.7000000000 0.0004915718 0.0000000000 0.8000000000 0.0004915718 0.0000000000 0.7000000000 0.0002771482 0.0000000000 0.8000000000 0.0004915718 0.0000000000 0.8000000000 0.0002771482 0.0000000000 0.8000000000 0.0002771482 0.0000000000 0.8000000000 0.0004915718 0.0000000000 0.900000000
[...]
<PointData Scalars="Ba-133_conc,region_id," Vectors="" Tensors="">
<DataArray type="Float64" Name="Ba-133_conc" format="ascii">
3185.8133931226 3733.6041637997 3733.6127638974 4219.2776961002 4219.2714115697 4518.7167954298 4518.7224244264 4554.1865629873 4554.1834432229 4226.5932962548 4226.5975734672 3533.7650573293 3533.7642221071 2556.8616971072 2556.8649946575 1513.1796276931 1513.1790453830 635.8640904179 635.8643295059 8.0034141921 3184.9859023041 403.8920280187 625.8858829095 3183.6069367286 625.7884888117 3731.3469322219 3734.2018905891 623.5986598979 817.5429386907 3731.3436225527 819.3551861407 4217.1272236100 4221.0798431600 815.6224365119 1048.8539455182 4217.1315208616 1051.3673217001 4516.9847975992 4522.2040123266 1046.3435577859 1321.0829747059 4517.0098117222 1324.4406913290 4553.1944701242 4559.1051364790 1318.1913980225 1621.4949375254 4553.2372378063 1624.8678257806 4226.6449554443 4232.3738813558 1618.1210255455 1939.9849652969 4226.7235465615 1942.3654843953 3534.9870604448 3538.7331734306 1936.4099106830 2252.2039235569 3535.0993848062 2251.7469237952 2559.1026649123 2558.8685431981 2248.5484618377 2532.6734962692 2559.2448354882 2527.9498252300 1515.9528551790 1510.0811038495 2529.5040000021 2757.5859761877 1516.0906837848 2748.0921692879 638.6023622942 628.1715071920 2754.7446568799 3168.3713580989 638.6689925193 3156.8379314463 10.7354565767 364.6810858007 -5.9998382267 -83.5119334991 391.4374338066 -106.8900541289 612.2002260769 585.5099310589 -81.8721867041 -108.6922134237 610.1538758035 -136.3273672837 799.5893433821 768.7853598208 -106.5322280128 -138.2777436148 798.7578999710 -170.5445955337 1029.0890342299 993.6564298576 -135.9863374771 -172.2487562370 1027.1788992326 -207.7587554553 1300.1706237332 1261.7850068799 -169.7643639847 -208.7896880148 1297.3088212053 -245.2807396494 1601.8301220094 1563.1630124904 -206.2674033310 -245.0384977054 1597.5175770343 -278.8450688936 1924.2489966973 1889.5431780623 -242.7008460124 -277.1298112335 1918.5604066666 -303.3369954760 2244.1974522647 2218.7348070236 -275.1870678239 -300.2565901032 2237.0543763241 -313.1310511861 2535.6579028637 2525.1583478917 -298.7920374609 -296.3337249909 2527.7976849781 -291.9489862004 2774.1144812656 2783.6310655869 -298.8154152722 -600.1947701466 2765.2336775229 -562.9918547677 3199.1666053789 -5.3216541284 -0.4534171052 3.1094087615 -5.9129209175 3.9708926967 -74.8177857895 -71.3216171934 2.5535790935 7.1795597841 -74.6093728214 9.3937688002 -98.4625935120 -94.0417410537 6.9188457777 8.9326139546 -97.8296459586 11.5625838502 -126.5119999959 -121.5204050493 8.7654133782 11.2115113542 -125.8231204035 14.1426974052 -159.3506914472 -153.9717549144 11.0977779631 13.6918106185 -158.5022479498 16.7224593366 -195.6257704277 -190.3145519000 13.6780432000 16.1770967684 -194.6221662751 18.9718715105 -232.9855344209 -228.4530670440 16.3256138757 18.3672621304 -231.8551179682 20.4359826380 -268.0062391040 -265.2031140891 18.7447568626 19.9910476294 -266.7833743983 20.6695099027 -296.1574717937 -296.1837208734 20.5622005510 18.4899627083 -294.9524744440 17.4701666599 -298.4276153454 -302.7326898598 20.4502527051 43.5541220964 -297.5971485961 37.8394812612 -620.2283614334 -0.2719690221 0.0417464924 -0.0798716029 -0.2908535116 -0.1066735492 2.5953041633 2.3486505613 -0.0354367201 -0.6127423894 2.4459575548 -0.8252489867 6.2650577429 5.8271378531 -0.5522855074 -0.8502523928 6.1872097308 -1.1580992607 8.0113256118 7.4926914722 -0.8083876923 -1.0467036275 7.9076535270 -1.4055424681 10.2096134311 9.6376708053 -1.0155728252 -1.3036820785 10.0990955704 -1.6887577264 12.6970008517 12.1103006291 -1.2768597318 -1.5716714992 12.5821197007 -1.9470338633 15.3269550738 14.7970897609 -1.5569020768 -1.8237848406 15.2198594895 -2.1313400860 17.8538090188 17.4862000413 -1.8310331282 -2.0476756438 17.7698734086 -2.1996033694 20.0672519293 19.9938873103 -2.0701729689 -1.8462730026 20.0153144461 -1.7788460792 19.1470627171 19.6425723714 -2.0349979048 -4.6700773269 19.5200876804 -4.0154482340 46.6721372478 0.0258161444 -0.0016984987 -0.0006809329 0.0296138550 -0.0013788087 -0.0583401989 -0.0469406039 -0.0042019050 0.0313237849 -0.0474492454 0.0437973016 -0.5029575137 -0.4506104669 0.0219484138 0.0689490793 -0.4871365326 0.1026600963 -0.7189827131 -0.6527247173 0.0628426461 0.0882190200 -0.7064559081 0.1312667676 -0.9092412090 -0.8348684323 0.0836610726 0.1107010272 -0.8985185919 0.1607673271 -1.1558982726 -1.0742439419 0.1071084510 0.1377985839 -1.1452138111 0.1920306389 -1.4293603693 -1.3471467931 0.1353270263 0.1653348338 -1.4201778157 0.2189582784 -1.7102069556 -1.6388870700 0.1654644393 0.1956512230 -1.7048156754 0.2404480795 -1.9985857892 -1.9536714553 0.1990582232 0.1772363252 -1.9943933788 0.2018389326 -1.8786253476 -1.8943064108 0.1913992590 0.4937153291 -1.9296125223 0.4870009648 -4.9935726651 -0.0009380491 0.0000190190 0.0002556817 -0.0011787208 0.0004152382 -0.0009578073 -0.0012804126 0.0004691422 -0.0009780210 -0.0016799232 -0.0014506731 0.0227301642 0.0187250449 -0.0002276501 -0.0052356897 0.0204557231 -0.0084284964 0.0536989917 0.0462958469 -0.0042425659 -0.0076387190 0.0521655688 -0.0127007037 0.0714664121 0.0623378514 -0.0068907753 -0.0096374883 0.0698916002 -0.0159439897 0.0920679568 0.0815273092 -0.0090116691 -0.0123387616 0.0906614671 -0.0197793962 0.1177361495 0.1058692426 -0.0117433591 -0.0154041614 0.1163320884 -0.0236911175 0.1459988169 0.1336574186 -0.0149054547 -0.0192023939 0.1449208505 -0.0278254943 0.1802897736 0.1688894592 -0.0191554251 -0.0184526438 0.1794736913 -0.0256816462 0.1706258887 0.1623813167 -0.0175462389 -0.0515778765 0.1726403357 -0.0602180821 0.5003294220 0.0000123295 0.0000033437 -0.0000139531 0.0000190582 -0.0000240129 0.0001979371 0.0001961877 -0.0000217266 0.0000071871 0.0002560429 0.0000031919 -0.0005794070 -0.0003918988 -0.0000430192 0.0002691575 -0.0004119501 0.0004599144 -0.0036131503 -0.0028798341 0.0001516173 0.0005735096 -0.0033859423 0.0010723311 -0.0055297129 -0.0045068774 0.0004752496 0.0007615797 -0.0053370371 0.0014498896 -0.0072427199 -0.0059959384 0.0006736732 0.0009883843 -0.0070645651 0.0018567316 -0.0095275402 -0.0080191154 0.0008985484 0.0012822269 -0.0093465143 0.0023382953 -0.0122696070 -0.0105048007 0.0011815391 0.0016722219 -0.0120881784 0.0029194352 -0.0159249974 -0.0140037608 0.0016201017 0.0017437555 -0.0158305847 0.0030162367 -0.0158958830 -0.0137470685 0.0013947842 0.0046536029 -0.0153890419 0.0066236457 -0.0474352794 0.0000009572 -0.0000002424 0.0000003856 0.0000013142 0.0000006592 -0.0000088582 -0.0000081519 0.0000004402 0.0000014639 -0.0000118854 0.0000034528 -0.0000004924 -0.0000054584 0.0000040007 -0.0000081740 -0.0000104630 -0.0000145824 0.0001537722 0.0001067467 -0.0000001844 -0.0000350421 0.0001297933 -0.0000722794 0.0003581105 0.0002651252 -0.0000240661 -0.0000533426 0.0003372961 -0.0001161621 0.0004994852 0.0003758567 -0.0000433339 -0.0000701377 0.0004775845 -0.0001546058 0.0006681455 0.0005118827 -0.0000598835 -0.0000937522 0.0006456543 -0.0002030964 0.0008911652 0.0006933831 -0.0000809737 -0.0001269806 0.0008640350 -0.0002665177 0.0012047718 0.0009669434 -0.0001169465 -0.0001458270 0.0011897005 -0.0003071327 0.0012944865 0.0009790516 -0.0000962859 -0.0003591143 0.0011664091 -0.0006241990 0.0037558271 -0.0000000577 0.0000000077 -0.0000000010 -0.0000000998 0.0000000063 0.0000001902 0.0000001578 0.0000000119 -0.0000000857 0.0000002700 -0.0000002060 0.0000009340 0.0000009090 -0.0000001584 0.0000000923 0.0000015195 0.0000000883 -0.0000035706 -0.0000018357 -0.0000002991 0.0000014189 -0.0000020939 0.0000031357 -0.0000181052 -0.0000116853 0.0000005781 0.0000029893 -0.0000160427 0.0000073875 -0.0000292764 -0.0000194910 0.0000021329 0.0000041458 -0.0000271856 0.0000106308 -0.0000401035 -0.0000271848 0.0000032492 0.0000056187 -0.0000378608 0.0000144217 -0.0000549638 -0.0000377925 0.0000044914 0.0000078300 -0.0000520838 0.0000196651 -0.0000766771 -0.0000545389 0.0000067111 0.0000098176 -0.0000747007 0.0000248026 -0.0000899591 -0.0000580182 0.0000053969 0.0000222092 -0.0000747784 0.0000471496 -0.0002455836 0.0000000014 -0.0000000001 -0.0000000003 0.0000000030 -0.0000000011 0.0000000004 0.0000000008 -0.0000000010 0.0000000022 0.0000000011 0.0000000055 -0.0000000392 -0.0000000317 0.0000000029 0.0000000042 -0.0000000610 0.0000000166 0.0000000158 -0.0000000162 0.0000000174 -0.0000000319 -0.0000000511 -0.0000000727 0.0000005716 0.0000002985 0.0000000057 -0.0000001210 0.0000004346 -0.0000003338 0.0000013274 0.0000007560 -0.0000000668 -0.0000001918 0.0000011791 -0.0000005673 0.0000019407 0.0000011279 -0.0000001342 -0.0000002634 0.0000017693 -0.0000007997 0.0000027026 0.0000015932 -0.0000001936 -0.0000003732 0.0000024843 -0.0000011211 0.0000038559 0.0000023519 -0.0000002934 -0.0000005026 0.0000036671 -0.0000015155 0.0000049089 0.0000026381 -0.0000002376 -0.0000010536 0.0000037601 -0.0000027360 0.0000124756 -0.0000000000 -0.0000000000 0.0000000000 -0.0000000000 0.0000000000 -0.0000000001 -0.0000000001 0.0000000000 -0.0000000000 -0.0000000003 -0.0000000000 0.0000000007 0.0000000005 0.0000000000 -0.0000000002 0.0000000011 -0.0000000007 0.0000000020 0.0000000018 -0.0000000004 0.0000000003 0.0000000044 0.0000000003 -0.0000000094 -0.0000000032 -0.0000000008 0.0000000030 -0.0000000040 0.0000000090 -0.0000000420 -0.0000000195 0.0000000008 0.0000000063 -0.0000000342 0.0000000216 -0.0000000711 -0.0000000344 0.0000000038 0.0000000092 -0.0000000619 0.0000000328 -0.0000001015 -0.0000000498 0.0000000061 0.0000000130 -0.0000000898 0.0000000470 -0.0000001467 -0.0000000742 0.0000000093 0.0000000184 -0.0000001347 0.0000000666 -0.0000001998 -0.0000000878 0.0000000078 0.0000000363 -0.0000001421 0.0000001157 -0.0000004722 -0.0000000000 0.0000000000 -0.0000000000 -0.0000000000 -0.0000000000 0.0000000000 0.0000000000 -0.0000000000 -0.0000000000 0.0000000000 -0.0000000000 -0.0000000000 -0.0000000000 -0.0000000000 0.0000000000 -0.0000000000 0.0000000000 -0.0000000001 -0.0000000000 0.0000000000 0.0000000000 -0.0000000001 0.0000000000 0.0000000000 -0.0000000000 0.0000000000 -0.0000000000 -0.0000000001 -0.0000000001 0.0000000008 0.0000000003 0.0000000000 -0.0000000001 0.0000000005 -0.0000000005 0.0000000018 0.0000000007 -0.0000000001 -0.0000000002 0.0000000015 -0.0000000009 0.0000000028 0.0000000011 -0.0000000001 -0.0000000003 0.0000000023 -0.0000000014 0.0000000040 0.0000000016 -0.0000000002 -0.0000000005 0.0000000035 -0.0000000020 0.0000000057 0.0000000020 -0.0000000002 -0.0000000009 0.0000000038 -0.0000000034 0.0000000126 0.0000000000 -0.0000000000 0.0000000000 0.0000000000 0.0000000000 -0.0000000000 -0.0000000000 0.0000000000 0.0000000000 -0.0000000000 0.0000000000 -0.0000000000 -0.0000000000 0.0000000000 -0.0000000000 -0.0000000000 -0.0000000000 0.0000000000 0.0000000000 -0.0000000000 -0.0000000000 0.0000000000 -0.0000000000 0.0000000000 0.0000000000 -0.0000000000 0.0000000000 0.0000000000 0.0000000000 -0.0000000000 -0.0000000000 -0.0000000000 0.0000000000 -0.0000000000 0.0000000000 -0.0000000000 -0.0000000000 0.0000000000 0.0000000000 -0.0000000000 0.0000000000 -0.0000000001 -0.0000000000 0.0000000000 0.0000000000 -0.0000000000 0.0000000000 -0.0000000001 -0.0000000000 0.0000000000 0.0000000000 -0.0000000001 0.0000000000 -0.0000000001 -0.0000000000 0.0000000000 0.0000000000 -0.0000000001 0.0000000001 -0.0000000002 -0.0000000000 0.0000000000 0.0000000000 -0.0000000000 0.0000000000 0.0000000000 0.0000000000 0.0000000000 -0.0000000000 0.0000000000 -0.0000000000 0.0000000000 0.0000000000 -0.0000000000 0.0000000000 0.0000000000 -0.0000000000 -0.0000000000 -0.0000000000 -0.0000000000 0.0000000000 -0.0000000000 0.0000000000 -0.0000000000 -0.0000000000 0.0000000000 0.0000000000 -0.0000000000 0.0000000000 0.0000000000 -0.0000000000 0.0000000000 -0.0000000000 -0.0000000000 -0.0000000000 0.0000000000 0.0000000000 0.0000000000 -0.0000000000 0.0000000000 -0.0000000000 0.0000000000 0.0000000000 -0.0000000000 -0.0000000000 0.0000000000 -0.0000000000 0.0000000000 0.0000000000 -0.0000000000 -0.0000000000 0.0000000000 -0.0000000000 0.0000000000 0.0000000000 -0.0000000000 -0.0000000000 0.0000000000 -0.0000000000 0.0000000000 0.0000000000 -0.0000000000 -0.0000000000 0.0000000000 -0.0000000000 0.0000000000 0.0000000000 -0.0000000000 0.0000000000 0.0000000000 0.0000000000 -0.0000000000 -0.0000000000 0.0000000000 0.0000000000 -0.0000000000 0.0000000000 -0.0000000000 -0.0000000000 0.0000000000 -0.0000000000 -0.0000000000 -0.0000000000 0.0000000000 0.0000000000 -0.0000000000 -0.0000000000 0.0000000000 -0.0000000000 0.0000000000 0.0000000000 -0.0000000000 0.0000000000 0.0000000000 -0.0000000000 -0.0000000000 -0.0000000000 -0.0000000000 0.0000000000 -0.0000000000 0.0000000000 -0.0000000000 -0.0000000000 0.0000000000 0.0000000000 -0.0000000000 0.0000000000 -0.0000000000 -0.0000000000 0.0000000000 0.0000000000 -0.0000000000 0.0000000000 -0.0000000000 -0.0000000000 0.0000000000 0.0000000000 -0.0000000000 0.0000000000 -0.0000000000 -0.0000000000 -0.0000000000 0.0000000000 -0.0000000000 0.0000000000 -0.0000000000 -0.0000000000 0.0000000000 -0.0000000000 -0.0000000000 -0.0000000000 0.0000000000 0.0000000000 0.0000000000 -0.0000000000 0.0000000000 -0.0000000000 0.0000000000 0.0000000000 -0.0000000000 0.0000000000 0.0000000000 -0.0000000000 -0.0000000000 -0.0000000000 -0.0000000000 0.0000000000 -0.0000000000 0.0000000000 -0.0000000000 -0.0000000000 0.0000000000 0.0000000000 -0.0000000000 0.0000000000 0.0000000000 -0.0000000000 0.0000000000 -0.0000000000 -0.0000000000 -0.0000000000 0.0000000000 0.0000000000 0.0000000000 -0.0000000000 0.0000000000 -0.0000000000 0.0000000000 0.0000000000 -0.0000000000 -0.0000000000 0.0000000000 -0.0000000000 0.0000000000 0.0000000000 -0.0000000000 -0.0000000000 0.0000000000 -0.0000000000 0.0000000000 -0.0000000000 0.0000000000 -0.0000000000 -0.0000000000 -0.0000000000 0.0000000000 0.0000000000 -0.0000000000 -0.0000000000 0.0000000000 -0.0000000000 -0.0000000000 0.0000000000 -0.0000000000 0.0000000000 -0.0000000000 0.0000000000 -0.0000000000 -0.0000000000 0.0000000000 0.0000000000 -0.0000000000 0.0000000000 0.0000000000 -0.0000000000 0.0000000000 -0.0000000000 -0.0000000000 -0.0000000000 0.0000000000 0.0000000000 -0.0000000000 -0.0000000000 0.0000000000 -0.0000000000 0.0000000000 0.0000000000 -0.0000000000 0.0000000000 0.0000000000 -0.0000000000 -0.0000000000 -0.0000000000 -0.0000000000 0.0000000000 0.0000000000 0.0000000000 -0.0000000000 -0.0000000000 -0.0000000000 0.0000000000 -0.0000000000 0.0000000000 -0.0000000000 -0.0000000000 0.0000000000 0.0000000000 -0.0000000000 0.0000000000 -0.0000000000 0.0000000000 -0.0000000000 0.0000000000 0.0000000000 0.0000000000 -0.0000000000 -0.0000000000 -0.0000000000 0.0000000000 -0.0000000000 0.0000000000 -0.0000000000 -0.0000000000 0.0000000000 -0.0000000000 -0.0000000000 -0.0000000000 0.0000000000 0.0000000000 0.0000000000 -0.0000000000 0.0000000000 -0.0000000000 0.0000000000 0.0000000000 -0.0000000000 0.0000000000 0.0000000000 0.0000000000 -0.0000000000 -0.0000000000 -0.0000000000 0.0000000000 -0.0000000000 0.0000000000 -0.0000000000 -0.0000000000 0.0000000000 0.0000000000 -0.0000000000 0.0000000000 -0.0000000000 -0.0000000000 0.0000000000 -0.0000000000 -0.0000000000 -0.0000000000 0.0000000000 0.0000000000 0.0000000000 -0.0000000000 0.0000000000 -0.0000000000 0.0000000000 0.0000000000 -0.0000000000 -0.0000000000 0.0000000000 -0.0000000000 0.0000000000 -0.0000000000 0.0000000000 0.0000000000 -0.0000000000 0.0000000000 0.0000000000 0.0000000000 0.0000000000 -0.0000000000 0.0000000000 -0.0000000000 0.0000000000 0.0000000000 -0.0000000000 -0.0000000000 0.0000000000 -0.0000000000 -0.0000000000 -0.0000000000 -0.0000000000 0.0000000000 -0.0000000000 0.0000000000 -0.0000000000 -0.0000000000 0.0000000000 0.0000000000 -0.0000000000 0.0000000000 0.0000000000 -0.0000000000 0.0000000000 -0.0000000000 -0.0000000000 -0.0000000000 0.0000000000 0.0000000000 -0.0000000000 -0.0000000000 0.0000000000 -0.0000000000 0.0000000000 0.0000000000 -0.0000000000 0.0000000000 0.0000000000 -0.0000000000 -0.0000000000 -0.0000000000 -0.0000000000 0.0000000000 0.0000000000 0.0000000000 -0.0000000000 -0.0000000000 -0.0000000000 0.0000000000 -0.0000000000 0.0000000000 -0.0000000000 
</DataArray>
<DataArray type="Int32" Name="region_id" format="ascii">
2 2 2 2 2 2 2 2 2 2 2 2 2 2 2 2 2 2 2 2 1 1 1 1 1 1 1 1 1 1 1 1 1 1 1 1 1 1 1 1 1 1 1 1 1 1 1 1 1 1 1 1 1 1 1 1 1 1 1 1 1 1 1 1 1 1 1 1 1 1 1 1 1 1 1 1 1 1 1 1 1 1 1 1 1 1 1 1 1 1 1 1 1 1 1 1 1 1 1 1 1 1 1 1 1 1 1 1 1 1 1 1 1 1 1 1 1 1 1 1 1 1 1 1 1 1 1 1 1 1 1 1 1 1 1 1 1 1 1 1 1 1 1 1 1 1 1 1 1 1 1 1 1 1 1 1 1 1 1 1 1 1 1 1 1 1 1 1 1 1 1 1 1 1 1 1 1 1 1 1 1 1 1 1 1 1 1 1 1 1 1 1 1 1 1 1 1 1 1 1 1 1 1 1 1 1 1 1 1 1 1 1 1 1 1 1 1 1 1 1 1 1 1 1 1 1 1 1 1 1 1 1 1 1 1 1 1 1 1 1 1 1 1 1 1 1 1 1 1 1 1 1 1 1 1 1 1 1 1 1 1 1 1 1 1 1 1 1 1 1 1 1 1 1 1 1 1 1 1 1 1 1 1 1 1 1 1 1 1 1 1 1 1 1 1 1 1 1 1 1 1 1 1 1 1 1 1 1 1 1 1 1 1 1 1 1 1 1 1 1 1 1 1 1 1 1 1 1 1 1 1 1 1 1 1 1 1 1 1 1 1 1 1 1 1 1 1 1 1 1 1 1 1 1 1 1 1 1 1 1 1 1 1 1 1 1 1 1 1 1 1 1 1 1 1 1 1 1 1 1 1 1 1 1 1 1 1 1 1 1 1 1 1 1 1 1 1 1 1 1 1 1 1 1 1 1 1 1 1 1 1 1 1 1 1 1 1 1 1 1 1 1 1 1 1 1 1 1 1 1 1 1 1 1 1 1 1 1 1 1 1 1 1 1 1 1 1 1 1 1 1 1 1 1 1 1 1 1 1 1 1 1 1 1 1 1 1 1 1 1 1 1 1 1 1 1 1 1 1 1 1 1 1 1 1 1 1 1 1 1 1 1 1 1 1 1 1 1 1 1 1 1 1 1 1 1 1 1 1 1 1 1 1 1 1 1 1 1 1 1 1 1 1 1 1 1 1 1 1 1 1 1 1 1 1 1 1 1 1 1 1 1 1 1 1 1 1 1 1 1 1 1 1 1 1 1 1 1 1 1 1 1 1 1 1 1 1 1 1 1 1 1 1 1 1 1 1 1 1 1 1 1 1 1 1 1 1 1 1 1 1 1 1 1 1 1 1 1 1 1 1 1 1 1 1 1 1 1 1 1 1 1 1 1 1 1 1 1 1 1 1 1 1 1 1 1 1 1 1 1 1 1 1 1 1 1 1 1 1 1 1 1 1 1 1 1 1 1 1 1 1 1 1 1 1 1 1 1 1 1 1 1 1 1 1 1 1 1 1 1 1 1 1 1 1 1 1 1 1 1 1 1 1 1 1 1 1 1 1 1 1 1 1 1 1 1 1 1 1 1 1 1 1 1 1 1 1 1 1 1 1 1 1 1 1 1 1 1 1 1 1 1 1 1 1 1 1 1 1 1 1 1 1 1 1 1 1 1 1 1 1 1 1 1 1 1 1 1 1 1 1 1 1 1 1 1 1 1 1 1 1 1 1 1 1 1 1 1 1 1 1 1 1 1 1 1 1 1 1 1 1 1 1 1 1 1 1 1 1 1 1 1 1 1 1 1 1 1 1 1 1 1 1 1 1 1 1 1 1 1 1 1 1 1 1 1 1 1 1 1 1 1 1 1 1 1 1 1 1 1 1 1 1 1 1 1 1 1 1 1 1 1 1 1 1 1 1 1 1 1 1 1 1 1 1 1 1 1 1 1 1 1 1 1 1 1 1 1 1 1 1 1 1 1 1 1 1 1 1 1 1 1 1 1 1 1 1 1 1 1 1 1 1 1 1 1 1 1 1 1 1 1 1 1 1 1 1 1 1 1 1 1 1 1 1 1 1 1 1 1 1 1 1 1 1 1 1 1 1 1 1 1 1 1 1 1 1 1 1 1 1 1 1 1 1 1 1 1 1 1 1 1 1 1 1 1 1 1 1 1 1 1 1 1 1 1 1 1 1 1 1 1 1 1 1 1 1 1 1 1 1 1 1 1 1 1 1 1 1 1 1 1 1 1 1 1 1 1 1 1 1 1 1 1 1 1 1 1 1 1 1 1 1 1 1 1 1 1 1 1 1 1 1 1 1 1 1 1 1 1 1 1 1 1 1 1 1 1 1 1 1 1 1 1 1 1 1 1 1 1 1 1 1 1 1 1 1 1 1 1 1 1 1 1 1 1 1 1 1 1 1 1 1 1 1 1 1 1 1 1 1 1 1 1 1 1 1 1 1 1 1 1 1 1 1 1 1 1 1 1 1 1 1 1 1 1 1 1 1 1 1 1 1 1 1 1 1 1 1 1 1 1 1 1 1 1 1 1 1 1 1 1 1 1 1 1 1 1 1 1 1 1 1 1 1 1 1 1 1 1 1 1 1 1 1 1 1 1 1 1 
</DataArray>
</PointData>
</Piece>
</UnstructuredGrid>
</VTKFile>
