<?xml version="1.0"?>
<VTKFile type="UnstructuredGrid" version="0.1" byte_order="LittleEndian">
<UnstructuredGrid>
<Piece NumberOfPoints="1160" NumberOfCells="390">
<Points>
<DataArray type="Float64" NumberOfComponents="3" format="ascii">
0 0.02712913039350634 0 0 0.037627845084982139 0 0.10000000000000001 0.037627845084982139 0 0 0.01007997645382676 0 0 0.014048877707311129 0 0.10000000000000001 0.014048877707311129 0 0 0.0072101992457088487 0 0 0.01007997645382676 0 0.10000000000000001 0.01007997645382676 0 0 0.0001221058858762623 0 0 0.00027714824767246312 0 0.10000000000000001 0.00027714824767246312 0 0 0.014048877707311129 0 0 0.019537864299142921 0 0.10000000000000001 0.019537864299142921 0 0 0.0051351601405289276 0 0 0.0072101992457088487 0 0.10000000000000001 0.0072101992457088487 0 0 0.00027714824767246312 0 0 0.00049157175393484403 0 0.10000000000000001 0.00049157175393484403 0 0 0.019537864299142921 0 0 0.02712913039350634 0 0.10000000000000001 0.02712913039350634 0 0 0 0 0.10000000000000001 0 0 0 0.0036347696815094469 0 0 0.0051351601405289276 0 0.10000000000000001 0.0051351601405289276 0 0 1.0000000000000001e-05 0 0 0.0001221058858762623 0 0.10000000000000001 0.0001221058858762623 0 0 0.0025498882091243972 0 0 0.0036347696815094469 0 0.10000000000000001 0.0036347696815094469 0 0 0.037627845084982139 0 0 0.052147564491031792 0 0.10000000000000001 0.052147564491031792 0 0 0.00049157175393484403 0 0 0.00078811928474293897 0 0.10000000000000001 0.00078811928474293897 0 0 0.00078811928474293897 0 0 0.001198244413521618 0 0.10000000000000001 0.001198244413521618 0 0 0.001198244413521618 0 0 0.001765447234118425 0 0.10000000000000001 0.001765447234118425 0 0 0 0 0 1.0000000000000001e-05 0 0.10000000000000001 1.0000000000000001e-05 0 0 0.001765447234118425 0 0 0.0025498882091243972 0 0.10000000000000001 0.0025498882091243972 0 0 0.052147564491031792 0 0 0.072228323778986164 0 0.10000000000000001 0.072228323778986164 0 0 0.072228323778986164 0 0 0.10000000000000001 0 0.10000000000000001 0.10000000000000001 0 0 0.072228323778986164 0 0.10000000000000001 0.10000000000000001 0 0.10000000000000001 0.072228323778986164 0 0 0.014048877707311129 0 0.10000000000000001 0.019537864299142921 0 0.10000000000000001 0.014048877707311129 0 0 0.019537864299142921 0 0.10000000000000001 0.02712913039350634 0 0.10000000000000001 0.019537864299142921 0 0 0.0051351601405289276 0 0.10000000000000001 0.0072101992457088487 0 0.10000000000000001 0.0051351601405289276 0 0 0.001198244413521618 0 0.10000000000000001 0.001765447234118425 0 0.10000000000000001 0.001198244413521618 0 0 0.001765447234118425 0 0.10000000000000001 0.0025498882091243972 0 0.10000000000000001 0.001765447234118425 0 0 0.00027714824767246312 0 0.10000000000000001 0.00049157175393484403 0 0.10000000000000001 0.00027714824767246312 0 0 0.0036347696815094469 0 0.10000000000000001 0.0051351601405289276 0 0.10000000000000001 0.0036347696815094469 0 0 0.01007997645382676 0 0.10000000000000001 0.014048877707311129 0 0.10000000000000001 0.01007997645382676 0 0 1.0000000000000001e-05 0 0.10000000000000001 0.0001221058858762623 0 0.10000000000000001 1.0000000000000001e-05 0 0 0.052147564491031792 0 0.10000000000000001 0.072228323778986164 0 0.10000000000000001 0.052147564491031792 0 0 0.0001221058858762623 0 0.10000000000000001 0.00027714824767246312 0 0.10000000000000001 0.0001221058858762623 0 0 0.02712913039350634 0 0.10000000000000001 0.037627845084982139 0 0.10000000000000001 0.02712913039350634 0 0 0.00078811928474293897 0 0.10000000000000001 0.001198244413521618 0 0.10000000000000001 0.00078811928474293897 0 0 0.0025498882091243972 0 0.10000000000000001 0.0036347696815094469 0 0.10000000000000001 0.0025498882091243972 0 0 0 0 0.10000000000000001 1.0000000000000001e-05 0 0.10000000000000001 0 0 0 0.0072101992457088487 0 0.10000000000000001 0.01007997645382676 0 0.10000000000000001 0.0072101992457088487 0 0 0.037627845084982139 0 0.10000000000000001 0.052147564491031792 0 0.10000000000000001 0.037627845084982139 0 0 0.00049157175393484403 0 0.10000000000000001 0.00078811928474293897 0 0.10000000000000001 0.00049157175393484403 0 0.10000000000000001 0.00078811928474293897 0 0.10000000000000001 0.001198244413521618 0 0.20000000000000001 0.001198244413521618 0 0.10000000000000001 0.00078811928474293897 0 0.20000000000000001 0.001198244413521618 0 0.20000000000000001 0.00078811928474293897 0 0.10000000000000001 0.0036347696815094469 0 0.20000000000000001 0.0051351601405289276 0 0.20000000000000001 0.0036347696815094469 0 0.10000000000000001 0.0051351601405289276 0 0.10000000000000001 0.0072101992457088487 0 0.20000000000000001 0.0072101992457088487 0 0.10000000000000001 0.0051351601405289276 0 0.20000000000000001 0.0072101992457088487 0 0.20000000000000001 0.0051351601405289276 0 0.10000000000000001 0.0072101992457088487 0 0.10000000000000001 0.01007997645382676 0 0.20000000000000001 0.01007997645382676 0 0.10000000000000001 0.0072101992457088487 0 0.20000000000000001 0.01007997645382676 0 0.20000000000000001 0.0072101992457088487 0 0.10000000000000001 0.00027714824767246312 0 0.10000000000000001 0.00049157175393484403 0 0.20000000000000001 0.00049157175393484403 0 0.10000000000000001 0.00027714824767246312 0 0.20000000000000001 0.00049157175393484403 0 0.20000000000000001 0.00027714824767246312 0 0.10000000000000001 0.0036347696815094469 0 0.10000000000000001 0.0051351601405289276 0 0.20000000000000001 0.0051351601405289276 0 0.10000000000000001 0.001198244413521618 0 0.10000000000000001 0.001765447234118425 0 0.20000000000000001 0.001765447234118425 0 0.10000000000000001 0.0025498882091243972 0 0.20000000000000001 0.0036347696815094469 0 0.20000000000000001 0.0025498882091243972 0 0.10000000000000001 0.01007997645382676 0 0.10000000000000001 0.014048877707311129 0 0.20000000000000001 0.014048877707311129 0 0.10000000000000001 0.0025498882091243972 0 0.10000000000000001 0.0036347696815094469 0 0.20000000000000001 0.0036347696815094469 0 0.10000000000000001 0.001765447234118425 0 0.20000000000000001 0.0025498882091243972 0 0.20000000000000001 0.001765447234118425 0 0.10000000000000001 0.001198244413521618 0 0.20000000000000001 0.001765447234118425 0 0.20000000000000001 0.001198244413521618 0 0.10000000000000001 0.00049157175393484403 0 0.10000000000000001 0.00078811928474293897 0 0.20000000000000001 0.00078811928474293897 0 0.10000000000000001 0.00049157175393484403 0 0.20000000000000001 0.00078811928474293897 0 0.20000000000000001 0.00049157175393484403 0 0.10000000000000001 0.001765447234118425 0 0.10000000000000001 0.0025498882091243972 0 0.20000000000000001 0.0025498882091243972 0 0.10000000000000001 0.02712913039350634 0 0.10000000000000001 0.037627845084982139 0 0.20000000000000001 0.037627845084982139 0 0.10000000000000001 0 0 0.20000000000000001 0 0 0.10000000000000001 0.052147564491031792 0 0.20000000000000001 0.072228323778986164 0 0.20000000000000001 0.052147564491031792 0 0.10000000000000001 0 0 0.10000000000000001 1.0000000000000001e-05 0 0.20000000000000001 1.0000000000000001e-05 0 0.10000000000000001 0 0 0.20000000000000001 1.0000000000000001e-05 0 0.20000000000000001 0 0 0.10000000000000001 0.037627845084982139 0 0.20000000000000001 0.052147564491031792 0 0.20000000000000001 0.037627845084982139 0 0.10000000000000001 0.037627845084982139 0 0.10000000000000001 0.052147564491031792 0 0.20000000000000001 0.052147564491031792 0 0.10000000000000001 0.02712913039350634 0 0.20000000000000001 0.037627845084982139 0 0.20000000000000001 0.02712913039350634 0 0.10000000000000001 1.0000000000000001e-05 0 0.10000000000000001 0.0001221058858762623 0 0.20000000000000001 0.0001221058858762623 0 0.10000000000000001 1.0000000000000001e-05 0 0.20000000000000001 0.0001221058858762623 0 0.20000000000000001 1.0000000000000001e-05 0 0.10000000000000001 0.019537864299142921 0 0.20000000000000001 0.02712913039350634 0 0.20000000000000001 0.019537864299142921 0 0.10000000000000001 0.019537864299142921 0 0.10000000000000001 0.02712913039350634 0 0.20000000000000001 0.02712913039350634 0 0.10000000000000001 0.014048877707311129 0 0.20000000000000001 0.019537864299142921 0 0.20000000000000001 0.014048877707311129 0 0.10000000000000001 0.0001221058858762623 0 0.10000000000000001 0.00027714824767246312 0 0.20000000000000001 0.00027714824767246312 0 0.10000000000000001 0.01007997645382676 0 0.20000000000000001 0.014048877707311129 0 0.20000000000000001 0.01007997645382676 0 0.10000000000000001 0.0001221058858762623 0 0.20000000000000001 0.00027714824767246312 0 0.20000000000000001 0.0001221058858762623 0 0.10000000000000001 0.014048877707311129 0 0.10000000000000001 0.019537864299142921 0 0.20000000000000001 0.019537864299142921 0 0.10000000000000001 0.072228323778986164 0 0.20000000000000001 0.10000000000000001 0 0.20000000000000001 0.072228323778986164 0 0.10000000000000001 0.072228323778986164 0 0.10000000000000001 0.10000000000000001 0 0.20000000000000001 0.10000000000000001 0 0.10000000000000001 0.052147564491031792 0 0.10000000000000001 0.072228323778986164 0 0.20000000000000001 0.072228323778986164 0 0.20000000000000001 0.072228323778986164 0 0.20000000000000001 0.10000000000000001 0 0.29999999999999999 0.10000000000000001 0 0.20000000000000001 0.052147564491031792 0 0.20000000000000001 0.072228323778986164 0 0.29999999999999999 0.072228323778986164 0 0.20000000000000001 0.00078811928474293897 0 0.20000000000000001 0.001198244413521618 0 0.29999999999999999 0.001198244413521618 0 0.20000000000000001 0.0001221058858762623 0 0.20000000000000001 0.00027714824767246312 0 0.29999999999999999 0.00027714824767246312 0 0.20000000000000001 0.001198244413521618 0 0.20000000000000001 0.001765447234118425 0 0.29999999999999999 0.001765447234118425 0 0.20000000000000001 0 0 0.20000000000000001 1.0000000000000001e-05 0 0.29999999999999999 1.0000000000000001e-05 0 0.20000000000000001 0.0072101992457088487 0 0.20000000000000001 0.01007997645382676 0 0.29999999999999999 0.01007997645382676 0 0
[...]
<PointData Scalars="Ba-133_conc,region_id," Vectors="" Tensors="">
<DataArray type="Float64" Name="Ba-133_conc" format="ascii">
-1.6339002732294019e-63 3.3101103357228525e-64 -1.1177456032483901e-64 2.9484155185024574e-36 -6.9322070422361916e-36 5.9221980326982147e-36 3.6394520533072225e-28 4.7631458252459774e-29 -2.2762574366661393e-28 10.520767923382371 0.48798091591440901 -3.3503973274552385 -4.9273517617322649e-44 2.9496179485065668e-44 1.1876064794338371e-45 -1.8964129748190237e-21 2.9016632841232363e-22 4.5167891649030895e-22 0.38211914874559216 -0.026155106132073766 0.12003452639298763 -7.468339693298946e-54 4.0780968960768644e-54 -2.4944532357467986e-54 442.1139340540081 394.86148781960526 6.0289415343236857e-16 -1.7645951189563337e-16 1.1200817958786837e-17 757.7739474933212 10.786427841904679 43.095848072528923 -1.2779555382895052e-11 5.8952190989099188e-12 -5.304453325098617e-12 -7.7304387821232827e-74 2.2649961671440155e-74 -6.8155571334540372e-75 -0.03531837544857426 0.0034588416242397474 0.00052031683262398511 0.0010307898762732146 -0.00014604267782040197 -0.00020618530516098226 -1.9758402678039078e-06 1.5473335685456385e-06 -1.5723161495362294e-06 442.35823403772196 748.57096174847106 680.5053083766602 1.150048630760179e-08 -1.1836678332990557e-08 2.0573854456863488e-08 -1.1463650718759739e-84 3.4619501256908776e-85 -1.1225882558562311e-85 -4.4957040679687215e-96 1.4048023700583841e-96 -5.0724780120926441e-97 -1.6540762117377181e-90 2.1676692140774925e-91 -2.3023103375100755e-91 -3.5448606618900794e-40 -8.4028691488386337e-41 1.3319160354118234e-39 3.2993969480935787e-50 -4.1490494222207342e-49 -1.8054814961091078e-49 -5.7604787460684373e-19 2.9801396259696375e-19 2.581878530935868e-20 -3.8225895060863318e-05 1.8542843205487336e-05 1.0688535968176624e-06 1.2998460898394414e-07 1.2663893266924369e-07 -7.7217410648574256e-07 0.44498579335678407 0.10258946971970082 -3.3899868270342903 5.9254802968726852e-14 -9.1432395705587327e-15 -7.6788240814090629e-14 7.1366512628435621e-33 3.7771109717790657e-32 -1.3111968801968987e-31 748.99834776362206 49.850729810565838 680.72621723660177 -1.9477355445833127e-79 1.9829131414434939e-80 -2.7385888791410382e-80 10.934974330262827 -3.5266921013810566 39.843291266714708 -4.5052176544314522e-59 -1.2946885480411217e-59 -4.6662562746466604e-59 0.0022732376972519962 -0.00095682902217719061 -0.00063336604343643154 -3.7212684784304245e-10 -1.1221734034020189e-10 1.1237269985824377e-09 442.34960042622237 680.51680333744537 395.06425992406247 3.2233953386199639e-25 -4.1551628041650006e-25 7.3806679584103019e-25 -5.8912937347249908e-69 1.9286177294214083e-70 -1.0610062708099633e-69 -0.034793856892193248 0.0049118864934779051 0.12202699544815945 -0.00013223557981236335 -0.0011897674750509103 0.0021237567254277041 0.0014182114409818081 0.0049048372315751701 -0.033439789443873331 -1.529307676501203e-13 3.584343901008819e-13 -1.0132152685525687e-12 -8.7767817022087838e-21 7.2227932792727473e-21 -6.9955042513078501e-21 -2.4403528240249329e-18 -2.6458895869479158e-18 1.3334225313371401e-17 7.7505826535637562e-27 -2.8388112669149124e-27 4.0993757211467798e-28 5.9682336478435774e-24 -1.1408294153055513e-25 -1.1436115515579526e-23 -3.3154764140759605 0.08192430590589582 0.74845790603622198 -3.0811142027159253 0.70636444689608435 -4.7719701433047961 -1.9795948003313273e-15 -1.1270045550810132e-15 2.7627813537259475e-15 2.2388022351629682e-05 1.0268839949290277e-06 -4.6621797809762613e-06 3.447697120331457e-09 -2.5860979062905449e-09 3.8004914315359263e-09 -3.2245504953647629e-34 5.7917624038823892e-35 6.3594477406847938e-35 1.443291622764039e-10 -2.1001483618480346e-12 -6.3615403871866601e-11 -1.8246359995147579e-06 6.8643837378252173e-07 4.3768850839545219e-07 -0.00012873572506018438 -4.4142246893241364e-05 0.00025915305522908333 0.10524012364092979 0.0095924157741058402 -0.054847989436767615 0.099396562494063659 -0.059907152871348984 0.67812454057815919 -3.7554048456766067e-07 5.7380225652601144e-08 5.9286611386406827e-08 3.629691252165051e-62 -1.4254752095024516e-62 -6.6880467380311713e-63 394.84257109997526 346.50885798833093 4.6043119361637265e-78 6.8839885691639981e-79 -2.109608322744734e-78 395.06110757849393 680.52051452526553 663.44810096862852 395.06088253173397 663.45039263671026 346.73376042085619 1.3734895457265373e-67 5.2249608999403544e-68 -9.8245637766752301e-68 1.9535673447469828e-72 -6.4281765742831207e-73 -3.3893420268872956e-73 8.739433287562928e-58 1.1636724862669304e-57 -8.5908068295664613e-58 687.77620220572385 42.777923355120613 51.647943543158277 680.8906194086436 58.382787924720482 663.77684652487756 3.865642304146583e-48 3.3938280575705309e-48 -1.9349836221287358e-47 1.6878609732343815e-52 -1.7614830098187427e-52 -3.3049333050547057e-53 1.894930161710439e-39 -7.5385666367426538e-39 1.1090917559439509e-38 38.620776749200651 -3.1474792326153769 -4.918829814517224 -6.6645843600674086e-31 4.1375379047896276e-31 3.179063387680318e-31 40.134446315777467 -5.5204309671158631 48.535535021023932 4.2892831278895684e-43 2.3311306631613605e-43 -2.8264365152770598e-43 3.9431410141019463e-89 1.3448786102074906e-90 -1.1369319208543217e-89 1.0917542290174691e-94 -3.5404675458045709e-95 -8.813127070172459e-96 2.8146605179763225e-83 -9.0450676261548076e-84 -3.6703748970341439e-84 5.4651773169162435e-94 -1.7303837898708495e-94 6.0753160224266281e-95 1.3926899168816975e-82 -4.2541038842247941e-83 1.3223877653035677e-83 -0.016128835758134799 2.4192988226295979e-05 0.0071913949042231376 47.399891932399669 -4.9979418067565229 -5.084482887949628 -3.5044357186832559e-05 -1.5960527524721503e-05 4.0424742515160635e-05 346.73056633274297 663.45462593769378 638.38322582179387 -2.1139855170222533e-26 -1.1151352607539292e-26 2.1023598685060747e-26 0.60996615021785283 -0.032807327132463419 -0.090798540827614058 9.5718876683605093e-72 -2.7941629867856442e-72 7.6566620849969677e-73 8.8390942034498965e-42 -3.3087616546770691e-42 -9.0922447817415921e-43 -4.4233434786966658e-07 4.5037214566012912e-07 -5.6620233146732042e-07 -4.6683099163879271 0.6645288909323992 0.75892962564594646 2.117610042572317e-61 -3.682708077758027e-62 9.0697236150811959e-63 -3.8659285605087912e-14 7.3970517662918515e-15 5.8379167446663519e-15 1.2970376143766744e-19 -3.982988225522287e-21 -5.0015127657365137e-20 -1.4067710442953522e-52 -8.9979089604224415e-52 5.1324936916477195e-52 7.1854755639208007e-10 -2.5251888050361904e-10 9.3102227708440251e-11 -9.6711473824349686e-34 8.8922095978406604e-34 -4.6122479597695115e-34 670.93887028034624 51.177304281527149 58.869291973547249 5.1360991138501596e-38 -1.3093601013743156e-38 -1.0671752559204573e-37 -2.575753891507138e-30 -2.4275627234580892e-30 1.2082044733004361e-29 -0.026378729224626571 0.022883940197590213 -0.052323486668878726 2.4116973658243681e-77 -2.2953032558074579e-78 2.6292245205665434e-78 -3.3232598868092474e-48 7.3831024941894418e-47 -2.2937469832180814e-47 -2.9972291709499481e-12 1.1297232919230545e-12 1.0398952232321954e-12 0.00015375063579440096 -0.0003883849975798935 0.00053073922613513624 1.7945581597518372e-08 4.473604280675162e-10 -2.9124995575355308e-08 -9.4259079671091134e-24 3.1728789146045892e-23 -8.2318853035670835e-23 7.6551229290406482e-67 -4.1130475041811446e-68 2.8762832084128457e-68 -3.7274618005375489e-06 -3.3231054771164127e-06 2.2008250407373009e-05 2.8456410487892878e-17 -2.447450168679408e-17 3.1439134666277911e-17 5.6892918582327714e-57 1.3831069190613496e-57 4.87553985201494e-57 663.84410956219085 65.621284236217619 638.68499768899528 -4.606531676611926 0.71121546958205184 -5.114044017998828 346.72869680344633 638.38774572381658 298.07843365243349 0.65068638529670531 -0.13616465938610384 0.71856321328376049 48.602982536253116 -5.5382509673203737 55.757548349071364 346.49788126331589 297.84316992304832 4.1501898668844218e-06 2.9322415979821375e-07 -2.368514834029036e-06 -1.1319980321387656e-50 7.7843040476117843e-51 2.0712778083508163e-51 -2.3179306858428815e-46 1.7732022147416101e-47 7.3229127346185814e-46 -2.7696883788887741e-25 5.0698873898130381e-26 4.8076743616756081e-26 -1.1616903851902162e-60 6.4706713105786488e-61 2.0887283716430093e-61 1.280104239728226e-05 -1.8723516597444926e-05 5.0914361749071264e-05 638.78996050143428 72.760969875827143 609.24198904276147 -2.8572402005720397e-56 -6.0121618955458235e-56 2.8488827290745123e-56 0.6607869875425052 -0.089396762399779339 -0.087855232898053442 0.6979076986015561 -0.12400527404167308 0.74602223533465217 -7.9043530338469818e-71 2.6540389705013491e-71 1.3193463777099459e-71 -5.6398442386809776e-66 -1.98282499065287e-66 4.2234074438108575e-66 645.92938105524661 58.302651795098235 66.08513721950581 -1.7158709372407431e-22 8.8824210863317871e-23 2.4551994005048811e-23 4.8869739006171267e-19 -1.7318860953930274e-19 1.9998317178752862e-20 -8.3422330750411423e-10 -5.5551754954469777e-10 1.2177266453749638e-09 -2.6300207909168395e-09 3.7596733675176123e-08 -1.3146495136430824e-07 6.0140412702459758e-38 2.4833875367143039e-37 -6.6809159416614631e-37 -4.101255951733104e-42 -1.7829790217956251e-41 1.0225177664344448e-41 1.3857538879878491e-29 -1.9468668391741776e-29 2.590858711785143e-29 9.8656052227088983e-33 3.0112141171691101e-34 -3.5000451698304939e-33 55.771168142311517 -5.4662981062459188 63.038452401645912 54.855709385823175 -5.233151691655312 -5.2080815198050381 -4.9337934093696516 0.61262815100987522 -5.3212336492210213 -5.0881921823409701 0.71173074261392455 0.72984253522408449 -3.9880727285048418e-14 3.8666831907571544e-14 -3.4188607780708743e-14 -4.6264574873408237e-12 -3.1253885015563943e-12 1.7991390698534451e-11 -1.8987419699901386e-76 -2.580526595354733e-77 8.4507984975588653e-77 298.07676734760855 638.39209564862199 608.96778520073372 298.07514534554963 608.97375252523807 249.86863758625802 1.1974878356901847e-16 -9.1655792089892552e-18 -1.5307957642650259e-16 297.83985439072177 249.62820896229937 -0.022594847099110565 0.0055593698689257584 0.0079405566620249605 -0.050847316273983423 0.027305456238019537 -0.058548232751559189 -0.00053842817961304045 1.9553428300756874e-06 0.00012653483374903363 0.00055126128530451725 -0.00052811947249147885 0.00059471893961653296 -1.1514281982063651e-81 3.7021017091932874e-82 1.4203904848002433e-82 -4.459253292527252e-93 1.4388697155989166e-93 3.3825749523682263e-94 -1.6176473164754738e-87 -4.4675879402582603e-89 4.4383484776815604e-88 2.0261098796915522e-88 -2.5461644185043434e-89 2.4519595375417122e-89 -4.4417728329211285e-87 3.064468687238393e-88 1.2735189524594464e-88 6.818884351290517e-29 -1.6791750719311102e-29 -7.1840034644340857e-29 -2.9308897079282832e-22 -1.2252851116905521e-22 8.3009721380636794e-22 -0.055874223200397824 0.028505880307673079 -0.065049194739602537 -5.1511052496559158 0.50643389251300308 -5.4695319844710379 249.62519184359596 202.39207848498145 -9.7570062490815418e-08 8.7398914823389538e-08 -1.8501071594402517e-07 -5.3515612102851122e-76 5.9636125316647514e-78 5.4412609175318108e-77 -7.6497733929662221e-37 8.4893953574527283e-37 -1.7596371253157778e-37 609.37972279276289 79.332157452262265 575.95104469449598 9.1605242728269823e-12 -1.5741549023354551e-11 3.8586996035347661e-11 -1.8072020681902463e-65 -2.3098902400770377e-67 6.7513251280213241e-66 2.4708847812280773e-17 1.9064054646543151e-16 -6.392781740730299e-16 249.86453581862506 575.71691196737504 202.63582261955358 -3.1288774369419349e-46 -1.4877339224964671e-45 2.0784385812724234e-45 -9.5548991150034135e-56 -1.0180329133856327e-55 -5.2130991953882119e-56 0.72964580565966164 -0.10795086824525969 0.76600831025628779 4.474296697658527e-05 -2.7314186977752654e-05 5.6287703244605153e-05 0.00044219076194512111 -0.00070245322324592025 0.0010055684614083274 62.997320894786228 -5.3067301246806533 69.891702076099691 -2.2050320583094752e-70 6.4865736326981158e-71 3.0232983797853439e-72 -3.2047063768944708e-19 -3.4467453888376422e-19 5.2458151738516148e-19 2.3615095979829883e-13 2.5478911003433835e-14 -1.3293352421385423e-13 249.86720293843126 608.97852623141171 575.7091896732793 -5.3951192396316756 0.69777757466813017 0.71017899116035588 -0.027398991178303925 0.0069825719041221599 0.008462095390249471 -0.00078032860915615092 0.00011522961144894107 0.00011357881387085235 3.7105356013018751e-32 -1.2513335317967779e-32 -1.9705256630647067e-33 -4.1354305692430399e-60 8.2429847824561829e-61 1.4127229440796691e-61 0.71943824301430481 -0.091670155688730187 -0.087421454556491182 1.0765672477120682e-05 -1.4745479928435309e-06 -3.0914400202281675e-06 -6.6083471048004328e-09 3.3284178529881228e-10 2.4415824056566106e-09 62.407232969553739 -5.375306006716789 -5.2614968646375928 -1.9628843391332547e-40 2.1934386983308774e-41 4.1152232110013202e-41 -3.1848503222101172e-25 2.4960136912695263e-25 -1.2594923629137365e-25 7.7875265245231827e-51 3.3677026592730689e-50 -1.0207366254012009e-50 616.46967395923753 65.435238756349122 72.829962651498377 -1.1943149953499874e-92 3.873460319117042e-93 -5.719407746916811e-94 -3.0699010242351425e-81 9.6745316366380584e-82 -5.616961700569194e-83 2.894421047374448e-21 -2.6023992626406319e-21 4.4852077337690298e-21 87.584128455652589 -8.1818814127831558 176.52298113612693 -1.4707000663102285e-15 1.199487296929353e-15 -2.1574357408320875e-15 6.9639881954530012e-11 -5.3118747723156718e-11 9.945150619519726e-11 -1.8593507964222067e-44 2.8152592307410876e-44 -2.1147022190985316e-44 -2.669302140008338e-07 1.9568196548179919e-07 -4.0155363882474349e-07 412.47860066710905 182.97892685505494 285.20687968277031 -5.6130984482930623e-28 5.7523406038353667e-28 -9.1956159508784193e-28 1.0561983236702027e-35 -1.2989466144527169e-35 1.7462123385523136e-35 5.3234996196382024e-05 -3.7038164262432019e-05 0.00010067836238412913 33.960818299688782 285.38072275038041 -0.087142679280217988 -4.8544088674565131 0.005041623497124721 -11.166715070171492 0.0025140768467417267 -0.0022838123440312333 0.004810604103315976 4.1396480927184205e-54 -5.4317712173886581e-54 -4.0969011837281663e-54 -1.1649251830825239e-64 1.5505598459018074e-64 1.8620754994993571e-64 33.743209243902733 -0.23287527640328767 -0.072582518875286245 0.044035717500735601 -0.18479991881413019 -8.2836430798668558e-76 2.7737622063011322e-76 -9.9701930851045603e-76 0.63663561562572601 -0.02976492765199153 1.5564599431600481 -7.060654474231622e-87 2.0300162400843268e-87 -5.5878324515465209e-87 -1.9633765353930662e-92 7.2970101647379945e-93 -8.7522703899736941e-93 -4.6016942115770012e-81 2.3244434314073567e-81 -2.539866171995409e-81 0.77409366593314999 -0.078289052523115021 -0.15557618208318003 -1.8770463802664545e-08 4.0870272568211109e-09 5.216975004496318e-09 417.92989392879934 89.319901793360941 177.53793607517673 6.6645941930823808e-24 -1.4657857493307535e-24 -1.5179826196424403e-24 1.0416491401408145e-58 -4.1495852334812298e-59 -1.2421780647434954e-59 -1.1324007456827329e-69 -1.6296106773817681e-70 -3.5711018616616174e-72 -0.0001062789080266452 -1.8973280569872087e-05 -8.2426590068052688e-06 -0.052511129613187033 0.0089811481998056438 0.020567131233568976 -5.4778440396040153 0.5165274949595744 0.96343324538424346 -4.6940956517863662e-31 1.0852977426172424e-31 8.9082156098779539e-32 33.970399846163623 412.13683296490808 285.36619125089925 1.4208345523551217e-12 -3.0967167488141428e-13 -3.785653903301463e-13 -2.00404255745732e-48 6.5951787068420354e-49 1.4162237592745163e-49 -9.7512335024105671e-18 2.1117352273624791e-18 2.4512145441957627e-18 3.2817734451898744e-39 -8.5339844519131703e-40 -4.4193714569372502e-40 89.149467829831494 -5.003352906350587 -9.8014071424539733 1.7725665578503784e-05 -3.6665712221985185e-06 -5.2657245580228061e-06 2.6090216735386132e-39 -6.1287414306187189e-40 -3.7288472754571329e-40 -2.5361395394630568e-07 1.7092042184323434e-07 -3.1500888843887075e-07 8.0712578130533959e-36 -9.8574244188030056e-36 1.3072583394520722e-35 457.40866069669335 95.113199497363809 412.18782300451119 -1.6460164088707232e-08 3.597636692100001e-09 4.3549764620738797e-09 7.1136816561540424e-55 -3.4525703273239644e-54 -1.207233416244685e-54 3.7068506670198216e-59 2.4059498058318771e-59 -1.3811890750166257e-59 -5.8258612330150887 0.48791239102759548 0.40936218454189871 6.2090301299686166e-05 -3.1486116786550032e-05 6.1101760026381277e-05 1.7694535570827782e-05 -3.9013035013537922e-06 -4.166767904138656e-06 -5.2173609442085205 -0.10594346621291523 -4.8022919126024597 72.251477672309449 457.04563295422065 412.11873005039547 -3.6037035883571238e-31 8.4265230646196536e-32 6.7528154659628529e-32 -4.3021032144785606e-28 4.3542085749960729e-28 -6.926460158048097e-28 -1.5555690599354052e-48 2.599502295845277e-49 1.9362136397519512e-49 72.246353433716862 412.13249686627017 33.966067621802161 463.33850678226401 88.185410059531762 90.150797437060135 -1.1485329141550744e-44 2.1584669883447502e-44 -1.7746917953253315e-44 -0.00033202796112625631 4.5233089485249226e-05 -5.8283022697940144e-05 87.448341991593693 -5.0059431471106217 -4.3648183301319845 86.499006468721774 -3.5871722472072869 88.015591395129604 0.72006086683988746 0.014653907870218095 0.61406801205287853 0.85895940558909456 -0.088217930012426449 -0.057925484721641766 -7.5924710277915425e-18 1.6414112532021791e-18 1.9222319848423515e-18 -1.1670024062454871e-15 9.561647152233055e-16 -1.72562735450274e-15 -3.3771517476226476e-75 5.7766036342723919e-76 4.1985808841192236e-76 5.8943215616075635e-11 -4.4347736735031173e-11 8.1204359150595395e-11 1.1557215405260397e-12 -2.4974820537073906e-13 -3.0852465024760306e-13 -0.05732410907043764 0.012322533172058151 0.012422966435222638 -0.079819894079915799 0.027442974855123717 -0.073656151368392195 0.0026184557992224356 -0.0019538807328318784 0.0034616185101707924 72.025660490051877 33.737044173151205 -7.9629873569327324e-65 7.2666298680572902e-66 4.5442412050834827e-65 -1.2698224244495611e-69 -8.5620314137313069e-72 2.6220987846150702e-71 5.0835664632779189e-24 -1.1336870631607944e-24 -1.1533037333701954e-24 2.2273437045105043e-21 -2.0055183850831172e-21 3.4724192230626229e-21 -1.9057804256151881e-80 5.568382867487405e-81 -1.2726127346872024e-81 -2.5531823615354803e-86 2.6784644805825742e-87 -2.2916124904449784e-87 -6.8731671960539618e-92 2.2144005292370198e-92 -6.7533782761451857e-93 -1.1883037774582776e-86 3.3040744971976991e-88 1.5556988324571915e-87 81.651114732833122 -4.1099719519889097 86.775243825649525 0.0019279280133419968 -0.0015800260847619941 0.0027057800813738045 -5.3390876968384964 0.054293116472812833 -5.3005829402431317 5.8460626946341345e-05 -3.0997587889252295e-05 6.1404588666791917e-05 3.9403924901200534e-46 1.3264831822891881e-44 -1.8703433130661844e-44 1.3858801089155685e-65 -5.898914201759837e-65 -5.4617557160539544e-65 0.74635775836231399 -0.033706243423699662 0.74590700383097208 -8.1879138588305708e-55 -1.0151928836368752e-55 8.3340259524143154e-55 -1.4012424148345318e-75 7.0861511441110542e-77 5.9670348492663943e-76 -0.074693083787878173 0.030260938470456154 -0.082371091776939742 113.36280475016518 457.04032195989083 72.249180850730383 4.5916612888186968e-36 -7.4609766694126788e-36 1.1028904858023842e-35 499.43034159167587 94.554351381077765 457.14397928344766 -3.2198899887795809e-28 3.39623977782487e-28 -5.4309663810483103e-28 -2.151841133410626e-07 1.4585233391931476e-07 -2.7026541169732705e-07 1.7540457773957117e-21 -1.5647147200970307e-21 2.6857183915143666e-21 4.7902335993482717e-11 -3.6022579892252538e-11 6.5946879336979607e-11 -9.280678794662436e-16 7.5482848838800115e-16 -1.3563750580356305e-15 -0.048859150140226813 0.010682521453955875 0.011946941453245919 0.83981161757678879 -0.092349676935655323 -0.080693123670592018 9.2569310936591267e-13 -2.0214501611586682e-13 -2.4588684970888758e-13 113.13334618716881 72.013698662009418 4.0693638614035984e-24 -8.6463762461687375e-25 -9.2318612820482174e-25 -2.6216596220141497e-70 1.3168203459123493e-70 4.973402503543833e-71 -0.00048164460958715949 7.6562234395476095e-05 1.573929424835666e-07 -6.0116685849648956e-18 1.3135119892217833e-18 1.5047790591408498e-18 -1.