<?xml version="1.0"?>
<VTKFile type="UnstructuredGrid" version="0.1" byte_order="LittleEndian">
<UnstructuredGrid>
<Piece NumberOfPoints="1160" NumberOfCells="390">
<Points>
<DataArray type="Float64" NumberOfComponents="3" format="ascii">
0 0.037627845084982139 0 0 0.02712913039350634 0 0.10000000000000001 0.037627845084982139 0 0 0.014048877707311129 0 0 0.01007997645382676 0 0.10000000000000001 0.014048877707311129 0 0 0.01007997645382676 0 0 0.0072101992457088487 0 0.10000000000000001 0.01007997645382676 0 0 0.00027714824767246312 0 0 0.0001221058858762623 0 0.10000000000000001 0.00027714824767246312 0 0 0.019537864299142921 0 0 0.014048877707311129 0 0.10000000000000001 0.019537864299142921 0 0 0.0072101992457088487 0 0 0.0051351601405289276 0 0.10000000000000001 0.0072101992457088487 0 0 0.00049157175393484403 0 0 0.00027714824767246312 0 0.10000000000000001 0.00049157175393484403 0 0 0.02712913039350634 0 0 0.019537864299142921 0 0.10000000000000001 0.02712913039350634 0 0 0 0 0.10000000000000001 0 0 0 0.0051351601405289276 0 0 0.0036347696815094469 0 0.10000000000000001 0.0051351601405289276 0 0 1.0000000000000001e-05 0 0 0.0001221058858762623 0 0.10000000000000001 0.0001221058858762623 0 0 0.0036347696815094469 0 0 0.0025498882091243972 0 0.10000000000000001 0.0036347696815094469 0 0 0.052147564491031792 0 0 0.037627845084982139 0 0.10000000000000001 0.052147564491031792 0 0 0.00078811928474293897 0 0 0.00049157175393484403 0 0.10000000000000001 0.00078811928474293897 0 0 0.001198244413521618 0 0 0.00078811928474293897 0 0.10000000000000001 0.001198244413521618 0 0 0.001198244413521618 0 0 0.001765447234118425 0 0.10000000000000001 0.001765447234118425 0 0 1.0000000000000001e-05 0 0 0 0 0.10000000000000001 1.0000000000000001e-05 0 0 0.0025498882091243972 0 0 0.001765447234118425 0 0.10000000000000001 0.0025498882091243972 0 0 0.052147564491031792 0 0 0.072228323778986164 0 0.10000000000000001 0.072228323778986164 0 0 0.10000000000000001 0 0 0.072228323778986164 0 0.10000000000000001 0.10000000000000001 0 0 0.072228323778986164 0 0.10000000000000001 0.10000000000000001 0 0.10000000000000001 0.072228323778986164 0 0 0.014048877707311129 0 0.10000000000000001 0.014048877707311129 0 0.10000000000000001 0.019537864299142921 0 0 0.019537864299142921 0 0.10000000000000001 0.019537864299142921 0 0.10000000000000001 0.02712913039350634 0 0 0.0051351601405289276 0 0.10000000000000001 0.0072101992457088487 0 0.10000000000000001 0.0051351601405289276 0 0 0.001198244413521618 0 0.10000000000000001 0.001198244413521618 0 0.10000000000000001 0.001765447234118425 0 0 0.001765447234118425 0 0.10000000000000001 0.0025498882091243972 0 0.10000000000000001 0.001765447234118425 0 0 0.00027714824767246312 0 0.10000000000000001 0.00027714824767246312 0 0.10000000000000001 0.00049157175393484403 0 0 0.0036347696815094469 0 0.10000000000000001 0.0036347696815094469 0 0.10000000000000001 0.0051351601405289276 0 0 0.01007997645382676 0 0.10000000000000001 0.014048877707311129 0 0.10000000000000001 0.01007997645382676 0 0 1.0000000000000001e-05 0 0.10000000000000001 0.0001221058858762623 0 0.10000000000000001 1.0000000000000001e-05 0 0 0.052147564491031792 0 0.10000000000000001 0.072228323778986164 0 0.10000000000000001 0.052147564491031792 0 0 0.0001221058858762623 0 0.10000000000000001 0.00027714824767246312 0 0.10000000000000001 0.0001221058858762623 0 0 0.02712913039350634 0 0.10000000000000001 0.02712913039350634 0 0.10000000000000001 0.037627845084982139 0 0 0.00078811928474293897 0 0.10000000000000001 0.00078811928474293897 0 0.10000000000000001 0.001198244413521618 0 0 0.0025498882091243972 0 0.10000000000000001 0.0025498882091243972 0 0.10000000000000001 0.0036347696815094469 0 0 0 0 0.10000000000000001 1.0000000000000001e-05 0 0.10000000000000001 0 0 0 0.0072101992457088487 0 0.10000000000000001 0.01007997645382676 0 0.10000000000000001 0.0072101992457088487 0 0 0.037627845084982139 0 0.10000000000000001 0.052147564491031792 0 0.10000000000000001 0.037627845084982139 0 0 0.00049157175393484403 0 0.10000000000000001 0.00049157175393484403 0 0.10000000000000001 0.00078811928474293897 0 0.10000000000000001 0.00078811928474293897 0 0.10000000000000001 0.001198244413521618 0 0.20000000000000001 0.001198244413521618 0 0.10000000000000001 0.00078811928474293897 0 0.20000000000000001 0.001198244413521618 0 0.20000000000000001 0.00078811928474293897 0 0.10000000000000001 0.0036347696815094469 0 0.20000000000000001 0.0051351601405289276 0 0.20000000000000001 0.0036347696815094469 0 0.10000000000000001 0.0072101992457088487 0 0.10000000000000001 0.0051351601405289276 0 0.20000000000000001 0.0072101992457088487 0 0.10000000000000001 0.0051351601405289276 0 0.20000000000000001 0.0072101992457088487 0 0.20000000000000001 0.0051351601405289276 0 0.10000000000000001 0.01007997645382676 0 0.10000000000000001 0.0072101992457088487 0 0.20000000000000001 0.01007997645382676 0 0.10000000000000001 0.0072101992457088487 0 0.20000000000000001 0.0072101992457088487 0 0.20000000000000001 0.01007997645382676 0 0.10000000000000001 0.00027714824767246312 0 0.10000000000000001 0.00049157175393484403 0 0.20000000000000001 0.00049157175393484403 0 0.10000000000000001 0.00027714824767246312 0 0.20000000000000001 0.00027714824767246312 0 0.20000000000000001 0.00049157175393484403 0 0.10000000000000001 0.0036347696815094469 0 0.10000000000000001 0.0051351601405289276 0 0.20000000000000001 0.0051351601405289276 0 0.10000000000000001 0.001198244413521618 0 0.10000000000000001 0.001765447234118425 0 0.20000000000000001 0.001765447234118425 0 0.10000000000000001 0.0025498882091243972 0 0.20000000000000001 0.0036347696815094469 0 0.20000000000000001 0.0025498882091243972 0 0.10000000000000001 0.014048877707311129 0 0.10000000000000001 0.01007997645382676 0 0.20000000000000001 0.014048877707311129 0 0.10000000000000001 0.0025498882091243972 0 0.10000000000000001 0.0036347696815094469 0 0.20000000000000001 0.0036347696815094469 0 0.10000000000000001 0.001765447234118425 0 0.20000000000000001 0.001765447234118425 0 0.20000000000000001 0.0025498882091243972 0 0.10000000000000001 0.001198244413521618 0 0.20000000000000001 0.001198244413521618 0 0.20000000000000001 0.001765447234118425 0 0.10000000000000001 0.00049157175393484403 0 0.10000000000000001 0.00078811928474293897 0 0.20000000000000001 0.00078811928474293897 0 0.10000000000000001 0.00049157175393484403 0 0.20000000000000001 0.00078811928474293897 0 0.20000000000000001 0.00049157175393484403 0 0.10000000000000001 0.0025498882091243972 0 0.10000000000000001 0.001765447234118425 0 0.20000000000000001 0.0025498882091243972 0 0.10000000000000001 0.02712913039350634 0 0.10000000000000001 0.037627845084982139 0 0.20000000000000001 0.037627845084982139 0 0.10000000000000001 0 0 0.20000000000000001 0 0 0.10000000000000001 0.052147564491031792 0 0.20000000000000001 0.072228323778986164 0 0.20000000000000001 0.052147564491031792 0 0.10000000000000001 1.0000000000000001e-05 0 0.10000000000000001 0 0 0.20000000000000001 1.0000000000000001e-05 0 0.10000000000000001 0 0 0.20000000000000001 1.0000000000000001e-05 0 0.20000000000000001 0 0 0.10000000000000001 0.037627845084982139 0 0.20000000000000001 0.037627845084982139 0 0.20000000000000001 0.052147564491031792 0 0.10000000000000001 0.052147564491031792 0 0.10000000000000001 0.037627845084982139 0 0.20000000000000001 0.052147564491031792 0 0.10000000000000001 0.02712913039350634 0 0.20000000000000001 0.037627845084982139 0 0.20000000000000001 0.02712913039350634 0 0.10000000000000001 0.0001221058858762623 0 0.10000000000000001 1.0000000000000001e-05 0 0.20000000000000001 0.0001221058858762623 0 0.10000000000000001 1.0000000000000001e-05 0 0.20000000000000001 0.0001221058858762623 0 0.20000000000000001 1.0000000000000001e-05 0 0.10000000000000001 0.019537864299142921 0 0.20000000000000001 0.02712913039350634 0 0.20000000000000001 0.019537864299142921 0 0.10000000000000001 0.019537864299142921 0 0.10000000000000001 0.02712913039350634 0 0.20000000000000001 0.02712913039350634 0 0.10000000000000001 0.014048877707311129 0 0.20000000000000001 0.019537864299142921 0 0.20000000000000001 0.014048877707311129 0 0.10000000000000001 0.00027714824767246312 0 0.10000000000000001 0.0001221058858762623 0 0.20000000000000001 0.00027714824767246312 0 0.10000000000000001 0.01007997645382676 0 0.20000000000000001 0.014048877707311129 0 0.20000000000000001 0.01007997645382676 0 0.10000000000000001 0.0001221058858762623 0 0.20000000000000001 0.0001221058858762623 0 0.20000000000000001 0.00027714824767246312 0 0.10000000000000001 0.014048877707311129 0 0.10000000000000001 0.019537864299142921 0 0.20000000000000001 0.019537864299142921 0 0.10000000000000001 0.072228323778986164 0 0.20000000000000001 0.10000000000000001 0 0.20000000000000001 0.072228323778986164 0 0.10000000000000001 0.10000000000000001 0 0.10000000000000001 0.072228323778986164 0 0.20000000000000001 0.10000000000000001 0 0.10000000000000001 0.072228323778986164 0 0.10000000000000001 0.052147564491031792 0 0.20000000000000001 0.072228323778986164 0 0.20000000000000001 0.10000000000000001 0 0.20000000000000001 0.072228323778986164 0 0.29999999999999999 0.10000000000000001 0 0.20000000000000001 0.072228323778986164 0 0.20000000000000001 0.052147564491031792 0 0.29999999999999999 0.072228323778986164 0 0.20000000000000001 0.001198244413521618 0 0.20000000000000001 0.00078811928474293897 0 0.29999999999999999 0.001198244413521618 0 0.20000000000000001 0.0001221058858762623 0 0.20000000000000001 0.00027714824767246312 0 0.29999999999999999 0.00027714824767246312 0 0.20000000000000001 0.001198244413521618 0 0.20000000000000001 0.001765447234118425 0 0.29999999999999999 0.001765447234118425 0 0.20000000000000001 1.0000000000000001e-05 0 0.20000000000000001 0 0 0.29999999999999999 1.0000000000000001e-05 0 0.20000000000000001 0.0072101992457088487 0 0.20000000000000001 0.01007997645382676 0 0.29999999999999999 0.01007997645382676 0 0
[...]
<PointData Scalars="Ba-133_conc,region_id," Vectors="" Tensors="">
<DataArray type="Float64" Name="Ba-133_conc" format="ascii">
2.4265460619682941e-74 -1.2526304400826498e-73 -1.0160520095709712e-74 -2.4935820281455546e-44 7.032163621762448e-45 2.2757377404934567e-44 5.624154446323399e-37 6.7501865387638764e-36 -3.7600707030436227e-36 -0.47375972954020273 -2.8613012588877851 2.3094011679725464 2.8129380601645608e-53 -4.540684570218355e-53 4.3242207502383901e-55 3.067520005074403e-29 -1.7411388060363036e-28 3.5882448514346679e-29 0.036337073375421636 -0.099220895303285553 -0.053932180792127596 9.6973656301802353e-64 -1.8818621315945034e-63 -6.7827521292604949e-64 2689.353173351697 3437.4971609984718 -1.1153519109302592e-22 3.4660653058699805e-22 2.5670784688804944e-23 210.92502065807005 -3.9556179360014974 -56.368182983582926 3.1548485591717254e-17 -5.6187468540397569e-17 -3.5033148583181926e-17 5.6860698287927505e-85 -1.9522525075387679e-84 -1.9653664941605216e-85 -0.00069472225778877941 0.0036715051598570935 0.0002966660425579473 2.5706525909708852e-06 -1.8432305804621974e-05 4.0689628552183786e-06 1.4349319734647597e-08 6.3800349084066046e-10 -9.3320028191245875e-09 237.51754042673778 2686.913482495218 388.24710215732188 -8.0775101715766071e-13 -3.6750472420730309e-13 1.8495713302203382e-12 -1.0232903435365191e-95 3.0821149885929417e-96 -1.0976471486051492e-96 4.6768698573318434e-108 -1.4988633704463715e-107 -1.7955205079763862e-108 -8.9728941202810955e-102 1.231491496528023e-102 -1.3926416361602306e-102 -6.3969228161358776e-49 2.5049905530729183e-48 -1.9731662858264943e-49 2.0063676609577572e-59 -1.1303410402336239e-58 -1.9965041279664104e-58 -1.3213261169504851e-25 6.1285720126474783e-26 3.4950084599471126e-26 2.4797073658498296e-07 4.0201699754450201e-07 -1.9503284318006407e-07 -2.9968643617432954e-11 8.9405394795286514e-11 -3.1362861139974955e-10 -0.14679987580082343 1.3202830858007744 -0.10836530788903087 9.7163220609599001e-20 -1.558205742279867e-19 -6.8253017722115432e-21 3.3582756594719291e-41 3.0550145796984457e-40 -9.9941172601722598e-40 236.40112018792797 -79.169813696724546 386.93818366865594 -2.9093498443320663e-90 3.2681933252618908e-91 -4.8216913142776225e-91 -3.8240786925912178 3.7186076013111728 -45.075326417611485 -6.1987474280599293e-69 -7.0958916311173078e-69 -1.5564163950594948e-69 -0.00012124529676802301 2.789942951653906e-05 4.837351138113082e-05 -5.3584670807112498e-15 2.2643662043928324e-14 -3.6499720249154847e-15 2686.9231763338817 388.23907592931806 3435.0802109233077 1.3567044307590986e-32 -1.5649855848467556e-32 2.5199577533641702e-32 -2.573053185518652e-79 1.3330198787985217e-80 -5.7347356837676843e-80 0.010423129834396007 -0.017795064674058579 -0.00021153860348920001 -3.1451865657111186e-05 3.0877757736878488e-05 -3.9799329291494899e-05 -0.00021014599963066426 -0.00022570346182409722 0.0015894520826488256 -2.872752322450247e-19 6.9278850523038413e-19 -2.0189589266954403e-18 7.0584718289285183e-28 -8.7251371268777114e-28 -6.7811605270277784e-28 -6.2496019458309283e-25 -6.4382396954763277e-25 3.2766866646394721e-24 -5.0721808395555897e-35 1.3868213449335867e-34 7.0753383531698775e-36 2.453491171220726e-31 -4.6413943866495962e-31 -6.4959712408678076e-33 0.85795155386198096 0.011269768723432499 -0.35590863876266149 1.1421865678376242 3.2042815298155665 -0.83139595393832133 -1.2562720377936423e-21 -7.6925007541260399e-22 1.831848176479337e-21 1.4357456824729535e-07 -4.3074969655123637e-08 1.9217444214615896e-08 7.8532059003519023e-14 -6.19970846320026e-14 9.1077139407939127e-14 2.2426109344394942e-43 -1.25039628914068e-42 2.5106887510339324e-43 8.5523422378711859e-16 -1.1226254158752682e-17 -4.1152454794595495e-16 -1.2597993861536158e-09 4.2789897546820018e-10 4.6064023411186805e-10 1.938651892349541e-06 -2.9863007757683851e-06 5.3634639323496902e-08 -0.0057137359284627747 -0.0024111456222755457 0.0085814205498378031 -0.0083232145389508273 0.027936984775078326 -0.13908612225386532 6.252341428940886e-12 -3.6041965099636143e-11 6.0116401096442939e-12 2.9728988429394284e-72 -1.1700403413197289e-72 -5.5093932410167241e-73 3438.4055263628611 4273.194872759781 7.2783538883342663e-89 1.0960611739638977e-89 -3.3554231212778662e-89 388.20749706825785 3435.2174414614124 539.83715592746364 3435.3446052279237 539.8186703648721 4269.934813583056 6.3957793125494208e-78 -4.6027227838340947e-78 2.4371608138972464e-78 -1.730727138658867e-83 5.2563042240526137e-83 -9.1695816015086455e-84 1.2867111512361205e-67 1.704729863913832e-67 -1.2875566471443186e-67 -54.639484747987375 360.590216150912 -78.041080391378685 386.92378981299436 -107.7876470629603 537.87948298276399 1.956639485228402e-57 1.7072711794109294e-57 -9.8308393015045397e-57 4.458267889712895e-62 -4.7511494657088999e-62 -8.8884944581066517e-63 3.6315912126848349e-48 -1.4529920386286015e-47 2.1802599229631237e-47 1.3872975395942542 -39.16824715123574 5.1387617389928613 -5.4693878933041201e-39 3.4395499923990565e-39 2.5036761248997881e-39 -45.055123943465816 -63.427007952085141 9.0156199076243251 4.1431455149070476e-52 2.3041352454530642e-52 -2.7462373090456362e-52 2.2500315566287862e-100 7.8729002322610249e-102 -6.5397215880398547e-101 -1.2395481602784948e-106 3.8210665158145189e-106 -3.1244804744027345e-107 -8.533056142188055e-95 2.6542576277633673e-94 -3.4893426752672795e-95 -6.5232199525065855e-106 2.0567224292682624e-105 2.0228631175556176e-106 -4.3365440206555932e-94 1.4146918202872287e-93 1.1228937999335899e-94 2.5152619581386721e-05 0.00031887450750696877 -0.00019011029953017679 -55.199146973264476 4.5786813867871325 6.7904195448533988 -1.4141323202946141e-07 -1.2010011293219627e-07 2.9283255489205239e-07 539.83473928893636 4269.8579637524117 738.9364734771076 -3.1721739565665153e-34 -2.2092869818583599e-34 3.765724438446522e-34 0.0023096623887686502 -0.062393490074627418 0.018003422168718853 2.7794000079433974e-82 -8.1787293868780862e-83 1.7198778552498975e-83 -3.1421568029748664e-51 8.772416796745868e-51 -9.9241538810666041e-52 -5.0687525410492742e-11 4.4571200436700804e-11 -4.4764405384990943e-11 2.2181891607020705 -0.26113498883345293 -0.51656576711293944 -3.4477557751043247e-72 1.8607876625357619e-71 5.2359486028874955e-73 4.2934168729226553e-21 -2.5149023571365239e-20 4.7385251955671881e-21 -3.8438661761654629e-29 1.1906531595462416e-26 -5.1151645131199993e-27 -2.6054964987340087e-61 -2.3051034836026614e-62 1.3576046088619382e-61 -1.4737699128693878e-15 4.5711862862787821e-15 2.9324461262213003e-16 3.5622392920655263e-42 -4.2707561164780473e-42 -1.7019115625821246e-42 -75.52069561165068 503.58625035817494 -106.12064254589241 1.0026403737606925e-46 -3.0997091975828938e-47 -1.9675447005766671e-46 -2.346661141601431e-38 9.9783355440171787e-38 -1.8402829117123666e-38 0.0010248580040064684 0.0037184470789624873 -0.0013551622982562901 4.0919070372236604e-88 2.9321412064482392e-89 -3.2266890116719073e-89 -1.0477807722729057e-57 -1.5400958186656707e-56 3.8267030655152269e-56 -5.6091934400140749e-18 2.4717965669553913e-18 6.8210432416592845e-19 -9.3711849765057701e-08 -1.653992841195729e-05 4.3899220820522005e-06 4.1623784085784444e-13 -5.0653692446522725e-13 -2.6497347044643688e-14 -2.6482016356595334e-31 1.2713527395801525e-30 -3.5353214742959983e-30 3.8116958727040106e-77 -3.2231446975100275e-79 -9.6553199582786798e-79 -2.2991635156343729e-09 -1.4470309847628468e-09 9.3891534735903331e-09 6.4270672724364471e-24 -6.1776605809349404e-24 9.2650196849050151e-24 8.8983156007590757e-67 6.7550173893538622e-67 2.6762886147279013e-67 538.10534566478452 -144.49768204872251 736.51953086314018 3.0932431845931969 4.465293999115671 -1.256091426439097 4269.7506837566916 5069.5660846361907 738.98363813406775 -0.12355220186465378 -0.21295113422005735 0.068508149052930484 -62.868624472146379 12.000066854714916 -87.301618404942758 4272.6927827709414 5072.6921045785239 4.2303080617746824e-11 2.8666589733282647e-10 -1.9569205712212194e-10 -3.0882241348078983e-60 2.0039849598395982e-60 6.072790027691277e-61 -1.1780183732892058e-55 2.3777209397788992e-56 3.6155987505748757e-55 7.7128995488443398e-34 -4.9121786766027261e-33 9.9846837373909756e-34 -8.9004140943792676e-71 5.2032535909078702e-71 1.7174175506456662e-71 4.4397873203361009e-09 -8.3388555296819499e-09 2.2614600074161585e-08 736.67796451167908 991.78836156593775 -189.3245138298094 -3.9040824875807266e-66 -8.782819304508192e-66 4.3723033491796308e-66 -0.098267487665108996 0.012289928938886882 0.024914146271186856 -0.19539802716204985 0.09886149395511433 -0.2972796593121082 -2.0467689708765479e-81 6.9092465228098834e-82 3.6021311204357789e-82 -2.5119033260606464e-76 1.9650732532454668e-76 -9.259655052464668e-77 -103.06538083465827 693.0124604032244 -141.57985995730709 -6.7072339208392568e-30 -7.7443185867136468e-31 4.0151544355125712e-30 -1.5683351382429429e-26 4.9841720196808791e-26 -7.1142227415652583e-28 -2.2830912462969078e-15 -3.5922430803732949e-15 6.3754515860108704e-15 1.4196781157244738e-13 -2.5031089125399357e-12 6.7507496265636118e-13 1.5497257786119338e-46 4.559640029664469e-46 -1.340141785915621e-45 -1.8420632212193755e-50 -6.1177554701387089e-52 9.4616875394509951e-51 9.9760958819072082e-38 2.498649156658705e-37 -1.6276053139481267e-37 3.6033463585860237e-41 2.6409186144823414e-42 -1.4087785566887959e-41 -86.61185700676532 15.889903531018653 -118.15479345421494 6.2597076076768037 -76.676604043782845 9.1877048963871228 4.2883935841052176 6.1830729388155534 -1.6997282724951122 3.1146432641283504 -0.42591918071374479 -0.68951089064356241 2.4893396224792074e-20 -3.4899777698997453e-20 -1.7491954660610953e-20 -1.0325680760004165e-17 2.928712234870434e-17 -3.9701100454708731e-18 -2.88779663053834e-87 1.3461278580512593e-87 -4.1770720306578323e-88 5069.6566157873986 738.94277040987606 994.70648270247489 5069.6757931292832 5707.3853088508058 994.73536059315325 2.97547465639687e-23 -2.8729287363679998e-23 -5.0704935360335274e-24 5073.0174180027034 5710.3117377737653 0.00085335229922642612 -9.694596154105003e-05 -0.00029746988831191108 0.0031335675734369337 -0.0022537441336718113 0.0054947969894601203 -1.5337517702426946e-06 3.2515361518695941e-08 6.4618380980683592e-07 -1.1945650325202879e-05 1.1035377762934441e-05 -2.7488542789076379e-05 -1.0477664594201497e-92 3.3748172679784101e-93 1.3740069721883117e-93 4.8690987540418586e-105 -1.5082012922653638e-104 1.2435997412693418e-105 -8.9050068323638311e-99 -2.954740026648811e-100 2.570978557224016e-99 1.2416186951082677e-99 -1.4290760929932635e-100 1.1670883032283407e-100 -2.7413810529377555e-98 1.63699390475527e-99 1.4374064320728992e-99 5.596962685977194e-37 -1.9661068648876555e-37 -4.2544329046025828e-37 -1.3465896359236346e-29 -2.6303467878509238e-30 2.8944463900113771e-29 0.0047281052346848625 0.0079872160287270226 -0.0033049722196449448 5.9579685571645644 8.4123380362461155 -2.2768355471725736 5710.1395405527237 5969.2591870735878 -1.4621184685839271e-12 1.7802820384063421e-12 -4.3847981632930511e-12 -9.1424853093573534e-87 -2.7067998668841389e-89 1.2371538855306748e-87 -1.3433544996887476e-45 1.7343290730652439e-45 -8.6548130050425221e-46 991.80566247481886 1304.8900509017581 -241.15984070093918 9.1989488328984883e-18 -2.5810549398167751e-17 7.20923669270235e-17 -9.0154266672915944e-76 -3.5929221831379606e-77 3.7205040052204627e-76 1.8107447667639563e-23 3.6998953927957984e-23 -1.4240456392343838e-22 5707.3239260512628 1308.2177301355121 5967.3993169714231 -1.9728170201564823e-55 -7.2377062961808509e-55 1.1510046621257831e-54 -1.4742349043884334e-65 -1.7666668888971391e-65 -6.3366421990053163e-66 -0.27779814579199197 -0.42085293844772881 0.13927435475102234 1.5745375026948218e-08 3.4737088070959441e-08 -1.4929699504768664e-08 -2.1377104096376476e-05 -4.0392360819651693e-05 1.7163012820630484e-05 -117.2584011653031 -156.50940852247109 20.464802749629623 -6.4239933918363834e-81 1.9136968969738525e-81 1.8572465767340208e-82 -6.5179538300674395e-27 -3.5897454055883655e-26 4.3473185175458734e-26 1.1424734054588116e-19 2.4842085124534276e-20 -7.951312098827336e-20 5707.4153474301656 994.68655363998732 1308.1502702410198 4.392618647400222 -0.5934671374767907 -0.94885362025892328 -0.00019063961074880644 0.0012859306762050085 -0.00042041007023121697 3.4235152324794826e-07 -2.6548994823075905e-06 9.4279723409828231e-07 1.5149025807294133e-40 -4.4958806612706713e-41 -1.3067376699648165e-41 8.1315548589045259e-71 -3.5621444814511379e-70 1.6263845539938281e-71 0.018479786712815985 -0.14048449189782503 0.035234352801675417 -7.4047934832464812e-11 8.1451164546000837e-10 -3.2429653603485059e-10 -3.188254327474112e-14 -9.1112985473441844e-17 1.4695763227785618e-14 8.5903681337874982 -104.83192979987642 12.147014175365094 1.3710451659271431e-50 -1.8587504642020691e-49 4.2264707266303244e-50 -7.2228917140896039e-33 4.3909419554847344e-33 -1.5935653942896391e-33 9.6228498438675307e-60 1.0954476898501148e-60 -2.5186008651889085e-60 938.67754769978944 -137.99434148898524 -184.38708501084281 1.4681288679317225e-104 -4.5268868054082411e-104 -1.633036068474917e-105 -3.1411470103637954e-92 9.9232002203685494e-93 -1.3450864589657408e-94 -2.1685562216862586e-28 4.6821429492293492e-28 1.6957441762329136e-28 -771.87264880272846 66.143458809420082 -333.49613554770173 -1.6043812750531299e-21 7.2374926896485408e-22 -6.3670348353308725e-22 6.9546245325098771e-16 -3.0882964833366376e-16 2.962448787325657e-16 -1.9585150554461226e-53 1.648007354350251e-53 -7.1681915481126167e-54 -3.9435985197836739e-11 1.6999531029328548e-11 -1.7293032215009536e-11 -776.65282229635534 3666.0495130170966 2899.7240545592476 -1.6605309026519677e-35 8.1198466071665204e-36 -5.4154724845903724e-36 6.4761391580112383e-44 -3.5885914858144762e-44 1.9112662270530977e-44 3.0521449646248615e-07 -1.2415900831331285e-07 1.2747286289750562e-07 18.153332429848767 3662.5727487173917 1168.7676025833323 54.838716622748073 -9.190653567256895 19.169286575240367 -0.00035519269671658834 0.00012751343949955784 -0.00013109078514590578 -5.4265944279756284e-64 -6.7484186290800949e-64 5.4334427680971988e-64 4.7432542597950265e-75 6.2976529677627651e-75 -2.2244563009038945e-75 13.96407544145743 1164.1579611181501 0.069366207961081852 -0.021926779668913099 0.022584430384707043 -2.2691851729138894e-86 9.6361002110198256e-87 2.8342886718557465e-87 -3.3605460559749329 0.77153901786230816 -1.113905725188169 1.4848877076311587e-98 -5.1347437608185692e-98 9.2448572481249298e-99 -3.8452495507242849e-104 1.0959358778149797e-104 -2.3417176668312843e-105 -3.2488723168080257e-92 1.8851519602990155e-93 9.8705215836813107e-93 0.24717151615853641 -0.64681891982835682 0.064654661439010191 1.3096795913924313e-13 4.9207063494010104e-14 -3.5957776170189338e-13 -768.9995058757936 -355.33421344610571 2875.8367890611771 -6.1985459535397542e-32 2.0486604310458905e-31 -2.6582636084054286e-32 -1.3445625862257461e-69 8.7508363104072631e-69 -2.4321654287539055e-69 -2.6705145538265668e-81 -1.0859107443826189e-80 -1.3499970397243626e-80 7.6691683006161046e-06 2.5299148626200747e-06 -1.9149393376860426e-05 -0.0032805209810525073 0.0074371768088246481 -0.00093769171703554297 -5.5029918672913842 -1.8328620463117138 15.747585037220343 6.7676665638811895e-40 3.5879873797802777e-40 -2.6835537965042787e-39 3662.785423537764 2901.0078833780576 1168.6180667453611 -8.2071103769500616e-19 -3.0913689130974092e-19 2.3208653052380063e-18 5.4482667188602176e-59 1.0950087936209321e-58 -5.7123139463111827e-58 6.4637696628654705e-25 -1.9310309263841862e-24 2.5094765253188187e-25 -7.1859887278536564e-49 -5.8572097086825145e-49 3.9878182086280887e-48 58.756390225341725 -324.40128565563862 24.355072441640392 -2.7142669955321256e-09 7.138026577900645e-09 -9.9985907419429818e-10 -4.6964176293529712e-49 2.5682219440161584e-48 -3.5133965036187368e-49 1.135283216719925e-11 -2.6131507325839024e-11 -1.1598870392540033e-11 -2.2086053089013057e-44 3.9264684736542376e-44 1.2051140058097941e-44 -393.13871794519986 2901.5989486974408 2505.2469107463958 8.6107832436941117e-14 3.0256268010764088e-14 -2.3060121235722843e-13 -1.2252936194673675e-64 -3.5788617856750257e-64 5.958814812384898e-65 -1.1510219641976832e-69 2.8073268443513928e-69 2.1333394230620623e-69 -2.3978795813904452 -2.0422217334910635 14.657343346227988 1.9665032368719075e-07 -8.6552444846799579e-08 9.7009361163420533e-08 -1.8272172894919253e-09 4.9107302476736208e-09 -6.8169861505996063e-10 -4.8632311908859718 19.623498289101772 18.047062941690459 2901.1479520743014 2916.9942039264924 2508.3925428040161 4.1220782696860888e-40 -1.6585394439803695e-39 2.2968427550956862e-40 4.9383689586513625e-36 -1.0070673982842243e-35 -3.3383796897107362e-36 5.2516684739215842e-59 -3.6963508503678496e-58 2.1044116903355732e-59 2901.0299611460186 1168.6832977101303 2917.0334277151223 -353.82437779151496 -332.01832874326271 2455.0700628244549 1.0407164072970744e-53 -1.2688464912024185e-53 -3.5842958688931547e-54 5.031093923761459e-06 2.1064086510372051e-06 -1.4593774964386463e-05 23.361319006979638 23.892467405462735 -288.842846673471 -334.97653985433914 32.258196309330359 -303.74343029337427 -1.2916514782197754 0.44467755593888547 -1.0490779198202269 0.12532324525264663 -0.58218953609527813 0.082090785471064798 3.9939036208699742e-25 1.5052442988101182e-25 -1.1763911925616985e-24 -1.0110894822148896e-21 4.485693447819492e-22 -3.8605797293633853e-22 1.0922885335929452e-86 1.1321212529988063e-87 -3.5021635494817335e-86 -1.973033816155331e-16 4.5169901012411997e-16 1.8477687107025924e-16 -5.2121827501919095e-19 -1.8415157975636702e-19 1.4344397072737487e-18 -0.0019465800877398627 0.0063586300217410774 -0.0010000648698710046 0.032789448499530166 -0.014245161539619274 0.022128170715196221 8.9158339194318618e-05 -0.0002043501499442551 -0.00011614638345768568 1164.0706444071843 2913.1291769070945 -1.237271740444207e-76 -4.3294131747949571e-76 -1.2317812463433669e-75 -9.8497971459170655e-82 -4.3274907579305172e-81 -1.8529874617996507e-80 -3.7682995422568485e-32 1.2470657958999825e-31 -1.6409660603332973e-32 2.8807939764912444e-28 -1.3231927937472773e-28 1.0268963065592518e-28 -1.5682869068377063e-92 3.1960897225974291e-92 -1.1850589586806333e-91 -2.3225099869609285e-98 1.5002299433236521e-98 -9.2841425655221018e-98 -2.5260428127070573e-104 4.8868184392903928e-104 -1.5528480382668227e-103 1.7607690490860292e-99 1.8488844606187351e-99 -3.1721698804712965e-98 34.383868165022648 -305.58450109168854 -251.30501845255736 5.9124961865790811e-05 -0.00013840472051033953 -7.5180538156098306e-05 -4.6065636360940516 18.480922073317203 14.159592228060051 1.2692631314146427e-07 -5.5492971044003865e-08 6.1711360822514822e-08 -9.9873664309782337e-54 5.3678546191400319e-54 1.3134796669799543e-54 -2.5929109422048427e-75 -3.5523517601410103e-75 1.8229985416662005e-75 -1.0910027874797972 0.35555990889940237 -0.76211990592500711 1.3189283624875977e-64 6.5255563410286013e-65 -1.2751090893281086e-64 2.0395798480126469e-87 5.0267375796029532e-87 -9.7739049838447932e-87 0.024308849472904199 -0.010100997571934311 0.014915749836633047 2916.9023780869506 2508.5247561602018 4582.3442701250369 2.5784337959582772e-44 -1.3702650604159847e-44 5.3994064144472201e-45 -392.21717343725288 2506.8671322947807 2083.8829335578712 -6.2640611143946592e-36 3.0852506463578756e-36 -2.0407064695158971e-36 7.1536566549449327e-12 -1.6461556931844206e-11 -7.3068006665669235e-12 1.7710036116185959e-28 -8.1852539954999238e-29 6.4363197952650896e-29 -1.2296967326397904e-16 2.8096123551977296e-16 1.1542179874053755e-16 2.7753593679515846e-22 -6.2375660416239083e-22 -2.4033429643689774e-22 -0.0013567398234987441 0.0042371573783962614 -0.00064832312451217349 0.097653462567827365 0.055391646065995885 -0.4105791656255327 -3.2292248825818462e-19 8.920817027111933e-19 -1.1563075549400632e-19 2912.9372144286176 4580.4769933673488 -2.3606460115034965e-32 -1.017835486881608e-32 7.8929603528804157e-32 1.700290163546254e-82 1.9748600903460952e-81 9.7600539901895216e-82 3.3000707776208084e-06 -9.4320333508122027e-06