<?xml version="1.0"?>
<VTKFile type="UnstructuredGrid" version="0.1" byte_order="LittleEndian">
<UnstructuredGrid>
<Piece NumberOfPoints="1160" NumberOfCells="390">
<Points>
<DataArray type="Float64" NumberOfComponents="3" format="ascii">
0 0 0 0.10000000000000001 0 0 0 0.02712913039350634 0 0 0.037627845084982139 0 0.10000000000000001 0.037627845084982139 0 0 0.037627845084982139 0 0 0.052147564491031792 0 0.10000000000000001 0.052147564491031792 0 0 0.019537864299142921 0 0 0.02712913039350634 0 0.10000000000000001 0.02712913039350634 0 0 0.014048877707311129 0 0 0.019537864299142921 0 0.10000000000000001 0.019537864299142921 0 0 0.01007997645382676 0 0 0.014048877707311129 0 0.10000000000000001 0.014048877707311129 0 0 0.0072101992457088487 0 0 0.01007997645382676 0 0.10000000000000001 0.01007997645382676 0 0 0.0051351601405289276 0 0 0.0072101992457088487 0 0.10000000000000001 0.0072101992457088487 0 0 0.0036347696815094469 0 0 0.0051351601405289276 0 0.10000000000000001 0.0051351601405289276 0 0 0.001765447234118425 0 0 0.0025498882091243972 0 0.10000000000000001 0.0025498882091243972 0 0 0.0025498882091243972 0 0 0.0036347696815094469 0 0.10000000000000001 0.0036347696815094469 0 0 0 0 0 1.0000000000000001e-05 0 0.10000000000000001 1.0000000000000001e-05 0 0 1.0000000000000001e-05 0 0 0.0001221058858762623 0 0.10000000000000001 0.0001221058858762623 0 0 0.0001221058858762623 0 0 0.00027714824767246312 0 0.10000000000000001 0.00027714824767246312 0 0 0.00027714824767246312 0 0 0.00049157175393484403 0 0.10000000000000001 0.00049157175393484403 0 0 0.00049157175393484403 0 0 0.00078811928474293897 0 0.10000000000000001 0.00078811928474293897 0 0 0.00078811928474293897 0 0 0.001198244413521618 0 0.10000000000000001 0.001198244413521618 0 0 0.001198244413521618 0 0 0.001765447234118425 0 0.10000000000000001 0.001765447234118425 0 0 0.0036347696815094469 0 0.10000000000000001 0.0051351601405289276 0 0.10000000000000001 0.0036347696815094469 0 0 0.0051351601405289276 0 0.10000000000000001 0.0072101992457088487 0 0.10000000000000001 0.0051351601405289276 0 0 0.0025498882091243972 0 0.10000000000000001 0.0036347696815094469 0 0.10000000000000001 0.0025498882091243972 0 0 0.001765447234118425 0 0.10000000000000001 0.0025498882091243972 0 0.10000000000000001 0.001765447234118425 0 0 0.001198244413521618 0 0.10000000000000001 0.001765447234118425 0 0.10000000000000001 0.001198244413521618 0 0 0.00078811928474293897 0 0.10000000000000001 0.001198244413521618 0 0.10000000000000001 0.00078811928474293897 0 0 0.00049157175393484403 0 0.10000000000000001 0.00078811928474293897 0 0.10000000000000001 0.00049157175393484403 0 0 0.00027714824767246312 0 0.10000000000000001 0.00049157175393484403 0 0.10000000000000001 0.00027714824767246312 0 0 1.0000000000000001e-05 0 0.10000000000000001 0.0001221058858762623 0 0.10000000000000001 1.0000000000000001e-05 0 0 0 0 0.10000000000000001 1.0000000000000001e-05 0 0.10000000000000001 0 0 0 0.0001221058858762623 0 0.10000000000000001 0.00027714824767246312 0 0.10000000000000001 0.0001221058858762623 0 0 0.01007997645382676 0 0.10000000000000001 0.014048877707311129 0 0.10000000000000001 0.01007997645382676 0 0 0.0072101992457088487 0 0.10000000000000001 0.01007997645382676 0 0.10000000000000001 0.0072101992457088487 0 0 0.014048877707311129 0 0.10000000000000001 0.019537864299142921 0 0.10000000000000001 0.014048877707311129 0 0 0.019537864299142921 0 0.10000000000000001 0.02712913039350634 0 0.10000000000000001 0.019537864299142921 0 0 0.02712913039350634 0 0.10000000000000001 0.037627845084982139 0 0.10000000000000001 0.02712913039350634 0 0 0.037627845084982139 0 0.10000000000000001 0.052147564491031792 0 0.10000000000000001 0.037627845084982139 0 0 0.052147564491031792 0 0.10000000000000001 0.072228323778986164 0 0.10000000000000001 0.052147564491031792 0 0 0.072228323778986164 0 0.10000000000000001 0.10000000000000001 0 0.10000000000000001 0.072228323778986164 0 0 0.052147564491031792 0 0 0.072228323778986164 0 0.10000000000000001 0.072228323778986164 0 0 0.072228323778986164 0 0 0.10000000000000001 0 0.10000000000000001 0.10000000000000001 0 0.20000000000000001 0.052147564491031792 0 0.20000000000000001 0.072228323778986164 0 0.29999999999999999 0.072228323778986164 0 0.20000000000000001 0.072228323778986164 0 0.20000000000000001 0.10000000000000001 0 0.29999999999999999 0.10000000000000001 0 0.10000000000000001 0.072228323778986164 0 0.10000000000000001 0.10000000000000001 0 0.20000000000000001 0.10000000000000001 0 0.10000000000000001 0.052147564491031792 0 0.10000000000000001 0.072228323778986164 0 0.20000000000000001 0.072228323778986164 0 0.10000000000000001 0.072228323778986164 0 0.20000000000000001 0.10000000000000001 0 0.20000000000000001 0.072228323778986164 0 0.10000000000000001 0.037627845084982139 0 0.20000000000000001 0.052147564491031792 0 0.20000000000000001 0.037627845084982139 0 0.10000000000000001 0.052147564491031792 0 0.20000000000000001 0.072228323778986164 0 0.20000000000000001 0.052147564491031792 0 0.10000000000000001 0.037627845084982139 0 0.10000000000000001 0.052147564491031792 0 0.20000000000000001 0.052147564491031792 0 0.10000000000000001 0.02712913039350634 0 0.10000000000000001 0.037627845084982139 0 0.20000000000000001 0.037627845084982139 0 0.10000000000000001 0.019537864299142921 0 0.10000000000000001 0.02712913039350634 0 0.20000000000000001 0.02712913039350634 0 0.10000000000000001 0.014048877707311129 0 0.10000000000000001 0.019537864299142921 0 0.20000000000000001 0.019537864299142921 0 0.10000000000000001 0.0072101992457088487 0 0.10000000000000001 0.01007997645382676 0 0.20000000000000001 0.01007997645382676 0 0.10000000000000001 0.01007997645382676 0 0.10000000000000001 0.014048877707311129 0 0.20000000000000001 0.014048877707311129 0 0.10000000000000001 0 0 0.10000000000000001 1.0000000000000001e-05 0 0.20000000000000001 1.0000000000000001e-05 0 0.10000000000000001 1.0000000000000001e-05 0 0.10000000000000001 0.0001221058858762623 0 0.20000000000000001 0.0001221058858762623 0 0.10000000000000001 0.0001221058858762623 0 0.10000000000000001 0.00027714824767246312 0 0.20000000000000001 0.00027714824767246312 0 0.10000000000000001 0.00027714824767246312 0 0.10000000000000001 0.00049157175393484403 0 0.20000000000000001 0.00049157175393484403 0 0.10000000000000001 0.00049157175393484403 0 0.10000000000000001 0.00078811928474293897 0 0.20000000000000001 0.00078811928474293897 0 0.10000000000000001 0.001198244413521618 0 0.10000000000000001 0.001765447234118425 0 0.20000000000000001 0.001765447234118425 0 0.10000000000000001 0.00078811928474293897 0 0.10000000000000001 0.001198244413521618 0 0.20000000000000001 0.001198244413521618 0 0.10000000000000001 0.001765447234118425 0 0.10000000000000001 0.0025498882091243972 0 0.20000000000000001 0.0025498882091243972 0 0.10000000000000001 0.0025498882091243972 0 0.10000000000000001 0.0036347696815094469 0 0.20000000000000001 0.0036347696815094469 0 0.10000000000000001 0.0036347696815094469 0 0.10000000000000001 0.0051351601405289276 0 0.20000000000000001 0.0051351601405289276 0 0.10000000000000001 0.0051351601405289276 0 0.10000000000000001 0.0072101992457088487 0 0.20000000000000001 0.0072101992457088487 0 0.10000000000000001 0.0025498882091243972 0 0.20000000000000001 0.0036347696815094469 0 0.20000000000000001 0.0025498882091243972 0 0.10000000000000001 0.001765447234118425 0 0.20000000000000001 0.0025498882091243972 0 0.20000000000000001 0.001765447234118425 0 0.10000000000000001 0.001198244413521618 0 0.20000000000000001 0.001765447234118425 0 0.20000000000000001 0.001198244413521618 0 0.10000000000000001 0.00049157175393484403 0 0.20000000000000001 0.00078811928474293897 0 0.20000000000000001 0.00049157175393484403 0 0.10000000000000001 0.00078811928474293897 0 0.20000000000000001 0.001198244413521618 0 0.20000000000000001 0.00078811928474293897 0 0.10000000000000001 1.0000000000000001e-05 0 0.20000000000000001 0.0001221058858762623 0 0.20000000000000001 1.0000000000000001e-05 0 0.10000000000000001 0 0 0.20000000000000001 1.0000000000000001e-05 0 0.20000000000000001 0 0 0.10000000000000001 0.0001221058858762623 0 0.20000000000000001 0.00027714824767246312 0 0.20000000000000001 0.0001221058858762623 0 0.10000000000000001 0.00027714824767246312 0 0.20000000000000001 0.00049157175393484403 0 0.20000000000000001 0.00027714824767246312 0 0.10000000000000001 0.0051351601405289276 0 0.20000000000000001 0.0072101992457088487 0 0.20000000000000001 0.0051351601405289276 0 0.10000000000000001 0.0036347696815094469 0 0.20000000000000001 0.0051351601405289276 0 0.20000000000000001 0.0036347696815094469 0 0.10000000000000001 0.01007997645382676 0 0.20000000000000001 0.014048877707311129 0 0.20000000000000001 0.01007997645382676 0 0.10000000000000001 0.0072101992457088487 0 0.20000000000000001 0.01007997645382676 0 0.20000000000000001 0.0072101992457088487 0 0.10000000000000001 0.02712913039350634 0 0.20000000000000001 0.037627845084982139 0 0.20000000000000001 0.02712913039350634 0 0.10000000000000001 0.019537864299142921 0 0.20000000000000001 0.02712913039350634 0 0.20000000000000001 0.019537864299142921 0 0.10000000000000001 0.014048877707311129 0 0.20000000000000001 0.019537864299142921 0 0.20000000000000001 0.014048877707311129 0 0.20000000000000001 0.02712913039350634 0 0.20000000000000001 0.037627845084982139 0 0.29999999999999999 0.037627845084982139 0 0.20000000000000001 0.037627845084982139 0 0.20000000000000001 0.052147564491031792 0 0.29999999999999999 0.052147564491031792 0 0.20000000000000001 0.019537864299142921 0 0.20000000000000001 0.02712913039350634 0 0.29999999999999999 0.02712913039350634 0 0.20000000000000001 0.014048877707311129 0 0.20000000000000001 0.019537864299142921 0 0.29999999999999999 0.019537864299142921 0 0.20000000000000001 0.01007997645382676 0 0.20000000000000001 0.014048877707311129 0 0.29999999999999999 0.014048877707311129 0 0.20000000000000001 0.0072101992457088487 0 
[...]
<PointData Scalars="Ba-133_conc,region_id," Vectors="" Tensors="">
<DataArray type="Float64" Name="Ba-133_conc" format="ascii">
1229.4591589214874 1135.5689173092035 -1.1010150939908233e-67 2.1664579093093302e-68 -8.5028177117248084e-69 -2.9891338868727804e-78 8.7240274902567561e-79 -2.893295757635453e-79 -9.1218362549169299e-58 4.7911329793001886e-58 -3.2134545091067704e-58 -1.154083878600696e-47 7.0783683151023065e-48 1.6011827443653426e-49 1.0345669431077928e-39 -3.1888265616993708e-39 2.8540210504190035e-39 3.897800103037143e-31 3.7473610949668732e-32 -2.2454435988941877e-31 -4.4458683804297834e-24 7.5322859030980991e-25 9.5477977656440462e-25 3.5073846408246517e-18 -1.0991321296072215e-18 2.0356585994671784e-19 -7.5776704018005673e-11 -8.0260815043802534e-10 1.7422724944355225e-09 -2.0209119052270618e-13 1.0764208493282882e-13 -1.1355911971741795e-13 1229.5945134674828 1098.9966266578128 1214.0362488603469 1104.7017143057094 -2.6419516739580757 -70.26145912937109 -4.3503702666886559 0.17550572183734298 -1.1317191635699202 -0.23611598217320007 -0.063550091172742337 0.063494314525621293 0.012162372324329795 0.00055455897412550511 -0.0027320953070659438 -0.00062544867253000696 3.617001774139478e-05 0.0001692670810585809 2.7837614008052752e-06 2.7235731600210603e-07 -1.9179725571351e-06 5.8516138803363588e-16 -5.4714433301324793e-17 -8.8847907910412179e-16 -2.1373112238105619e-21 1.0219042562944148e-21 4.3353746875748595e-22 -1.0737478021469461e-11 -6.0794885541591937e-12 4.1798003273910111e-11 -6.4569993862214178e-09 3.9112689201552897e-08 -1.4816152820902588e-07 1.7309868010151986e-05 -1.5195231382319532e-05 4.3568619039098594e-05 -0.00085777941190589061 0.00041638092412194389 -0.00085843565522815554 -0.0057778814075640662 -0.0039375417385722521 -0.020492500960832161 -0.20811036506739292 0.17579735588423229 0.18731455658263227 1099.2106010832279 -63.644169022083965 1214.7125183758101 1229.6205612171757 1214.008190226883 1135.7598785504556 -2.914745092871486 -2.6900262586576482 -73.635136023287501 3.4905446752734142e-36 2.6417555866810673e-35 -8.7963665088671776e-35 5.2035667464656939e-28 -6.1967054952963964e-28 1.0264595825438129e-27 -1.1599544509798074e-43 -3.3293063872445629e-44 4.4867276906580404e-43 6.6033116003238356e-54 -7.0251625838970945e-53 -3.69666628876074e-53 -4.0706390699417534e-63 -1.0641667874044846e-63 -4.5104223983175501e-63 -2.9983319189181129e-73 1.3793267645149945e-74 -6.2714045070741203e-74 -5.7939391920292804e-84 6.3196958362410629e-85 -9.1467788097505291e-85 -2.9601832723639545e-95 4.0058210585406601e-96 -4.4470431493393927e-96 -2.6335432358373064e-89 7.9388609157001231e-90 -2.7485363611895569e-90 -6.2990161196055465e-101 1.9663502472726415e-101 -7.4096327369999189e-102 3.4159841884184335e-87 -1.0449269109172598e-87 3.0257473216075009e-88 8.1427329085308573e-99 -2.5800583213084066e-99 8.6152870985199265e-100 1.5822340023673341e-99 -5.1313394373746855e-100 -1.2749206141157536e-100 6.7173847022299944e-88 -2.1586676212135332e-88 -8.7365070575931462e-89 7.3100817607070242e-94 2.4807138402690688e-95 -2.1046849175787482e-94 7.3106017779249059e-72 2.7676374166332662e-72 -5.2161794965277619e-72 1.4248666424264443e-82 2.1227880186496196e-83 -6.5133535452538622e-83 7.8931868861492962e-77 -2.5971634519992793e-77 -1.3645788372465882e-77 2.5636191373460615e-66 -1.0056660372331201e-66 -4.7041849908255726e-67 2.1342122575975784e-56 -2.2543816029778943e-56 -4.1567814674429679e-57 1.0530564312472572e-46 5.5914436626166471e-47 -6.8430741892029938e-47 7.9553941710035814e-30 -2.9442613112635061e-30 4.5612713939133132e-31 -1.5571878752213961e-37 2.8436135382502531e-38 3.0559494636966726e-38 1135.7161873075422 1214.0164593479294 1262.1929600754981 1221.3441969391979 -69.422284510905911 -60.110870077244421 -78.068486733205219 -0.29530100106287377 0.85125204667168863 0.84479329845948148 -0.017034266643950257 0.12629716196316976 -0.039398867038050234 -0.0010277612410706869 0.0095546488203468831 2.6655687659758259e-05 -7.8263002398637098e-06 4.2125262346602562e-06 -0.0010217600770265735 0.00063640187653768801 -0.001139689668734021 -3.259551632976524e-08 5.7794565416892146e-09 4.6580515547499525e-09 2.8592369645362397e-12 -6.9502589848575279e-14 -1.2795986106095334e-12 -1.3096147291188443e-17 -7.0480452152616484e-18 1.7542503882156644e-17 -2.0553642087577904e-23 1.7362663466903326e-23 -1.7063927389575341e-23 1.4045186061929201e-10 -1.0476429232189597e-10 1.4303490132004042e-10 -5.2457941766288471e-07 1.7298322380302741e-07 2.365315026823449e-07 0.0001293054557446542 9.4751406355896301e-06 -0.00027402460427697231 -0.015122254682847022 -0.040354095815461816 -0.24259596108131229 -0.001946952784772527 -0.0017526191640491145 0.018746083149171481 1214.324022142732 -50.815712829275448 1263.0278334552906 1135.6940027894696 1262.1769635577962 1024.8373140556566 -72.798492829651337 -2.4974093736471947 -64.917229982826441 0.12770203827949092 0.93858763750083551 2.460275423010776 -9.1903021132219277e-21 -1.0347158133706893e-20 5.1291227759912364e-20 -1.7934715866606414e-15 3.947286743652217e-15 -1.1133631126989189e-14 -4.684069753689289e-34 2.8829572782979201e-34 2.3227801875588963e-34 9.2865439860889984e-27 -1.0424338308581212e-28 -1.8014155898608186e-26 8.2887074587416648e-62 1.0943674850488628e-61 -8.1302067688483698e-62 6.7431728141324921e-52 6.0137025662955892e-52 -3.3842248867361242e-51 6.6229339206955396e-43 -2.5644406574392693e-42 3.7574699037932369e-42 1.5317837348453299e-65 -2.7224698428398425e-66 5.6692067978665714e-67 3.9731452742057215e-76 -1.1632793324612437e-76 2.8916597147757318e-77 -1.5815697612931862e-56 -1.1759570010911632e-55 6.5132116816761565e-56 2.1551096321088295e-45 -7.960970664940341e-46 -2.2884368705437767e-46 -4.8727583921730077e-37 4.346773180521034e-37 -2.1981590628726162e-37 -2.0787495334361824e-29 -1.1941163079013821e-29 2.1767393424985076e-29 3.0598689154940677e-22 -6.821999019068197e-24 -1.2258408159060983e-22 -2.4162953911751612e-16 4.4695189534660308e-17 3.9527659603433183e-17 -3.4852940600799896e-08 3.8920430390236931e-08 -4.5161450770312363e-08 1.4106710286503021e-11 -4.8829359677460795e-12 1.5404796004793135e-12 1024.8469497282226 1262.1702149958494 1296.5667121716583 1272.4329653940183 -59.588358339245325 -48.139736727100875 -70.480626388478399 1.2494155683450425 -0.68105960044633596 3.7213815789582001 0.072998420209313075 0.22278740461121702 -0.37475654619155746 0.0093959490835676812 0.032582853643043551 -4.3879677499670912e-05 -1.9973337406411153e-05 5.9000826346944082e-05 0.012231777715268234 0.00025301715465466312 -0.0053983905620880214 1.757725028871566e-41 -4.7894296299397677e-42 -3.5851471725079275e-41 -5.1974071129943472e-52 1.3028126842964191e-50 -4.4454682446879925e-51 5.4924597973829782e-61 1.4427830632572686e-61 4.5058098886829543e-61 -1.8727906935484624e-33 -1.6624193739829089e-33 8.4984049206905247e-33 -1.3223163123176502e-26 4.9201144004673186e-26 -1.308392652451087e-25 1.0580169219529938e-19 -9.4578777738646156e-20 1.2857427202244586e-19 -3.2087319194229566e-14 1.2766783246037282e-14 8.6511422343883756e-15 6.9622169406885757e-10 -1.8016375852439674e-13 -1.0170618302524391e-09 -7.9692005244236713e-07 -7.5774447322721355e-07 4.4216692547831743e-06 -8.8435081157428464e-05 0.00035910178178232298 -0.0014383702483635418 1262.5993816466698 -36.01353229537596 1297.5291674864491 1024.8785053651366 1296.5383920384832 907.46638002764439 -64.288143363633523 -4.6474058936794291 -54.24080411301027 2.5917926216794021 1.228078280493462 1.0533754940274274 -0.22403380794006128 -0.056096425879622241 -0.22600368701317197 0.013572661018603575 -0.010628913735013245 0.042645127076952949 7.6524947860337881e-82 -6.7783041818616821e-83 7.1964640970931153e-83 4.164671184796611e-71 -1.7699711461738507e-72 8.4513098122434322e-73 3.857201540805259e-93 -4.6784166431446886e-94 4.2370943639435183e-94 -2.703390347179587e-86 8.6980873084770423e-87 3.4148704948492388e-87 -6.3616319799713488e-98 2.0531373395419855e-98 4.9895676059002906e-99 -2.9497963270454687e-92 -8.7787708241868405e-94 8.2564660225388122e-93 -5.7728073326324968e-81 -8.0342565373979293e-82 2.615034525610036e-81 -2.9419521918905203e-70 -1.0520155492663496e-70 2.2395529204343548e-70 -3.1386352016612682e-75 1.0560361461804761e-75 5.3441038337666909e-76 -7.9693099242505025e-65 4.521696234836476e-65 1.4704297699207668e-65 -6.8632234470980213e-46 -4.4166622832534914e-45 2.4300712785865798e-45 -1.4510847338107367e-54 9.7720471493328383e-55 2.7279779330026206e-55 0.030473623778531765 -0.0037434983685655345 -0.0064689987733717843 -0.00034608970123653715 1.7602121042972373e-05 0.00011504561336574587 -0.42649923550523905 0.039667647481315273 0.01935241962374866 2.5763325219011572 0.15008643370611124 0.47171554667159382 907.43885675084823 1296.5425307061168 1316.4057142278907 1309.6800547057151 -47.651837976129677 -33.062816486490192 -60.619740577746207 -0.38265915799190381 -2.2145999939812882 -1.3183476222569723e-11 -1.0755254869390257e-11 2.2118199941289914e-11 3.0661419039401688e-07 2.5809231672925048e-08 -1.8030439376238277e-07 -2.7348804424045498e-16 2.379235397124942e-16 -1.9495854486255645e-16 1.1870082719964205e-21 -4.0337628830676236e-22 2.3566535980753829e-23 4.6554037646733555e-36 2.1312287932322821e-37 -1.7121368240651619e-36 -2.8446851360735266e-28 4.9316660660440587e-29 5.2510477728016749e-29 2.3020196478672336e-41 8.2952957477688058e-41 -2.3078871635719944e-40 -4.0603538067933631e-50 5.0310088976377616e-51 1.2678916068900438e-49 -2.6216579146968993e-60 -5.6553272041023655e-60 2.7294619536861422e-60 9.2425882338678055e-33 -1.37124497643398e-32 1.9320410018179035e-32 -2.6191029228649063e-25 1.4327215732115149e-25 1.2420493468606871e-26 4.5493881622814095e-19 -5.0368052569030158e-20 -5.2768383827215395e-19 -5.1452719477375833e-14 -2.9345281841769125e-14 1.7971704232580741e-13 -7.8965590293374103e-12 1.3199734072889152e-09 -4.5616612896742831e-09 2.6304961424540667e-06 -3.7989123566764084e-06 9.5177160386859996e-06 -0.0011862259850558996 0.0008165139594701787 -0.0019241082510915788 1297.1143942929154 -18.343385823602603 1317.4867310095083 907.43539390209776 1316.3866156427905 780.79897928021842 -53.563138429368379 -6.6943679607140378 -40.433042497648827 1.2479051899688152 1.6626441807637384 -0.29211297609699122 0.041331492382301674 -0.013305631171138794 0.043668187837430317 -0.23737560893066914 -0.10512248970601748 -0.070461921598404392 -9.1801085826934347e-75 2.7150432796792352e-75 1.8493835931161633e-76 -2.9677017450010801e-64 6.2608376766959438e-65 1.1533498876489061e-65 8.1318279148439602e-55 4.3948062714167046e-54 -1.259606065382148e-54 -4.6972526408916378e-44 4.5670035408159666e-45 1.0160152422763304e-44 -3.5893731331251891e-28 2.5427661544919163e-28 -1.1480790665709136e-28 1.8198937998298506e-35 -5.8479227230078957e-36 -1.2053454207085249e-36 -5.449327360733667e-22 -8.3760879789774877e-22 1.1764435144709616e-21 1.3209560819012449e-15 1.8143056176781717e-16 -7.8875726388710296e-16 -1.1528059079250103e-10 4.3555516024021544e-12 4.57596934300083e-11 7.6897990740000954e-07 -1.0129526191541672e-07 -2.5264859861969012e-07 -0.00049729979248515994 8.5908539962202017e-05 0.00013085990249657231 0.03423200101293887 -0.0058805594340811361 -0.0061282704872567305 -0.33953694958731079 0.031301311837005172 -0.0024103869494135222 780.79328480995514 1316.3868949990012 1320.3881745995234 1332.20239583019 -32.708759635859614 -15.325316838784792 -47.525127149052409 -1.9689292567778542 -3.9441877850818372 1.4617945141483846 0.40466123349214472 0.71725152999181951 -9.1731835624557681e-60 -1.0270488923190667e-59 -4.5823203789786064e-60 -5.9818957998316471e-50 -2.5578254943712075e-49 3.760822385956045e-49 -2.5072506354315126e-40 2.9476684032507783e-40 -9.5985952858746159e-41 4.7501888883923645e-32 -1.3600794043996825e-32 -4.4645778231818444e-32 -4.7237816377215909e-25 -1.5570579821382508e-25 1.2084458865104997e-24 1.5654950777135815e-19 6.6298258519706947e-19 -2.3134033628476409e-18 8.1585854518363187e-14 -1.5692520829658512e-13 3.9969298147779924e-13 -3.1874579011687336e-09 3.1115895579005127e-09 -6.8863577282858127e-09 7.7771579783288018e-06 -5.77475475425225e-06 1.1897290809411408e-05 -0.0017442586489037799 0.00098596927431542796 -0.0021186407235222497 0.043117712705604515 -0.011092846239332856 0.040269729828431175 -0.082001252142930192 -0.17083567517832743 0.083163853461318799 -0.054163653779747321 2.0678424092544265 -1.8900159560490031 1317.0986731482844 1.6966876163798112 1321.5499707546078 780.81192984034601 1320.3655261113786 650.34601706628814 -39.763008332741187 -8.8180717782144082 -23.794463666558425 -1.7055779372308784e-80 8.7115810111299998e-83 1.9792783264764e-81 -9.855813912431627e-70 -2.3657266636581288e-71 3.8434673856081184e-70 -8.4933418605257242e-92 5.5171406424255599e-93 3.3123261734078267e-93 -1.7872835762882843e-97 5.7965744428987595e-98 -7.6342612995610267e-99 -7.5642059901624927e-86 2.3863408244987804e-86 -9.264756820298642e-88 1135.3343080846946 1024.4692127800361 1024.5529671949514 907.08624678421506 906.96539739825926 780.32136892895755 780.32645024584656 649.83902639757798 649.75667221010008 515.51076307804533 515.48085572444791 381.04362875756277 380.97766524725427 247.87329181364814 247.83001270655348 119.11427940856329 2.061058762916069e-91 4.6262450528743284e-93 -5.3929594340601581e-92 1.9014115670171e-85 -6.0284783103499808e-86 -2.3156970676433206e-86 4.4604868894058642e-97 -1.4141985331736727e-97 -3.409468767786044e-98 2.2845336435759917e-64 -4.4668054562649134e-64 -2.9348493520664383e-65 2.1041831409373499e-74 -7.1738307799418283e-75 -3.598363656743176e-75 -31.402781231193064 -3.7609800655466978 -5.7993158346904714 1338.5407742963471 -15.122686815268269 4.8962691284304878 650.32443415033549 1320.3714659813127 1308.0071584054074 0.061246102669697738 0.64934864845682838 0.9922122863970565 -0.26035859023721031 0.013252410686017829 -0.02418101088708589 0.036537310360362077 -0.0062873396570642557 -0.0062254369326696203 -0.00058489312858825654 0.00011339669123041565 0.00014909531801224793 1.0057980898816901e-06 -1.9102829448409462e-07 -2.9508721868116277e-07 -1.8538215645920354e-10 3.0487302815384335e-11 5.7252958312324915e-11 -6.7075793781322665e-21 1.1295169743602203e-22 2.5826518382127933e-21 3.5439037990013963e-15 -4.076540129369998e-16 -1.1844335798897797e-15 9.9113767528765894e-28 2.2496021175784961e-28 -5.5346036073824438e-28 6.819252508929528e-37 -1.3402216582124362e-35 9.2630480184846259e-36 -8.7773077624102667e-44 5.0164434577633991e-44 -8.6511829707961287e-46 2.6507642048977032e-53 -4.6536966923432332e-54 -5.1335933439597797e-54 -1.6002941190366204 2.4678229263252685 -3.6921414462652629 -23.148753593418508 -10.919899427849026 -4.4718329826579426 1321.2064742580594 23.846470832804854 1309.2295877734969 650.32746122784818 1307.9905464580943 516.07765821643898 0.041187642264679719 -0.0080573611785359229 0.036937125358563049 0.069274455448568986 -0.241141203325627 0.27448728279093659 -0.0020163061468045297 0.0011161754694099216 -0.0024124448795794246 -5.428341009687851e-09 4.2595833497860863e-09 -8.5369159568792189e-09 1.0318866965901982e-05 -7.1746857573658776e-06 1.4348170745824593e-05 -1.3425643791751199e-18 1.6749675951249009e-18 -3.6708603751973633e-18 2.8427914756327656e-13 -2.6068560793720602e-13 5.3313842776051778e-13 3.8481424055717505e-32 5.5488135385359702e-32 -2.0782868633424972e-31 3.1408146821638231e-25 -1.0734484301043635e-24 2.739341351251829e-24 4.1039792640717453e-49 -5.9958500489637078e-49 -2.9247582450510634e-49 -7.3276067840792097e-40 9.6396088791925926e-42 1.3189979838753017e-39 1.0479079253320373e-59 5.5834413632930266e-59 -1.4184805266807946e-59 1.850096679271977e-69 7.939735770489204e-70 -1.4283856190823276e-69 4.0253521011690163e-80 4.8012429662633027e-81 -1.8013245092042449e-80 -0.14505378329310878 -0.0076576724790042208 -0.05180654506584121 -1.599769401717386 0.92475210682187214 1.2797605498069047 -12.356247107368493 -5.6952181314372989 -7.7302388022907698 1328.1407556983027 4.9325251928584803 27.241487046361701 516.06523918381993 1307.9959878266848 1278.6871613510732 -0.00070628872574050037 0.00013648315008362068 0.00017854254852979639 0.039366667965275562 -0.0066219659923469404 -0.0062140034526037349 1.2686137283850511e-06 -2.4795968779720124e-07 -3.733674605495327e-07 -2.3972730303345543e-10 4.523552369133794e-11 7.2440778410570264e-11 4.9461394738247555e-15 -8.9126737159485534e-16 -1.4735246550257394e-15 -1.1619360603483604e-20 1.8183323588829165e-21 3.3654395263125598e-21 2.9748175320234558e-27 -2.9998692511041263e-28 -8.7212334617304044e-28 -7.188388219335924e-35 -2.5193947366921238e-36 2.3421619850641461e-35 3.5354347261820039e-53 -3.6298618665307614e-53 8.8950664868172978e-55 8.8385717876292444e-44 6.6571203766495949e-44 -5.0025600365130413e-44 -8.31013855636047e-32 1.6211345137884428e-31 -3.3389083596073002e-31 1.6798595259938903e-24 -1.9135071610584977e-24 3.7416894267183215e-24 4.1449027751430508e-13 -3.4986906716169076e-13 6.9490483029710728e-13 -2.6064332777089136e-18 2.431730383901761e-18 -4.7678137693923219e-18 -7.1612668264596287e-09 5.5375814080940569e-09 -1.1097468585672614e-08 1.2891990840540229e-05 -8.9534378679530831e-06 1.7915428639549684e-05 -3.8564664645778413 -12.925288020603274 17.200925480090451 1308.9410872133892 47.672430898689775 1279.9338440710455 516.07650252165035 1278.6715746743546 381.63562905536224 -3.3493820148239948 2.8324950097574693 -5.6567563617293795 0.25834675732605145 -0.31789338677006773 0.49752585591431081 0.038186096257846143 -0.0037511895075299883 0.030534266726828435 -0.0023267188796042577 0.0012654104875232954 -0.002741414284133545 1.8521596631985775e-60 1.5039094783463451e-58 4.2753284034360091e-59 -2.4097923984524297e-40 -1.2205369018281992e-39 3.0734086928552853e-39 1.0806993920561215e-48 2.002258125943406e-49 -2.2228415437803013e-48 6.0793893789121935e-69 -1.1330582239514139e-70 -4.3111308917606493e-69 1.0015289990082994e-79 3.0549348888041774e-81 -2.2892697004759045e-80 5.7080661893856118e-64 -3.6773044213354066e-64 1.304916138416017e-65 5.6088174146636848e-74 -1.517848564481369e-74 -3.9955432740496039e-75 4.4309092633150908e-85 -1.4172809686541083e-85 -1.1357960815675987e-86 1.0388466479595557e-96 -3.4057957826092095e-97 1.1281139661417568e-98 4.9406485899097881e-91 -1.8014654761457373e-92 -5.5680021422399368e-92 -3.810602295632102e-97 1.0159352524362343e-97 2.6337105154717806e-98 -1.7144003495512923e-85 4.2969480542274797e-86 1.7031510939363235e-86 -3.9228866478629675e-64 1.8965986725199933e-63 -2.4916301000613429e-64 -4.6014525165197761e-75 3.5905174555194031e-75 1.233450592499857e-75 0.0051185019974452472 -0.033784138191311062 -0.08396930868871938 -3.4948688957969742 1.2129374541902074 1.6028475828129323 9.298916511224526 -7.7145096681031804 -9.8425414614669613 1300.3548953708591 27.077622962037882 51.399337771906438 381.61680113205688 1278.6804328225551 1233.3357876823857 -0.00084930998543366861 0.00016499260648096661 0.00021188326403215782 0.041208144732334882 -0.0067830877150225006 -0.0059187639154213946 1.6338870133952022e-06 -3.1958526421663544e-07 -4.7852538220471581e-07 -3.1966007749594578e-10 6.0003188620840956e-11 9.6803112736504264e-11 6.635405881456086e-15 -1.2300238278368696e-15 -1.9901879478633786e-15 -1.567057525006538e-20 2.9005714256631903e-21 4.4142593954155741e-21 4.3283752230889532e-27 -7.8290105540448364e-28 -1.0973579924304585e-27 -1.3615829561532796e-34 2.0913928709506663e-35 3.0651413751213602e-35 -6.2714681119272851e-53 -3.5331911693754376e-53 1.917249907137297e-53 4.137724524729462e-43 -2.2801919745908325e-44 -8.823451560443348e-44 119.04202858909062 0.86662510559134542 -0.0026518757102029283 0.0014117830696542516 -0.003074347947848108 0.032517949005920956 0.0019535185332816797 0.021685406817462307 0.47968685337075812 -0.39991491654646161 0.76569031516802288 -5.2658182289560429 3.1897980194926432 -7.8743117040982105 17.769396171106528 -14.934722425113252 40.913115855159894 381.62037387906315 1233.3260271197923 2