<?xml version="1.0"?>
<VTKFile type="UnstructuredGrid" version="0.1" byte_order="LittleEndian">
<UnstructuredGrid>
<Piece NumberOfPoints="1160" NumberOfCells="390">
<Points>
<DataArray type="Float64" NumberOfComponents="3" format="ascii">
0 0.037627845084982139 0 0 0.02712913039350634 0 0.10000000000000001 0.037627845084982139 0 0 0.014048877707311129 0 0 0.01007997645382676 0 0.10000000000000001 0.014048877707311129 0 0 0.01007997645382676 0 0 0.0072101992457088487 0 0.10000000000000001 0.01007997645382676 0 0 0.00027714824767246312 0 0 0.0001221058858762623 0 0.10000000000000001 0.00027714824767246312 0 0 0.019537864299142921 0 0 0.014048877707311129 0 0.10000000000000001 0.019537864299142921 0 0 0.0072101992457088487 0 0 0.0051351601405289276 0 0.10000000000000001 0.0072101992457088487 0 0 0.00049157175393484403 0 0 0.00027714824767246312 0 0.10000000000000001 0.00049157175393484403 0 0 0.02712913039350634 0 0 0.019537864299142921 0 0.10000000000000001 0.02712913039350634 0 0 0 0 0.10000000000000001 0 0 0 0.0051351601405289276 0 0 0.0036347696815094469 0 0.10000000000000001 0.0051351601405289276 0 0 1.0000000000000001e-05 0 0 0.0001221058858762623 0 0.10000000000000001 0.0001221058858762623 0 0 0.0036347696815094469 0 0 0.0025498882091243972 0 0.10000000000000001 0.0036347696815094469 0 0 0.052147564491031792 0 0 0.037627845084982139 0 0.10000000000000001 0.052147564491031792 0 0 0.00078811928474293897 0 0 0.00049157175393484403 0 0.10000000000000001 0.00078811928474293897 0 0 0.001198244413521618 0 0 0.00078811928474293897 0 0.10000000000000001 0.001198244413521618 0 0 0.001198244413521618 0 0 0.001765447234118425 0 0.10000000000000001 0.001765447234118425 0 0 1.0000000000000001e-05 0 0 0 0 0.10000000000000001 1.0000000000000001e-05 0 0 0.0025498882091243972 0 0 0.001765447234118425 0 0.10000000000000001 0.0025498882091243972 0 0 0.052147564491031792 0 0 0.072228323778986164 0 0.10000000000000001 0.072228323778986164 0 0 0.10000000000000001 0 0 0.072228323778986164 0 0.10000000000000001 0.10000000000000001 0 0 0.072228323778986164 0 0.10000000000000001 0.10000000000000001 0 0.10000000000000001 0.072228323778986164 0 0 0.014048877707311129 0 0.10000000000000001 0.014048877707311129 0 0.10000000000000001 0.019537864299142921 0 0 0.019537864299142921 0 0.10000000000000001 0.019537864299142921 0 0.10000000000000001 0.02712913039350634 0 0 0.0051351601405289276 0 0.10000000000000001 0.0072101992457088487 0 0.10000000000000001 0.0051351601405289276 0 0 0.001198244413521618 0 0.10000000000000001 0.001198244413521618 0 0.10000000000000001 0.001765447234118425 0 0 0.001765447234118425 0 0.10000000000000001 0.0025498882091243972 0 0.10000000000000001 0.001765447234118425 0 0 0.00027714824767246312 0 0.10000000000000001 0.00027714824767246312 0 0.10000000000000001 0.00049157175393484403 0 0 0.0036347696815094469 0 0.10000000000000001 0.0036347696815094469 0 0.10000000000000001 0.0051351601405289276 0 0 0.01007997645382676 0 0.10000000000000001 0.014048877707311129 0 0.10000000000000001 0.01007997645382676 0 0 1.0000000000000001e-05 0 0.10000000000000001 0.0001221058858762623 0 0.10000000000000001 1.0000000000000001e-05 0 0 0.052147564491031792 0 0.10000000000000001 0.072228323778986164 0 0.10000000000000001 0.052147564491031792 0 0 0.0001221058858762623 0 0.10000000000000001 0.00027714824767246312 0 0.10000000000000001 0.0001221058858762623 0 0 0.02712913039350634 0 0.10000000000000001 0.02712913039350634 0 0.10000000000000001 0.037627845084982139 0 0 0.00078811928474293897 0 0.10000000000000001 0.00078811928474293897 0 0.10000000000000001 0.001198244413521618 0 0 0.0025498882091243972 0 0.10000000000000001 0.0025498882091243972 0 0.10000000000000001 0.0036347696815094469 0 0 0 0 0.10000000000000001 1.0000000000000001e-05 0 0.10000000000000001 0 0 0 0.0072101992457088487 0 0.10000000000000001 0.01007997645382676 0 0.10000000000000001 0.0072101992457088487 0 0 0.037627845084982139 0 0.10000000000000001 0.052147564491031792 0 0.10000000000000001 0.037627845084982139 0 0 0.00049157175393484403 0 0.10000000000000001 0.00049157175393484403 0 0.10000000000000001 0.00078811928474293897 0 0.10000000000000001 0.00078811928474293897 0 0.10000000000000001 0.001198244413521618 0 0.20000000000000001 0.001198244413521618 0 0.10000000000000001 0.00078811928474293897 0 0.20000000000000001 0.001198244413521618 0 0.20000000000000001 0.00078811928474293897 0 0.10000000000000001 0.0036347696815094469 0 0.20000000000000001 0.0051351601405289276 0 0.20000000000000001 0.0036347696815094469 0 0.10000000000000001 0.0072101992457088487 0 0.10000000000000001 0.0051351601405289276 0 0.20000000000000001 0.0072101992457088487 0 0.10000000000000001 0.0051351601405289276 0 0.20000000000000001 0.0072101992457088487 0 0.20000000000000001 0.0051351601405289276 0 0.10000000000000001 0.01007997645382676 0 0.10000000000000001 0.0072101992457088487 0 0.20000000000000001 0.01007997645382676 0 0.10000000000000001 0.0072101992457088487 0 0.20000000000000001 0.0072101992457088487 0 0.20000000000000001 0.01007997645382676 0 0.10000000000000001 0.00027714824767246312 0 0.10000000000000001 0.00049157175393484403 0 0.20000000000000001 0.00049157175393484403 0 0.10000000000000001 0.00027714824767246312 0 0.20000000000000001 0.00027714824767246312 0 0.20000000000000001 0.00049157175393484403 0 0.10000000000000001 0.0036347696815094469 0 0.10000000000000001 0.0051351601405289276 0 0.20000000000000001 0.0051351601405289276 0 0.10000000000000001 0.001198244413521618 0 0.10000000000000001 0.001765447234118425 0 0.20000000000000001 0.001765447234118425 0 0.10000000000000001 0.0025498882091243972 0 0.20000000000000001 0.0036347696815094469 0 0.20000000000000001 0.0025498882091243972 0 0.10000000000000001 0.014048877707311129 0 0.10000000000000001 0.01007997645382676 0 0.20000000000000001 0.014048877707311129 0 0.10000000000000001 0.0025498882091243972 0 0.10000000000000001 0.0036347696815094469 0 0.20000000000000001 0.0036347696815094469 0 0.10000000000000001 0.001765447234118425 0 0.20000000000000001 0.001765447234118425 0 0.20000000000000001 0.0025498882091243972 0 0.10000000000000001 0.001198244413521618 0 0.20000000000000001 0.001198244413521618 0 0.20000000000000001 0.001765447234118425 0 0.10000000000000001 0.00049157175393484403 0 0.10000000000000001 0.00078811928474293897 0 0.20000000000000001 0.00078811928474293897 0 0.10000000000000001 0.00049157175393484403 0 0.20000000000000001 0.00078811928474293897 0 0.20000000000000001 0.00049157175393484403 0 0.10000000000000001 0.0025498882091243972 0 0.10000000000000001 0.001765447234118425 0 0.20000000000000001 0.0025498882091243972 0 0.10000000000000001 0.02712913039350634 0 0.10000000000000001 0.037627845084982139 0 0.20000000000000001 0.037627845084982139 0 0.10000000000000001 0 0 0.20000000000000001 0 0 0.10000000000000001 0.052147564491031792 0 0.20000000000000001 0.072228323778986164 0 0.20000000000000001 0.052147564491031792 0 0.10000000000000001 1.0000000000000001e-05 0 0.10000000000000001 0 0 0.20000000000000001 1.0000000000000001e-05 0 0.10000000000000001 0 0 0.20000000000000001 1.0000000000000001e-05 0 0.20000000000000001 0 0 0.10000000000000001 0.037627845084982139 0 0.20000000000000001 0.037627845084982139 0 0.20000000000000001 0.052147564491031792 0 0.10000000000000001 0.052147564491031792 0 0.10000000000000001 0.037627845084982139 0 0.20000000000000001 0.052147564491031792 0 0.10000000000000001 0.02712913039350634 0 0.20000000000000001 0.037627845084982139 0 0.20000000000000001 0.02712913039350634 0 0.10000000000000001 0.0001221058858762623 0 0.10000000000000001 1.0000000000000001e-05 0 0.20000000000000001 0.0001221058858762623 0 0.10000000000000001 1.0000000000000001e-05 0 0.20000000000000001 0.0001221058858762623 0 0.20000000000000001 1.0000000000000001e-05 0 0.10000000000000001 0.019537864299142921 0 0.20000000000000001 0.02712913039350634 0 0.20000000000000001 0.019537864299142921 0 0.10000000000000001 0.019537864299142921 0 0.10000000000000001 0.02712913039350634 0 0.20000000000000001 0.02712913039350634 0 0.10000000000000001 0.014048877707311129 0 0.20000000000000001 0.019537864299142921 0 0.20000000000000001 0.014048877707311129 0 0.10000000000000001 0.00027714824767246312 0 0.10000000000000001 0.0001221058858762623 0 0.20000000000000001 0.00027714824767246312 0 0.10000000000000001 0.01007997645382676 0 0.20000000000000001 0.014048877707311129 0 0.20000000000000001 0.01007997645382676 0 0.10000000000000001 0.0001221058858762623 0 0.20000000000000001 0.0001221058858762623 0 0.20000000000000001 0.00027714824767246312 0 0.10000000000000001 0.014048877707311129 0 0.10000000000000001 0.019537864299142921 0 0.20000000000000001 0.019537864299142921 0 0.10000000000000001 0.072228323778986164 0 0.20000000000000001 0.10000000000000001 0 0.20000000000000001 0.072228323778986164 0 0.10000000000000001 0.10000000000000001 0 0.10000000000000001 0.072228323778986164 0 0.20000000000000001 0.10000000000000001 0 0.10000000000000001 0.072228323778986164 0 0.10000000000000001 0.052147564491031792 0 0.20000000000000001 0.072228323778986164 0 0.20000000000000001 0.10000000000000001 0 0.20000000000000001 0.072228323778986164 0 0.29999999999999999 0.10000000000000001 0 0.20000000000000001 0.072228323778986164 0 0.20000000000000001 0.052147564491031792 0 0.29999999999999999 0.072228323778986164 0 0.20000000000000001 0.001198244413521618 0 0.20000000000000001 0.00078811928474293897 0 0.29999999999999999 0.001198244413521618 0 0.20000000000000001 0.0001221058858762623 0 0.20000000000000001 0.00027714824767246312 0 0.29999999999999999 0.00027714824767246312 0 0.20000000000000001 0.001198244413521618 0 0.20000000000000001 0.001765447234118425 0 0.29999999999999999 0.001765447234118425 0 0.20000000000000001 1.0000000000000001e-05 0 0.20000000000000001 0 0 0.29999999999999999 1.0000000000000001e-05 0 0.20000000000000001 0.0072101992457088487 0 0.20000000000000001 0.01007997645382676 0 0.29999999999999999 0.01007997645382676 0 0
[...]
<PointData Scalars="Ba-133_conc,region_id," Vectors="" Tensors="">
<DataArray type="Float64" Name="Ba-133_conc" format="ascii">
1.2450927620918425e-76 -6.4408566190730316e-76 -5.2420652029894253e-77 -2.1661523138105384e-46 6.0545874026199984e-47 1.9797340524922009e-46 5.9527336347396249e-39 7.2111540662069876e-38 -4.0064637900494706e-38 -0.093365345340411479 -0.40349272492096572 0.39008764824326225 2.0275095572800615e-55 -3.27053310750224e-55 3.0184718112213021e-57 4.1029934549315617e-31 -2.3221724131994882e-30 4.7761802806990909e-31 0.0053891884524268092 -0.013115552498671272 -0.0072937097347467597 5.8550146198967736e-66 -1.1383090257518128e-65 -4.1102203695184601e-66 827.91650411022363 1293.5641097213943 -1.9082432157911646e-24 5.9173593738359253e-24 4.4437132286774352e-25 29.732665045047138 -0.61360595985267374 -9.9510899704347029 7.119391501269968e-19 -1.265492621484957e-18 -7.9332006424009656e-19 2.5105702094999154e-87 -8.6221717421255344e-87 -8.7067165641202102e-88 -6.9935622553344841e-05 0.0003514850160091955 3.1418412279928841e-05 1.7340034969848547e-07 -1.184593249864495e-06 2.6570113841881158e-07 6.3233645507723317e-10 2.6973793579963295e-11 -4.140045174371371e-10 35.74740962303278 826.8267589295076 65.861669483752991 -2.4994615579990257e-14 -1.187966807203156e-14 5.7212912175222197e-14 -3.9185730599691223e-98 1.1801613073075135e-98 -4.2127908199348723e-99 1.5651905013030037e-110 -5.0163892568426466e-110 -6.0185143233503476e-111 -3.2093361720680218e-104 4.4098992253322821e-105 -4.9947115757489356e-105 -5.0508105877730855e-51 1.9798120176433041e-50 -1.5656889312321867e-51 1.3309436479988737e-61 -7.4940656924808661e-61 -1.3164539842950084e-60 -1.9884912862845184e-27 9.2088466276543739e-28 5.3352929756499095e-28 1.3404958121433298e-08 2.1302857810497127e-08 -1.0547954028328555e-08 -1.1384331855564608e-12 3.2992350330442773e-12 -1.1513825565736472e-11 -0.022442147787955675 0.18535862939745704 -0.017040186154333215 1.899061679639421e-21 -3.0564079708962177e-21 -1.3120012996909399e-22 3.1897996046907484e-43 2.9369382753632204e-42 -9.5940640605914577e-42 35.51717326476389 -15.497567786093432 65.510475825678498 -1.1952307159168131e-92 1.3458194881460262e-93 -1.9890306700008563e-93 -0.61079236434282713 0.70134388900090039 -7.2292778633992318 -3.4505267492019042e-71 -3.9653339104385019e-71 -8.6522474010739709e-72 -9.8334262834232237e-06 2.5078534627020668e-06 3.9875247609405534e-06 -1.4054054209377158e-16 5.9443250226868855e-16 -9.6627438944365944e-17 826.84733739143235 65.845868545093595 1292.1853229701851 1.6166963121960874e-34 -1.8604344208281566e-34 2.991631343406221e-34 -1.2244506972863056e-81 6.3929119876506493e-83 -2.745311950630379e-82 0.0012564289875544913 -0.0019333524490524391 -2.4946404930180578e-05 -2.3031719061927209e-06 2.1279763086479076e-06 -2.5834917369442418e-06 -1.9390655423693281e-05 -1.7578169900325142e-05 0.00012556485596164544 -5.3979546972049364e-21 1.3650306110861237e-20 -4.0289339630417641e-20 9.5219767399792008e-30 -1.2012124516295344e-29 -9.0448068616356349e-30 -9.739767553122446e-27 -9.6392467991693238e-27 4.970857970649351e-26 -5.4285701345247341e-37 1.4936945759658237e-36 7.137362565902087e-38 2.9528515285271338e-33 -5.5188910486147987e-33 -9.9765963903984064e-35 0.10379237364855193 0.0031661127557181703 -0.050449643848768079 0.15610594314243062 0.48962793651977177 -0.13962140613140203 -2.0788279556659729e-23 -1.3524685628112656e-23 3.1603460155088142e-23 6.5459955590995002e-09 -1.9327862593237465e-09 7.8546750191307148e-10 2.0647284494551762e-15 -1.6649881510989777e-15 2.5240857304611605e-15 1.9357682454305639e-45 -1.0904268388802053e-44 2.2119458670612562e-45 1.9258055217160221e-17 -1.434643369612287e-19 -9.5083073551388164e-18 -4.7154222664421028e-11 1.3893677899495698e-11 1.789910722078299e-11 1.0913381106039874e-07 -1.5592369799848164e-07 6.7717373427806296e-10 -0.00046124146136746592 -0.00026403162823124325 0.00085564051119951681 -0.00064756359158955456 0.0033530175759018885 -0.015886505327718552 1.9176351666755076e-13 -1.1261532146086054e-12 1.9900074044114857e-13 1.5301161182464857e-74 -6.031522051545495e-75 -2.8496199098221988e-75 1294.0287178254105 2014.1989333149081 2.994052747083513e-91 4.5324366513040532e-92 -1.3859069783912587e-91 65.8531659139677 1292.2308329806431 106.42158098155751 1292.3180352014178 106.38801250133329 2011.7495175701906 3.0478742339020684e-80 -2.2024367556762887e-80 1.165609378558797e-80 -7.6584463384133941e-86 2.3252022403303532e-85 -4.074507223011507e-86 7.1682345457309863e-70 9.524144435511603e-70 -7.2366126124129977e-70 -9.4104349634567797 58.588201286549513 -15.991057625929068 65.624013369139846 -24.689665091389102 105.77062559560193 1.2956877734498737e-59 1.1173881809883641e-59 -6.5107113654238071e-59 2.6968246555231635e-64 -2.8797815173627232e-64 -5.434784519591518e-65 2.8312485276937888e-50 -1.1536695793885851e-49 1.7492823181969031e-49 0.18584248243624146 -5.8605689139209947 0.93688310434525013 -5.2744094645370647e-41 3.3506563067089488e-41 2.3146428691498549e-41 -7.2286495848373802 -11.74141113817152 1.8727020222533413 2.962757469065689e-54 1.6860328605482241e-54 -1.9848236766002279e-54 8.0574216696436663e-103 2.8587237296505138e-104 -2.352076910507705e-103 -4.1540367920596264e-109 1.2803926478749194e-108 -1.0539610768912119e-109 -3.2727502938453903e-97 1.017827786465767e-96 -1.3448684668793946e-97 -2.2195108922266282e-108 6.9958019945911089e-108 6.7161689562546891e-109 -1.6906828795141599e-96 5.51172647390667e-96 4.2133605885231433e-97 2.0923788813795728e-06 1.9841411511955959e-05 -1.2865566358730836e-05 -9.4770934316823858 0.74035943414425187 1.4564552327473899 -5.0763390427449047e-09 -5.6676177515798261e-09 1.2975303589487651e-08 106.43589351260371 2011.6689089925919 170.27248539112378 -3.2352728785358955e-36 -2.4241260582363041e-36 4.0373104103278865e-36 0.00014941081057621687 -0.0058122006915707972 0.0019375217297989912 1.2504028799231757e-84 -3.6855674520829233e-85 7.2988457957829229e-86 -2.2561534867988977e-53 6.3710085735454034e-53 -7.3651925030852569e-54 -1.7405292349737133e-12 1.4114416007502726e-12 -1.3466318233610066e-12 0.29165061981562324 -0.03292072133601244 -0.083342860618038944 -1.8285495141964069e-74 9.7330072346492393e-74 2.4587087696626145e-75 7.1858778741542848e-23 -4.3395617313006866e-22 8.5575779620947214e-23 6.2925466263104987e-31 1.5801660837423666e-28 -6.9563223236649636e-29 -1.6078665312799503e-63 -1.172158217472912e-64 8.1984861155191852e-64 -3.3352096767909045e-17 1.0624079106645363e-16 5.2099709149418821e-18 3.1273111510000469e-44 -3.8374417623867161e-44 -1.4628864179980441e-44 -15.055924622044486 94.816507552593421 -25.605809269641533 7.9755304475681689e-49 -2.5705692704963249e-49 -1.5430531557159805e-48 -2.3187647296878825e-40 9.6415210372718699e-40 -1.7392296386608298e-40 7.4682607515006618e-05 0.00031380780078962383 -0.00011184155016744809 1.7098808937577005e-90 1.1020339859769325e-91 -1.2950479748484969e-91 -5.8021442098788244e-60 -1.0785523173096173e-58 2.5427149703151935e-58 -1.1065783213808829e-19 5.0446761437152783e-20 7.6624477064154334e-21 1.6164091176064054e-08 -8.9797122895170604e-07 2.3369738897950581e-07 1.1274567555308763e-14 -1.2861629309744785e-14 -9.5985318638673546e-16 -2.822877404641344e-33 1.5162982928550789e-32 -4.2820340818531919e-32 1.8454991485222173e-79 -3.3199233985336709e-81 -3.6504028639295173e-81 -9.2548312156866028e-11 -4.9914736448466082e-11 3.4323352613805613e-10 9.5807241783211355e-26 -9.449807644202444e-26 1.4628186420587227e-25 5.0344629411321028e-69 3.7191926273405201e-69 1.5799625115706354e-69 106.05005593389437 -39.368902562315697 169.26678421776185 0.4606745425940057 0.78966997452914389 -0.24112835826019099 2011.6503126280313 3070.385696403649 170.2606838065623 -0.013517669304972705 -0.027254759032287745 0.0088434664547173171 -11.621419771124073 2.9677835527072514 -18.880318755659808 2013.9412205396181 3073.8895764514928 1.5055252215416364e-12 8.4109959333561289e-12 -6.138398800671093e-12 -1.8786680024254358e-62 1.2030858652622766e-62 3.7505283143329087e-63 -7.7931289776890831e-58 1.7836718855971928e-58 2.3777445830473921e-57 7.9649616029842817e-36 -5.2661686247300422e-35 1.105250684982938e-35 -4.5225952605147108e-73 2.6722752796030335e-73 8.867155791755953e-74 1.413279830363277e-10 -3.0745938061802667e-10 8.671804082102088e-10 169.6771212506799 269.48288839164428 -62.184424659478744 -2.1446175585370334e-68 -4.8982964440014327e-68 2.4642877275736317e-68 -0.01013738703754632 0.001112323269530757 0.0030431749539273508 -0.023854965226209439 0.01454578996426467 -0.043599756435697745 -8.9914034476990375e-84 3.0386987452146033e-84 1.6007450950457623e-84 -1.1874112106406337e-78 9.3788575575214694e-79 -4.4248233150924767e-79 -24.149380732060617 152.03423562324113 -40.669355294883779 -7.9819660956061718e-32 -1.3920078887787102e-32 4.9276773547739081e-32 -2.0826888083029515e-28 6.8029431219852118e-28 -1.7507527477055771e-29 -3.7023529954867796e-17 -8.4689170553812012e-17 1.4235023748302472e-16 5.3291526185447328e-15 -6.6315546098944535e-14 1.7273753651134293e-14 1.2980835940273953e-48 3.580125422107897e-48 -1.072557934485714e-47 -1.348461972937424e-52 1.0272612926259619e-54 6.7628080204289681e-53 9.3487501166450745e-40 2.4932878800118833e-39 -1.5793624428035119e-39 3.0999815780901123e-43 2.5888986971091764e-44 -1.2385953713150947e-43 -18.697899151431042 4.7258526174467415 -30.156146308836902 1.180652882853447 -15.294865674634194 2.3335999678269443 0.73890904326948847 1.2743985852126811 -0.3859918277141221 0.46945314732629367 -0.06069687297308321 -0.13040444965746606 4.3123997899871188e-22 -6.4433548099602947e-22 -2.8505822403844113e-22 -2.1427713125022814e-19 5.6482633184904617e-19 -7.0031562974974179e-20 -1.1798188983148628e-89 5.5545633153277361e-90 -1.7294236881906268e-90 3070.360929577831 170.30572697700518 271.07154451911174 3070.4167761086887 4594.0502005700691 271.03949614090072 4.5638792899087212e-25 -4.1019184693150335e-25 -8.7227529222654185e-26 3074.0113456144659 4599.1903704174028 5.6640657673036121e-05 -5.4368911128516022e-06 -2.2013620127186547e-05 0.00024796145765199529 -0.00020361450562084681 0.00051504851081439474 -6.6227587249010693e-08 2.7374710707478243e-10 3.0233892528430639e-08 -6.0171846319208701e-07 6.2069172796469546e-07 -1.6118238754114118e-06 -3.9925163375935978e-95 1.286458434298418e-95 5.3031881551516829e-96 1.6219825301403596e-107 -5.0235260065714981e-107 4.2121801096513489e-108 -3.1688122113966387e-101 -1.0892443624781183e-102 9.246137203163113e-102 4.5138752502799106e-102 -5.1066777162417329e-103 4.0156417686249281e-103 -9.9693642029257866e-101 5.7889180663420945e-102 5.6482069173489321e-102 5.4196399498824291e-39 -2.0281044308278388e-39 -3.775769825399948e-39 -1.6641334998515138e-31 -2.5288457361081959e-32 3.3579974799391936e-31 0.00041469904527412536 0.0008398722478026473 -0.00033394267054422827 1.1945953883575422 2.042881162816367 -0.61735959091159232 4599.0509814112766 6678.4632051607077 -3.5277250519097094e-14 4.7715419961754309e-14 -1.226336782276037e-13 -3.8210744557272062e-89 -2.1086109128886339e-91 5.4044665290843882e-90 -1.044915372653326e-47 1.3945791141915477e-47 -7.7640425586913258e-48 270.07132423122556 424.25080708172919 -97.12197520011371 1.4213497322772573e-19 -4.9856937316538293e-19 1.4458700032934166e-18 -4.3613751184317385e-78 -1.9599629072152505e-79 1.8320516782706228e-78 3.2193909483136457e-25 5.3271685666649973e-25 -2.1387529608101107e-24 4593.9836265140739 426.67361430476063 6671.4335779391531 -1.3594364074198133e-57 -4.7466643173742993e-57 7.7526909866287198e-57 -8.3148794264692664e-68 -1.018197704795931e-67 -3.3819518365179492e-68 -0.038736330767896843 -0.070906730296762838 0.023630798587718202 5.572984921318892e-10 1.4332257336922822e-09 -5.8519323090833317e-10 -1.1625285382178127e-06 -2.602624420492312e-06 1.0501300900043408e-06 -29.868398032490084 -47.757463278018058 7.4532134797749094 -2.8885799352965248e-83 8.624540437491905e-84 9.1579184888878693e-85 -1.1667554918183539e-29 -4.9399420348930598e-28 5.6605575496591232e-28 1.8250515922298082e-21 4.6918253506546092e-22 -1.360072713053856e-21 4593.9682771056014 271.11073396288953 426.6923541882316 0.76274472224663004 -0.097924863755864747 -0.21027593492227101 -1.183126724343806e-05 9.3753974221836485e-05 -3.4754810975301791e-05 1.3270482952365397e-08 -1.2283527976356223e-07 4.8056311948654872e-08 1.3375668296702817e-42 -3.8583254336438319e-43 -1.244536205437475e-43 4.3402423665662357e-73 -1.8551902262267645e-72 8.8867365427654691e-74 0.0018723036167636138 -0.016379412023531346 0.0049166759884717364 -1.8181915509583183e-12 2.5290585484808068e-11 -1.0815040464200994e-11 -6.9893291538185124e-16 -1.5378095471420554e-17 3.4226945348757185e-16 1.905173921847829 -24.524901526968538 3.7048612981343236 8.7400197255708227e-53 -1.3363168593674599e-51 3.091463201161684e-52 -8.1423882467363101e-35 4.7098798093392935e-35 -1.5592858866543401e-35 5.9091909772562233e-62 5.3496975688317241e-63 -1.4981762844157106e-62 242.67395416915912 -38.434564724764925 -63.971707971680758 4.9954920652192297e-107 -1.540337411501611e-106 -5.2374128135645942e-108 -1.2241648322458333e-94 3.8689357578418565e-95 -2.173866514688371e-97 -2.998960263453059e-30 6.8000818193430416e-30 2.1171250950135168e-30 -710.83901004599261 89.459063980589548 -240.35805493516293 -3.0999108710720503e-23 1.333301364788764e-23 -1.0630615811991834e-23 1.8569273576212794e-17 -7.8604568324144864e-18 6.8475574352591882e-18 -1.4231093183808213e-55 1.1020374600625505e-55 -4.3037293079338139e-56 -1.5263430518789404e-12 6.2776087386570268e-13 -5.7691545410002827e-13 -1061.0258137296678 3828.2043968075268 2212.3352918154878 -1.8672662593076917e-37 8.6713126593077165e-38 -5.1858804176656837e-38 5.7798445516158658e-46 -3.0194680026719015e-46 1.4277906720522188e-46 1.8297617583778922e-08 -7.0854949472617096e-09 6.4915054138394338e-09 -254.78382881894069 3837.3584873419163 11295.158314264136 35.091084244732791 -7.6133105132350956 9.0194794354457226 -3.5743729426581324e-05 1.2274414269930825e-05 -1.0798531130487363e-05 -2.9562015238791366e-66 -3.5619476626466132e-66 2.9425588930987438e-66 1.8208666192679591e-77 2.9247532524783319e-77 -7.0607753808967297e-78 -275.36662118810801 11287.184582865784 0.012860001690743687 -0.003954695871056917 0.0032432036236699998 -1.0135517220984357e-88 4.45609630206408e-89 2.8593567992378112e-89 -1.2071218575196039 0.28885961023507456 -0.30013119675862249 5.5964228654498484e-101 -2.0078390974314746e-100 7.7014286756206569e-101 -1.354783495671183e-106 1.0226405462904443e-106 -3.0399743868520671e-107 -1.3306036397676857e-94 -1.1878400057081708e-95 9.040836242112619e-95 0.068470911139029575 -0.1444656358646435 0.0091948269896881644 4.1638860993160969e-15 1.224651909349959e-15 -1.0653875592157284e-14 -832.26620204766016 -287.84097367494542 2046.2383147521361 -7.8082944846434767e-34 2.4258058532267239e-33 -2.6247964976981405e-34 -7.2550068616550677e-72 4.5104671424885308e-71 -1.1654094586564364e-71 -1.4804774306848449e-83 -5.4806858291473672e-83 -4.1520440045798108e-83 5.9334771363330299e-07 1.4322850845043924e-07 -1.3485078591535839e-06 -0.00045400914260341531 0.0009030655948646766 -8.5278121656399045e-05 -3.0555596640562022 -0.54500615298310928 6.0960141796260299 6.662877930771792e-42 2.7725397822366739e-42 -2.4920166065771021e-41 3835.9624803980751 2224.9347302210363 11296.569587782507 -1.8415238356810614e-20 -5.4421968478833726e-21 4.8722435974035045e-20 3.4422653749302922e-61 5.6689684107542219e-61 -3.4622644154355224e-60 1.0690157392860571e-26 -2.9931990722289686e-26 3.2533744296169641e-27 -5.6333964743285145e-51 -3.6212749645194391e-51 2.9651230875620283e-50 53.291762686328596 -203.81752155794175 11.873891959958533 -1.2933217741010701e-10 3.1575534305163655e-10 -3.669603957523729e-11 -3.5283320352302041e-51 1.8404157810184989e-50 -2.1082657412516144e-51 3.9366137094981979e-13 -9.5803687522310051e-13 -3.5969324923593913e-13 -1.7878618432511367e-46 3.3668263181620039e-46 8.7229158486826425e-47 -448.22041371585595 2213.8598373814102 1514.9419405171909 2.5830118613945422e-15 6.8694414335300725e-16 -6.3808474405411546e-15 -6.2227468495366701e-67 -1.8204286801712085e-66 2.7344945534541161e-67 -5.944635033783894e-72 1.4079192415622702e-71 1.1158034745625252e-71 -1.1929074247288249 -0.69025817684480284 5.0261119960196741 1.1188776181764729e-08 -4.6330947846922531e-09 4.6225408878548168e-09 -8.207340936924667e-11 2.0140223052835255e-10 -2.2857455876495812e-11 -3.3949767446013674 10.63882496426732 7.6001025449237218 2224.9333053808728 13785.910423136913 1522.1659885848237 3.892681964439864e-42 -1.4797244510205881e-41 1.7287560741497607e-42 5.0524693934022139e-38 -1.0841298299279142e-37 -3.0720376565920081e-38 3.1608710560423473e-61 -2.1692197024980839e-60 6.8937937293860058e-62 2225.6150176138353 11295.871371477495 13785.40744051681 -310.4056168537038 -218.35349528114685 1389.4301292909802 6.7266492593717361e-56 -8.840316191426043e-56 -2.0462987865418316e-56 3.6691201417472426e-07 1.1276537710968915e-07 -9.4940940509743673e-07 18.098629779357019 12.221314549898999 -146.62891338632707 -244.15380750915571 35.548144820368826 -173.57497712853495 -0.4277803641862471 0.1507536367642727 -0.27147470748940677 0.032173778777246073 -0.11744299373868723 0.014418502616804526 6.2795362870506794e-27 1.8434582523286509e-27 -1.731767465867635e-26 -1.8551013254723077e-23 7.8291783340790852e-24 -6.0717149158657576e-24 4.6566858314034113e-89 -2.6529948157878619e-92 -1.3018563599926717e-88 -4.7330508656876432e-18 1.1425062288763608e-17 3.9849188189726997e-18 -1.1068579788760057e-20 -3.0036136803283796e-21 2.8358718809361357e-20 -0.00025319296817735817 0.00071117968196355804 -9.4034379575872267e-05 0.0057718179411062644 -0.002392705429098176 0.0031429239064812149 8.0485699242874051e-06 -1.9572798062022451e-05 -9.1774440349533058e-06 11290.767300148504 13792.097165820982 -1.0093755756327496e-78 -4.5170484899233468e-78 -3.6427347881703386e-78 -5.9530320119293141e-84 -2.2617318504637438e-83 -6.8999466869767471e-83 -4.5355745324415801e-34 1.4122316888885268e-33 -1.556857392585474e-34 3.9880724299489593e-30 -1.743779423812421e-30 1.2207084405789535e-30 -6.3422482130642027e-95 1.0799314321534972e-94 -4.1127954970519142e-94 -9.0727575518305237e-101 5.3896287190894697e-101 -2.979438974175705e-100 -8.6327010835596542e-107 1.4633643864662169e-106 -4.6840627768676149e-106 6.2750187799046969e-102 2.3878664730393419e-102 -9.2440476453652519e-101 27.061318321498891 -175.54903766442851 -114.40234633290827 4.8028742860847824e-06 -1.1902091337067372e-05 -5.3578692844442171e-06 -2.3941655753532567 8.0256325821964687 4.8192923802780889 6.6340633299158574e-09 -2.7350478304934662e-09 2.7155446179981015e-09 -6.6394442075760313e-56 3.3475301578031719e-56 1.0180107413530286e-56 -1.2273435056667447e-77 -1.7837449337399965e-77 9.6596697303250888e-78 -0.29589239874122381 0.098357948817564808 -0.16456679547185812 7.4927998917742074e-67 4.5221637969195062e-67 -7.2520061050552529e-67 9.0320367184696058e-90 1.7585002829058426e-89 -3.1740274003597193e-89 0.003696009499520799 -0.0014716384890133981 0.0018440245591861812 13785.619746162292 1522.4131283978941 12062.114547354058 2.1164290159258735e-46 -1.0689234887545989e-46 3.6630433438524573e-47 -332.96603115469043 1514.4299425584297 1011.925614938344 -6.4576058652998765e-38 3.0272524084363244e-38 -1.8079752089097277e-38 2.3183220136067948e-13 -5.6292130027908695e-13 -2.125824708480069e-13 2.3417705775029871e-30 -1.0307925912882424e-30 7.3319235028106126e-31 -2.7856113353284074e-18 6.6995652643294155e-18 2.3589455733770622e-18 4.6070775188926815e-24 -1.087327777783464e-23 -3.6042647768808836e-24 -0.00015577649122218507 0.00042150743712005391 -5.4074880764072614e-05 0.020996002385703687 0.0082165477013626149 -0.070957532327746431 -6.4950754016540768e-21 1.6734949488983058e-20 -1.8009061334892425e-21 13792.723629651027 12071.870250418495 -2.713960298168467e-34 -9.3108401036514308e-35 8.5523068263932138e-34 -1.5353736065322134e