<?xml version="1.0"?>
<VTKFile type="UnstructuredGrid" version="0.1" byte_order="LittleEndian">
<UnstructuredGrid>
<Piece NumberOfPoints="1160" NumberOfCells="390">
<Points>
<DataArray type="Float64" NumberOfComponents="3" format="ascii">
0 0.037627845084982139 0 0 0.02712913039350634 0 0.10000000000000001 0.037627845084982139 0 0 0.014048877707311129 0 0 0.01007997645382676 0 0.10000000000000001 0.014048877707311129 0 0 0.01007997645382676 0 0 0.0072101992457088487 0 0.10000000000000001 0.01007997645382676 0 0 0.00027714824767246312 0 0 0.0001221058858762623 0 0.10000000000000001 0.00027714824767246312 0 0 0.019537864299142921 0 0 0.014048877707311129 0 0.10000000000000001 0.019537864299142921 0 0 0.0072101992457088487 0 0 0.0051351601405289276 0 0.10000000000000001 0.0072101992457088487 0 0 0.00049157175393484403 0 0 0.00027714824767246312 0 0.10000000000000001 0.00049157175393484403 0 0 0.02712913039350634 0 0 0.019537864299142921 0 0.10000000000000001 0.02712913039350634 0 0 0 0 0.10000000000000001 0 0 0 0.0051351601405289276 0 0 0.0036347696815094469 0 0.10000000000000001 0.0051351601405289276 0 0 1.0000000000000001e-05 0 0 0.0001221058858762623 0 0.10000000000000001 0.0001221058858762623 0 0 0.0036347696815094469 0 0 0.0025498882091243972 0 0.10000000000000001 0.0036347696815094469 0 0 0.052147564491031792 0 0 0.037627845084982139 0 0.10000000000000001 0.052147564491031792 0 0 0.00078811928474293897 0 0 0.00049157175393484403 0 0.10000000000000001 0.00078811928474293897 0 0 0.001198244413521618 0 0 0.00078811928474293897 0 0.10000000000000001 0.001198244413521618 0 0 0.001198244413521618 0 0 0.001765447234118425 0 0.10000000000000001 0.001765447234118425 0 0 1.0000000000000001e-05 0 0 0 0 0.10000000000000001 1.0000000000000001e-05 0 0 0.0025498882091243972 0 0 0.001765447234118425 0 0.10000000000000001 0.0025498882091243972 0 0 0.052147564491031792 0 0 0.072228323778986164 0 0.10000000000000001 0.072228323778986164 0 0 0.10000000000000001 0 0 0.072228323778986164 0 0.10000000000000001 0.10000000000000001 0 0 0.072228323778986164 0 0.10000000000000001 0.10000000000000001 0 0.10000000000000001 0.072228323778986164 0 0 0.014048877707311129 0 0.10000000000000001 0.014048877707311129 0 0.10000000000000001 0.019537864299142921 0 0 0.019537864299142921 0 0.10000000000000001 0.019537864299142921 0 0.10000000000000001 0.02712913039350634 0 0 0.0051351601405289276 0 0.10000000000000001 0.0072101992457088487 0 0.10000000000000001 0.0051351601405289276 0 0 0.001198244413521618 0 0.10000000000000001 0.001198244413521618 0 0.10000000000000001 0.001765447234118425 0 0 0.001765447234118425 0 0.10000000000000001 0.0025498882091243972 0 0.10000000000000001 0.001765447234118425 0 0 0.00027714824767246312 0 0.10000000000000001 0.00027714824767246312 0 0.10000000000000001 0.00049157175393484403 0 0 0.0036347696815094469 0 0.10000000000000001 0.0036347696815094469 0 0.10000000000000001 0.0051351601405289276 0 0 0.01007997645382676 0 0.10000000000000001 0.014048877707311129 0 0.10000000000000001 0.01007997645382676 0 0 1.0000000000000001e-05 0 0.10000000000000001 0.0001221058858762623 0 0.10000000000000001 1.0000000000000001e-05 0 0 0.052147564491031792 0 0.10000000000000001 0.072228323778986164 0 0.10000000000000001 0.052147564491031792 0 0 0.0001221058858762623 0 0.10000000000000001 0.00027714824767246312 0 0.10000000000000001 0.0001221058858762623 0 0 0.02712913039350634 0 0.10000000000000001 0.02712913039350634 0 0.10000000000000001 0.037627845084982139 0 0 0.00078811928474293897 0 0.10000000000000001 0.00078811928474293897 0 0.10000000000000001 0.001198244413521618 0 0 0.0025498882091243972 0 0.10000000000000001 0.0025498882091243972 0 0.10000000000000001 0.0036347696815094469 0 0 0 0 0.10000000000000001 1.0000000000000001e-05 0 0.10000000000000001 0 0 0 0.0072101992457088487 0 0.10000000000000001 0.01007997645382676 0 0.10000000000000001 0.0072101992457088487 0 0 0.037627845084982139 0 0.10000000000000001 0.052147564491031792 0 0.10000000000000001 0.037627845084982139 0 0 0.00049157175393484403 0 0.10000000000000001 0.00049157175393484403 0 0.10000000000000001 0.00078811928474293897 0 0.10000000000000001 0.00078811928474293897 0 0.10000000000000001 0.001198244413521618 0 0.20000000000000001 0.001198244413521618 0 0.10000000000000001 0.00078811928474293897 0 0.20000000000000001 0.001198244413521618 0 0.20000000000000001 0.00078811928474293897 0 0.10000000000000001 0.0036347696815094469 0 0.20000000000000001 0.0051351601405289276 0 0.20000000000000001 0.0036347696815094469 0 0.10000000000000001 0.0072101992457088487 0 0.10000000000000001 0.0051351601405289276 0 0.20000000000000001 0.0072101992457088487 0 0.10000000000000001 0.0051351601405289276 0 0.20000000000000001 0.0072101992457088487 0 0.20000000000000001 0.0051351601405289276 0 0.10000000000000001 0.01007997645382676 0 0.10000000000000001 0.0072101992457088487 0 0.20000000000000001 0.01007997645382676 0 0.10000000000000001 0.0072101992457088487 0 0.20000000000000001 0.0072101992457088487 0 0.20000000000000001 0.01007997645382676 0 0.10000000000000001 0.00027714824767246312 0 0.10000000000000001 0.00049157175393484403 0 0.20000000000000001 0.00049157175393484403 0 0.10000000000000001 0.00027714824767246312 0 0.20000000000000001 0.00027714824767246312 0 0.20000000000000001 0.00049157175393484403 0 0.10000000000000001 0.0036347696815094469 0 0.10000000000000001 0.0051351601405289276 0 0.20000000000000001 0.0051351601405289276 0 0.10000000000000001 0.001198244413521618 0 0.10000000000000001 0.001765447234118425 0 0.20000000000000001 0.001765447234118425 0 0.10000000000000001 0.0025498882091243972 0 0.20000000000000001 0.0036347696815094469 0 0.20000000000000001 0.0025498882091243972 0 0.10000000000000001 0.014048877707311129 0 0.10000000000000001 0.01007997645382676 0 0.20000000000000001 0.014048877707311129 0 0.10000000000000001 0.0025498882091243972 0 0.10000000000000001 0.0036347696815094469 0 0.20000000000000001 0.0036347696815094469 0 0.10000000000000001 0.001765447234118425 0 0.20000000000000001 0.001765447234118425 0 0.20000000000000001 0.0025498882091243972 0 0.10000000000000001 0.001198244413521618 0 0.20000000000000001 0.001198244413521618 0 0.20000000000000001 0.001765447234118425 0 0.10000000000000001 0.00049157175393484403 0 0.10000000000000001 0.00078811928474293897 0 0.20000000000000001 0.00078811928474293897 0 0.10000000000000001 0.00049157175393484403 0 0.20000000000000001 0.00078811928474293897 0 0.20000000000000001 0.00049157175393484403 0 0.10000000000000001 0.0025498882091243972 0 0.10000000000000001 0.001765447234118425 0 0.20000000000000001 0.0025498882091243972 0 0.10000000000000001 0.02712913039350634 0 0.10000000000000001 0.037627845084982139 0 0.20000000000000001 0.037627845084982139 0 0.10000000000000001 0 0 0.20000000000000001 0 0 0.10000000000000001 0.052147564491031792 0 0.20000000000000001 0.072228323778986164 0 0.20000000000000001 0.052147564491031792 0 0.10000000000000001 1.0000000000000001e-05 0 0.10000000000000001 0 0 0.20000000000000001 1.0000000000000001e-05 0 0.10000000000000001 0 0 0.20000000000000001 1.0000000000000001e-05 0 0.20000000000000001 0 0 0.10000000000000001 0.037627845084982139 0 0.20000000000000001 0.037627845084982139 0 0.20000000000000001 0.052147564491031792 0 0.10000000000000001 0.052147564491031792 0 0.10000000000000001 0.037627845084982139 0 0.20000000000000001 0.052147564491031792 0 0.10000000000000001 0.02712913039350634 0 0.20000000000000001 0.037627845084982139 0 0.20000000000000001 0.02712913039350634 0 0.10000000000000001 0.0001221058858762623 0 0.10000000000000001 1.0000000000000001e-05 0 0.20000000000000001 0.0001221058858762623 0 0.10000000000000001 1.0000000000000001e-05 0 0.20000000000000001 0.0001221058858762623 0 0.20000000000000001 1.0000000000000001e-05 0 0.10000000000000001 0.019537864299142921 0 0.20000000000000001 0.02712913039350634 0 0.20000000000000001 0.019537864299142921 0 0.10000000000000001 0.019537864299142921 0 0.10000000000000001 0.02712913039350634 0 0.20000000000000001 0.02712913039350634 0 0.10000000000000001 0.014048877707311129 0 0.20000000000000001 0.019537864299142921 0 0.20000000000000001 0.014048877707311129 0 0.10000000000000001 0.00027714824767246312 0 0.10000000000000001 0.0001221058858762623 0 0.20000000000000001 0.00027714824767246312 0 0.10000000000000001 0.01007997645382676 0 0.20000000000000001 0.014048877707311129 0 0.20000000000000001 0.01007997645382676 0 0.10000000000000001 0.0001221058858762623 0 0.20000000000000001 0.0001221058858762623 0 0.20000000000000001 0.00027714824767246312 0 0.10000000000000001 0.014048877707311129 0 0.10000000000000001 0.019537864299142921 0 0.20000000000000001 0.019537864299142921 0 0.10000000000000001 0.072228323778986164 0 0.20000000000000001 0.10000000000000001 0 0.20000000000000001 0.072228323778986164 0 0.10000000000000001 0.10000000000000001 0 0.10000000000000001 0.072228323778986164 0 0.20000000000000001 0.10000000000000001 0 0.10000000000000001 0.072228323778986164 0 0.10000000000000001 0.052147564491031792 0 0.20000000000000001 0.072228323778986164 0 0.20000000000000001 0.10000000000000001 0 0.20000000000000001 0.072228323778986164 0 0.29999999999999999 0.10000000000000001 0 0.20000000000000001 0.072228323778986164 0 0.20000000000000001 0.052147564491031792 0 0.29999999999999999 0.072228323778986164 0 0.20000000000000001 0.001198244413521618 0 0.20000000000000001 0.00078811928474293897 0 0.29999999999999999 0.001198244413521618 0 0.20000000000000001 0.0001221058858762623 0 0.20000000000000001 0.00027714824767246312 0 0.29999999999999999 0.00027714824767246312 0 0.20000000000000001 0.001198244413521618 0 0.20000000000000001 0.001765447234118425 0 0.29999999999999999 0.001765447234118425 0 0.20000000000000001 1.0000000000000001e-05 0 0.20000000000000001 0 0 0.29999999999999999 1.0000000000000001e-05 0 0.20000000000000001 0.0072101992457088487 0 0.20000000000000001 0.01007997645382676 0 0.29999999999999999 0.01007997645382676 0 0
[...]
<PointData Scalars="Ba-133_conc,region_id," Vectors="" Tensors="">
<DataArray type="Float64" Name="Ba-133_conc" format="ascii">
2.9953563284091595e-66 -1.5036668126008021e-65 -1.1070680134433698e-66 -1.7334812067018595e-37 6.3326370629343572e-38 1.5228356674592696e-37 1.5573507023881184e-30 1.4232841283028808e-29 -8.4694220563476895e-30 0.47071434161053977 5.0156522399973378 -3.9903147329041486 5.2744057955807623e-46 -8.6831997873713516e-46 1.563495541445939e-47 1.8083025375894205e-23 -1.1099011381768011e-22 2.4845432335155803e-23 -0.087516933272207234 0.13125152050887601 0.18787915284557458 5.0015388035742633e-56 -9.368748665626927e-56 -3.2305380946900974e-56 738.72845667003799 671.61637154300547 -1.7245431926132863e-17 5.6501499352052697e-17 2.3912326072477139e-18 982.84314670937249 6.3262918573483731 3.4431681836752563 1.0118539286663767e-12 -2.0094568609852457e-12 -1.0084824815884962e-12 1.5569842235600819e-76 -5.3260338176603082e-76 -4.9673355512217077e-77 0.0057854176180803605 -0.025138735326780383 -0.0042104446709276249 -8.0347405497113448e-05 -6.3063709478380277e-05 8.7020567619995145e-05 4.4326248271935768e-06 9.5900052577952288e-07 -3.753164114679522e-06 971.73750818600149 738.96727292880712 958.54947909686689 -4.1023539877297604e-09 1.214002218650281e-09 8.2734697045180538e-09 -6.0199964542648947e-87 1.8160775007358355e-87 -6.1246813275696121e-88 5.694697696905209e-99 -1.8235072255620036e-98 -2.1093748157028021e-99 -7.6246557886667528e-93 1.0185215686427184e-93 -1.1111452652862382e-93 -7.4320442571541867e-42 2.8415156322190652e-41 -1.9829336881151208e-42 5.4421787225226728e-52 -3.0213471828604294e-51 -6.1755087302870422e-51 -4.28354295188334e-20 2.1128405738714414e-20 6.0388647297699656e-21 5.9468442161036106e-06 6.2219239874209317e-05 -1.1562777982280234e-05 9.9010194086580102e-09 1.1629085766499378e-07 -4.9297970758076704e-07 0.20524278054250786 -3.2410045155988509 0.26354896490896279 7.3274395403508576e-15 -1.0490949308037219e-14 -8.6035148372870627e-16 1.8210619588691187e-34 1.1792623584366048e-33 -3.9925782468641725e-33 972.22558213175785 12.612925998341348 959.04043196848522 -1.1705928549176661e-81 1.2421025313449128e-82 -1.7653670766638107e-82 6.254866334508228 -5.057491936423455 -1.1186236607088413 -4.8316926520901154e-61 -5.2083455527253656e-61 -1.3136672868735645e-61 0.0013883161518620723 -0.0018318637218486047 -0.00044809159159787975 -8.0432572709684452e-11 2.8456701293801153e-10 -3.6734934548310974e-11 738.97168033788046 958.54741976543175 671.84327953262414 1.5612107342844434e-26 -1.9178393094639358e-26 3.2676741303056118e-26 -4.684766282425177e-71 1.9018549014055398e-72 -9.2382220023347472e-72 -0.046093624467779176 0.10383635835351974 -3.5764242087433147e-05 -0.0010716892186931925 -0.00028703202109907382 0.00020919395503201684 -0.00057651329156841065 0.0031156883724130532 -0.010850684517413575 -2.1340717875660997e-14 4.7288913340742782e-14 -1.327873328762902e-13 4.2747808492847067e-22 -5.0746285121913405e-22 -4.1938215382022995e-22 -1.8074287622196345e-19 -2.0350682976752006e-19 1.0106310021619944e-18 -1.0873319602539704e-28 2.9436269467114882e-28 1.6678809603369769e-29 2.8149597539815764e-25 -5.4565454946186612e-25 -3.3288932551631442e-27 -2.6904768059306425 0.076850241117138562 0.88278122163314054 -2.9873250248604513 -3.6120537581960228 1.4334967049947644 -2.0296415873035817e-16 -1.0921668785241549e-16 2.7225459841348111e-16 5.0168216216199057e-05 -1.2744178283323555e-05 6.3540737465058651e-06 9.2478915436532813e-10 -6.8379130659196761e-10 9.418436639296068e-10 1.5096590732878254e-36 -8.2943106413735816e-36 1.6254795412916833e-36 2.6094563178469049e-11 -5.9783277522162753e-13 -1.1484954987534132e-11 -1.5484011660231118e-06 6.8383470164303968e-07 5.1059939039113127e-07 9.3077812826778138e-05 -0.00026106524440169045 -3.3775426513572566e-06 0.054657099180714951 0.011469964434675354 -0.059819037395294747 0.08376010380190968 -0.13042265158871344 0.4906037935350393 2.6100765648695502e-08 -1.5212702516185244e-07 2.1682380754602549e-08 3.4358765642110907e-64 -1.3477694727124355e-64 -6.3056462647466003e-65 671.51255435566725 597.71852559920296 2.8332602525093085e-80 4.2202701402915813e-81 -1.2947372817400861e-80 958.5542345764045 671.82351763989175 959.87787454907584 671.81646237606981 959.87215249743826 598.02201179297174 1.1218028782881382e-69 -8.0021134169946691e-70 4.2504224319778743e-70 -4.5456828664577234e-75 1.3816183891273841e-74 -2.3886597611577001e-75 9.6499135855771872e-60 1.2772713353448814e-59 -9.4471882413392536e-60 3.6219146095328005 968.21218930885993 16.182585774913118 959.01692627618593 26.068358705821577 960.51554085553892 5.8504620536760372e-50 5.2047867820551885e-50 -2.9331462992309432e-49 2.1621980458269761e-54 -2.2718382459905916e-54 -4.2061246514146907e-55 4.1513811778779526e-41 -1.6153362542723095e-40 2.3625182202710003e-40 -3.3392433083426192 -4.5734283650122487 -4.6218680126384664 -2.0845051133360434e-32 1.2830246528085665e-32 1.030726833650656e-32 -0.45034338390565376 11.346660836621469 -6.9377624316576618 7.7955073124577175e-45 4.1466879988503229e-45 -5.0766385912395842e-45 1.8563258044495191e-91 6.2848131464730831e-93 -5.3406496836997422e-92 -1.4653049067086867e-97 4.5184754574167744e-97 -3.6360622308802751e-98 -4.8588353148075872e-86 1.5120621035113659e-85 -1.9655757994440016e-86 -7.2511362177208423e-97 2.2893658318345574e-96 2.4877437720874152e-97 -2.3134832911801287e-85 7.5689045483441237e-85 6.96546250157826e-86 3.2360472420031231e-05 0.0035408866424659889 -0.00066482655091903845 7.6704607909393632 -4.5357363205362731 -5.5581934181099655 -9.3272800961002747e-05 -3.6129739408933874e-05 0.00011180938033963542 959.87377606116684 598.02069024996592 948.52782743418743 -7.9332289423949691e-28 -4.3196854996971862e-28 8.0380730026427932e-28 -0.027255367451463813 0.24798445087358481 -0.078928672229697336 6.8445784672683462e-74 -2.0005491724459858e-74 5.2533141650801122e-75 -5.9308418183617638e-44 1.5918457263723202e-43 -1.6575801659320855e-44 -1.5781964566842171e-07 1.8073039154771895e-07 -2.1976053898515323e-07 -2.6956821882773134 0.77382002214689094 0.96317460046513226 -3.5487728289551929e-64 2.0234709690553078e-63 8.1372372657564048e-65 7.1281379546917517e-16 -3.7705671561290822e-15 5.8831525879692286e-16 -2.1023012594528681e-22 7.6247340483014889e-21 -2.9875597428619237e-21 -1.1686376850263492e-53 -1.7348940931826572e-54 6.5918558395335112e-54 -4.4812172910380272e-11 1.2746824921367434e-10 1.5638554107504928e-11 2.2992432049451738e-35 -2.5273981669615484e-35 -1.1814509108180428e-35 16.089662561844314 970.55567860076428 28.399693433382222 1.1038501091363435e-39 -2.8882096289109601e-40 -2.2770735553496005e-39 -8.1591562788579884e-32 3.7777322711629476e-31 -7.5135872552525663e-32 -0.0088700310273063243 -0.0076077813068678828 0.0123590901489467 1.4993012660522787e-79 1.5329979973819266e-80 -1.3819358800066225e-80 -4.8692243381190413e-50 -3.6266534377245017e-49 1.1240167701101891e-48 -3.8807389923974929e-13 1.494305663876015e-13 1.224094684347963e-13 -9.0874115654400442e-05 -0.0016032999699356794 0.00029365889656621659 4.5970995184444584e-09 -7.1294633918915796e-09 8.2390033061749187e-11 -4.2860154616720117e-25 1.4974412891132475e-24 -3.9254201308962646e-24 6.3042029426990743e-69 1.9006356052261527e-70 -3.0702965003814922e-70 -2.3971395057677527e-06 -2.4600600353742462e-06 1.4501129530823376e-05 2.1222837478273373e-18 -1.8547975648692752e-18 2.4392612349350619e-18 6.3191484157764078e-59 5.3158378292456226e-59 1.584642317964505e-59 960.38428219547825 39.050845365314046 949.17238424089419 -3.3915690918762995 -4.7731056943609342 1.5868200251052977 598.03036743590337 521.71180938582916 948.5202770460204 0.48029733451559392 0.58063394649085587 -0.23864835653529351 11.721344640453331 -7.864797425318149 23.255677773602393 597.729103415851 521.39686916168284 1.1083113078375408e-07 1.5343724137837791e-06 -8.7615301947391749e-07 -1.4594491832012771e-52 9.9464166630500933e-53 2.7020389301151206e-53 -3.5173881949931128e-48 3.4323146608274752e-49 1.1051651034627572e-47 1.8831542560032639e-27 -1.0534653174799307e-26 1.8799789629747611e-27 -1.0838186575127868e-62 6.0876387734645184e-63 1.9707837473319826e-63 8.8365567800737145e-06 -1.2334939108517747e-05 3.1084706710556831e-05 949.08465000644969 928.7435670029322 52.98379959542136 -3.1028436175650151e-58 -6.6016135390465507e-58 3.1531307032057038e-58 0.30401687060734534 -0.06804994802945992 -0.088284658792330342 0.55946515419445042 -0.26291842913843622 0.72429187531188355 -5.5410205688941295e-73 1.862248174148751e-73 9.3302560335012848e-74 -4.5594273954564572e-68 3.4392863482595346e-68 -1.6145841518668478e-68 28.206022276253044 960.02580065481231 41.763216323675167 -8.0222222079379762e-24 8.0535155714804885e-25 4.2561169502105127e-24 -1.0093807567170534e-20 2.8992631843713715e-20 9.1493793989260055e-22 -1.3648511811461373e-10 -9.7237161222023226e-11 2.0836280354653311e-10 -4.8528081759010827e-10 -3.1603309561528513e-08 9.193226209948929e-09 1.3594240302979134e-39 5.2773498901393576e-39 -1.4412598479639548e-38 -3.234065218738225e-43 -6.3811271282330144e-44 1.8209642800863766e-43 4.2272405930863078e-31 8.3100436222097741e-31 -6.0836778143523695e-31 2.5103988827858963e-34 9.3302760447498022e-36 -9.0490245217479986e-35 23.608725480331639 -8.6393203721798209 36.37146118477358 -5.5972960793707198 19.667652208487215 -6.4505201437241029 -4.4921713524579898 -5.7464002006595223 1.6646727411366651 -3.8683193808194822 0.89987120845118351 1.069051168488748 3.7294941870576757e-15 -4.0150257555528638e-15 -3.1940719173221268e-15 -6.02504340800002e-13 2.2440000718614867e-12 -3.8171424843133025e-13 -1.157880966005683e-78 5.1941225211486185e-79 -1.5903596691958797e-79 521.69909556744494 948.52579951527139 928.09772144782323 521.69665721844217 442.5471131579493 928.09501507685559 8.971811765223492e-18 -1.0995209985849078e-17 -8.1896809447886565e-19 521.3434876675376 442.19547919875509 0.016455771061319496 -0.00040021919290499043 -0.00051783368844479443 -0.006476826044912687 0.015810835990282698 -0.015685311410885718 -0.00074400816054151899 3.533495334209425e-05 0.00022192013052262921 -0.0013294780875067172 0.00076537112258441673 -0.0020166195728176101 -6.1341918008218031e-84 1.9729117313531277e-84 7.648236198500025e-85 5.9080063677164177e-96 -1.8307983816629044e-95 1.4102085785251203e-96 -7.5515562637020652e-90 -2.1585247244685912e-91 2.0907622255738676e-90 9.6472695567110843e-91 -1.1928013373190024e-91 1.1176791681219969e-91 -2.1201706906140503e-89 1.4215270109674416e-90 7.1341892300254289e-91 2.1171546988002176e-30 -5.598063304141772e-31 -2.1199829762797911e-30 -1.4004291441988914e-23 -5.2931414177972294e-24 3.7909374327773526e-23 -0.013642119338211574 -0.027436548301606471 0.021044749905791516 -5.4499057529729784 -6.7368933906223667 1.7071522970330641 442.1865991397583 362.60670464911323 -2.2939246751345779e-08 2.1242110113188451e-08 -4.5710632799659334e-08 -3.3352591151254544e-78 2.7553991759159442e-80 3.6197973810773722e-79 -1.6102689085121796e-38 1.8343136811975551e-38 -4.8153261437081447e-39 928.70020688089869 899.59302472048762 67.149127635701547 1.0948015016368244e-12 -1.9570663503900671e-12 4.866606160131644e-12 -1.4906737927857878e-67 -2.6864665687330852e-69 5.6845859604069092e-68 2.3682197201607148e-18 1.3726011073856665e-17 -4.6729682756448165e-17 442.54657878689591 898.96003654946264 362.96938801111668 -4.9416873456059606e-48 -2.2368696509421179e-47 3.1991265299747608e-47 -1.0583673039511162e-57 -1.1543844951345392e-57 -5.5519652914265616e-58 0.71131767634627763 0.85781882601258563 -0.28838609094873341 2.6436961586377912e-05 3.639939682803113e-05 -1.8023014724710546e-05 -0.0019363739651592268 -0.0018915699656551763 0.00080588137610499105 36.676581827689354 50.011948550123776 -9.3253575043025663 -1.5796874249852634e-72 4.6588065180836877e-73 2.6478131502730173e-74 -1.6485058974879541e-20 -2.0399636975943379e-20 2.9991904889254673e-20 2.1849649149597117e-14 2.6037470228150011e-15 -1.2572772011066892e-14 442.54231804849167 928.09957498188055 898.96216353999603 -4.9078244470691565 1.0331685283383067 1.1829298792149254 -0.0010808005456055272 0.014463938819482925 0.00086797449338922486 0.00018057053612809194 -0.001026503095292842 0.00023119893637048967 9.5943943256903324e-34 -3.1658202005314168e-34 -5.6748995196553638e-35 8.0571225064754701e-63 -3.9368676173515892e-62 1.4313430212684289e-63 -0.08343930579449442 0.44827815150796768 -0.10590587013326833 -5.286646487246965e-07 3.8133444423636194e-06 -1.1721867817035583e-06 -1.1047952125616013e-09 5.1312786363786338e-11 4.2057825245982899e-10 -6.5291765977703937 32.951876465822195 -7.3244664991946946 3.6842836397440161e-43 -3.5039781226652601e-42 7.4503864703535283e-43 -1.2612610997872973e-26 9.4413498151038162e-27 -4.5386849505061805e-27 4.376447885809024e-52 9.2107834928687876e-53 -1.2935674669407573e-52 940.24864742681257 41.42764407660146 55.548232093270073 1.6265979975390625e-95 -5.0153166460964137e-95 -2.2762169227100397e-96 -1.6726985821114812e-83 5.2741061756051475e-84 -2.5753830979591028e-85 -1.3997637083757717e-22 2.5169552828711197e-22 1.4725230046816201e-22 219.87570511480533 -22.943367394734768 100.36057265146154 -1.9692276198397322e-16 1.0551087883813912e-16 -1.2295653970899768e-16 1.5863433019215824e-11 -8.2508911171755197e-12 1.0337894894671525e-11 -3.6750191611447681e-46 4.4183646845424351e-46 -2.7121600466926084e-46 -1.2632464458589628e-07 6.1507174314035472e-08 -8.093280086017607e-08 237.28395822176304 475.90337829423794 701.80668931333219 -3.3399401240522937e-29 1.9909268344853509e-29 -1.8269450298591898e-29 4.2784517998254284e-37 -2.9965743574893447e-37 2.2716742899182803e-37 8.8169831320286646e-05 -3.6992642471006776e-05 4.9508632409723419e-05 0.27459849026838989 475.88443044231121 62.067505012268725 -23.86307728523202 2.7717957981515013 -8.4443635570574376 -0.0027382628086322141 0.00045934007882020419 -0.0011473232319293451 -4.4079857393354997e-56 -5.8264699377194317e-56 4.453534718896553e-56 1.393985919867884e-66 1.2260397123861034e-66 -8.5019184243761989e-67 0.0084642656203586415 61.673583204594195 -0.1564875527788625 0.062370770358777396 -0.061107137711274073 -6.4983079754376086e-78 2.0669361152644015e-78 -4.1372738472238537e-78 3.150062449946045 -0.51586012432776784 1.1778294629863153 1.0007150157177253e-89 -2.8938259896047592e-89 -2.6628575011414288e-89 -3.7639445066592668e-95 -6.5918584640287556e-95 2.4711647234177643e-95 -1.4371374829611606e-83 1.0635230226708586e-83 -2.0029114901895724e-83 -0.30843626113847106 0.99691306318085748 -0.12171895595016335 1.1582408451083868e-09 8.2203810775753894e-10 -4.0010190488398014e-09 224.36381652764302 104.45140503376858 713.42254429173101 -6.7805693034926793e-26 2.8192646758756826e-25 -5.7407703111930612e-26 -1.2437914295441452e-61 9.8763434889028267e-61 -3.6714690670361217e-61 -1.3036270856696701e-73 -1.4364732423433184e-72 -7.2444353036429816e-72 0.00039671793629118563 0.00022174055766579858 -0.0012889747032356793 0.010900707330881176 -0.015064207276210212 0.0045138726242375414 3.0872065972669707 1.2792645615897764 -8.6461934481952589 2.6232649620450107e-33 2.7795843041879648e-33 -1.3053084493991006e-32 475.87107338998788 701.14563199080476 62.079589692852409 -4.5279749607090072e-14 -3.2950855522956984e-14 1.6172023426085582e-13 1.9936040016098649e-51 7.8950760244091279e-51 -2.6171797417319487e-50 1.7373499312605339e-19 -6.556551018192432e-19 1.3202369438292237e-19 -8.8833063251221096e-42 -1.4732113533802403e-41 6.1878950486697901e-41 -22.864906941506305 99.51936173365911 -9.3185218920467356 -2.6688659462405814e-06 8.7003283191511914e-06 -1.7694379579447387e-06 -7.0727032461635235e-42 4.7022058673581716e-41 -1.0192748494307936e-41 5.1460056316664416e-08 -9.8289338300534102e-08 -7.1692591457488534e-08 -2.1770886791214082e-37 3.0666835006316679e-37 1.6665530672022089e-37 116.47549462366277 701.57732113200314 762.57340242345163 9.3316903175786201e-10 6.76933815753025e-10 -3.3070774427600141e-09 -1.2441997666923201e-56 -3.5743126357734658e-56 7.2226687908800927e-57 -1.3062783630511291e-61 3.4617339194368216e-61 2.3010077206352635e-61 1.2612257116472998 1.3860605683345151 -9.1296204799419041 6.0245051637759894e-05 -3.1413268943041217e-05 5.1322613157210444e-05 -2.1186410093535985e-06 8.01941325744589e-06 -1.6937202909369621e-06 1.2523195707244903 -8.6392813641380926 -9.0522013635450094 701.12904081528995 131.9624178885617 761.90575728919544 1.9011392324412494e-33 -9.580686179240205e-33 2.0694847401657388e-33 1.4426865938191544e-29 -2.4111904408214175e-29 -1.3393589899913792e-29 2.4986568494816055e-51 -1.954889478633115e-50 2.8785970019362137e-51 701.13808993314956 62.082471001614067 131.95971566680785 105.5282093057177 96.367460451604515 774.50291718453764 3.2500367943550436e-46 -2.9032284922348215e-46 -1.6124506617793964e-46 0.00026573614967132382 0.00028567645357608062 -0.0014144502860632009 -8.6508420535736814 -9.6550771070267238 90.171061091951529 100.51391842791216 -9.3711661414270679 91.975118396422999 1.1702638466208897 -0.28573129572745326 1.2360802345738635 -0.15044707891873924 1.0440531096039192 -0.16497043740585701 1.3033357098559165e-19 9.7746066897376118e-20 -4.8737464146670311e-19 -1.5089292374097505e-16 8.0278258618023103e-17 -9.2824893280861515e-17 3.6726568438403763e-78 2.1587026761291284e-78 -1.9208818632726323e-77 -6.5673893108177848e-12 1.2498164047754349e-11 8.2685697069281441e-12 -3.531039209721272e-14 -2.5171772435330481e-14 1.2502398583222593e-13 0.0081999496581104461 -0.01140269022947691 0.0048769293606624664 -0.078030187713457669 0.044895245512235005 -0.065891281702112128 0.00025551795994394375 -0.00087469092702581474 -0.0015299362651628216 61.699339364099004 131.56747722722781 4.2901159111044853e-68 2.8187299718788552e-67 -5.5848973814635137e-67 1.0078093134847948e-73 -2.8365465501698204e-73 -8.098846120800697e-72 -4.9345690622426098e-26 2.0568660952523218e-25 -4.2416415454646193e-26 1.8657755351678803e-22 -1.0315579770561005e-22 1.0819375276967661e-22 -7.1906632865480889e-84 2.7367038424448746e-83 -9.4724554767836282e-83 -1.2386786246890302e-89 1.2465564722935718e-89 -1.106027934980074e-88 -2.8120909038675457e-95 8.4195600007004987e-95 -2.6223600908291896e-94 1.5334554166018951e-90 6.0180733816948065e-90 -4.9241835706435597e-89 -10.456823711916389 91.938697407125261 78.152894133506706 0.00049141102393439773 -0.0014253216018051699 -0.0017322751830317459 1.5873800789618553 -9.3863633259785466 -8.2037269952516141 5.3417536532724086e-05 -2.7440707110566184e-05 4.3988031366800338e-05 -2.8621713480480866e-46 1.9312761796117609e-46 1.2233682276069386e-47 -4.7340211005916926e-67 -4.8046982410631803e-67 1.5598485848092484e-67 1.2626521975219238 -0.32701072853506774 1.1069948050805736 9.2588170875466819e-57 5.6871967751546117e-59 -9.0587815174362779e-57 5.1549894453102247e-79 3.289715632366325e-78 -7.5574758983531577e-78 -0.067628003566894829 0.038987378100222757 -0.049849876661970313 131.96669369669306 761.89725369023165 206.26548355926789 2.4495972605421481e-37 -1.5822752749225867e-37 9.1136666388188311e-38 108.73931688656762 762.39630251936808 815.70697141117023 -1.8021792852623325e-29 1.0756740045241463e-29 -9.6306740157197063e-30 4.1539610073367699e-08 -7.9647209810408727e-08 -5.7617896437854928e-08 1.3798588318163787e-22 -7.6884093782628609e-23 8.1423969420474814e-23 -5.0844590937920812e-12 9.6754000761713514e-12 6.4010857212727307e-12 6.0528159158523976e-17 -1.1339471064959352e-16 -7.0417621334745308e-17 0.0058118574052632146 -0.0026090256029607352 0.0028591493748126983 -0.15631298405543076 -0.14090742509892654 0.87530995024218217 -2.688112635223115e-14 9.5530075947993351e-14 -1.9400803396416027e-14 131.57836400533543 205.86704859690082 -3.7546335615393157e-26 -3.1052167469706595e-26 1.5698331799440996e-25 2.8469154757378909e-73 -1.3425435515016417e-72 7.8218593142230243e-73 0.00026312943515830058 -0.001302082794893217 0.00026043913669064758 9.7447400110258464e-20 -3.6806256761129262e-19 7.4682837796511909e-20 7.3