<?xml version="1.0"?>
<VTKFile type="UnstructuredGrid" version="0.1" byte_order="LittleEndian">
<UnstructuredGrid>
<Piece NumberOfPoints="8" NumberOfCells="6">
<Points>
<DataArray type="Float64" NumberOfComponents="3" format="ascii">
0 0 0 1 0 0 1 1 0 0 1 0 3 1 0 3 0 0 2 0 0 2 1 0 
</DataArray>
</Points>
<Cells>
<DataArray type="UInt32" Name="connectivity" format="ascii">
0 1 3 1 2 3 1 2 7 5 6 7 4 5 7 1 6 7 
</DataArray>
<DataArray type="UInt32" Name="offsets" format="ascii">
3 6 9 12 15 18 
</DataArray>
<DataArray type="UInt32" Name="types" format="ascii">
5 5 5 5 5 5 
</DataArray>
</Cells>
<CellData Scalars="pressure_p0,sigma," Vectors="velocity_p0," Tensors="anisotropy,">
<DataArray type="Float64" Name="pressure_p0" format="ascii">
0.03333333333333334 0.066666666666666707 0.13333333333333341 0.23333333333333334 0.26666666666666672 0.16666666666666669 
</DataArray>
<DataArray type="Float64" Name="velocity_p0" NumberOfComponents="3" format="ascii">
-0.10000000000000009 -2.6020852139652106e-17 0 -0.10000000000000017 -3.7585675312830816e-17 0 -0.10000000000000003 4.394632805807911e-16 0 -0.099999999999999811 -1.3877787807814457e-16 0 -0.099999999999998979 5.5511151231257827e-16 0 -0.099999999999999992 -1.0625181290357943e-15 0 
</DataArray>
<DataArray type="Float64" Name="anisotropy" NumberOfComponents="9" format="ascii">
1 0 0 0 2 0 0 0 3 1 0 0 0 4 0 0 0 9 1 0 0 0 8 0 0 0 27 1 0 0 0 32 0 0 0 243 1 0 0 0 64 0 0 0 729 1 0 0 0 16 0 0 0 81 
</DataArray>
<DataArray type="Float64" Name="sigma" format="ascii">
0.10000000000000001 0.20000000000000001 0.29999999999999999 0.5 0.59999999999999998 0.40000000000000002 
</DataArray>
</CellData>
</Piece>
</UnstructuredGrid>
</VTKFile>
