<?xml version="1.0"?>
<VTKFile type="UnstructuredGrid" version="0.1" byte_order="LittleEndian">
<UnstructuredGrid>
<Piece NumberOfPoints="69" NumberOfCells="124">
<Points>
<DataArray type="Float64" NumberOfComponents="3" format="ascii">
0 0 0 0.084352422163911631 0.086451712656266194 0 0.1249999999997554 0 0 0 0.12500000000034689 0 0.1008171452988615 0.18885703697250469 0 0.2403886547178353 0.24188814792673841 0 0.18402761812864499 0.1117324051466445 0 0.25 -0 0 0.31250000000020822 0.12500000000041631 0 0.4287911518546233 0.15455445427966699 0 0.43749999999913258 0 0 0.43750000000006939 0.37500000000013878 0 0.49457493289300231 0.26251703776555491 0 0.37500000000027761 0.25000000000055511 0 0.33819444444448321 0.33819444444456342 0 0.37499999999973488 0.43749999999986738 0 0.14929124186975251 0.44582793568106382 0 0.24999999999960859 0.37499999999980432 0 0.1249999999997599 0.31249999999987998 0 0 0.25 0 0 0.43750000000034689 0 0 0.62500000000069389 0 0.13900789599611679 0.72618316107059999 0 0.13928587515912139 0.57339806105677438 0 0 1 0 0 0.81250000000104083 0 0.12710107136012311 0.87094806618203435 0 0.1875000000005205 1 0 0.27987960212930818 0.83442741470570525 0 0.44927105396715372 0.85565124085155886 0 0.37500000000069389 1 0 0.26452443700674649 0.51563531581639865 0 0.27589467050686478 0.66058853156435704 0 0.38136204680495073 0.74038592213831234 0 0.4139414069912184 0.60563252640100373 0 0.5 0.5 -0 0.50145856933078625 0.73674663046504862 0 0.5625 0.625 0 0.71259747807844409 0.63846691315701831 0 0.63236534182377013 0.50296756406332266 0 0.56250000000086742 1 0 0.56777512057187585 0.8470224641095303 0 0.625 0.75 0 0.73857795170433571 0.77736788564284653 0 0.6875 0.875 0 0.75 1 0 0.80552984491000901 0.88711122872127413 0 0.85787927391517405 0.753532520882502 0 1 0.83333333333356463 0 0.90637953422180084 0.90208583328057301 0 1 1 0 0.875 1 0 0.86127466977819722 0.57948076978797636 0 1 0.66666666666736052 0 1 0.50000000000138767 0 0.75338430262320943 0.49294443423175599 0 0.86569408477091048 0.40983673916766611 0 0.86087286690217635 0.25206523597959418 0 1 0.33333333333448978 0 1 0.16666666666736049 0 1 0 0 0.87698901648812122 0.1160638338657984 0 0.81249999999947953 0 0 0.71508993406183785 0.15715956854777599 0 0.62499999999895905 0 0 0.54475767668582953 0.1431838882066932 0 0.61108462585082757 0.25750599582343231 0 0.56986707178436635 0.37762093650871992 0 0.71826039492840632 0.34564020717216182 0 
</DataArray>
</Points>
<Cells>
<DataArray type="UInt32" Name="connectivity" format="ascii">
0 1 3 0 2 1 3 4 19 3 1 4 4 1 6 18 4 5 6 5 4 8 5 6 7 6 2 7 8 6 2 6 1 8 7 7 10 8 8 13 5 13 8 8 9 13 13 9 12 65 12 9 8 10 9 10 65 9 15 35 11 35 15 11 15 14 35 11 13 12 11 11 13 13 11 14 17 5 14 13 14 5 15 17 14 17 15 15 31 17 17 31 16 17 16 18 17 18 5 18 17 19 18 20 18 19 4 19 18 20 16 23 20 18 16 20 23 21 21 23 22 25 21 22 32 22 23 28 22 32 31 32 23 31 23 16 27 24 26 24 25 26 25 22 26 28 26 22 27 26 28 30 28 29 30 27 28 29 28 33 29 33 36 30 29 40 34 32 31 15 34 31 28 32 33 34 33 32 34 36 33 37 36 34 15 35 34 37 34 35 37 35 39 37 35 37 42 36 42 37 42 38 43 37 38 42 55 38 39 37 39 38 44 40 41 40 29 41 29 36 41 42 41 36 44 42 43 44 43 46 44 42 44 41 42 44 45 40 44 46 45 45 44 51 45 46 51 46 49 46 47 49 46 43 47 48 47 53 48 49 47 50 49 48 50 51 49 52 38 55 47 38 52 47 43 38 53 47 52 53 52 54 58 54 56 52 56 54 52 55 56 55 68 56 63 57 68 56 68 57 59 58 57 58 56 57 59 57 61 62 60 61 59 61 60 62 61 63 63 61 57 64 63 65 62 63 64 10 64 65 63 66 65 65 66 12 67 12 66 11 12 67 11 67 35 35 67 39 55 39 68 67 68 39 63 68 66 67 66 68 
</DataArray>
<DataArray type="UInt32" Name="offsets" format="ascii">
3 6 9 12 15 18 21 24 27 30 33 35 38 41 43 46 49 52 55 58 60 63 66 68 71 73 76 79 82 85 87 90 93 96 99 101 104 107 109 112 115 118 121 124 127 130 133 136 139 142 145 148 151 154 157 160 163 166 169 172 175 178 181 184 187 190 193 195 198 200 203 206 209 212 215 218 221 224 227 230 232 235 238 241 243 246 249 252 255 258 261 264 267 270 273 276 279 282 285 288 291 294 297 300 303 306 309 312 315 318 321 324 327 330 333 336 339 342 345 348 351 354 357 360 
</DataArray>
<DataArray type="UInt32" Name="types" format="ascii">
5 5 5 5 5 5 5 5 5 5 5 3 5 5 3 5 5 5 5 5 3 5 5 3 5 3 5 5 5 5 3 5 5 5 5 3 5 5 3 5 5 5 5 5 5 5 5 5 5 5 5 5 5 5 5 5 5 5 5 5 5 5 5 5 5 5 5 3 5 3 5 5 5 5 5 5 5 5 5 5 3 5 5 5 3 5 5 5 5 5 5 5 5 5 5 5 5 5 5 5 5 5 5 5 5 5 5 5 5 5 5 5 5 5 5 5 5 5 5 5 5 5 5 5 
</DataArray>
</Cells>
<CellData Scalars="" Vectors="velocity_p0," Tensors="">
<DataArray type="Float64" Name="velocity_p0" NumberOfComponents="3" format="ascii">
-9.6500447419760813e-08 -9.6530470593332169e-08 0 -9.642218979884409e-08 -9.6450265364091741e-08 0 -8.8319718236560972e-08 -9.5389267175607728e-08 0 -9.2794944708315063e-08 -9.8223851525506158e-08 0 -9.1748743179164254e-08 -9.1716811837401272e-08 0 -8.714554729325431e-08 -9.0012429848516069e-08 0 -9.1714589616145413e-08 -9.174846746384703e-08 0 -8.989133781619736e-08 -8.7537993239210866e-08 0 -9.5346137337986799e-08 -8.8421991785741527e-08 0 -9.5524595475679598e-08 -8.8119750806433537e-08 0 -9.7912690737978671e-08 -9.3280178343793279e-08 0 -5.3162873599991823e-07 -1.0632574719998354e-06 0 -9.9031385856621865e-08 -8.4073133707235738e-08 0 -9.0792918586291779e-08 -8.607658510697109e-08 0 -5.2024058160503007e-07 -1.0404811632100604e-06 0 -9.9599504663929325e-08 -8.2155155312224275e-08 0 -1.0190764803189149e-07 -7.8059648974049421e-08 0 -1.0491713970080303e-07 -8.2998746498835483e-08 0 -1.0067582592343023e-07 -8.242869362827049e-08 0 -1.0061996271199913e-07 -8.3420086577713683e-08 0 -8.99536478449652e-07 -4.4976823922482642e-07 0 -8.055982069239714e-08 -7.876929361584339e-08 0 -7.9985319031433423e-08 -7.9343795276800874e-08 0 -4.4716276723618695e-07 -8.943255344723739e-07 0 -1.0546094144236698e-07 -7.8431605666607882e-08 0 -4.9893033151007828e-07 -9.9786066302015741e-07 0 -8.7598407372912656e-08 -8.2165429417350751e-08 0 -8.5853929695678896e-08 -8.5565722335253507e-08 0 -8.6084599586413583e-08 -8.5792855746892711e-08 0 -8.2768567405334444e-08 -8.6853314474349916e-08 0 -9.9556186463304467e-07 -4.977809323165217e-07 0 -7.8586931208237785e-08 -1.0477362673095641e-07 0 -7.8298904185955033e-08 -1.0198475641381703e-07 0 -8.1975750913635477e-08 -9.9398849603427063e-08 0 -8.6216074147127148e-08 -9.0581219045865414e-08 0 -1.0388142993080727e-06 -5.1940714965403633e-07 0 -8.3812297372971399e-08 -9.8918029121157275e-08 0 -8.8210176072140364e-08 -9.5455701624025046e-08 0 -1.0620121903124231e-06 -5.3100609515621189e-07 0 -8.3439588525308009e-08 -1.0061564245108146e-07 0 -8.2184686596156549e-08 -1.0054564003176398e-07 0 -8.4918548648659733e-08 -1.0205863023373281e-07 0 -8.7404953073744299e-08 -1.0113747949465858e-07 0 -9.0101474347444543e-08 -1.0310026401427208e-07 0 -8.7391902869229202e-08 -1.0831023582808192e-07 0 -9.0698673107740409e-08 -1.0672566808734801e-07 0 -8.2487399954871141e-08 -1.0517994018628287e-07 0 -8.3103910640591171e-08 -1.0489559223417372e-07 0 -9.679449963515112e-08 -1.0317107846626501e-07 0 -9.6889754909160151e-08 -1.0307436112796455e-07 0 -9.3013683605786003e-08 -1.0129193007760843e-07 0 -9.2455717925651286e-08 -1.0807576176296458e-07 0 -9.8422450931453555e-08 -1.0664945577656624e-07 0 -9.8671177505665677e-08 -1.1320798325715842e-07 0 -9.6688618042428758e-08 -1.097570161826389e-07 0 -9.271757524596556e-08 -1.1246202932660075e-07 0 -9.6043856998404726e-08 -1.1810789196465977e-07 0 -9.8013325187984014e-08 -1.1448654550569086e-07 0 -8.3257842242445287e-08 -1.1500191040908092e-07 0 -7.2924921430476177e-08 -1.0877815868495559e-07 0 -9.0869427438656001e-08 -1.1417466591170629e-07 0 -8.896166172890744e-08 -1.1273123667590688e-07 0 -8.7599882683855292e-08 -1.1836377019298849e-07 0 -9.4029470560044829e-08 -1.2799627709176281e-07 0 -7.6820776910933528e-08 -1.2559881498352241e-07 0 -7.6707376871233434e-08 -1.2573800858367684e-07 0 -1.3741481582256183e-07 -9.0752733234137327e-08 0 -7.7027635639746031e-07 -1.5405527127949206e-06 0 -9.811014088155907e-08 -1.2052592206455501e-07 0 -6.9835460619488358e-07 -1.3967092123897672e-06 0 -1.1491064533411013e-07 -1.117129283346977e-07 0 -1.1706077591422349e-07 -1.0897528444384199e-07 0 -1.1890470073780166e-07 -9.6999064472501992e-08 0 -1.264974123095856e-07 -1.0982194994816053e-07 0 -9.9562453140975522e-08 -1.1661280722761559e-07 0 -9.9567452927961459e-08 -1.1646780897574169e-07 0 -9.6671131772202064e-08 -1.1667870220414651e-07 0 -9.9045047787271474e-08 -1.2062621766339383e-07 0 -1.0958625902885606e-07 -1.1042995753505017e-07 0 -1.0956912861465632e-07 -1.1046270125264408e-07 0 -6.729155257719738e-07 -1.3458310515439476e-06 0 -1.0118813518292544e-07 -1.1699269967680753e-07 0 -1.0003655643514191e-07 -1.16138703933439e-07 0 -1.0296039037435107e-07 -1.0978456818851406e-07 0 -6.6049109528427808e-07 -1.3209821905685562e-06 0 -1.0373081014825924e-07 -1.082183521350003e-07 0 -1.0178783008970382e-07 -1.0506101599338099e-07 0 -1.0768137699037044e-07 -1.0593611571234645e-07 0 -1.0733960519304415e-07 -1.0680820633033636e-07 0 -1.0901665204948413e-07 -1.0265095194657299e-07 0 -1.0606833661513205e-07 -1.0099547231664784e-07 0 -1.0346126318313549e-07 -1.0291004104374448e-07 0 -1.0272421654876942e-07 -1.0213919117240788e-07 0 -1.1751245677797043e-07 -1.0196642328420502e-07 0 -1.1201306602517285e-07 -1.0414825020326272e-07 0 -1.1375356376212068e-07 -1.0552675336694337e-07 0 -1.1207878661972141e-07 -1.007793397652794e-07 0 -1.1178526681224625e-07 -1.0059486824863718e-07 0 -1.1113976007356978e-07 -9.8569358213876616e-08 0 -1.1306486974696471e-07 -9.9861737371711207e-08 0 -1.13102192747067e-07 -9.8429053592920172e-08 0 -1.1586515715988055e-07 -9.6384498065756112e-08 0 -1.0903539955295893e-07 -9.4565791464985629e-08 0 -1.100936415276951e-07 -9.3871427494355329e-08 0 -1.0762099835573121e-07 -9.7537459207881505e-08 0 -1.1025264372412349e-07 -9.9074677893853354e-08 0 -1.0566025011541498e-07 -9.8740999385674781e-08 0 -1.0283205233555419e-07 -9.700483670332248e-08 0 -1.0240933902368642e-07 -9.7403677024759616e-08 0 -1.0123286937325601e-07 -9.4126713950594766e-08 0 -1.0636130227515659e-07 -9.2824936194876611e-08 0 -1.0131129772455004e-07 -8.7587661666492445e-08 0 -1.0322100411797741e-07 -9.0919094741148964e-08 0 -1.0235147594280212e-07 -8.5731574434112002e-08 0 -1.0801457791243012e-07 -8.8137662609662574e-08 0 -1.0496587066872136e-07 -8.2882865337799004e-08 0 -1.141412640357793e-07 -8.2488234606873331e-08 0 -1.0809371210687344e-07 -7.3242955608689296e-08 0 -1.3239146689848444e-07 -7.3724063570421086e-08 0 -1.2285602330704127e-07 -9.0426332468804498e-08 0 -1.1606772392792484e-07 -9.7234030850550727e-08 0 -1.2138988374569493e-07 -8.7485841381752798e-08 0 -1.0891269515993799e-07 -8.7271141465472871e-08 0 -1.1171050610318031e-07 -8.9571875645107042e-08 0 
</DataArray>
</CellData>
</Piece>
</UnstructuredGrid>
</VTKFile>
