<?xml version="1.0"?>
<VTKFile type="UnstructuredGrid" version="0.1" byte_order="LittleEndian">
<UnstructuredGrid>
<Piece NumberOfPoints="69" NumberOfCells="124">
<Points>
<DataArray type="Float64" NumberOfComponents="3" format="ascii">
0 0 0 0.084352422163911631 0.086451712656266194 0 0.1249999999997554 0 0 0 0.12500000000034689 0 0.1008171452988615 0.18885703697250469 0 0.2403886547178353 0.24188814792673841 0 0.18402761812864499 0.1117324051466445 0 0.25 -0 0 0.31250000000020822 0.12500000000041631 0 0.4287911518546233 0.15455445427966699 0 0.43749999999913258 0 0 0.43750000000006939 0.37500000000013878 0 0.49457493289300231 0.26251703776555491 0 0.37500000000027761 0.25000000000055511 0 0.33819444444448321 0.33819444444456342 0 0.37499999999973488 0.43749999999986738 0 0.14929124186975251 0.44582793568106382 0 0.24999999999960859 0.37499999999980432 0 0.1249999999997599 0.31249999999987998 0 0 0.25 0 0 0.43750000000034689 0 0 0.62500000000069389 0 0.13900789599611679 0.72618316107059999 0 0.13928587515912139 0.57339806105677438 0 0 1 0 0 0.81250000000104083 0 0.12710107136012311 0.87094806618203435 0 0.1875000000005205 1 0 0.27987960212930818 0.83442741470570525 0 0.44927105396715372 0.85565124085155886 0 0.37500000000069389 1 0 0.26452443700674649 0.51563531581639865 0 0.27589467050686478 0.66058853156435704 0 0.38136204680495073 0.74038592213831234 0 0.4139414069912184 0.60563252640100373 0 0.5 0.5 -0 0.50145856933078625 0.73674663046504862 0 0.5625 0.625 0 0.71259747807844409 0.63846691315701831 0 0.63236534182377013 0.50296756406332266 0 0.56250000000086742 1 0 0.56777512057187585 0.8470224641095303 0 0.625 0.75 0 0.73857795170433571 0.77736788564284653 0 0.6875 0.875 0 0.75 1 0 0.80552984491000901 0.88711122872127413 0 0.85787927391517405 0.753532520882502 0 1 0.83333333333356463 0 0.90637953422180084 0.90208583328057301 0 1 1 0 0.875 1 0 0.86127466977819722 0.57948076978797636 0 1 0.66666666666736052 0 1 0.50000000000138767 0 0.75338430262320943 0.49294443423175599 0 0.86569408477091048 0.40983673916766611 0 0.86087286690217635 0.25206523597959418 0 1 0.33333333333448978 0 1 0.16666666666736049 0 1 0 0 0.87698901648812122 0.1160638338657984 0 0.81249999999947953 0 0 0.71508993406183785 0.15715956854777599 0 0.62499999999895905 0 0 0.54475767668582953 0.1431838882066932 0 0.61108462585082757 0.25750599582343231 0 0.56986707178436635 0.37762093650871992 0 0.71826039492840632 0.34564020717216182 0 
</DataArray>
</Points>
<Cells>
<DataArray type="UInt32" Name="connectivity" format="ascii">
0 1 3 0 1 2 3 4 19 1 3 4 1 4 6 4 5 18 4 5 6 5 6 8 2 6 7 6 7 8 1 2 6 7 8 7 8 10 5 8 13 8 13 8 9 13 9 12 13 9 12 65 8 9 10 9 10 65 15 35 11 15 35 11 14 15 11 35 11 12 13 11 13 11 13 14 5 14 17 5 13 14 14 15 17 15 17 15 17 31 16 17 31 16 17 18 5 17 18 17 18 18 19 20 4 18 19 18 19 16 20 23 16 18 20 20 21 23 21 22 23 21 22 25 22 23 32 22 28 32 23 31 32 16 23 31 24 26 27 24 25 26 22 25 26 22 26 28 26 27 28 28 29 30 27 28 30 28 29 33 29 33 36 29 30 40 31 32 34 15 31 34 28 32 33 32 33 34 33 34 36 34 36 37 15 34 35 34 35 37 35 37 39 35 37 36 37 42 37 42 38 42 43 37 38 42 38 39 55 37 38 39 40 41 44 29 40 41 29 36 41 36 41 42 42 43 44 43 44 46 42 44 41 42 44 40 44 45 44 45 46 44 45 45 46 51 46 49 51 46 47 49 43 46 47 47 48 53 47 48 49 48 49 50 49 50 51 38 52 55 38 47 52 38 43 47 47 52 53 52 53 54 54 56 58 52 54 56 52 55 56 55 56 68 57 63 68 56 57 68 57 58 59 56 57 58 57 59 61 60 61 62 59 60 61 61 62 63 57 61 63 63 64 65 62 63 64 10 64 65 63 65 66 12 65 66 12 66 67 11 12 67 11 35 67 35 39 67 39 55 68 39 67 68 63 66 68 66 67 68 
</DataArray>
<DataArray type="UInt32" Name="offsets" format="ascii">
3 6 9 12 15 18 21 24 27 30 33 35 38 41 43 46 49 52 55 58 60 63 66 68 71 73 76 79 82 85 87 90 93 96 99 101 104 107 109 112 115 118 121 124 127 130 133 136 139 142 145 148 151 154 157 160 163 166 169 172 175 178 181 184 187 190 193 195 198 200 203 206 209 212 215 218 221 224 227 230 232 235 238 241 243 246 249 252 255 258 261 264 267 270 273 276 279 282 285 288 291 294 297 300 303 306 309 312 315 318 321 324 327 330 333 336 339 342 345 348 351 354 357 360 
</DataArray>
<DataArray type="UInt32" Name="types" format="ascii">
5 5 5 5 5 5 5 5 5 5 5 3 5 5 3 5 5 5 5 5 3 5 5 3 5 3 5 5 5 5 3 5 5 5 5 3 5 5 3 5 5 5 5 5 5 5 5 5 5 5 5 5 5 5 5 5 5 5 5 5 5 5 5 5 5 5 5 3 5 3 5 5 5 5 5 5 5 5 5 5 3 5 5 5 3 5 5 5 5 5 5 5 5 5 5 5 5 5 5 5 5 5 5 5 5 5 5 5 5 5 5 5 5 5 5 5 5 5 5 5 5 5 5 5 
</DataArray>
</Cells>
<CellData Scalars="pressure_p0," Vectors="" Tensors="">
<DataArray type="Float64" Name="pressure_p0" format="ascii">
0.097340388592042359 0.097317830105915021 0.21761196212801265 0.19028317827837493 0.24310533175797933 0.38183195239727896 0.33834471863734705 0.38364774987956668 0.21932841209709678 0.31574939522030659 0.19205805575514576 0.33326825427555928 0.36846470298793099 0.48118782053702724 0.49781343958699786 0.51818799796360393 0.61618636931633652 0.64581573786316993 0.47058767335766527 0.55372337978402753 0.80585933714941738 0.78047891166751859 0.69454445880682214 0.80647225987815618 0.67668372024977685 0.65738506601610469 0.64362596867606126 0.54941263187641287 0.54956830365239617 0.64324309116460932 0.65676070162669442 0.68369700903815156 0.6275785584635577 0.52203662397624884 0.48099486598176366 0.49749484571429209 0.36836782922665934 0.3140235109277329 0.33317574053857923 0.56621434566266149 0.47455907370238537 0.58501509245262662 0.72275660775050232 0.76305392413078521 0.81538847902023881 0.95063820582646308 0.77606410995143449 0.66594387867495475 1.0601292435553202 0.93517022458305299 0.88569826039349331 0.98041512684587862 1.0929845046005284 1.2518860838984143 1.2202324839352012 1.1559377159209354 1.1876026656785996 1.4072993763196688 0.86382698929064428 0.8071352064351287 1.0288435914647678 0.98228925243039211 1.0785211755989175 1.086651342679902 0.85886728703621351 0.98537313335332488 1.0277010624761593 0.99756497549958356 1.2139427191594017 1.2250924082546493 1.3792117778802411 1.2548993999669795 1.2009347245424884 1.1675121573606639 1.4982409232363565 1.4116885525954603 1.2892152588158268 1.3049148874923735 1.4571004893334101 1.5735177829228424 1.4388785492764091 1.4216508944963266 1.6182793479611008 1.659318971384339 1.6470203046836545 1.7693678111805826 1.7881269467081782 1.6956305815583606 1.5913410078169534 1.6995636362516935 1.7457184810177169 1.8793779805959687 1.8935076691042276 1.3160344846056837 1.4452876628885623 1.4682773800170246 1.5624159368970514 1.5303500127437371 1.3646668374435611 1.3942264778577032 1.2989271248512382 1.168167388475333 0.99762090153628347 1.1320185626734267 1.2007614561669826 1.2316739273577992 1.0859682037403413 0.93374928751386566 1.0519686585720338 0.88664725851046189 0.98266457625926251 0.71647188564375186 0.76512003330301115 0.5767763692423149 0.78672959592327385 0.73804467163928944 0.81196585648264197 0.77844479649960174 0.8382793834439668 0.95619708636179845 1.1081401361701793 0.99940706607218766 0.90844478025690945 0.91955484718345426 
</DataArray>
</CellData>
</Piece>
</UnstructuredGrid>
</VTKFile>
