<?xml version="1.0"?>
<VTKFile type="UnstructuredGrid" version="0.1" byte_order="LittleEndian">
<UnstructuredGrid>
<Piece NumberOfPoints="492" NumberOfCells="906">
<Points>
<DataArray type="Float64" NumberOfComponents="3" format="ascii">
0.000000000000000e+00 0.000000000000000e+00 0.000000000000000e+00 0.000000000000000e+00 1.000000000000000e+00 0.000000000000000e+00 1.000000000000000e+00 1.000000000000000e+00 0.000000000000000e+00 1.000000000000000e+00 0.000000000000000e+00 0.000000000000000e+00 0.000000000000000e+00 5.263157894724207e-02 0.000000000000000e+00 0.000000000000000e+00 1.052631578944841e-01 0.000000000000000e+00 0.000000000000000e+00 1.578947368417262e-01 0.000000000000000e+00 0.000000000000000e+00 2.105263157889683e-01 0.000000000000000e+00 0.000000000000000e+00 2.631578947362221e-01 0.000000000000000e+00 0.000000000000000e+00 3.157894736835109e-01 0.000000000000000e+00 0.000000000000000e+00 3.684210526307997e-01 0.000000000000000e+00 0.000000000000000e+00 4.210526315780885e-01 0.000000000000000e+00 0.000000000000000e+00 4.736842105253773e-01 0.000000000000000e+00 0.000000000000000e+00 5.263157894727392e-01 0.000000000000000e+00 0.000000000000000e+00 5.789473684201740e-01 0.000000000000000e+00 0.000000000000000e+00 6.315789473676090e-01 0.000000000000000e+00 0.000000000000000e+00 6.842105263150439e-01 0.000000000000000e+00 0.000000000000000e+00 7.368421052624787e-01 0.000000000000000e+00 0.000000000000000e+00 7.894736842099683e-01 0.000000000000000e+00 0.000000000000000e+00 8.421052631574764e-01 0.000000000000000e+00 0.000000000000000e+00 8.947368421049842e-01 0.000000000000000e+00 0.000000000000000e+00 9.473684210524922e-01 0.000000000000000e+00 5.263157894724207e-02 1.000000000000000e+00 0.000000000000000e+00 1.052631578944841e-01 1.000000000000000e+00 0.000000000000000e+00 1.578947368417262e-01 1.000000000000000e+00 0.000000000000000e+00 2.105263157889683e-01 1.000000000000000e+00 0.000000000000000e+00 2.631578947362221e-01 1.000000000000000e+00 0.000000000000000e+00 3.157894736835109e-01 1.000000000000000e+00 0.000000000000000e+00 3.684210526307997e-01 1.000000000000000e+00 0.000000000000000e+00 4.210526315780885e-01 1.000000000000000e+00 0.000000000000000e+00 4.736842105253773e-01 1.000000000000000e+00 0.000000000000000e+00 5.263157894727392e-01 1.000000000000000e+00 0.000000000000000e+00 5.789473684201740e-01 1.000000000000000e+00 0.000000000000000e+00 6.315789473676090e-01 1.000000000000000e+00 0.000000000000000e+00 6.842105263150439e-01 1.000000000000000e+00 0.000000000000000e+00 7.368421052624787e-01 1.000000000000000e+00 0.000000000000000e+00 7.894736842099683e-01 1.000000000000000e+00 0.000000000000000e+00 8.421052631574764e-01 1.000000000000000e+00 0.000000000000000e+00 8.947368421049842e-01 1.000000000000000e+00 0.000000000000000e+00 9.473684210524922e-01 1.000000000000000e+00 0.000000000000000e+00 1.000000000000000e+00 9.473684210527046e-01 0.000000000000000e+00 1.000000000000000e+00 8.947368421054093e-01 0.000000000000000e+00 1.000000000000000e+00 8.421052631581138e-01 0.000000000000000e+00 1.000000000000000e+00 7.894736842108185e-01 0.000000000000000e+00 1.000000000000000e+00 7.368421052635596e-01 0.000000000000000e+00 1.000000000000000e+00 6.842105263164103e-01 0.000000000000000e+00 1.000000000000000e+00 6.315789473692610e-01 0.000000000000000e+00 1.000000000000000e+00 5.789473684221118e-01 0.000000000000000e+00 1.000000000000000e+00 5.263157894749625e-01 0.000000000000000e+00 1.000000000000000e+00 4.736842105276671e-01 0.000000000000000e+00 1.000000000000000e+00 4.210526315802255e-01 0.000000000000000e+00 1.000000000000000e+00 3.684210526327841e-01 0.000000000000000e+00 1.000000000000000e+00 3.157894736853426e-01 0.000000000000000e+00 1.000000000000000e+00 2.631578947379012e-01 0.000000000000000e+00 1.000000000000000e+00 2.105263157903501e-01 0.000000000000000e+00 1.000000000000000e+00 1.578947368427626e-01 0.000000000000000e+00 1.000000000000000e+00 1.052631578951750e-01 0.000000000000000e+00 1.000000000000000e+00 5.263157894758763e-02 0.000000000000000e+00 9.473684210527046e-01 0.000000000000000e+00 0.000000000000000e+00 8.947368421054093e-01 0.000000000000000e+00 0.000000000000000e+00 8.421052631581138e-01 0.000000000000000e+00 0.000000000000000e+00 7.894736842108185e-01 0.000000000000000e+00 0.000000000000000e+00 7.368421052635596e-01 0.000000000000000e+00 0.000000000000000e+00 6.842105263164103e-01 0.000000000000000e+00 0.000000000000000e+00 6.315789473692610e-01 0.000000000000000e+00 0.000000000000000e+00 5.789473684221118e-01 0.000000000000000e+00 0.000000000000000e+00 5.263157894749625e-01 0.000000000000000e+00 0.000000000000000e+00 4.736842105276671e-01 0.000000000000000e+00 0.000000000000000e+00 4.210526315802255e-01 0.000000000000000e+00 0.000000000000000e+00 3.684210526327841e-01 0.000000000000000e+00 0.000000000000000e+00 3.157894736853426e-01 0.000000000000000e+00 0.000000000000000e+00 2.631578947379012e-01 0.000000000000000e+00 0.000000000000000e+00 2.105263157903501e-01 0.000000000000000e+00 0.000000000000000e+00 1.578947368427626e-01 0.000000000000000e+00 0.000000000000000e+00 1.052631578951750e-01 0.000000000000000e+00 0.000000000000000e+00 5.263157894758763e-02 0.000000000000000e+00 0.000000000000000e+00 5.000768619666112e-01 6.073188554060099e-01 0.000000000000000e+00 6.795380246767664e-01 3.051439214016982e-01 0.000000000000000e+00 2.657431272343335e-01 3.583622349137769e-01 0.000000000000000e+00 7.778111410595571e-01 6.762714425551062e-01 0.000000000000000e+00 2.607426257384951e-01 7.108648205749732e-01 0.000000000000000e+00 1.925410402609788e-01 8.072897193003743e-01 0.000000000000000e+00 8.120681721638150e-01 1.867443256665874e-01 0.000000000000000e+00 8.429568111511234e-01 8.370136966129558e-01 0.000000000000000e+00 1.887085678387430e-01 1.942865534629338e-01 0.000000000000000e+00 1.651677048840214e-01 8.667722398931621e-01 0.000000000000000e+00 8.836633669191022e-01 1.084026514754809e-01 0.000000000000000e+00 9.685389086937463e-01 7.274054905852957e-02 0.000000000000000e+00 4.352932362624411e-02 9.173715253517774e-01 0.000000000000000e+00 9.241081310787339e-01 9.627872911261246e-01 0.000000000000000e+00 4.665702639581027e-01 2.966710361013457e-01 0.000000000000000e+00 7.457691610660050e-01 4.937482709445991e-01 0.000000000000000e+00 5.124327408742055e-01 7.972257391806719e-01 0.000000000000000e+00 4.139184944998919e-01 4.886178466606589e-01 0.000000000000000e+00 5.794123181752160e-01 4.770262960507517e-01 0.000000000000000e+00 5.745824728513373e-01 1.280831738701313e-01 0.000000000000000e+00 3.921967503782522e-01 1.185901536343156e-01 0.000000000000000e+00 9.992548653213773e-02 4.752146485274584e-01 0.000000000000000e+00 8.680062226361797e-01 4.287979305759036e-01 0.000000000000000e+00 2.991047558979558e-01 1.973979233801190e-01 0.000000000000000e+00 7.140071920057445e-01 8.382382491017021e-01 0.000000000000000e+00 8.189363322807111e-01 3.270427252528633e-01 0.000000000000000e+00 1.260422786413521e-01 3.831814387673006e-01 0.000000000000000e+00 3.744347783115686e-01 6.759694791923643e-01 0.000000000000000e+00 6.345513284423596e-01 6.545750755932673e-01 0.000000000000000e+00 1.482905044071461e-01 2.987819499203461e-01 0.000000000000000e+00 8.823950871163319e-01 6.747277421017024e-01 0.000000000000000e+00 7.045199380766443e-01 4.862305688554183e-02 0.000000000000000e+00 9.495676700920537e-02 2.542878793617160e-01 0.000000000000000e+00 9.161569341424017e-01 2.838790265759349e-01 0.000000000000000e+00 7.080441356431567e-01 9.610778915671577e-01 0.000000000000000e+00 2.902412080146349e-01 7.528496672690950e-02 0.000000000000000e+00 1.036024125949905e-01 6.657665487544948e-01 0.000000000000000e+00 2.616762994390670e-01 9.010984154916205e-01 0.000000000000000e+00 8.057964710161646e-01 9.988332988076845e-02 0.000000000000000e+00 9.193406562742105e-01 8.226521161808503e-01 0.000000000000000e+00 1.618217027865307e-01 9.113294842911728e-01 0.000000000000000e+00 2.216251568644465e-01 2.589589622123038e-01 0.000000000000000e+00 7.569837171226450e-01 2.445305945173807e-01 0.000000000000000e+00 8.590142195453966e-01 9.521276807895324e-01 0.000000000000000e+00 4.402477648881222e-02 8.663838880976044e-01 0.000000000000000e+00 9.474543022606529e-01 1.192562341855612e-01 0.000000000000000e+00 5.715115842330903e-02 1.339611925669680e-01 0.000000000000000e+00 8.718541440964978e-01 3.245699810888708e-02 0.000000000000000e+00 9.536019591372769e-01 9.155831064959428e-01 0.000000000000000e+00 9.161219870557668e-01 5.360690789524346e-02 0.000000000000000e+00 7.548922358470611e-02 9.489485111843923e-01 0.000000000000000e+00 5.492509137503038e-02 8.407525559195163e-02 0.000000000000000e+00 1.338290078374573e-01 8.889689671696894e-01 0.000000000000000e+00 8.850108101897147e-01 8.568356417223725e-01 0.000000000000000e+00 8.401324540582252e-01 1.461985836418656e-01 0.000000000000000e+00 3.736587383006215e-01 2.477899593021611e-01 0.000000000000000e+00 6.215822783678956e-01 2.231997275545906e-01 0.000000000000000e+00 1.685263063586827e-01 4.160471124896989e-01 0.000000000000000e+00 2.680261468312237e-01 4.562905052002703e-01 0.000000000000000e+00 8.121933773954787e-01 4.052869767154916e-01 0.000000000000000e+00 3.625119198709785e-01 3.273008519037463e-01 0.000000000000000e+00 3.468918975558964e-01 4.220211114867651e-01 0.000000000000000e+00 5.813425695337223e-01 7.274115590873627e-01 0.000000000000000e+00 5.768484086200723e-01 3.019361073474691e-01 0.000000000000000e+00 4.402151087125771e-01 7.381776909706687e-01 0.000000000000000e+00 7.137906082496469e-01 3.998326229438716e-01 0.000000000000000e+00 6.251561152114772e-01 3.939374276747084e-01 0.000000000000000e+00 4.375567280004101e-01 1.986674890152439e-01 0.000000000000000e+00 3.926866755464224e-01 5.805376032354694e-01 0.000000000000000e+00 5.332000484765275e-01 3.907911305757537e-01 0.000000000000000e+00 1.768746658781452e-01 5.942294572210166e-01 0.000000000000000e+00 4.385321552863963e-01 3.994211893040143e-01 0.00000000000000
[...]
<PointData Scalars="pressure_nodes_[L]" Vectors="">
<DataArray type="Float64" Name="pressure_nodes_[L]" format="ascii">
1.601044948590133e-20 8.460462531312942e-21 7.727909370634401e+01 7.842783649864782e+01 9.410325340332416e-21 1.119299658341330e-20 7.245485927659168e-21 7.858375494138247e-21 1.162816209603136e-20 7.569473252150923e-21 7.822687488634019e-21 1.417901193202239e-20 1.339512486262693e-20 9.561968985988516e-21 6.782635358222710e-21 4.900068105682650e-21 5.552266818531046e-21 1.990881423150502e-21 2.026925847842777e-21 3.827448045338090e-21 4.638263594327390e-21 4.775398581257467e-21 1.260177848570227e-19 2.724330017793984e-18 6.876963140248909e-17 1.732799843460529e-15 5.170682182316421e-14 2.068424917032000e-12 6.920237740073081e-11 1.684520996095930e-09 2.907258316871865e-08 5.497410701984818e-07 8.633177798921848e-06 1.378164258218231e-04 1.817865012281811e-03 2.153133867397116e-02 1.847520428565541e-01 1.603138883020423e+00 1.065352748798994e+01 3.967911760736099e+01 7.982531023115912e+01 7.830899407242860e+01 7.942914456543303e+01 8.067747088736503e+01 7.607064927079634e+01 7.226732195322737e+01 7.473723928089566e+01 7.264881001412783e+01 7.304524001173509e+01 7.661887242342389e+01 7.261376559232903e+01 7.980302734926232e+01 8.135574573371321e+01 8.101556261707957e+01 7.791556284626397e+01 7.596254784233588e+01 7.967192642298861e+01 8.377533544624583e+01 3.901973019764046e+01 1.016505450510052e+01 1.848633935802479e+00 2.411412249206136e-01 3.197318647807092e-02 1.996079426441709e-03 1.550274229066570e-04 1.030288838510926e-05 4.691615354220968e-07 2.183154373503417e-08 1.107039235831211e-09 5.483978190071783e-11 2.949497392953792e-12 1.444181075118901e-13 5.079113712804721e-15 1.623586193062681e-16 6.385805292895424e-18 2.909567853741565e-19 1.000560038293289e-07 1.309421207337356e-03 1.312903932474772e-13 1.311242943826272e-01 5.549906837360577e-14 5.777791573043295e-16 5.520949280583488e-01 1.870536536879007e+00 4.105230349249065e-16 1.145456144253149e-16 7.773036521427880e+00 5.991242406349085e+01 5.111759725686655e-20 2.275981162782154e+01 1.672935197143468e-08 2.954307912672833e-02 1.764952081104889e-07 8.440902806674036e-10 8.278008197790062e-06 7.516768759179747e-06 1.890566260897906e-10 4.889421740926604e-18 3.996217230147073e+00 8.189781060293777e-13 7.490150006604994e-03 7.252040646333349e-01 2.693120551176810e-17 4.825111445648313e-11 1.041911800284373e-04 6.643676666685971e-17 7.965649565529574e+00 4.825525370350316e-03 1.813538180246559e-18 1.996563124364249e+01 7.046937542379385e-03 5.082163272621443e-13 3.278602086451939e-18 6.465992718124683e-14 4.783894583314044e-01 2.022291930315505e+01 7.432276314460742e-17 4.886645225146184e-15 5.498330070368559e-02 3.825596447382731e+00 4.558141983513878e-20 4.139919874817896e+01 1.870290045349744e-19 5.169267405971444e+00 4.637628877509618e+01 2.012753787146267e+01 4.657691491730384e-19 1.941485433304367e-19 1.041871990768123e-17 7.532383486064433e+00 1.850881641835464e+00 4.661181897556871e-11 6.995991492322240e-05 4.810585953099705e-16 1.466579139242010e-13 5.900773703932189e-01 3.881137726673817e-11 2.021895561070351e-11 6.228890191525903e-06 6.248602926174949e-06 2.357791775653750e-09 7.437759694890301e-03 8.826676178155534e-05 2.234484974287047e-09 1.822822319177638e-10 7.250821636530045e-07 3.551959385674696e-16 3.891843179636587e-09 1.479659585287503e-11 4.906125307501344e-04 1.052793961416055e-16 3.271233645867539e-05 3.892667473001950e-07 1.935517211408451e-03 2.668436177961047e-05 4.073170877949315e-16 4.758433980912140e-13 1.959666869964575e+00 1.067284675348480e+00 2.510412805279171e-15 2.009384511628401e-17 2.988561676888079e-07 6.265966581732660e-03 3.183703870053615e-14 8.143796377163591e-19 5.450517265907594e-04 1.965704058099502e+00 8.764138428478288e-08 9.668784465336322e-10 1.620619109196565e+01 7.605144435359851e-04 1.082677215711004e-04 3.170116107259579e-08 3.351520004255360e-08 1.154803689674832e-04 4.277898512274819e-09 6.311766284093526e-09 4.894283802070900e-07 1.525774822187292e-15 9.805084275180992e-20 1.849016233963477e-11 3.593969703846305e+00 1.438602522923885e+01 1.225701818185700e-06 9.770360522955183e-02 5.721983934869683e-15 1.212122839684432e-02 2.489409375653540e+00 5.868590377692375e-02 6.585101903585326e-19 4.421326431264465e-12 1.818502244830834e-10 4.518092144641138e+01 1.646106943692047e-17 2.699397234889785e-13 9.819103675438093e-01 5.110096890502228e+01 8.283837241141078e-12 8.025748268115759e-15 9.396037661330261e-12 1.816076890297013e+01 6.019397993439572e-02 3.853774239466914e-13 8.338506233046440e-02 1.369273386247895e+01 4.113834988121080e-13 4.291735895538843e-01 2.285385282451609e+00 2.330739562660711e-19 4.714079996701070e-02 8.727169242593179e-15 7.015344783690980e-02 1.116026628636993e-17 3.538232241152646e-01 7.493673762355342e-20 4.528580306769103e+01 2.423133110202879e-20 3.029557039894190e-16 1.502018898726975e+01 6.932124936985491e-03 3.716456499183953e+00 8.339936769901921e-20 9.133456641296210e-17 3.922371621389775e-14 7.809250952732834e+00 1.175923952579066e-17 4.094819259157042e-16 2.673515086037193e-01 5.275825559050111e-02 7.515115323425351e-01 4.388901025300654e-01 4.705243606608010e-01 3.344434401542894e+00 1.083041478519309e-19 1.483342791920705e-18 1.197536816197056e+01 1.364914129635920e-17 1.476778060918563e-14 1.656294209246671e-17 3.953831604978806e-16 5.491084985503357e+00 1.798159929608166e-15 2.253826820568790e+01 2.350633114745743e+00 2.797210621192375e+00 1.231558994765160e+01 5.060010992033636e+01 7.327518451651915e-19 6.904018213124579e-19 8.190962133759515e-20 5.902186816721852e+01 5.672910464824548e+01 3.302662153337028e-20 3.517759463862135e-06 1.367203136299493e-09 1.161351336829205e-08 1.939710206872276e-07 6.197577747702732e-10 1.907442939957060e-12 1.373977640761294e-13 9.268238173366413e-15 7.187655259109700e-10 1.367285708004325e-07 4.436596304598870e-09 2.960710890954329e-10 1.153099619563146e-01 3.879454022645217e-04 1.317831330769214e-18 7.181842216986688e-05 4.540672851073067e-10 7.647095474417581e-09 1.443152522617820e-06 3.996671863652657e-07 2.749530958730657e-04 1.596874485746703e-02 1.328992428942313e-07 2.554533374033992e-05 8.811275455498006e-05 2.432209964382534e-12 7.021669132677473e-03 2.007400001211951e-03 2.391567813667737e-05 2.681072521386337e-03 1.260269556515571e-06 7.382844368803206e-06 2.201015819253438e-19 1.131374159639867e-11 8.025777864078641e-08 1.168731665397198e-05 2.020496085826705e-06 2.842890400725755e-06 2.460112467185216e-04 1.486999309548635e-08 2.316038221118595e-20 2.952224843046501e-11 4.493878104531398e-02 1.877524738234113e-09 1.908003545558313e-08 8.936461698115889e-11 1.078559075998777e-02 3.937122879348967e-10 1.437921207303737e-12 9.248090253910267e-04 5.415622243490084e-08 2.265580283738862e-08 4.172838944100487e-09 5.674544790685343e-05 2.055858983965024e-15 2.594886902100893e-03 2.397155809638304e-06 1.341838683107098e-03 1.184826037143071e-04 3.990276586979370e-14 2.768116899536188e-05 1.977975150404022e-06 1.550068989823853e-10 4.338946698457061e-04 2.213995128102004e-04 2.818804784251701e-10 2.284273841936651e-08 2.806284728433176e-12 6.885286235835510e-17 1.327403495402111e-04 7.460794798079904e-13 1.199197070766568e-15 1.803458510359070e-05 2.535852993129154e-11 7.008901966479089e-11 2.593560078340838e-07 7.993688896724736e-04 8.469877781492025e-06 4.893046831204276e-03 2.246220793481529e-07 7.274871097547301e-18 2.708315385178866e-02 6.759860956662971e-09 1.405594134608016e-14 1.092090302087381e-07 4.815154113408478e-04 6.850875097884527e-15 3.987441036192817e-03 1.926548081293695e-09 2.518258577901524e-05 6.546291658645825e-12 2.764213253604590e-08 9.043995507175944e-07 3.177641531557275e-10 1.506300894204583e-14 5.460901695907924e-10 1.450373561567989e-10 7.629285452062679e-06 8.955844985701956e-08 1.741809451368536e-20 1.084921655823001e-06 2.981989744998259e-16 2.150023787369590e-06 8.054008847375182e-10 3.160008742221772e-12 4.191805139302718e-09 4.104640462530563e-11 5.399758997415114e-11 8.611813874212082e-07 3.212877334693062e-18 2.572683840174973e-13 8.037408102002105e-12 1.669932319598925e-15 1.985537053439775e-01 2.450244841440190e-06 3.581543962156326e-02 4.800929721023672e-17 6.968849859327227e-02 7.930656890945724e-09 2.339163705030996e-01 4.335463311749877e-11 1.127966831974948e-16 6.341694429216916e-03 5.576392565036017e-05 3.716238480863748e-01 6.899617055186160e-05 3.438392976881621e-01 8.109681884719047e-12 2.209611505251009e-14 8.992371605104202e-09 4.425872195837505e-11 8.001375973876678e-01 2.697287259890981e-09 1.157140018638437e-07 4.975129480875290e-07 4.363119150085249e-07 2.512520309874298e-06 3.094618668799154e-08 7.388156799601676e-13 3.403194736721638e-15 2.636334635499329e-13 7.405023815650143e+00 7.097809487373967e-02 5.011957626827779e-13 2.035627246052409e-15 2.554530666768640e-01 1.371764571593240e-15 2.897267281674010e-02 8.758287487425431e+00 6.194274257363296e-04 3.196951137202526e+01 5.095660737107632e-05 5.114180831452631e+01 2.168932071359878e-09 1.890513806635733e-18 4.694706591813854e-10 1.004413208669623e-11 6.528198289573741e-01 5.477005337356285e-18 4.436458040785823e+01 1.076505717868957e-09 3.269341974662228e-10 5.422778590138777e-02 5.965874341783386e-03 9.948495483229575e-04 1.458898370620627e-05 1.004346368950643e-07 1.401925891923915e-02 2.308534998113118e-10 4.192046903475088e-05 2.955098291485541e+00 4.861204597674727e-10 1.010232391518208e-03 4.933394164102348e-13 1.074781909754858e-08 5.860698223720897e+01 4.270458953770568e-06 1.031998146984245e-07 1.517950490968585e-12 9.279791126711918e-03 2.694823463076793e-04 8.454904047236108e-19 2.656685464667953e-11 3.589276542637665e+01 4.126703405268601e-18 2.942481028082806e-14 6.587983043423882e-01 2.199752371763197e-04 1.270050548432570e-16 4.945545982314217e+00 1.048026174179587e-13 4.958943591356851e+01 1.981008692059272e+01 7.388244723322716e-18 4.044949978789310e-17 2.739608977594507e-01 1.232647579029195e-05 1.694243494743361e-16 1.881227021320944e-19 3.782207309984077e-05 1.698139533077804e-17 1.194134987066464e-18 1.622149465229137e+01 1.843152334742368e-17 5.465560842879444e+01 6.417973601379140e-09 1.106206910677724e-12 3.248343033556872e+01 5.134903041257206e-02 6.465918637812514e-20 7.009322160276226e-20 4.711207671055679e-14 4.590283608428085e-04 1.826696008792946e-03 1.727025893022373e-14 6.882893024598103e-15 5.749688118282964e-18 4.602684382218642e-04 4.239107207275569e-20 4.662888821863788e+01 1.333065211095012e-03 9.681865991045648e-03 7.190779135579619e-12 1.765815648621759e-08 4.024193832458049e+01 5.627280080873648e-13 1.859468179207706e+00 3.089935226450153e-03 5.268611771506584e+01 1.183552084121667e-01 4.818880371532693e-01 1.096093564876560e-18 2.978420764281715e-14 5.783207107212610e-04 1.972029500032004e-06 4.803280406230769e-06 1.818237957151627e-14 5.285761377872432e-20 5.678684413045846e-12 
</DataArray>
</PointData>
<CellData Scalars="pressure_elements_[L]," Vectors="velocity_elements_[L/T]">
<DataArray type="Float64" Name="pressure_elements_[L]" format="ascii">