<?xml version="1.0"?>
<VTKFile type="UnstructuredGrid" version="0.1" byte_order="LittleEndian">
<UnstructuredGrid>
<Piece NumberOfPoints="492" NumberOfCells="906">
<Points>
<DataArray type="Float32" NumberOfComponents="3" format="ascii">
0 0 0 0 1 0 1 1 0 1 0 0 0 0.0526315789472 0 0 0.105263157894 0 0 0.157894736842 0 0 0.210526315789 0 0 0.263157894736 0 0 0.315789473684 0 0 0.368421052631 0 0 0.421052631578 0 0 0.473684210525 0 0 0.526315789473 0 0 0.57894736842 0 0 0.631578947368 0 0 0.684210526315 0 0 0.736842105262 0 0 0.78947368421 0 0 0.842105263157 0 0 0.894736842105 0 0 0.947368421052 0 0.0526315789472 1 0 0.105263157894 1 0 0.157894736842 1 0 0.210526315789 1 0 0.263157894736 1 0 0.315789473684 1 0 0.368421052631 1 0 0.421052631578 1 0 0.473684210525 1 0 0.526315789473 1 0 0.57894736842 1 0 0.631578947368 1 0 0.684210526315 1 0 0.736842105262 1 0 0.78947368421 1 0 0.842105263157 1 0 0.894736842105 1 0 0.947368421052 1 0 1 0.947368421053 0 1 0.894736842105 0 1 0.842105263158 0 1 0.789473684211 0 1 0.736842105264 0 1 0.684210526316 0 1 0.631578947369 0 1 0.578947368422 0 1 0.526315789475 0 1 0.473684210528 0 1 0.42105263158 0 1 0.368421052633 0 1 0.315789473685 0 1 0.263157894738 0 1 0.21052631579 0 1 0.157894736843 0 1 0.105263157895 0 1 0.0526315789476 0 0.947368421053 0 0 0.894736842105 0 0 0.842105263158 0 0 0.789473684211 0 0 0.736842105264 0 0 0.684210526316 0 0 0.631578947369 0 0 0.578947368422 0 0 0.526315789475 0 0 0.473684210528 0 0 0.42105263158 0 0 0.368421052633 0 0 0.315789473685 0 0 0.263157894738 0 0 0.21052631579 0 0 0.157894736843 0 0 0.105263157895 0 0 0.0526315789476 0 0 0.500076861967 0.607318855406 0 0.679538024677 0.305143921402 0 0.265743127234 0.358362234914 0 0.77781114106 0.676271442555 0 0.260742625738 0.710864820575 0 0.192541040261 0.8072897193 0 0.812068172164 0.186744325667 0 0.842956811151 0.837013696613 0 0.188708567839 0.194286553463 0 0.165167704884 0.866772239893 0 0.883663366919 0.108402651475 0 0.968538908694 0.0727405490585 0 0.0435293236262 0.917371525352 0 0.924108131079 0.962787291126 0 0.466570263958 0.296671036101 0 0.745769161066 0.493748270945 0 0.512432740874 0.797225739181 0 0.4139184945 0.488617846661 0 0.579412318175 0.477026296051 0 0.574582472851 0.12808317387 0 0.392196750378 0.118590153634 0 0.0999254865321 0.475214648527 0 0.868006222636 0.428797930576 0 0.299104755898 0.19739792338 0 0.714007192006 0.838238249102 0 0.818936332281 0.327042725253 0 0.126042278641 0.383181438767 0 0.374434778312 0.675969479192 0 0.634551328442 0.654575075593 0 0.148290504407 0.29878194992 0 0.882395087116 0.674727742102 0 0.704519938077 0.0486230568855 0 0.0949567670092 0.254287879362 0 0.916156934142 0.283879026576 0 0.708044135643 0.961077891567 0 0.290241208015 0.0752849667269 0 0.103602412595 0.665766548754 0 0.261676299439 0.901098415492 0 0.805796471016 0.0998833298808 0 0.919340656274 0.822652116181 0 0.161821702787 0.911329484291 0 0.221625156864 0.258958962212 0 0.756983717123 0.244530594517 0 0.859014219545 0.95212768079 0 0.0440247764888 0.866383888098 0 0.947454302261 0.119256234186 0 0.0571511584233 0.133961192567 0 0.871854144096 0.0324569981089 0 0.953601959137 0.915583106496 0 0.916121987056 0.0536069078952 0 0.0754892235847 0.948948511184 0 0.054925091375 0.084075255592 0 0.133829007837 0.88896896717 0 0.88501081019 0.856835641722 0 0.840132454058 0.146198583642 0 0.373658738301 0.247789959302 0 0.621582278368 0.223199727555 0 0.168526306359 0.41604711249 0 0.268026146831 0.4562905052 0 0.812193377395 0.405286976715 0 0.362511919871 0.327300851904 0 0.346891897556 0.422021111487 0 0.581342569534 0.727411559087 0 0.57684840862 0.301936107347 0 0.440215108713 0.738177690971 0 0.71379060825 0.399832622944 0 0.625156115211 0.393937427675 0 0.437556728 0.198667489015 0 0.392686675546 0.580537603235 0 0.533200048477 0.390791130576 0 0.176874665878 0.594229457221 0 0.438532155286 0.399421189304 0 0.349822775071 0.763703885994 0 0.659346632624 0.744147341049 0 0.15708458679 0.757312204234 0 0.611608273488 0.563914494125 0 0.52236479293 0.212401268236 0 0.686919464093 0.578285485081 0 0.60227781122 0.825507684452 0 0.171601481493 0.352360362347 0 0.292070484999 0.77450198364 0 0.845036895534 0.622550083389 0 0.825429092965 0.52840046095 0 0.213314290812 0.682429843729 0 0.127450913589 0.578936166903 0 0.520985928941 0.899894577856 0 0.705856063195 0.230804937936 0 0.249931463838 0.65617106108 0 0.0901032550824 0.758493902272 0 0.661646411842 0.485470996892 0 0.83884730944 0.479857164707 0 0.495717608467 0.474994650552 0 0.422353041292 0.835348162259 0 0.907184446451 0.350418897413 0 0.66567319164 0.0827481446413 0 0.630403421878 0.0683882481638 0 0.480109226243 0.132219209576 0 0.480234645496 0.553501566677 0 0.628402947673 0.11451681651 0 0.442339959771 0.0514642771074 0 0.452210563945 0.640094218785 0 0.530472279122 0.556701985609 0 0.198030066271 0.302856337472 0 0.0443286488455 0.546728925033 0 0.349097655287 0.157365830971 0 0.858934731229 0.257610347993 0 0.904985394771 0.480428391767 0 0.548034210784 0.633119010263 0 0.767330943876 0.314637688906 0 0.220933737824 0.154108756142 0 0.725873126991 0.668246624816 0 0.850633473003 0.364919049034 0 0.758560924433 0.869345086198 0 0.0739653413768 0.312516609734 0 0.335567199196 0.686726706824 0 0.387969894929 0.0594895288395 0 0.953742700198 0.504088049092 0 0.13549032321 0.210157358713 0 0.285210703385 0.285785563377 0 0.825002186361 0.677758820402 0 0.958212797481 0.329356899968 0 0.333761905417 0.0456171279486 0 0.226873539765 0.853824847978 0 0.338807430459 0.104405022801 0 0.913622750305 0.772754826456 0 0.757967530794 0.12960304969 0 0.28395803947 0.13529108549 0 0.764455177743 0.191943299267 0 0.90211961618 0.61358782139 0 0.301916511655 0.896307872135 0 0.807395276431 0.856112886984 0 0.849983745756 0.712132947978 0 0.0508344349811 0.439668589861 0 0.750993335219 0.921459034965 0 0.225959798176 0.760653867599 0 0.759520210807 0.816732863296 0 0.110575905407 0.428698611446 0 0.797659396366 0.0404019951714 0 0.0484361978452 0.183119558659 0 0.952169023515 0.182185363798 0 0.0454111496712 0.781565776661 0 0.176501339773 0.249491375955 0 0.906694426134 0.223446044158 0 0.709353451982 0.102115283543 0 0.860534589588 0.311835958245 0 0.0454658752291 0.649104866417 0 0.157499417377 0.159730498391 0 0.248118985828 0.0425754777425 0 0.88509214239 0.722813692626 0 0.117237271011 0.338653618732 0 0.177726985916 0.108483480537 0 0.791540878407 0.147292662809 0 0.751787970401 0.0699611381809 0 0.815639508653 0.792275131753 0 0.800911303166 0.907595618738 0 0.807888801974 0.727109882276 0 0.859790344232 0.753387968722 0 0.047945601652 0.244992245355 0 0.0882871808474 0.051787708526 0 0.896784391054 0.165628303457 0 0.130469624467 0.941583723919 0 0.238710168153 0.20756046121 0 0.140120163238 0.81677964755 0 0.183554491666 0.954334503766 0 0.874643572091 0.804905564673 0 0.206418069409 0.910006314532 0 0.925122104186 0.873794712233 0 0.848936549788 0.886463368082 0 0.852058162237 0.0626752433767 0 0.898330878246 0.909094683642 0 0.957510005394 0.85924293947 0 0.0877227163258 0.206672181334 0 0.0866623886419 0.821147967526 0 0.0376770040486 0.0369288843719 0 0.96640586336 0.0357958071803 0 0.963722170506 0.964711644151 0 0.0355170315049 0.963410122496 0 0.565035968106 0.86020167323 0 0.428469752482 0.924940902336 0 0.46082886482 0.876968836549 0 0.51175949063 0.846081008376 0 0.411459848639 0.267638669487 0 0.308064041775 0.388682037049 0 0.263518601569 0.412557550062 0 0.219770906663 0.387612068358 0 0.410237838033 0.314462230561 0 0.503802390122 0.346363481669 0 0.447284232051 0.240197059568 0 0.39847824273 0.892087691632 0 0.774861897525 0.444723511697 0 0.655276404957 0.257044608095 0 0.0891011303068 0.613432590991 0 0.617872864638 0.879591362456 0 0.402640140797 0.362258079923 0 0.45142839663 0.352425087153 0 0.548756769956 0.256183146634 0 0.524814404429 0.300419154392 0 0.649559318506 0.350251407506 0 0.731025928057 0.445423539163 0 0.509910546067 0.753087866374 0 0.602797619153 0.348095628469 0 0.625990824894 0.303507519752 0 0.315437408864 0.342181030892 0 0.715292601157 0.538581689971 0 0.687672200883 0.44333344802 0 0.599811648418 0.258937748014 0 0.693248811601 0.354042596041 0 0.550367323457 0.762156034511 0 0.576327846469 0.21593814075 0 0.0671439259651 0.702696779078 0 0.337376465552 0.476659846948 0 0.497346295903 0.2515982525 0 0.59090446316 0.775024975229 0 0.553562369116 0.346712431465 0 0.558178130678 0.433930498322 0 0.64486170685 0.439531004353 0 0.468797065239 0.818155191382 0 0.0405316661437 0.732761817918 0 0.354877138576 0.375510137133 0 0.756306598678 0.534006915638 0 0.434760469923 0.786074959917 0 0.473359243589 0.767411983093 0 0.384666484264 0.627571911929 0 0.724159095579 0.793311198254 0 0.401803491572 0.534863867648 0 0.302288146535 0.441083967997 0 0.675973998946 0.531716305106 0 0.484927764458 0.392894921868 0 0.476467478978 0.206554112232 0 0.444765550214 0.689150258676 0 0.623620414396 0.608741389757 0 0.191317551876 0.47245797399 0 0.693091211447 0.705167310848 0 0.559880520661 0.680301634285 0 0.678462090206 0.789031227179 0 0.63347595868 0.783172977773 0 0.245434860236 0.495183544934 0 0.60145861387 0.436424406321 0 0.555131136039 0.812433415142 0 0.382434621854 0.456330431173 0 0.660504385824 0.616064129163 0 0.647779024103 0.698991423799 0 0.392126093189 0.409742496452 0 0.469615364233 0.436918462162 0 0.321548826665 0.301027355392 0 0.142607283954 0.458107212386 0 0.636056576146 0.525705346537 0 0.291855982988 0.494858070633 0 0.193195253577 0.0508067537398 0 0.597193329267 0.520158806747 0 0.360708243165 0.720025453666 0 0.369610181054 0.50708517255 0 0.513325963521 0.434123893132 0 0.669048126884 0.396821417756 0 0.579058816084 0.391648587138 0 0.706126748338 0.624194527133 0 0.514127319169 0.514934044811 0 0.125637256724 0.712623663005 0 0.74233996502 0.35814912666 0 0.456218519061 0.595989658239 0 0.226099062256 0.440024792506 0 0.498868508038 0.170918224758 0 0.65711
[...]
<CellData Scalars="pressure" Vectors="transport_vector">
<DataArray type="Float64" Name="pressure" format="ascii">
0.778715014458 -3.55281457165e-38 0.064944691956 0.0141199119389 1.22280821256e-38 0.475255191326 -3.19185942516e-39 0.00386269297451 0.165165796876 0.0465918667614 0.680652201176 -3.89771381118e-34 0.050437361002 0.0147645445541 -4.69619732738e-37 5.46801178232e-38 -4.66083483196e-37 0.00203853845596 7.68717534072e-09 0.647206187248 6.32820424839e-31 -4.13445368724e-19 -2.29077447372e-31 -2.10226427784e-37 0.000662335951347 0.669265210629 0.000786961463746 0.709692895412 0.0753466263413 -7.04890637719e-23 -6.47562664233e-22 -5.36889805408e-29 -9.3564094064e-24 -8.51769406969e-24 -3.75506080088e-26 4.36886267607e-07 0.00398658216 0.00101155042648 -2.7852666448e-29 -6.46740448686e-27 3.19631936918e-07 8.08996077261e-32 1.90423431535e-31 1.53277767731e-30 0.0152780497447 4.68476102355e-09 0.00551163265482 0.0166256893426 0.00346643012017 6.35048362792e-32 -1.90400991348e-32 1.10813844003e-05 4.4854891712e-06 1.28351512103e-05 0.00515780504793 0.0336492918432 -4.84009780143e-30 0.000107391977508 0.0175444539636 0.0797830671072 1.29059568117e-34 -5.151076185e-38 -8.36861864205e-36 0.768173277378 0.47945317626 0.578984498978 0.457177191973 0.741720497608 0.176259890199 -2.02998507884e-37 -7.57155254216e-36 -2.2981758925e-37 9.75494549493e-05 8.07063188404e-05 0.478970110416 0.194521248341 -4.64351004767e-35 -4.20251534941e-36 0.164255440235 0.217130556703 -2.52725563645e-36 0.0234688762575 3.31910794385e-28 0.00358133949339 -8.28526005276e-17 0.000644118408673 0.00415456853807 2.48580218909e-11 9.79052804279e-26 -6.89973098536e-25 2.52802624345e-06 7.61287011836e-25 -4.44196026806e-23 1.39877502079e-05 7.076554175e-05 4.33979714387e-08 3.78200667228e-07 0.00171842426062 -8.77104231702e-31 -4.69671471508e-32 9.69599132077e-05 0.000746546371374 0.00107856001705 0.000487600103952 -1.94773226129e-30 5.99110162083e-31 1.37112365337e-05 2.484180186e-06 2.83357347198e-37 -4.24324532466e-34 5.31815748506e-38 3.42110787423e-37 1.99957988861e-35 2.46515295837e-36 5.15314761803e-36 1.00611786401e-38 -4.56141599819e-21 -4.04517847479e-20 -9.05155671719e-37 -2.16898654041e-27 0.00327923172154 0.0133810071275 0.0346717275679 0.000319603394018 0.00161349365953 3.44082566074e-32 1.53279841416e-38 2.53705927745e-39 0.701933801174 0.444541841745 0.17640426755 0.10368975997 3.93704467569e-05 0.000952985312324 0.000227375305258 1.90114551515e-05 0.667766749859 0.395253241062 0.108484879136 5.8123674979e-28 4.34780881709e-29 0.00653110863641 0.00928247068077 1.10862892196e-29 5.06846891776e-32 2.53820639552e-31 1.09377238488e-30 -3.21716083559e-17 -4.82300083711e-16 1.66339543276e-25 9.6791227997e-30 1.23522683212e-26 5.14469602557e-20 1.68068754057e-19 -2.95260705478e-35 -7.95956657247e-14 1.66586097433e-21 2.98090560358e-19 5.79263664187e-18 5.74961597083e-17 5.35588800483e-15 2.93929446116e-07 1.36233854059e-11 8.92304494182e-11 3.95941786302e-11 4.98186024119e-25 1.97722780371e-08 -1.0151492277e-12 5.7027651915e-14 2.31391350525e-10 -4.19637459775e-16 2.4709469378e-15 -2.10169770484e-37 1.56280153368e-18 1.77134600424e-16 -3.11482000674e-14 4.07881939487e-15 6.92951148936e-14 4.61039678656e-10 -1.44862550939e-19 -6.42428621665e-37 3.42668914961e-35 -4.49396196889e-35 8.98246314714e-23 6.35295359664e-22 2.41040485349e-08 -3.95713459824e-19 -7.57887097069e-17 -1.71909092045e-17 4.71312446848e-08 7.41569766804e-23 1.48722984051e-23 -8.28409896236e-10 5.13945605197e-16 1.09091603563e-19 4.92569629529e-09 -7.38932298596e-14 -1.45716581162e-11 4.8285605115e-13 2.00409723539e-11 -1.50926685293e-14 -1.6462723781e-15 6.97564934565e-22 -6.52374682053e-12 -2.48164370997e-11 8.11743095877e-20 5.89782078962e-21 2.55568617187e-17 2.68756962635e-24 -5.87923426095e-33 1.51845883957e-30 1.6628286829e-31 -2.51148876002e-11 2.59596325234e-25 -2.14212198327e-12 -1.04171583224e-23 -2.35397265419e-21 1.12381121187e-14 1.50959556524e-15 8.84676637503e-11 3.67146024693e-09 2.07452544726e-12 7.79037004719e-14 -6.73215039271e-10 -3.10606875879e-16 9.66945007803e-35 5.66652010931e-34 2.40737687562e-08 -8.66059590268e-18 -7.78017598135e-19 2.98836688709e-26 1.30946123767e-17 7.93710732447e-14 9.06710095894e-10 5.50593348692e-08 5.70732039407e-09 8.55155602376e-20 3.31013320675e-18 -4.23397821252e-14 -9.89613556032e-13 3.82924797979e-24 5.35886402671e-23 -3.65349430737e-17 -8.34350746452e-17 -1.54400386072e-20 -8.96288361947e-23 -5.55379564584e-21 -4.34314024054e-20 -1.28778519966e-12 -3.46804948944e-36 -6.22025692707e-35 -9.41625986914e-16 -1.09374908083e-14 -8.44435520722e-16 4.70564419335e-30 -8.26606781613e-14 -2.42370049879e-15 2.14011657748e-21 7.99015306566e-20 5.74696940737e-26 -2.81164021644e-20 -5.20340900818e-18 1.00685813565e-21 6.86418288745e-14 -2.97967714938e-16 -1.90108170151e-22 2.62884113188e-16 5.96682068243e-15 1.84930820524e-06 6.02383579462e-06 1.62115134523e-19 1.41648945373e-06 -5.7134754314e-21 -3.51848750689e-22 -7.85648698876e-11 -1.01952495925e-12 7.594398721e-11 0.000118675547128 2.21158825298e-05 6.21953961413e-27 -4.20324436268e-28 -1.29631171291e-17 3.15352682368e-17 3.68693486924e-23 9.24323626549e-24 2.94070487143e-05 1.20122780814e-19 -2.68425873188e-19 -5.23450267777e-15 1.32301335123e-17 2.14802939094e-15 -6.53692171329e-15 -2.15325543678e-19 5.25030196515e-26 0.00426423037425 0.00041069262079 3.11651774609e-06 3.33015551135e-27 1.43368918353e-29 -1.01238764476e-29 -1.7274043635e-28 3.92547990486e-05 1.43894623877e-30 -2.18028411731e-31 -2.36475797227e-31 3.32015417144e-31 -8.14577472141e-09 -5.73769076695e-09 0.00249541760422 0.00657585822046 -6.13314217121e-12 1.44859749196e-10 -1.54467313506e-13 -4.8927398591e-12 0.175169453025 0.0852111801505 1.13575896682e-21 -1.27104645303e-18 1.72960154131e-20 4.22572289165e-22 0.000241781453951 0.0004306116316 2.29612323892e-05 -1.40376066007e-32 -4.38344635221e-32 -2.92844512931e-31 0.662767291069 -9.83281670656e-23 -1.20758708222e-20 -3.5984618468e-22 -6.87415917164e-24 1.93979758478e-06 4.90484183047e-07 1.1626539731e-09 1.23478047231e-10 -6.96672191407e-20 -1.67977668264e-22 -5.98322173057e-13 3.66283491615e-22 5.38871357673e-24 -1.96471602876e-10 -2.3830727322e-11 1.85263455678e-18 2.10458115686e-19 0.517089784145 0.188662722707 -4.13882415753e-13 -2.76210803361e-13 -6.93812410606e-26 1.51015100425e-09 -2.13765966543e-34 -5.86525478603e-25 0.0178462322801 1.22220614534e-31 3.12789642799e-32 0.000224359289859 -1.8451519479e-10 -6.51960299983e-12 0.00138903909829 4.69539727979e-32 -1.95117635818e-28 0.439215749502 0.137423560023 0.0681833103299 5.48183855919e-33 -8.75497860999e-35 0.000153725413838 0.000114071095595 -1.07647354572e-12 -5.71137968598e-15 2.97699140031e-31 2.06479885031e-31 -6.20250514896e-26 -6.09710347126e-25 -8.9061722124e-28 -9.3603679766e-14 0.0174001790583 -6.92182593407e-23 -6.26982506118e-30 1.03650961157e-26 5.87753170578e-08 1.68769162201e-07 7.35692912804e-27 1.67989662714e-06 0.000690607179422 0.759918928146 0.714946389198 0.472222149372 -1.51115098265e-27 0.703047692776 -7.78503092585e-33 -1.3877822021e-33 -9.64369836458e-37 -1.19196454483e-35 -3.14693518682e-16 -1.83015126661e-15 -1.43805704922e-20 -4.19066581205e-21 -3.36244915449e-17 -3.29092669331e-18 1.56049056392e-22 8.20594166731e-22 1.49847548438e-20 1.285412873e-22 2.83435036188e-25 1.37531282254e-24 3.46410564489e-23 7.9620275478e-24 2.3387631391e-28 3.41317580309e-27 5.39052460396e-19 4.3589200032e-20 6.56177069535e-15 7.36488530193e-16 5.66289501715e-18 5.11188916618e-17 1.33363583922e-17 1.46665667672e-18 1.50338124172e-07 7.90793251326e-07 5.09040037286e-05 7.38637800168e-06 5.50812975959e-13 7.64812605608e-12 1.03758630001e-21 7.13377362372e-21 3.70794297489e-17 4.42183491598e-16 1.45259143798e-13 2.56298752837e-14 4.96941680514e-13 4.08653406253e-12 3.18420290135e-09 4.83588669109e-10 2.10024064806e-09 1.22224532717e-08 -5.57819730755e-15 -5.50216455971e-16 -1.77465169094e-18 -1.09634427398e-17 3.42067005147e-14 2.63815147028e-13 4.02784520412e-26 2.07911169452e-25 -3.32637917211e-08 9.99125851497e-11 6.10599695805e-11 1.16017362384e-10 6.36835806311e-10 1.77995289619e-07 2.1231835845e-08 -2.34550419587e-14 -9.37474720791e-15 8.48786343971e-21 8.65802737602e-22 1.15626981499e-24 9.33478357354e-24 -3.34690912138e-12 -6.90410022989e-13 1.48272609197e-15 1.14580120362e-14 3.29344624489e-12 4.96434599158e-13 2.40261608352e-12 1.55974452104e-11 -4.91171989518e-19 -2.3393647932e-18 -1.75334441178e-21 -1.59607278002e-20 4.98904098563e-23 1.30665343124e-20 2.33687671308e-21 -3.44924089291e-11 6.60638654892e-10 2.75267143752e-22 -1.01997201151e-18 -4.0167861465e-20 -9.10629037454e-12 -4.45953447781e-11 2.67647244149e-16 1.860669599e-16 1.14391995982e-18 1.19373794619e-18 -1.49875784357e-22 -1.56162339342e-21 -2.16880221885e-18 -1.21925927687e-10 -2.54391369081e-11 -3.8906296804e-14 -3.0637347043e-13 7.35297483276e-29 4.35224785052e-32 6.9098120519e-31 -6.89602758577e-12 -3.00064209591e-11 -2.47278217867e-13 -3.34097577078e-14 3.30220204479e-12 3.37109645754e-11 6.50358808828e-26 3.98422631426e-19 4.85601483855e-20 -3.69102165498e-10 -1.63281999033e-10 2.89386843318e-31 -2.25133374942e-13 -1.09264236114e-12 1.89904881154e-07 5.50235270194e-19 5.11926778268e-18 4.00856986861e-24 8.52605993959e-25 -1.92203878139e-13 -1.73580713605e-12 -1.33109448892e-14 -8.17577207107e-14 2.72110791363e-22 -9.2184513287e-21 -1.03789134306e-21 1.73724402986e-29 -9.78942997493e-15 -2.55657307492e-15 6.42067244597e-21 4.08646286529e-21 6.7581637545e-15 5.21293563075e-16 1.40491609109e-29 -1.94850781415e-19 -1.41229922655e-18 3.25827105029e-17 1.72858725167e-16 4.72235896137e-26 -2.90879748673e-22 -9.65868620435e-15 -4.71697943834e-14 -1.63259624203e-18 -6.80537909483e-18 1.05742806557e-32 5.48240823264e-05 3.95399547415e-06 0.000168942060554 -3.44526051517e-22 8.30200629582e-21 2.29386387218e-06 -8.06570955227e-20 5.17510848401e-21 4.50223408902e-13 1.25402448571e-14 -4.91129890119e-24 -2.01139272613e-17 -6.96794532569e-30 -1.30370772019e-28 2.29869639346e-29 1.293797795e-30 -8.36040111396e-38 -1.21354005254e-37 2.16521481996e-36 2.30761608251e-33 1.00369768816e-32 4.12649827467e-32 2.12901642996e-32 -1.10013740714e-36 6.15593706748e-35 3.87589691154e-34 3.13983981794e-33 -7.6106504715e-34 -4.64506510961e-33 -1.37386177759e-34 1.21071120648e-32 -3.0383978146e-32 -3.48338684348e-31 -3.87695632582e-33 -1.44416863103e-31 0.000345120643033 0.00015020025603 1.64027351275e-05 1.44046849102e-11 -5.21808526863e-37 -9.95236309927e-35 -1.53188706475e-33 -8.89654360129e-36 3.04118993342e-29 9.67309569222e-29 5.17329434966e-27 4.83949698652e-28 0.0339913368225 -1.86330932258e-18 -4.96167382868e-17 -4.02933811237e-16 -4.73472465153e-16 9.56148138442e-09 3.14013348657e-09 9.96398412667e-08 1.08074173113e-05 1.0513680536e-05 1.24664325085e-06 1.51044491759e-06 2.84318612103e-05 0.413669973612 0.126767039299 -1.20358015034e-23 0.0503489822149 0.0798906981945 0.0223571695387 0.00582388695329 0.00307249720208 4.89110396629e-09 1.89566208064e-07 -2.13570103824e-08 3.8748718123e-10 2.61440931126e-08 2.47293718836e-09 2.42908634226e-32 4.63280623142e-23 -7.87633122108e-23 -1.2979926012e-23 -3.9338328709e-23 1.3557288972e-12 1.87573914734e-13 2.92519112231e-12 3.93151358908e-13 -4.07811622517e-17 -4.71703466621e-18 -5.13492230812e-16 3.94549175553e-07 4.23513411079e-05 8.65723905008e-06 1.36034384468e-06 0.00724566541612 0.0087551260367 2.67323024437e-27 2.91269425733e-30 7.50097111377e-29 3.53486684617e-05 0.000129891966935 0.000300476502161 8.79161845546e-08 4.37226965744e-09 -7.32473948049e-34 -8.84816007014e-35 -2.14095819556e-35 2.40900959817e-30 4.94086523969e-29 5.2391109893e-30 5.37458680727e-31 -4.24875729113e-34 -7.69400872484e-33 -1.34048850115e-31 6.51329664847e-32 -1.07612699201e-26 -1.14566971844e-25 1.04071809305e-30 4.2667708384e-31 9.57999191087e-09 1.22009339857e-36 -5.55723563929e-35 9.76478866674e-32 1.06067029939e-31 8.16985030742e-31 -6.96925621348e-34 -3.20028750271e-34 0.0151312146336 0.109565779567 0.0633682310581 8.0515235767e-33 5.96171383227e-34 2.65452632228e-32 0.504289329052 0.174742639065 1.13150103703e-25 6.78454554759e-08 2.5001670565e-06 3.93825246192e-07 -1.27433544247e-36 -5.16888276485e-38 -1.90526394571e-27 6.89366822626e-29 -3.83321062764e-28 -3.2563946093e-28 8.75117089905e-10 7.26387783256e-10 -8.14747269651e-10 1.23065613256e-09 -2.64647481707e-09 4.84421947e-10 -6.6572647793e-28 1.50506119217e-27 1.57625588886e-27 -3.56481059679e-34 3.60362113842e-35 -1.21553003537e-33 9.50657996768e-10 1.12359746507e-10 3.28797708539e-33 4.40205001968e-34 5.49253526464e-26 5.76825868619e-35 7.97624069404e-34 1.00684246718e-06 5.00411306348e-06 1.00678146375e-11 -9.57849964646e-36 -9.1579309562e-35 -1.56246572434e-37 -4.73841026653e-36 -3.75233592488e-34 -3.54900148347e-33 -8.38779736149e-17 -2.38173405951e-17 -3.05935293133e-18 -4.63175131108e-19 -1.88129903395e-20 -3.96432738603e-20 5.22803883518e-11 -2.26190214562e-13 6.77610051403e-11 1.06879453204e-11 0.735839545727 0.119558684528 -3.69916452069e-25 1.23545244326e-25 0.574442207813 0.112999603152 0.335258543491 -2.82593863944e-25 -2.15162900527e-23 -1.87756665723e-24 -4.27994038541e-37 -5.06744034757e-36 8.02896082952e-11 3.93424537393e-09 1.06533792898e-09 -1.61312214078e-24 -1.18202073957e-23 -1.85002574809e-24 1.33103004572e-28 2.14114297662e-31 1.64330923433e-28 -1.07030860357e-26 -7.48695127785e-26 1.12970231091e-25 1.36194370096e-26 7.95353427686e-25 2.94327477945e-08 4.92570251254e-08 -5.56715887791e-32 -6.38585028564e-33 -6.69244245773e-31 5.32709781235e-13 2.17691329915e-14 3.23805934323e-12 6.10203172967e-32 1.17334517981e-32 2.99884322885e-06 5.67481919234e-08 8.45541194394e-07 0.0160402618349 0.0400923602283 0.000386044586776 0.00375546119176 0.0100314896554 0.00247787078843 0.0025174417533 0.000293273915304 0.0218308903277 6.05781944522e-29 4.58222217657e-30 0.0314469262958 -3.2734774085e-34 2.02074682253e-35 1.0188276579e-35 4.1352462072e-36 -1.41637027865e-17 -4.36145565464e-15 -4.90846752027e-16 9.39603160077e-06 2.12091140384e-06 7.84175790614e-05 1.39773965202e-05 0.509518563747 0.0711142644286 0.182786658406 1.65963709442e-09 9.6781548109e-08 6.76279086065e-08 0.592711210251 0.39673820138 1.0181040736e-22 -1.82056475151e-21 -4.18250675624e-23 0.00951108243316 0.0382668301463 3.21230689209e-38 1.18940124036e-36 2.66302827423e-37 0.0802636668086 0.330536901951 1.891879986e-09 7.89631187104e-08 2.70848687478e-07 1.1580278958e-08 -2.94461166928e-24 -2.74622340681e-24 -1.95055688023e-23 1.03268686558e-24 -4.62436769014e-18 -1.23988609407e-19 -4.00972150708e-20 0.0295089259744 -6.4504730235e-24 -9.57415237118e-25 -8.18812474678e-25 0.000260303146206 0.00165473041125 0.000393489783164 0.00126218807418 7.06234359882e-08 3.26054405697e-10 0.480859547853 7.09425989953e-07 5.98752876613e-06 4.98691633766e-07 0.000155882808031 0.00051772891311 4.70815157694e-11 4.32925466309e-11 -1.34362239076e-17 -1.17686563304e-18 0.16218277812 0.10961676389 -2.20798777735e-26 -1.34971866805e-26 6.65443096182e-08 2.4552255784e-09 -1.1149218087e-23 9.56386562497e-25 -5.71248576172e-30 1.82920420553e-28 -6.31152099309e-29 1.08242293404e-26 1.17723207408e-26 0.711953401566 0.350536465645 0.387047469616 6.113074307e-38 2.2607148125e-37 1.48894297946e-36 0.655501484871 6.99737845618e-24 5.19921212818e-25 1.62330834428e-05 0.000135792797664 3.88386433769e-06 5.45178636457e-06 2.0062441763e-05 6.12923497386e-28 7.62498930217e-27 1.62244310746e-28 -1.40115634269e-16 -2.06230486565e-17 2.47898134176e-14 1.41902455566e-15 0.324904948473 0.0676975622773 1.22480702761e-34 1.34491164762e-33 1.31378676126e-33 6.4145022028e-35 1.18789178407e-35 0.625383377075 0.373549729586 0.0990653187037 1.8398127466e-09 5.98730398593e-10 5.73314867802e-11 1.75478187536e-10 9.82357342611e-25 3.74001019762e-26 7.68292281564e-27 3.01604227704e-13 4.6666572516e-12 -8.08572433726e-14 1.40098584464e-26 9.75961809497e-29 3.6996967861e-27 5.07920804964e-27 1.35725975659e-36 7.54596631197e-36 5.34424854143e-38 4.24423141442e-24 3.0250253495e-23 1.12255636509e-24 2.19352692318e-37 2.61534632501e-36 -3.89994043597e-15 -1.6363327641e-15 -2.16886166145e-12 -4.33930208389e-13 1.66934382984e-11 -5.61711118699e-14 2.38934998094e-26 3.32581253932e-27 1.18379624037e-27 1.20780181836e-23 9.2581428967e-23 7.97836501492e-23 
</DataArray>
<DataArray type="Float64" Name="transport_vector" NumberOfComponents="3" format="ascii">