<?xml version="1.0"?>
<VTKFile type="UnstructuredGrid" version="0.1" byte_order="LittleEndian">
<UnstructuredGrid>
<Piece NumberOfPoints="492" NumberOfCells="906">
<Points>
<DataArray type="Float32" NumberOfComponents="3" format="ascii">
0 0 0 0 1 0 1 1 0 1 0 0 0 0.0526315789472 0 0 0.105263157894 0 0 0.157894736842 0 0 0.210526315789 0 0 0.263157894736 0 0 0.315789473684 0 0 0.368421052631 0 0 0.421052631578 0 0 0.473684210525 0 0 0.526315789473 0 0 0.57894736842 0 0 0.631578947368 0 0 0.684210526315 0 0 0.736842105262 0 0 0.78947368421 0 0 0.842105263157 0 0 0.894736842105 0 0 0.947368421052 0 0.0526315789472 1 0 0.105263157894 1 0 0.157894736842 1 0 0.210526315789 1 0 0.263157894736 1 0 0.315789473684 1 0 0.368421052631 1 0 0.421052631578 1 0 0.473684210525 1 0 0.526315789473 1 0 0.57894736842 1 0 0.631578947368 1 0 0.684210526315 1 0 0.736842105262 1 0 0.78947368421 1 0 0.842105263157 1 0 0.894736842105 1 0 0.947368421052 1 0 1 0.947368421053 0 1 0.894736842105 0 1 0.842105263158 0 1 0.789473684211 0 1 0.736842105264 0 1 0.684210526316 0 1 0.631578947369 0 1 0.578947368422 0 1 0.526315789475 0 1 0.473684210528 0 1 0.42105263158 0 1 0.368421052633 0 1 0.315789473685 0 1 0.263157894738 0 1 0.21052631579 0 1 0.157894736843 0 1 0.105263157895 0 1 0.0526315789476 0 0.947368421053 0 0 0.894736842105 0 0 0.842105263158 0 0 0.789473684211 0 0 0.736842105264 0 0 0.684210526316 0 0 0.631578947369 0 0 0.578947368422 0 0 0.526315789475 0 0 0.473684210528 0 0 0.42105263158 0 0 0.368421052633 0 0 0.315789473685 0 0 0.263157894738 0 0 0.21052631579 0 0 0.157894736843 0 0 0.105263157895 0 0 0.0526315789476 0 0 0.500076861967 0.607318855406 0 0.679538024677 0.305143921402 0 0.265743127234 0.358362234914 0 0.77781114106 0.676271442555 0 0.260742625738 0.710864820575 0 0.192541040261 0.8072897193 0 0.812068172164 0.186744325667 0 0.842956811151 0.837013696613 0 0.188708567839 0.194286553463 0 0.165167704884 0.866772239893 0 0.883663366919 0.108402651475 0 0.968538908694 0.0727405490585 0 0.0435293236262 0.917371525352 0 0.924108131079 0.962787291126 0 0.466570263958 0.296671036101 0 0.745769161066 0.493748270945 0 0.512432740874 0.797225739181 0 0.4139184945 0.488617846661 0 0.579412318175 0.477026296051 0 0.574582472851 0.12808317387 0 0.392196750378 0.118590153634 0 0.0999254865321 0.475214648527 0 0.868006222636 0.428797930576 0 0.299104755898 0.19739792338 0 0.714007192006 0.838238249102 0 0.818936332281 0.327042725253 0 0.126042278641 0.383181438767 0 0.374434778312 0.675969479192 0 0.634551328442 0.654575075593 0 0.148290504407 0.29878194992 0 0.882395087116 0.674727742102 0 0.704519938077 0.0486230568855 0 0.0949567670092 0.254287879362 0 0.916156934142 0.283879026576 0 0.708044135643 0.961077891567 0 0.290241208015 0.0752849667269 0 0.103602412595 0.665766548754 0 0.261676299439 0.901098415492 0 0.805796471016 0.0998833298808 0 0.919340656274 0.822652116181 0 0.161821702787 0.911329484291 0 0.221625156864 0.258958962212 0 0.756983717123 0.244530594517 0 0.859014219545 0.95212768079 0 0.0440247764888 0.866383888098 0 0.947454302261 0.119256234186 0 0.0571511584233 0.133961192567 0 0.871854144096 0.0324569981089 0 0.953601959137 0.915583106496 0 0.916121987056 0.0536069078952 0 0.0754892235847 0.948948511184 0 0.054925091375 0.084075255592 0 0.133829007837 0.88896896717 0 0.88501081019 0.856835641722 0 0.840132454058 0.146198583642 0 0.373658738301 0.247789959302 0 0.621582278368 0.223199727555 0 0.168526306359 0.41604711249 0 0.268026146831 0.4562905052 0 0.812193377395 0.405286976715 0 0.362511919871 0.327300851904 0 0.346891897556 0.422021111487 0 0.581342569534 0.727411559087 0 0.57684840862 0.301936107347 0 0.440215108713 0.738177690971 0 0.71379060825 0.399832622944 0 0.625156115211 0.393937427675 0 0.437556728 0.198667489015 0 0.392686675546 0.580537603235 0 0.533200048477 0.390791130576 0 0.176874665878 0.594229457221 0 0.438532155286 0.399421189304 0 0.349822775071 0.763703885994 0 0.659346632624 0.744147341049 0 0.15708458679 0.757312204234 0 0.611608273488 0.563914494125 0 0.52236479293 0.212401268236 0 0.686919464093 0.578285485081 0 0.60227781122 0.825507684452 0 0.171601481493 0.352360362347 0 0.292070484999 0.77450198364 0 0.845036895534 0.622550083389 0 0.825429092965 0.52840046095 0 0.213314290812 0.682429843729 0 0.127450913589 0.578936166903 0 0.520985928941 0.899894577856 0 0.705856063195 0.230804937936 0 0.249931463838 0.65617106108 0 0.0901032550824 0.758493902272 0 0.661646411842 0.485470996892 0 0.83884730944 0.479857164707 0 0.495717608467 0.474994650552 0 0.422353041292 0.835348162259 0 0.907184446451 0.350418897413 0 0.66567319164 0.0827481446413 0 0.630403421878 0.0683882481638 0 0.480109226243 0.132219209576 0 0.480234645496 0.553501566677 0 0.628402947673 0.11451681651 0 0.442339959771 0.0514642771074 0 0.452210563945 0.640094218785 0 0.530472279122 0.556701985609 0 0.198030066271 0.302856337472 0 0.0443286488455 0.546728925033 0 0.349097655287 0.157365830971 0 0.858934731229 0.257610347993 0 0.904985394771 0.480428391767 0 0.548034210784 0.633119010263 0 0.767330943876 0.314637688906 0 0.220933737824 0.154108756142 0 0.725873126991 0.668246624816 0 0.850633473003 0.364919049034 0 0.758560924433 0.869345086198 0 0.0739653413768 0.312516609734 0 0.335567199196 0.686726706824 0 0.387969894929 0.0594895288395 0 0.953742700198 0.504088049092 0 0.13549032321 0.210157358713 0 0.285210703385 0.285785563377 0 0.825002186361 0.677758820402 0 0.958212797481 0.329356899968 0 0.333761905417 0.0456171279486 0 0.226873539765 0.853824847978 0 0.338807430459 0.104405022801 0 0.913622750305 0.772754826456 0 0.757967530794 0.12960304969 0 0.28395803947 0.13529108549 0 0.764455177743 0.191943299267 0 0.90211961618 0.61358782139 0 0.301916511655 0.896307872135 0 0.807395276431 0.856112886984 0 0.849983745756 0.712132947978 0 0.0508344349811 0.439668589861 0 0.750993335219 0.921459034965 0 0.225959798176 0.760653867599 0 0.759520210807 0.816732863296 0 0.110575905407 0.428698611446 0 0.797659396366 0.0404019951714 0 0.0484361978452 0.183119558659 0 0.952169023515 0.182185363798 0 0.0454111496712 0.781565776661 0 0.176501339773 0.249491375955 0 0.906694426134 0.223446044158 0 0.709353451982 0.102115283543 0 0.860534589588 0.311835958245 0 0.0454658752291 0.649104866417 0 0.157499417377 0.159730498391 0 0.248118985828 0.0425754777425 0 0.88509214239 0.722813692626 0 0.117237271011 0.338653618732 0 0.177726985916 0.108483480537 0 0.791540878407 0.147292662809 0 0.751787970401 0.0699611381809 0 0.815639508653 0.792275131753 0 0.800911303166 0.907595618738 0 0.807888801974 0.727109882276 0 0.859790344232 0.753387968722 0 0.047945601652 0.244992245355 0 0.0882871808474 0.051787708526 0 0.896784391054 0.165628303457 0 0.130469624467 0.941583723919 0 0.238710168153 0.20756046121 0 0.140120163238 0.81677964755 0 0.183554491666 0.954334503766 0 0.874643572091 0.804905564673 0 0.206418069409 0.910006314532 0 0.925122104186 0.873794712233 0 0.848936549788 0.886463368082 0 0.852058162237 0.0626752433767 0 0.898330878246 0.909094683642 0 0.957510005394 0.85924293947 0 0.0877227163258 0.206672181334 0 0.0866623886419 0.821147967526 0 0.0376770040486 0.0369288843719 0 0.96640586336 0.0357958071803 0 0.963722170506 0.964711644151 0 0.0355170315049 0.963410122496 0 0.565035968106 0.86020167323 0 0.428469752482 0.924940902336 0 0.46082886482 0.876968836549 0 0.51175949063 0.846081008376 0 0.411459848639 0.267638669487 0 0.308064041775 0.388682037049 0 0.263518601569 0.412557550062 0 0.219770906663 0.387612068358 0 0.410237838033 0.314462230561 0 0.503802390122 0.346363481669 0 0.447284232051 0.240197059568 0 0.39847824273 0.892087691632 0 0.774861897525 0.444723511697 0 0.655276404957 0.257044608095 0 0.0891011303068 0.613432590991 0 0.617872864638 0.879591362456 0 0.402640140797 0.362258079923 0 0.45142839663 0.352425087153 0 0.548756769956 0.256183146634 0 0.524814404429 0.300419154392 0 0.649559318506 0.350251407506 0 0.731025928057 0.445423539163 0 0.509910546067 0.753087866374 0 0.602797619153 0.348095628469 0 0.625990824894 0.303507519752 0 0.315437408864 0.342181030892 0 0.715292601157 0.538581689971 0 0.687672200883 0.44333344802 0 0.599811648418 0.258937748014 0 0.693248811601 0.354042596041 0 0.550367323457 0.762156034511 0 0.576327846469 0.21593814075 0 0.0671439259651 0.702696779078 0 0.337376465552 0.476659846948 0 0.497346295903 0.2515982525 0 0.59090446316 0.775024975229 0 0.553562369116 0.346712431465 0 0.558178130678 0.433930498322 0 0.64486170685 0.439531004353 0 0.468797065239 0.818155191382 0 0.0405316661437 0.732761817918 0 0.354877138576 0.375510137133 0 0.756306598678 0.534006915638 0 0.434760469923 0.786074959917 0 0.473359243589 0.767411983093 0 0.384666484264 0.627571911929 0 0.724159095579 0.793311198254 0 0.401803491572 0.534863867648 0 0.302288146535 0.441083967997 0 0.675973998946 0.531716305106 0 0.484927764458 0.392894921868 0 0.476467478978 0.206554112232 0 0.444765550214 0.689150258676 0 0.623620414396 0.608741389757 0 0.191317551876 0.47245797399 0 0.693091211447 0.705167310848 0 0.559880520661 0.680301634285 0 0.678462090206 0.789031227179 0 0.63347595868 0.783172977773 0 0.245434860236 0.495183544934 0 0.60145861387 0.436424406321 0 0.555131136039 0.812433415142 0 0.382434621854 0.456330431173 0 0.660504385824 0.616064129163 0 0.647779024103 0.698991423799 0 0.392126093189 0.409742496452 0 0.469615364233 0.436918462162 0 0.321548826665 0.301027355392 0 0.142607283954 0.458107212386 0 0.636056576146 0.525705346537 0 0.291855982988 0.494858070633 0 0.193195253577 0.0508067537398 0 0.597193329267 0.520158806747 0 0.360708243165 0.720025453666 0 0.369610181054 0.50708517255 0 0.513325963521 0.434123893132 0 0.669048126884 0.396821417756 0 0.579058816084 0.391648587138 0 0.706126748338 0.624194527133 0 0.514127319169 0.514934044811 0 0.125637256724 0.712623663005 0 0.74233996502 0.35814912666 0 0.456218519061 0.595989658239 0 0.226099062256 0.440024792506 0 0.498868508038 0.170918224758 0 0.65711
[...]
<CellData Scalars="pressure" Vectors="transport_vector">
<DataArray type="Float64" Name="pressure" format="ascii">
0.715351462364 3.93169316628e-40 0.0278454553336 0.00391757348552 -5.40435976139e-40 0.367790579796 -4.75600698792e-42 0.000851412769407 0.0890985503793 0.0181002747267 0.600855529308 6.14174005311e-37 0.0195569656789 0.0043353526853 -3.52135093697e-40 -4.97068591265e-41 -2.96979986141e-40 0.000278594990959 -2.42505425463e-11 0.564268290997 7.61481475207e-34 -3.09730328475e-21 -5.43014610328e-34 -4.37111233872e-40 9.49876193772e-05 0.591346681118 6.98699732311e-05 0.631019592285 0.03259434551 -3.26821843634e-25 -3.47763689711e-24 -4.03395242728e-31 -9.78040165722e-26 -1.41420955698e-25 -1.21570042545e-28 1.54219907955e-08 0.000539117259905 0.000113347465231 -1.68873481515e-31 -1.8406815142e-29 4.79529260744e-09 8.50665141058e-35 6.42242416228e-35 5.81643834254e-34 0.00450945273042 4.76406518402e-11 0.00123359670397 0.0052779908292 0.00049872463569 7.23723747181e-35 -5.22284939643e-35 4.50200388968e-07 2.64130108008e-07 -1.93836413587e-07 0.00119294598699 0.0123132336885 1.55688551333e-33 7.75462467573e-06 0.00572474347427 0.0371389277279 1.93251053345e-37 1.53147909166e-41 -6.51508357486e-39 0.703085422516 0.380985826254 0.478249281645 0.357985943556 0.672242820263 0.100104652345 6.24235025604e-40 1.55371363452e-38 2.56284316919e-39 6.86457360644e-06 8.05002855486e-06 0.368488013744 0.113126546144 8.77332173245e-38 2.26058519239e-38 0.0919460728765 0.133694112301 -1.95869996097e-39 0.00784218404442 1.22549640104e-30 0.000709646905307 1.94217127462e-18 8.59481660882e-05 0.000856611994095 -9.36562906764e-14 6.8060457564e-28 -5.07759142405e-27 6.85295233893e-08 5.0960422181e-27 -2.09716280418e-25 1.13817304737e-06 -1.3669771306e-06 6.26052487629e-10 1.21629533112e-08 0.000144176214235 -1.06666532058e-32 -1.72766778406e-34 9.84021062322e-06 0.000122782264953 0.000149947256432 6.18548510829e-05 -1.05977089928e-32 5.81534724501e-33 1.01115506368e-06 1.22608298625e-07 1.48184510005e-40 -3.07524431984e-37 9.54704643744e-42 4.32547204774e-40 2.95188173821e-38 3.45720229587e-39 -4.21712925567e-39 5.30293377854e-41 -2.62265359193e-23 -2.63769489747e-22 -3.43185280665e-39 -3.68391879762e-30 0.00074026256334 0.00394194154069 0.0131588485092 4.29579158663e-05 0.000280780950561 5.50250455344e-35 1.53217974089e-41 5.88265095324e-42 0.624948978424 0.335186868906 0.101351633668 0.0494296476245 1.09272207283e-06 7.60817274568e-05 1.49882016558e-05 9.8572047591e-07 0.587652981281 0.285288840532 0.0561175718904 2.66591003292e-30 1.76434543298e-31 0.00154445739463 0.00237979344092 3.59113964987e-32 1.25725962565e-34 3.97696830355e-34 1.06463191739e-33 -2.87455376438e-20 -3.24529754956e-18 2.65586052295e-28 1.17545915946e-32 1.84578447624e-29 7.32416329731e-23 4.40344934085e-22 -1.49517851099e-37 -5.20738661203e-15 -7.93421815478e-26 1.9339636644e-23 1.27127102287e-20 5.55313357824e-20 3.71136386303e-17 8.48049541702e-09 1.42289256549e-13 1.75027429616e-12 1.18505316779e-13 4.16585869208e-28 5.18043608011e-10 -1.25134305045e-13 4.92881907502e-16 5.10105846452e-13 -1.22378129079e-17 1.97880445697e-17 7.65771215176e-39 4.65670413514e-21 6.94701433598e-19 -4.43724535696e-16 2.38551907256e-17 1.62148324421e-16 7.38841193088e-12 -8.49000126538e-22 2.1903556166e-40 2.3818300477e-37 -2.385568712e-37 1.48023709148e-25 9.48918416308e-25 -3.89748588958e-09 -6.27320246018e-21 -2.12310255795e-18 -3.85131906934e-19 -6.88430534801e-10 2.0015247593e-25 3.00452651785e-26 -7.46060505041e-12 2.66849189393e-18 -5.35178384231e-23 -8.10428946174e-11 -2.11141427421e-14 -6.98453664696e-13 3.31238798529e-15 2.96014406563e-13 -5.84239387182e-16 -7.35743141199e-17 1.95754038972e-24 1.70980020913e-14 -8.54182989531e-13 2.23373475269e-22 1.29676773687e-23 1.30856586635e-19 1.77615576522e-27 -5.23793115253e-36 1.23660168997e-33 1.37418733442e-34 -4.60753830922e-12 8.3247445548e-28 3.52340782113e-15 -4.74000787523e-26 2.6888092976e-22 8.98048219655e-17 1.09120036862e-17 1.08102903799e-12 8.23489679225e-11 1.92642109269e-14 7.64298368857e-16 -1.02556461587e-11 5.29114350626e-18 -4.19117748837e-38 5.56668285722e-36 4.75510852915e-10 2.64102536169e-19 3.97858785054e-20 5.55154963889e-29 -6.33770728066e-20 -7.08610077625e-14 -1.80588252685e-11 1.40666256421e-09 -6.4453148374e-10 7.79990085456e-24 1.1815657896e-20 -4.83164957289e-16 -1.11717303584e-15 3.19447490232e-27 1.58363185774e-25 7.07472998858e-19 4.3265366577e-19 -7.50954119241e-23 -3.03866015944e-25 1.05775802872e-22 -5.5115280494e-22 5.12802131894e-15 -2.22444360304e-39 -2.4645384946e-37 1.54479652076e-17 1.40289871594e-16 1.57683057891e-17 -8.74850033205e-32 -2.54599829209e-15 3.02504383699e-17 9.34487278897e-23 4.560391514e-22 2.6715678659e-29 1.81715242953e-21 1.58168436101e-19 9.74195255205e-23 3.31843659463e-16 -5.29810112918e-19 -1.38219218268e-24 -1.12866861048e-18 -2.0751314591e-17 -3.77288813525e-08 2.99202383758e-07 -1.23405886111e-21 4.47480950072e-08 -6.59711753262e-23 -1.32689764806e-23 -1.23451656883e-11 -7.35415363589e-13 9.61817756516e-13 5.5739610616e-06 7.94959703398e-07 4.41098654151e-29 -3.04021263682e-30 1.45214981578e-19 1.87540084845e-20 -1.184171061e-25 9.27688406737e-27 -4.27861914432e-06 -2.96035137705e-21 6.27581042171e-21 -4.40225323477e-17 -1.45874037731e-19 -1.73368635692e-17 -1.26214381002e-16 -1.53444437107e-21 3.33113537635e-29 0.000747050798964 1.6249874534e-05 3.01001747971e-08 1.42507786926e-29 8.87256259359e-32 -2.80696031547e-32 -4.31415783687e-31 -1.49734660226e-07 4.34834131545e-33 -1.9982363927e-34 7.71512207275e-34 8.82839511986e-34 -3.98078764396e-10 -3.31842442414e-10 0.00042278424371 0.00139141944237 -7.94852627727e-13 -5.78355809425e-12 -2.46957241508e-15 -1.17771799799e-13 0.101251333952 0.0371379107237 6.21994129816e-22 5.33645878666e-20 -1.76628001406e-22 1.31643277706e-23 2.38126649492e-05 4.07513762184e-05 1.38863583743e-06 -2.35768305014e-34 -2.0294175283e-34 -1.49653802108e-33 0.585210978985 -3.31530431117e-24 -4.62957979032e-23 -1.41627618815e-22 -1.27300466289e-24 -6.90080037558e-09 2.35217374467e-08 6.60782192852e-12 3.79686923178e-13 -7.35808961738e-22 -9.56446417319e-25 -7.72276326547e-14 1.14740045462e-24 8.32483840429e-23 2.56566144198e-12 -5.08339233879e-14 -4.02859188792e-20 -6.39303742415e-21 0.408879965544 0.110652953386 2.97085985404e-15 1.93176260951e-15 -2.3865459425e-28 3.99533878204e-12 -5.97767199317e-37 -5.78696688935e-28 0.00414452143013 9.52694549481e-34 2.19530664308e-34 2.19463927351e-05 3.41546425474e-13 1.2484839585e-14 2.28732806136e-05 4.02673441809e-34 -2.40759392681e-31 0.330497711897 0.0757548063993 0.0257116500288 2.12826627888e-36 -2.36050430294e-37 1.65494693647e-05 1.11398694571e-05 5.4001861339e-15 4.56231202156e-17 3.24279608758e-34 -1.12197896031e-33 -4.63546011635e-28 -6.68187758621e-27 -7.89496386871e-30 -4.2597841724e-15 0.00372341577895 4.07927981028e-24 -2.31181441201e-31 4.62434249015e-30 1.29069166466e-09 -4.01430932939e-09 4.77792186152e-30 -1.16715748177e-08 8.96239725989e-05 0.691743612289 0.639616787434 0.362326800823 3.18179166848e-31 0.626628756523 -4.3059064056e-35 -4.17083676675e-36 -3.81705854411e-39 -6.23524118867e-38 -7.08152631129e-18 -4.87864540926e-17 -1.47229768176e-22 -3.73210548644e-22 -5.1874083366e-19 -3.84966335102e-20 1.35060456501e-25 1.56930860889e-24 3.84162639068e-24 -1.21552153229e-23 7.16254164838e-28 2.50628351085e-27 2.91524934194e-26 8.68515826977e-27 3.76347870032e-31 5.90539886678e-30 1.70812937856e-21 7.86592898564e-23 9.64792364491e-18 1.33244889708e-18 2.15160097862e-20 2.24608203286e-19 2.90038926447e-20 3.07585232658e-21 4.87184781406e-09 3.10708436757e-08 2.71452495326e-06 2.88362230094e-07 5.37586231227e-15 1.0614019429e-13 1.93531936131e-24 1.68077812578e-23 1.75598553324e-19 2.53957972457e-18 2.84760533702e-15 3.4060288011e-16 9.16704054144e-16 1.12001972299e-14 5.16827067254e-11 6.56497729443e-12 3.85338982944e-11 2.73928352224e-10 -6.04596103533e-17 -4.79970599176e-18 -1.60918294649e-20 -1.13520664604e-19 2.3444911127e-16 2.07564809626e-15 1.99580644435e-29 1.12234157325e-28 -2.67031419199e-09 -2.45778519065e-11 -1.32629490723e-10 1.98253739814e-12 1.24025989132e-11 2.59501042876e-09 1.93449561925e-10 -3.47900550701e-15 -4.52354610289e-16 3.94166373534e-23 5.84137774136e-24 3.83533772097e-27 3.49969974658e-26 -8.94613159594e-14 -1.57379009591e-14 3.36289595609e-18 4.28388799046e-17 4.29665492367e-14 5.3909411928e-15 1.94575461971e-14 1.69235990239e-13 -6.0248495592e-21 -4.24878801322e-20 -1.49413978872e-23 -1.58623305163e-22 7.87324006962e-25 5.804434123e-23 1.11600775462e-23 -1.02590011139e-11 -9.34280153242e-11 4.09174673137e-23 4.26421751658e-20 4.06234820784e-21 4.29404335169e-14 -1.39906383462e-13 1.99012986237e-19 9.85177486225e-19 -1.68726879632e-20 -8.58845716481e-21 8.83846167704e-25 4.37756941779e-24 8.36013077901e-22 -5.69348929981e-13 -4.80143031725e-14 4.12056991354e-16 2.39123351416e-15 1.8360463566e-31 -8.58135628636e-36 -2.66612392863e-35 8.85374317128e-15 1.12715805927e-13 6.56729049143e-16 4.34423114701e-17 -2.63021673668e-13 -1.79298600706e-12 5.33660743115e-28 1.31711286351e-21 1.10337835974e-22 -1.80601766181e-11 -1.61271039925e-12 3.66147686963e-34 -3.29336786046e-15 -1.92927610194e-14 5.30810417843e-09 4.8127290587e-22 -7.31269060917e-22 3.41420892006e-28 5.71743648501e-28 -1.86401577089e-14 -1.20121713141e-13 1.52726035795e-16 5.53876591215e-16 1.31651765849e-23 -7.05155442548e-23 -6.84250139466e-24 -5.47966742113e-32 -2.89148725528e-16 -2.0042022105e-17 6.76170875355e-22 3.71607255118e-21 -1.27967777253e-17 -1.46166081602e-18 -4.86907815704e-31 8.081459265e-21 3.8268105479e-20 -4.7347327124e-19 -2.28999120962e-18 2.54868854007e-28 -2.40127149346e-24 1.17610379142e-16 4.43731682537e-16 -1.61447124786e-20 -8.08124503815e-20 -4.47219092959e-35 -4.77288995171e-06 -1.21079108339e-06 -1.71418323589e-05 -3.07128478407e-23 -3.27667197827e-22 -2.65625658358e-07 -4.9154511179e-22 -9.35613469348e-22 -3.09673043231e-14 -3.97632629067e-15 -1.52336239154e-25 -1.29072823343e-19 -8.78412692097e-33 -1.90541110275e-31 -2.69217740634e-32 -2.1173529546e-33 -8.3723379348e-40 -5.70591919091e-40 1.0469326436e-38 -2.46162069973e-36 1.96642885292e-35 -2.55814111197e-34 1.6650640716e-35 -1.46434078029e-38 6.70781620382e-38 1.03263284679e-36 4.0707633396e-36 -5.16114770943e-36 -3.49031507723e-35 -8.29369056296e-37 9.57223531768e-35 3.00832479824e-35 2.16508174459e-34 4.78075611603e-36 -1.34591421573e-33 1.60131858138e-05 7.51824654799e-06 3.23812997749e-07 8.24504174787e-14 -9.3368516678e-40 -1.70206397419e-37 -3.56011170448e-36 -1.29098782882e-38 1.3736145197e-32 3.40286600942e-32 2.21520010814e-30 1.72721297703e-31 0.0107502220199 8.65132434539e-20 1.29099732562e-18 -2.20144814249e-18 4.02318398787e-18 1.39905503849e-10 -9.41755895489e-10 1.8911188171e-09 5.72191254378e-07 3.68681526197e-07 2.72398494872e-08 5.64352227173e-08 1.90760556507e-06 0.30436655879 0.0659393072128 -7.91619847629e-25 0.0195423401892 0.0380335636437 0.00697770155966 0.00139692041557 0.000548912561499 -3.62392865716e-10 -4.2440220227e-09 -3.42317130198e-09 3.24179849631e-11 -4.52747700441e-10 -2.35426844686e-10 3.69250182749e-35 1.33226823282e-24 -2.36728736567e-24 -4.80149526871e-26 1.75597614859e-25 1.03338496021e-15 3.61281760149e-16 2.82346252633e-14 3.13472896559e-15 -4.40318528121e-19 -4.43586298668e-20 -6.98173027911e-18 -2.78316107938e-08 2.40803342422e-06 -5.6805430404e-07 -1.08949365085e-07 0.00166612118483 0.00188709015492 1.71422089154e-29 5.50959528689e-33 3.41081017657e-31 1.80204290245e-06 1.25744827528e-05 2.85630721919e-05 2.73897859948e-09 7.00049046509e-11 -6.63904854667e-37 -7.5032980293e-38 -1.76831002278e-38 -5.37359830468e-33 1.14458014244e-31 1.04106753519e-32 -6.27624615922e-35 -2.35947684849e-36 -2.55627461291e-35 -2.22328180151e-34 -7.59174292037e-33 -4.1057705806e-29 -4.58958783545e-28 2.81977860382e-33 8.46112201185e-34 -4.30685181962e-10 1.44332620787e-39 -1.7360845862e-37 -1.7087569039e-34 2.1396871636e-34 1.679824039e-33 -3.9330613941e-36 -1.12543100137e-36 0.00401436490938 0.0542227625847 0.024915503338 8.72078194108e-36 9.01831657237e-37 8.98984631299e-36 0.397204220295 0.100975707173 4.38968468502e-27 6.0912092037e-10 1.17636162145e-07 1.59638631203e-08 -3.28967426186e-39 -9.37356568756e-41 -6.40060698915e-30 2.46371813969e-31 -1.11925860704e-30 -9.84616919859e-31 -5.65454835733e-11 -2.55702880744e-12 -5.21844026324e-11 -1.85878430703e-11 -2.24331414556e-10 1.08268576396e-11 -1.88112009973e-30 2.01010662465e-30 1.08612339612e-30 -7.3325724564e-37 -2.76039962799e-38 -3.47042035192e-36 1.16364843109e-11 1.35530172155e-12 5.18532986098e-37 2.56197492467e-38 1.12932737857e-27 7.87058508303e-38 1.13008797579e-36 3.15314103716e-08 1.95379371348e-07 1.75012998885e-14 -1.93265360603e-38 -3.0607860586e-37 -2.35848340635e-40 -1.25228060212e-38 -3.60641552038e-35 -1.16298757594e-35 -4.8644454892e-19 -5.1804909741e-20 1.88834945621e-20 4.32364882801e-21 5.65343819402e-22 6.73429577398e-22 -7.51170479985e-12 -6.1984857351e-13 -5.60025170768e-13 -2.29693163361e-13 0.666223466396 0.0550450384617 1.25440112872e-25 -4.37683102857e-27 0.491622716188 0.0503275617957 0.229418709874 -3.63250561628e-28 -1.55402405907e-25 -2.19533981022e-26 -1.24004124095e-39 -1.52177566031e-38 2.14993225046e-13 2.77782293695e-11 7.14115658967e-12 -7.00103807436e-27 -5.65473369492e-26 -7.3723034416e-27 1.73768780719e-31 -3.14588553232e-33 8.90363854999e-32 -3.03888152582e-29 -3.31021424011e-28 9.34060422995e-28 1.09251589991e-28 1.40072287817e-27 -1.09936926229e-09 -2.78212297644e-09 -5.75198945408e-35 -6.18819069818e-36 -7.75419348459e-34 -1.82631251329e-15 -1.69791460046e-16 -9.2803623266e-15 -2.0160536269e-34 6.38313019286e-36 -7.30950966421e-10 -1.65081015524e-09 -8.36947455785e-10 0.00403071846813 0.0139578860253 4.7938348871e-05 0.000697255891282 0.00268544442952 0.000466650904855 0.000120120719657 -1.92078186956e-05 0.0057973144576 1.25700806618e-31 -1.09094647883e-32 0.0100435344502 -4.44443623375e-37 -1.18258239871e-39 1.0240955424e-38 2.49232142268e-40 -6.47560617284e-19 -2.03394011453e-16 -1.25032584752e-17 4.75825004287e-07 7.81623228363e-08 5.89783985561e-06 1.00252179891e-06 0.401941120625 0.0293545201421 0.105301000178 -2.42481323909e-08 -1.71711008079e-07 -4.1671139428e-08 0.509729087353 0.290415257215 7.96969764238e-24 7.4936913991e-23 2.22168119472e-24 0.00226299790666 0.014307369478 -6.88878325062e-42 -8.07590725766e-40 -2.12707297795e-40 0.0313538350165 0.224751591682 -1.14472181734e-11 1.08804865118e-09 7.97277710518e-09 1.05408364329e-11 2.34684467626e-25 2.00818188252e-25 9.99047174176e-25 -2.51334104262e-26 1.10554550024e-19 3.6387832666e-21 -1.68100033843e-21 0.00877530500293 -2.57791392994e-26 -3.46269377307e-27 -2.9065522275e-27 3.04644891003e-05 0.000220109999646 4.08429041272e-05 0.000176457790076 2.25057150693e-09 -1.39042824563e-12 0.368165522814 2.26544329962e-08 2.59637232602e-07 1.40951073035e-08 1.39511794259e-05 6.27561821602e-05 -1.97831378015e-12 -5.125853084e-13 4.56678506276e-19 4.41244375871e-20 0.0954029858112 0.052504375577 -4.1624591248e-29 3.53176694659e-30 1.86821380588e-09 4.40003041597e-13 -6.4899709932e-26 9.00585565002e-27 -2.56522207688e-31 -5.14845536033e-30 -8.88579513349e-32 -4.76674353842e-28 1.36104951576e-28 0.635274112225 0.252558648586 0.291558921337 4.40988626723e-41 1.68824235086e-40 9.73466628883e-40 0.576838314533 9.76879307596e-26 3.45186542455e-27 9.13969643079e-07 1.2356012121e-05 1.75645865852e-07 2.58912137951e-07 1.11109159207e-06 1.68336094868e-30 9.8153244149e-30 -4.43150602732e-31 3.17011303574e-18 -5.53822442318e-18 -1.09067466887e-15 -8.21934897806e-17 0.219743475318 0.0290588308126 4.40485056107e-38 5.7562435182e-37 1.37818327264e-36 2.34357807485e-38 9.40122171405e-39 0.544193387032 0.26496219635 0.0459443181753 -2.78451584707e-11 -6.94432315471e-12 -8.11756857479e-13 -3.88239397228e-12 8.09926649916e-27 -1.07777410989e-28 -1.50473237574e-29 -8.72863386387e-15 -1.04695088319e-13 -1.11914990486e-15 1.37686344691e-28 -2.43915585609e-30 3.63247540325e-29 3.27494125448e-29 2.65550262885e-40 1.83678559328e-39 1.48705793034e-41 1.40547711327e-26 2.6453691178e-25 1.49074511934e-26 1.58219208308e-40 1.47152453686e-39 -2.40323628866e-17 2.6163855124e-17 -3.06058143781e-14 -5.04289366071e-15 -4.36988742717e-13 -4.02297663024e-16 7.11774054564e-29 9.92539131122e-30 7.69114405687e-30 1.73985935052e-25 1.34778068948e-24 5.88213463446e-24 
</DataArray>
<DataArray type="Float64" Name="transport_vector" NumberOfComponents="3" format="ascii">