<?xml version="1.0"?>
<VTKFile type="UnstructuredGrid" version="0.1" byte_order="LittleEndian">
<UnstructuredGrid>
<Piece NumberOfPoints="251" NumberOfCells="250">
<Points>
<DataArray type="Float64" NumberOfComponents="3" format="ascii">
0 0 0 0 0 -0.25 0 0 -0.00099999999999810158 0 0 -0.001999999999996204 0 0 -0.0029999999999943271 0 0 -0.0039999999999924488 0 0 -0.004999999999990571 0 0 -0.0059999999999886811 0 0 -0.0069999999999867156 0 0 -0.007999999999984719 0 0 -0.008999999999982581 0 0 -0.0099999999999804221 0 0 -0.010999999999978201 0 0 -0.011999999999975971 0 0 -0.01299999999997375 0 0 -0.01399999999997158 0 0 -0.014999999999969531 0 0 -0.01599999999996761 0 0 -0.0169999999999659 0 0 -0.01799999999996427 0 0 -0.018999999999962731 0 0 -0.019999999999961209 0 0 -0.020999999999959669 0 0 -0.02199999999995814 0 0 -0.022999999999956611 0 0 -0.023999999999955082 0 0 -0.024999999999953549 0 0 -0.02599999999995202 0 0 -0.02699999999995048 0 0 -0.027999999999948951 0 0 -0.028999999999947419 0 0 -0.02999999999994565 0 0 -0.03099999999994377 0 0 -0.031999999999941367 0 0 -0.032999999999938787 0 0 -0.033999999999935943 0 0 -0.034999999999933022 0 0 -0.035999999999930102 0 0 -0.036999999999927188 0 0 -0.037999999999924268 0 0 -0.038999999999921348 0 0 -0.039999999999918427 0 0 -0.040999999999915507 0 0 -0.041999999999912593 0 0 -0.042999999999909673 0 0 -0.043999999999906753 0 0 -0.044999999999903832 0 0 -0.045999999999900919 0 0 -0.046999999999897998 0 0 -0.047999999999895078 0 0 -0.048999999999892158 0 0 -0.049999999999889237 0 0 -0.050999999999886317 0 0 -0.051999999999883403 0 0 -0.052999999999880483 0 0 -0.053999999999877563 0 0 -0.054999999999874642 0 0 -0.055999999999871722 0 0 -0.056999999999868801 0 0 -0.057999999999865881 0 0 -0.058999999999862961 0 0 -0.059999999999860047 0 0 -0.060999999999857127 0 0 -0.061999999999854213 0 0 -0.062999999999851286 0 0 -0.063999999999848373 0 0 -0.064999999999845445 0 0 -0.065999999999842532 0 0 -0.066999999999839618 0 0 -0.067999999999836705 0 0 -0.068999999999833792 0 0 -0.069999999999830878 0 0 -0.070999999999827965 0 0 -0.071999999999825051 0 0 -0.072999999999822124 0 0 -0.07399999999981921 0 0 -0.074999999999816297 0 0 -0.075999999999813383 0 0 -0.07699999999981047 0 0 -0.077999999999807557 0 0 -0.078999999999804643 0 0 -0.07999999999980173 0 0 -0.080999999999798802 0 0 -0.081999999999795889 0 0 -0.082999999999792975 0 0 -0.083999999999790062 0 0 -0.084999999999787149 0 0 -0.085999999999784235 0 0 -0.086999999999781322 0 0 -0.087999999999778394 0 0 -0.088999999999775481 0 0 -0.089999999999772567 0 0 -0.090999999999769654 0 0 -0.091999999999766741 0 0 -0.092999999999763827 0 0 -0.093999999999760914 0 0 -0.094999999999758 0 0 -0.095999999999755073 0 0 -0.096999999999752159 0 0 -0.097999999999749246 0 0 -0.098999999999746333 0 0 -0.099999999999743419 0 0 -0.10099999999974051 0 0 -0.10199999999973761 0 0 -0.10299999999973471 0 0 -0.10399999999973179 0 0 -0.1049999999997288 0 0 -0.1059999999997259 0 0 -0.106999999999723 0 0 -0.1079999999997201 0 0 -0.1089999999997172 0 0 -0.1099999999997143 0 0 -0.1109999999997113 0 0 -0.1119999999997084 0 0 -0.1129999999997055 0 0 -0.1139999999997026 0 0 -0.1149999999996997 0 0 -0.1159999999996968 0 0 -0.11699999999969379 0 0 -0.11799999999969089 0 0 -0.11899999999968799 0 0 -0.11999999999968509 0 0 -0.1209999999996822 0 0 -0.1219999999996793 0 0 -0.1229999999996764 0 0 -0.1239999999996748 0 0 -0.12499999999967321 0 0 -0.12599999999967451 0 0 -0.12699999999967579 0 0 -0.1279999999996784 0 0 -0.12899999999968109 0 0 -0.1299999999996837 0 0 -0.13099999999968631 0 0 -0.13199999999968889 0 0 -0.13299999999969159 0 0 -0.1339999999996942 0 0 -0.13499999999969689 0 0 -0.1359999999996995 0 0 -0.13699999999970211 0 0 -0.1379999999997048 0 0 -0.13899999999970741 0 0 -0.13999999999971011 0 0 -0.14099999999971269 0 0 -0.1419999999997153 0 0 -0.14299999999971799 0 0 -0.1439999999997206 0 0 -0.14499999999972321 0 0 -0.14599999999972579 0 0 -0.14699999999972849 0 0 -0.1479999999997311 0 0 -0.14899999999973379 0 0 -0.1499999999997364 0 0 -0.15099999999973901 0 0 -0.1519999999997417 0 0 -0.15299999999974431 0 0 -0.15399999999974701 0 0 -0.15499999999974959 0 0 -0.1559999999997522 0 0 -0.15699999999975489 0 0 -0.1579999999997575 0 0 -0.15899999999976011 0 0 -0.1599999999997628 0 0 -0.16099999999976539 0 0 -0.161999999999768 0 0 -0.16299999999977069 0 0 -0.1639999999997733 0 0 -0.16499999999977599 0 0 -0.1659999999997786 0 0 -0.16699999999978121 0 0 -0.16799999999978391 0 0 -0.16899999999978649 0 0 -0.1699999999997891 0 0 -0.17099999999979171 0 0 -0.1719999999997944 0 0 -0.17299999999979701 0 0 -0.1739999999997997 0 0 -0.17499999999980231 0 0 -0.17599999999980501 0 0 -0.17699999999980759 0 0 -0.1779999999998102 0 0 -0.17899999999981281 0 0 -0.1799999999998155 0 0 -0.18099999999981811 0 0 -0.18199999999982069 0 0 -0.18299999999982339 0 0 -0.183999999999826 0 0 -0.18499999999982869 0 0 -0.1859999999998313 0 0 -0.18699999999983391 0 0 -0.1879999999998366 0 0 -0.18899999999983921 0 0 -0.18999999999984191 0 0 -0.19099999999984449 0 0 -0.1919999999998471 0 0 -0.19299999999984971 0 0 -0.1939999999998524 0 0 -0.19499999999985501 0 0 -0.1959999999998577 0 0 -0.19699999999986029 0 0 -0.19799999999986301 0 0 -0.19899999999986559 0 0 -0.1999999999998682 0 0 -0.20099999999987081 0 0 -0.2019999999998735 0 0 -0.20299999999987611 0 0 -0.20399999999987881 0 0 -0.20499999999988139 0 0 -0.205999999999884 0 0 -0.20699999999988669 0 0 -0.2079999999998893 0 0 -0.20899999999989191 0 0 -0.2099999999998946 0 0 -0.21099999999989719 0 0 -0.21199999999989991 0 0 -0.21299999999990249 0 0 -0.2139999999999051 0 0 -0.21499999999990771 0 0 -0.2159999999999104 0 0 -0.21699999999991301 0 0 -0.21799999999991571 0 0 -0.21899999999991829 0 0 -0.2199999999999209 0 0 -0.22099999999992359 0 0 -0.2219999999999262 0 0 -0.22299999999992881 0 0 -0.22399999999993139 0 0 -0.22499999999993411 0 0 -0.2259999999999367 0 0 -0.22699999999993939 0 0 -0.227999999999942 0 0 -0.22899999999994469 0 0 -0.2299999999999473 0 0 -0.23099999999994991 0 0 -0.23199999999995249 0 0 -0.23299999999995519 0 0 -0.2339999999999578 0 0 -0.23499999999996049 0 0 -0.2359999999999631 0 0 -0.23699999999996571 0 0 -0.2379999999999684 0 0 -0.23899999999997101 0 0 -0.2399999999999736 0 0 -0.24099999999997629 0 0 -0.2419999999999789 0 0 -0.24299999999998159 0 0 -0.2439999999999842 0 0 -0.24499999999998681 0 0 -0.24599999999998939 0 0 -0.24699999999999209 0 0 -0.2479999999999947 0 0 -0.24899999999999739 
</DataArray>
</Points>
<Cells>
<DataArray type="UInt32" Name="connectivity" format="ascii">
0 2 2 3 3 4 4 5 5 6 6 7 7 8 8 9 9 10 10 11 11 12 12 13 13 14 14 15 15 16 16 17 17 18 18 19 19 20 20 21 21 22 22 23 23 24 24 25 25 26 26 27 27 28 28 29 29 30 30 31 31 32 32 33 33 34 34 35 35 36 36 37 37 38 38 39 39 40 40 41 41 42 42 43 43 44 44 45 45 46 46 47 47 48 48 49 49 50 50 51 51 52 52 53 53 54 54 55 55 56 56 57 57 58 58 59 59 60 60 61 61 62 62 63 63 64 64 65 65 66 66 67 67 68 68 69 69 70 70 71 71 72 72 73 73 74 74 75 75 76 76 77 77 78 78 79 79 80 80 81 81 82 82 83 83 84 84 85 85 86 86 87 87 88 88 89 89 90 90 91 91 92 92 93 93 94 94 95 95 96 96 97 97 98 98 99 99 100 100 101 101 102 102 103 103 104 104 105 105 106 106 107 107 108 108 109 109 110 110 111 111 112 112 113 113 114 114 115 115 116 116 117 117 118 118 119 119 120 120 121 121 122 122 123 123 124 124 125 125 126 126 127 127 128 128 129 129 130 130 131 131 132 132 133 133 134 134 135 135 136 136 137 137 138 138 139 139 140 140 141 141 142 142 143 143 144 144 145 145 146 146 147 147 148 148 149 149 150 150 151 151 152 152 153 153 154 154 155 155 156 156 157 157 158 158 159 159 160 160 161 161 162 162 163 163 164 164 165 165 166 166 167 167 168 168 169 169 170 170 171 171 172 172 173 173 174 174 175 175 176 176 177 177 178 178 179 179 180 180 181 181 182 182 183 183 184 184 185 185 186 186 187 187 188 188 189 189 190 190 191 191 192 192 193 193 194 194 195 195 196 196 197 197 198 198 199 199 200 200 201 201 202 202 203 203 204 204 205 205 206 206 207 207 208 208 209 209 210 210 211 211 212 212 213 213 214 214 215 215 216 216 217 217 218 218 219 219 220 220 221 221 222 222 223 223 224 224 225 225 226 226 227 227 228 228 229 229 230 230 231 231 232 232 233 233 234 234 235 235 236 236 237 237 238 238 239 239 240 240 241 241 242 242 243 243 244 244 245 245 246 246 247 247 248 248 249 249 250 250 1 
</DataArray>
<DataArray type="UInt32" Name="offsets" format="ascii">
2 4 6 8 10 12 14 16 18 20 22 24 26 28 30 32 34 36 38 40 42 44 46 48 50 52 54 56 58 60 62 64 66 68 70 72 74 76 78 80 82 84 86 88 90 92 94 96 98 100 102 104 106 108 110 112 114 116 118 120 122 124 126 128 130 132 134 136 138 140 142 144 146 148 150 152 154 156 158 160 162 164 166 168 170 172 174 176 178 180 182 184 186 188 190 192 194 196 198 200 202 204 206 208 210 212 214 216 218 220 222 224 226 228 230 232 234 236 238 240 242 244 246 248 250 252 254 256 258 260 262 264 266 268 270 272 274 276 278 280 282 284 286 288 290 292 294 296 298 300 302 304 306 308 310 312 314 316 318 320 322 324 326 328 330 332 334 336 338 340 342 344 346 348 350 352 354 356 358 360 362 364 366 368 370 372 374 376 378 380 382 384 386 388 390 392 394 396 398 400 402 404 406 408 410 412 414 416 418 420 422 424 426 428 430 432 434 436 438 440 442 444 446 448 450 452 454 456 458 460 462 464 466 468 470 472 474 476 478 480 482 484 486 488 490 492 494 496 498 500 
</DataArray>
<DataArray type="UInt32" Name="types" format="ascii">
3 3 3 3 3 3 3 3 3 3 3 3 3 3 3 3 3 3 3 3 3 3 3 3 3 3 3 3 3 3 3 3 3 3 3 3 3 3 3 3 3 3 3 3 3 3 3 3 3 3 3 3 3 3 3 3 3 3 3 3 3 3 3 3 3 3 3 3 3 3 3 3 3 3 3 3 3 3 3 3 3 3 3 3 3 3 3 3 3 3 3 3 3 3 3 3 3 3 3 3 3 3 3 3 3 3 3 3 3 3 3 3 3 3 3 3 3 3 3 3 3 3 3 3 3 3 3 3 3 3 3 3 3 3 3 3 3 3 3 3 3 3 3 3 3 3 3 3 3 3 3 3 3 3 3 3 3 3 3 3 3 3 3 3 3 3 3 3 3 3 3 3 3 3 3 3 3 3 3 3 3 3 3 3 3 3 3 3 3 3 3 3 3 3 3 3 3 3 3 3 3 3 3 3 3 3 3 3 3 3 3 3 3 3 3 3 3 3 3 3 3 3 3 3 3 3 3 3 3 3 3 3 3 3 3 3 3 3 3 3 3 3 3 3 3 3 3 3 3 3 
</DataArray>
</Cells>
<CellData Scalars="pressure_p0,piezo_head_p0," Vectors="velocity_p0," Tensors="">
<DataArray type="Float64" Name="pressure_p0" format="ascii">
71.684671191635076 215.0432936703989 358.36976260621344 501.64266286403654 644.84061012018162 787.94226312889487 930.92633593117171 1073.7716099896395 1216.4569462335112 1358.9612969979423 1501.2637178423838 1643.3433792329088 1785.1795780739099 1926.7517490749287 2068.0394759389137 2209.0225023586408 2349.6807428085895 2489.9942931200821 2629.9434408281004 2769.508675278742 2908.6706974868744 3047.4104297341978 3185.709024898505 3323.5478755055929 3460.9086224959042 3597.7731636986136 3734.1236620065156 3869.9425532457153 4005.2125537347492 4139.9166675283777 4274.0381933420058 4407.5607311531348 4540.4681884770544 4672.7447863143889 4804.3750647687884 4935.3438883336721 5065.636450847358 5195.2382801165641 5324.1352422087275 5452.3135454140938 5579.7597438790181 5706.4607409123983 5832.4037919676102 5957.576507302736 6081.9668543222551 6205.5631596038338 6328.3541106141438 6450.3287571180317 6571.4765122856797 6691.7871535027107 6811.2508228884826 6929.8580275280865 7047.5996394238173 7164.466895172126 7280.4513953722571 7395.5451037729999 7509.7403461641279 7623.0298090193064 7735.4065378973264 7846.8639356087324 7957.3957601549264 8066.9961224470326 8175.6594838117853 8283.3806532918243 8390.1547847478396 8495.9773737699761 8600.8442544060454 8704.7515957139658 8807.6958981459593 8909.6739897719817 9010.6830223498146 9110.7204672492298 9209.7841112376391 9307.8720521344658 9404.9826943415537 9501.114744256749 9596.2672055777639 9690.4393745033194 9783.6308348384846 9875.8414530109985 9967.0713730052939 10057.321011220807 10146.591051261008 10234.882438659524 10322.196375549558 10408.534315282668 10493.897957002859 10578.289240181806 10661.710339120842 10744.163657425237 10825.651822456161 10906.177679765498 10985.744287518663 11064.354910910253 11142.013016577379 11218.722267015235 11294.486514999417 11369.309798019258 11443.196332726373 11516.150509402381 11588.176886449713 11659.280184909137 11729.465283007619 11798.737210739882 11867.101144486936 11934.562401674688 12001.126435475586 12066.798829556119 12131.585292872904 12195.491654519843 12258.523858628774 12320.687959325933 12381.990115746285 12442.436587107819 12502.033727847684 12560.787982821861 12618.705882570084 12675.794038647502 12732.059139024488 12787.507943555891 12842.147279520912 12895.984037234692 12949.02516573255 13001.2776685278 13052.748599443781 13103.445058520982 13153.374187999601 13202.543168378204 13250.959214548944 13298.629572009337 13345.56151315122 13391.762333626761 13437.239348791711 13481.999890225914 13526.051302330996 13569.400939005092 13612.056160394419 13654.024329721451 13695.312810189342 13735.928961962258 13775.880139221154 13815.173687294542 13853.816939863704 13891.817216241736 13929.181818725865 13965.918030022338 14002.033110743127 14037.534296973781 14072.4287979116 14106.72379357331 14140.426432571412 14173.543829958315 14206.083065137325 14238.051179839618 14269.455176166153 14300.302014693629 14330.598612643433 14360.351842112577 14389.568528365609 14418.255448186408 14446.419328288826 14474.066843785084 14501.204616710842 14527.839214605836 14553.97714914901 14579.624874846961 14604.788787774647 14629.47522436719 14653.690460261667 14677.440709187755 14700.732121906078 14723.570785193187 14745.962720871961 14767.913884886369 14789.430166419426 14810.517387053244 14831.181299970049 14851.427589193063 14871.261868866137 14890.689682571026 14909.716502681258 14928.347729751451 14946.588691941051 14964.444644471416 14981.92076911517 14999.022173716814 15015.753891743536 15032.120881865209 15048.128027562563 15063.780136762525 15079.081941499764 15094.038097603438 15108.653184408213 15122.93170448859 15136.878083415615 15150.496669535049 15163.791733766098 15176.767469419838 15189.427992036404 15201.777339240152 15213.819470611903 15225.558267577471 15236.997533311653 15248.140992656867 15258.992292055693 15269.554999496533 15279.832604471636 15289.828517946782 15299.546072341873 15308.988521521784 15318.159040796723 15327.060726931488 15335.696598162949 15344.069594225148 15352.182576381339 15360.038327462444 15367.639551911278 15374.988875832016 15382.088847044324 15388.941935141649 15395.550531553105 15401.916949608501 15408.043424605996 15413.932113881925 15419.585096882318 15425.004375235716 15430.191872826832 15435.149435870651 15439.878832986615 15444.381755272465 15448.659816377432 15452.714552574429 15456.547422830878 15460.15980887791 15463.553015277634 15466.728269488185 15469.686721926297 15472.429446027141 15474.957438301237 15477.27161838816 15479.37282910692 15481.261836502752 15482.939329890229 15484.405921892447 15485.662148476247 15486.70846898329 15487.545266156872 15488.172846164431 15488.591438615626 15488.801196575983 
</DataArray>
<DataArray type="Float64" Name="piezo_head_p0" format="ascii">
71.684171191635073 215.0417936703989 358.36726260621344 501.63916286403656 644.83611012018162 787.93676312889488 930.91983593117175 1073.7641099896396 1216.4484462335113 1358.9517969979424 1501.2532178423837 1643.3318792329087 1785.1670780739098 1926.7382490749287 2068.0249759389139 2209.0070023586409 2349.6642428085893 2489.9767931200822 2629.9249408281003 2769.4891752787421 2908.6501974868743 3047.388929734198 3185.686524898505 3323.5243755055931 3460.8841224959042 3597.7476636986139 3734.0971620065156 3869.9150532457152 4005.1840537347493 4139.8871675283781 4274.007693342006 4407.5292311531348 4540.4356884770541 4672.7112863143893 4804.3405647687887 4935.3083883336722 5065.5999508473578 5195.2007801165637 5324.0967422087278 5452.274045414094 5579.719243879018 5706.419240912398 5832.3612919676107 5957.5330073027362 6081.9223543222552 6205.5176596038336 6328.3076106141443 6450.281257118032 6571.4280122856799 6691.7376535027106 6811.2003228884823 6929.8065275280869 7047.5471394238175 7164.413395172126 7280.3968953722569 7395.4896037730005 7509.6838461641282 7622.9723090193065 7735.3480378973263 7846.8044356087321 7957.3352601549268 8066.9346224470328 8175.5969838117853 8283.3171532918241 8390.0902847478392 8495.9118737699755 8600.7777544060464 8704.6840957139666 8807.6273981459599 8909.6044897719821 9010.6125223498148 9110.6489672492298 9209.7116112376389 9307.7985521344654 9404.9081943415531 9501.03924425675 9596.1907055777647 9690.36187450332 9783.552334838485 9875.7619530109987 9966.9908730052939 10057.239511220807 10146.508551261008 10234.798938659524 10322.111875549559 10408.448815282669 10493.811457002859 10578.201740181807 10661.621839120842 10744.074157425237 10825.56132245616 10906.086179765498 10985.651787518662 11064.261410910254 11141.91851657738 11218.626767015236 11294.390014999417 11369.212298019258 11443.097832726373 11516.051009402381 11588.076386449713 11659.178684909139 11729.36278300762 11798.633710739883 11866.996644486937 11934.456901674688 12001.019935475586 12066.691329556119 12131.476792872903 12195.382154519843 12258.413358628775 12320.576459325934 12381.877615746285 12442.323087107819 12501.919227847684 12560.672482821861 12618.589382570084 12675.676538647502 12731.940639024488 12787.388443555892 12842.026779520913 12895.862537234692 12948.90266573255 13001.154168527801 13052.624099443781 13103.319558520981 13153.247687999601 13202.415668378204 13250.830714548945 13298.500072009338 13345.431013151221 13391.630833626761 13437.106848791711 13481.866390225914 13525.916802330996 13569.265439005092 13611.919660394418 13653.886829721452 13695.174310189343 13735.789461962258 13775.739639221154 13815.032187294542 13853.674439863704 13891.673716241736 13929.037318725865 13965.772530022337 14001.886610743128 14037.386796973782 14072.2802979116 14106.574293573311 14140.275932571412 14173.392329958315 14205.930565137325 14237.897679839618 14269.300676166153 14300.14651469363 14330.442112643434 14360.194342112578 14389.41002836561 14418.095948186408 14446.258828288826 14473.905343785083 14501.042116710842 14527.675714605835 14553.812649149011 14579.459374846962 14604.622287774648 14629.307724367191 14653.521960261667 14677.271209187755 14700.561621906078 14723.399285193187 14745.790220871961 14767.740384886371 14789.255666419427 14810.341887053244 14831.004799970049 14851.250089193063 14871.083368866137 14890.510182571026 14909.536002681258 14928.16622975145 14946.406191941052 14964.261144471417 14981.73626911517 14998.836673716814 15015.567391743536 15031.933381865209 15047.939527562563 15063.590636762525 15078.891441499763 15093.846597603439 15108.460684408214 15122.738204488591 15136.683583415615 15150.301169535049 15163.595233766098 15176.569969419837 15189.229492036404 15201.577839240152 15213.618970611904 15225.356767577472 15236.795033311653 15247.937492656867 15258.787792055693 15269.349499496533 15279.626104471636 15289.621017946782 15299.337572341872 15308.779021521785 15317.948540796724 15326.849226931488 15335.48409816295 15343.856094225148 15351.968076381339 15359.822827462443 15367.423051911277 15374.771375832015 15381.870347044325 15388.72243514165 15395.330031553105 15401.695449608502 15407.820924605996 15413.708613881925 15419.360596882318 15424.778875235716 15429.965372826831 15434.921935870652 15439.650332986615 15444.152255272465 15448.429316377433 15452.483052574429 15456.314922830878 15459.92630887791 15463.318515277633 15466.492769488184 15469.450221926298 15472.191946027142 15474.718938301237 15477.032118388161 15479.13232910692 15481.020336502752 15482.696829890228 15484.162421892446 15485.417648476247 15486.462968983291 15487.298766156873 15487.925346164431 15488.342938615626 15488.551696575983 
</DataArray>
<DataArray type="Float64" Name="velocity_p0" NumberOfComponents="3" format="ascii">
0 0 8.6018791596223927e-10 0 0 8.6005928985214929e-10 0 0 8.5980211166164306e-10 0 0 8.5941652935048379e-10 0 0 8.5890276460971573e-10 0 0 8.5826111256419194e-10 0 0 8.5749194137736032e-10 0 0 8.5659569175958382e-10 0 0 8.555728763814225e-10 0 0 8.544240791936414e-10 0 0 8.5314995465600867e-10 0 0 8.5175122687711647e-10 0 0 8.5022868866764781e-10 0 0 8.4858320050985714e-10 0 0 8.4681568944610312e-10 0 0 8.4492714788947888e-10 0 0 8.4291863235969639e-10 0 0 8.4079126214763661e-10 0 0 8.3854621791199159e-10 0 0 8.3618474021149046e-10 0 0 8.3370812797646853e-10 0 0 8.3111773692334016e-10 0 0 8.2841497791591989e-10 0 0 8.2560131527724746e-10 0 0 8.2267826505578725e-10 0 0 8.196473932498911e-10 0 0 8.1651031399428689e-10 0 0 8.1326868771251771e-10 0 0 8.0992421923897276e-10 0 0 8.0647865591444765e-10 0 0 8.029337856588219e-10 0 0 7.9929143502458486e-10 0 0 7.9555346723483298e-10 0 0 7.917217802090638e-10 0 0 7.8779830458056391e-10 0 0 7.8378500170836174e-10 0 0 7.7968386168737687e-10 0 0 7.7549690135956119e-10 0 0 7.7122616232958182e-10 0 0 7.6687370898743812e-10 0 0 7.6244162654133052e-10 0 0 7.579320190634053e-10 0 0 7.5334700755086711e-10 0 0 7.4868872800510212e-10 0 0 7.4395932953114286e-10 0 0 7.3916097245995174e-10 0 0 7.3429582649535659e-10 0 0 7.2936606888787594e-10 0 0 7.2437388263753938e-10 0 0 7.1932145472697614e-10 0 0 7.1421097438709542e-10 0 0 7.0904463139643422e-10 0 0 7.0382461441597775e-10 0 0 6.9855310936049378e-10 0 0 6.9323229780789114e-10 0 0 6.8786435544754018e-10 0 0 6.8245145056862495e-10 0 0 6.7699574258954545e-10 0 0 6.7149938062895354e-10 0 0 6.6596450211933375e-10 0 0 6.6039323146369128e-10 0 0 6.5478767873586648e-10 0 0 6.4914993842476927e-10 0 0 6.4348208822315167e-10 0 0 6.3778618786094414e-10 0 0 6.3206427798341558e-10 0 0 6.2631837907427497e-10 0 0 6.2055049042367209e-10 0 0 6.1476258914113838e-10 0 0 6.0895662921327846e-10 0 0 6.031345406060307e-10 0 0 5.9729822841136197e-10 0 0 5.9144957203785871e-10 0 0 5.8559042444509702e-10 0 0 5.7972261142128756e-10 0 0 5.7384793090371686e-10 0 0 5.6796815234136997e-10 0 0 5.620850160995445e-10 0 0 5.5620023290532393e-10 0 0 5.5031548333369146e-10 0 0 5.4443241733368605e-10 0 0 5.3855265379325888e-10 0 0 5.3267778014296969e-10 0 0 5.2680935199706036e-10 0 0 5.2094889283166884e-10 0 0 5.1509789369864766e-10 0 0 5.0925781297525236e-10 0 0 5.0343007614769636e-10 0 0 4.9761607562839823e-10 0 0 4.9181717060616878e-10 0 0 4.8603468692759192e-10 0 0 4.8026991700992912e-10 0 0 4.7452411978349714e-10 0 0 4.6879852066338572e-10 0 0 4.6309431154934079e-10 0 0 4.5741265085257836e-10 0 0 4.5175466354943955e-10 0 0 4.4612144125988883e-10 0 0 4.4051404235097196e-10 0 0 4.3493349206342375e-10 0 0 4.2938078266139777e-10 0 0 4.2385687360346566e-10 0 0 4.1836269173504487e-10 0 0 4.1289913150019093e-10 0 0 4.0746705517308439e-10 0 0 4.020672931071887e-10 0 0 3.9670064400221025e-10 0 0 3.9136787518735326e-10 0 0 3.8606972292040544e-10 0 0 3.8080689270151693e-10 0 0 3.755800596010627e-10 0 0 3.703898686008762e-10 0 0 3.6523693494775286e-10 0 0 3.6012184451898728e-10 0 0 3.5504515419834257e-10 0 0 3.5000739226284797e-10 0 0 3.4500905877837436e-10 0 0 3.4005062600472839e-10 0 0 3.351325388082142e-10 0 0 3.3025521508209865e-10 0 0 3.2541904617348638e-10 0 0 3.2062439731660183e-10 0 0 3.1587160807119783e-10 0 0 3.1116099276657768e-10 0 0 3.0649284094894251e-10 0 0 3.0186741783347997e-10 0 0 2.9728496475903611e-10 0 0 2.9274569964562282e-10 0 0 2.8824981745416528e-10 0 0 2.8379749064764166e-10 0 0 2.7938886965385318e-10 0 0 2.7502408332840969e-10 0 0 2.7070323941820703e-10 0 0 2.6642642502493492e-10 0 0 2.6219370706738126e-10 0 0 2.5800513274351598e-10 0 0 2.5386072999057876e-10 0 0 2.4976050794387159e-10 0 0 2.4570445739305386e-10 0 0 2.4169255123637389e-10 0 0 2.3772474493194002e-10 0 0 2.3380097694610815e-10 0 0 2.2992116919815237e-10 0 0 2.2608522750193434e-10 0 0 2.2229304200306215e-10 0 0 2.1854448761242407e-10 0 0 2.1483942443478943e-10 0 0 2.111776981935054e-10 0 0 2.0755914064983831e-10 0 0 2.0398357001741824e-10 0 0 2.0045079137188165e-10 0 0 1.9696059705454831e-10 0 0 1.9351276707116184e-10 0 0 1.9010706948450596e-10 0 0 1.8674326080146301e-10 0 0 1.8342108635413132e-10 0 0 1.8014028067464635e-10 0 0 1.7690056786431066e-10 0 0 1.7370166195589687e-10 0 0 1.7054326727014268e-10 0 0 1.6742507876527165e-10 0 0 1.6434678238053459e-10 0 0 1.6130805537266989e-10 0 0 1.5830856664638468e-10 0 0 1.553479770775709e-10 0 0 1.5242593983010332e-10 0 0 1.4954210066595539e-10 0 0 1.4669609824835491e-10 0 0 1.4388756443842917e-10 0 0 1.4111612458474414e-10 0 0 1.3838139780641211e-10 0 0 1.3568299726921294e-10 0 0 1.3302053045492628e-10 0 0 1.303935994240478e-10 0 0 1.2780180107158373e-10 0 0 1.2524472737625592e-10 0 0 1.2272196564307658e-10 0 0 1.2023309873900262e-10 0 0 1.1777770532227649e-10 0 0 1.1535536006513824e-10 0 0 1.1296563386984067e-10 0 0 1.1060809407827306e-10 0 0 1.0828230467531185e-10 0 0 1.0598782648569989e-10 0 0 1.0372421736445516e-10 0 0 1.0149103238138951e-10 0 0 9.9287823999222565e-11 0 0 9.7114142245634761e-11 0 0 9.4969534879338162e-11 0 0 9.2853547550099697e-11 0 0 9.0765723953100126e-11 0 0 8.8705605977165065e-11 0 0 8.6672733847663922e-11 0 0 8.4666646263451952e-11 0 0 8.2686880528546268e-11 0 0 8.0732972678004404e-11 0 0 7.8804457598734636e-11 0 0 7.690086914501265e-11 0 0 7.5021740248439095e-11 0 0 7.3166603023278906e-11 0 0 7.1334988866480491e-11 0 0 6.9526428552956304e-11 0 0 6.7740452325834966e-11 0 0 6.5976589982107228e-11 0 0 6.4234370953851959e-11 0 0 6.2513324384446257e-11 0 0 6.0812979200659e-11 0 0 5.9132864180629045e-11 0 0 5.7472508016893442e-11 0 0 5.583143937619939e-11 0 0 5.4209186954207916e-11 0 0 5.2605279527245745e-11 0 0 5.1019245999650593e-11 0 0 4.9450615447476304e-11 0 0 4.7898917158439414e-11 0 0 4.6363680668716136e-11 0 0 4.4844435795715378e-11 0 0 4.3340712667940706e-11 0 0 4.1852041751423895e-11 0 0 4.0377953872889509e-11 0 0 3.8917980240087703e-11 0 0 3.747165245905588e-11 0 0 3.6038502548442344e-11 0 0 3.4618062951169931e-11 0 0 3.3209866543372871e-11 0 0 3.1813446640766379e-11 0 0 3.0428337002593956e-11 0 0 2.9054071833086379e-11 0 0 2.7690185780777138e-11 0 0 2.6336213935329047e-11 0 0 2.499169182291847e-11 0 0 2.3656155398774105e-11 0 0 2.2329141038365455e-11 0 0 2.1010185526725618e-11 0 0 1.9698826045999916e-11 0 0 1.8394600161274415e-11 0 0 1.7097045804948523e-11 0 0 1.5805701259823493e-11 0 0 1.4520105140682468e-11 0 0 1.3239796374559782e-11 0 0 1.1964314180137187e-11 0 0 1.0693198045922258e-11 0 0 9.4259877072883584e-12 0 0 8.1622231229986435e-12 0 0 6.9014444506581145e-12 0 0 5.6431920216623556e-12 0 0 4.3870063153923135e-12 0 0 3.1324279329849245e-12 0 0 1.8789975708266292e-12 0 0 6.262559934770607e-13 
</DataArray>
</CellData>
</Piece>
</UnstructuredGrid>
</VTKFile>
