<?xml version="1.0"?>
<VTKFile type="UnstructuredGrid" version="0.1" byte_order="LittleEndian">
<UnstructuredGrid>
<Piece NumberOfPoints="251" NumberOfCells="250">
<Points>
<DataArray type="Float64" NumberOfComponents="3" format="ascii">
0 0 0 0 0 -0.25 0 0 -0.00099999999999810158 0 0 -0.001999999999996204 0 0 -0.0029999999999943271 0 0 -0.0039999999999924488 0 0 -0.004999999999990571 0 0 -0.0059999999999886811 0 0 -0.0069999999999867156 0 0 -0.007999999999984719 0 0 -0.008999999999982581 0 0 -0.0099999999999804221 0 0 -0.010999999999978201 0 0 -0.011999999999975971 0 0 -0.01299999999997375 0 0 -0.01399999999997158 0 0 -0.014999999999969531 0 0 -0.01599999999996761 0 0 -0.0169999999999659 0 0 -0.01799999999996427 0 0 -0.018999999999962731 0 0 -0.019999999999961209 0 0 -0.020999999999959669 0 0 -0.02199999999995814 0 0 -0.022999999999956611 0 0 -0.023999999999955082 0 0 -0.024999999999953549 0 0 -0.02599999999995202 0 0 -0.02699999999995048 0 0 -0.027999999999948951 0 0 -0.028999999999947419 0 0 -0.02999999999994565 0 0 -0.03099999999994377 0 0 -0.031999999999941367 0 0 -0.032999999999938787 0 0 -0.033999999999935943 0 0 -0.034999999999933022 0 0 -0.035999999999930102 0 0 -0.036999999999927188 0 0 -0.037999999999924268 0 0 -0.038999999999921348 0 0 -0.039999999999918427 0 0 -0.040999999999915507 0 0 -0.041999999999912593 0 0 -0.042999999999909673 0 0 -0.043999999999906753 0 0 -0.044999999999903832 0 0 -0.045999999999900919 0 0 -0.046999999999897998 0 0 -0.047999999999895078 0 0 -0.048999999999892158 0 0 -0.049999999999889237 0 0 -0.050999999999886317 0 0 -0.051999999999883403 0 0 -0.052999999999880483 0 0 -0.053999999999877563 0 0 -0.054999999999874642 0 0 -0.055999999999871722 0 0 -0.056999999999868801 0 0 -0.057999999999865881 0 0 -0.058999999999862961 0 0 -0.059999999999860047 0 0 -0.060999999999857127 0 0 -0.061999999999854213 0 0 -0.062999999999851286 0 0 -0.063999999999848373 0 0 -0.064999999999845445 0 0 -0.065999999999842532 0 0 -0.066999999999839618 0 0 -0.067999999999836705 0 0 -0.068999999999833792 0 0 -0.069999999999830878 0 0 -0.070999999999827965 0 0 -0.071999999999825051 0 0 -0.072999999999822124 0 0 -0.07399999999981921 0 0 -0.074999999999816297 0 0 -0.075999999999813383 0 0 -0.07699999999981047 0 0 -0.077999999999807557 0 0 -0.078999999999804643 0 0 -0.07999999999980173 0 0 -0.080999999999798802 0 0 -0.081999999999795889 0 0 -0.082999999999792975 0 0 -0.083999999999790062 0 0 -0.084999999999787149 0 0 -0.085999999999784235 0 0 -0.086999999999781322 0 0 -0.087999999999778394 0 0 -0.088999999999775481 0 0 -0.089999999999772567 0 0 -0.090999999999769654 0 0 -0.091999999999766741 0 0 -0.092999999999763827 0 0 -0.093999999999760914 0 0 -0.094999999999758 0 0 -0.095999999999755073 0 0 -0.096999999999752159 0 0 -0.097999999999749246 0 0 -0.098999999999746333 0 0 -0.099999999999743419 0 0 -0.10099999999974051 0 0 -0.10199999999973761 0 0 -0.10299999999973471 0 0 -0.10399999999973179 0 0 -0.1049999999997288 0 0 -0.1059999999997259 0 0 -0.106999999999723 0 0 -0.1079999999997201 0 0 -0.1089999999997172 0 0 -0.1099999999997143 0 0 -0.1109999999997113 0 0 -0.1119999999997084 0 0 -0.1129999999997055 0 0 -0.1139999999997026 0 0 -0.1149999999996997 0 0 -0.1159999999996968 0 0 -0.11699999999969379 0 0 -0.11799999999969089 0 0 -0.11899999999968799 0 0 -0.11999999999968509 0 0 -0.1209999999996822 0 0 -0.1219999999996793 0 0 -0.1229999999996764 0 0 -0.1239999999996748 0 0 -0.12499999999967321 0 0 -0.12599999999967451 0 0 -0.12699999999967579 0 0 -0.1279999999996784 0 0 -0.12899999999968109 0 0 -0.1299999999996837 0 0 -0.13099999999968631 0 0 -0.13199999999968889 0 0 -0.13299999999969159 0 0 -0.1339999999996942 0 0 -0.13499999999969689 0 0 -0.1359999999996995 0 0 -0.13699999999970211 0 0 -0.1379999999997048 0 0 -0.13899999999970741 0 0 -0.13999999999971011 0 0 -0.14099999999971269 0 0 -0.1419999999997153 0 0 -0.14299999999971799 0 0 -0.1439999999997206 0 0 -0.14499999999972321 0 0 -0.14599999999972579 0 0 -0.14699999999972849 0 0 -0.1479999999997311 0 0 -0.14899999999973379 0 0 -0.1499999999997364 0 0 -0.15099999999973901 0 0 -0.1519999999997417 0 0 -0.15299999999974431 0 0 -0.15399999999974701 0 0 -0.15499999999974959 0 0 -0.1559999999997522 0 0 -0.15699999999975489 0 0 -0.1579999999997575 0 0 -0.15899999999976011 0 0 -0.1599999999997628 0 0 -0.16099999999976539 0 0 -0.161999999999768 0 0 -0.16299999999977069 0 0 -0.1639999999997733 0 0 -0.16499999999977599 0 0 -0.1659999999997786 0 0 -0.16699999999978121 0 0 -0.16799999999978391 0 0 -0.16899999999978649 0 0 -0.1699999999997891 0 0 -0.17099999999979171 0 0 -0.1719999999997944 0 0 -0.17299999999979701 0 0 -0.1739999999997997 0 0 -0.17499999999980231 0 0 -0.17599999999980501 0 0 -0.17699999999980759 0 0 -0.1779999999998102 0 0 -0.17899999999981281 0 0 -0.1799999999998155 0 0 -0.18099999999981811 0 0 -0.18199999999982069 0 0 -0.18299999999982339 0 0 -0.183999999999826 0 0 -0.18499999999982869 0 0 -0.1859999999998313 0 0 -0.18699999999983391 0 0 -0.1879999999998366 0 0 -0.18899999999983921 0 0 -0.18999999999984191 0 0 -0.19099999999984449 0 0 -0.1919999999998471 0 0 -0.19299999999984971 0 0 -0.1939999999998524 0 0 -0.19499999999985501 0 0 -0.1959999999998577 0 0 -0.19699999999986029 0 0 -0.19799999999986301 0 0 -0.19899999999986559 0 0 -0.1999999999998682 0 0 -0.20099999999987081 0 0 -0.2019999999998735 0 0 -0.20299999999987611 0 0 -0.20399999999987881 0 0 -0.20499999999988139 0 0 -0.205999999999884 0 0 -0.20699999999988669 0 0 -0.2079999999998893 0 0 -0.20899999999989191 0 0 -0.2099999999998946 0 0 -0.21099999999989719 0 0 -0.21199999999989991 0 0 -0.21299999999990249 0 0 -0.2139999999999051 0 0 -0.21499999999990771 0 0 -0.2159999999999104 0 0 -0.21699999999991301 0 0 -0.21799999999991571 0 0 -0.21899999999991829 0 0 -0.2199999999999209 0 0 -0.22099999999992359 0 0 -0.2219999999999262 0 0 -0.22299999999992881 0 0 -0.22399999999993139 0 0 -0.22499999999993411 0 0 -0.2259999999999367 0 0 -0.22699999999993939 0 0 -0.227999999999942 0 0 -0.22899999999994469 0 0 -0.2299999999999473 0 0 -0.23099999999994991 0 0 -0.23199999999995249 0 0 -0.23299999999995519 0 0 -0.2339999999999578 0 0 -0.23499999999996049 0 0 -0.2359999999999631 0 0 -0.23699999999996571 0 0 -0.2379999999999684 0 0 -0.23899999999997101 0 0 -0.2399999999999736 0 0 -0.24099999999997629 0 0 -0.2419999999999789 0 0 -0.24299999999998159 0 0 -0.2439999999999842 0 0 -0.24499999999998681 0 0 -0.24599999999998939 0 0 -0.24699999999999209 0 0 -0.2479999999999947 0 0 -0.24899999999999739 
</DataArray>
</Points>
<Cells>
<DataArray type="UInt32" Name="connectivity" format="ascii">
0 2 2 3 3 4 4 5 5 6 6 7 7 8 8 9 9 10 10 11 11 12 12 13 13 14 14 15 15 16 16 17 17 18 18 19 19 20 20 21 21 22 22 23 23 24 24 25 25 26 26 27 27 28 28 29 29 30 30 31 31 32 32 33 33 34 34 35 35 36 36 37 37 38 38 39 39 40 40 41 41 42 42 43 43 44 44 45 45 46 46 47 47 48 48 49 49 50 50 51 51 52 52 53 53 54 54 55 55 56 56 57 57 58 58 59 59 60 60 61 61 62 62 63 63 64 64 65 65 66 66 67 67 68 68 69 69 70 70 71 71 72 72 73 73 74 74 75 75 76 76 77 77 78 78 79 79 80 80 81 81 82 82 83 83 84 84 85 85 86 86 87 87 88 88 89 89 90 90 91 91 92 92 93 93 94 94 95 95 96 96 97 97 98 98 99 99 100 100 101 101 102 102 103 103 104 104 105 105 106 106 107 107 108 108 109 109 110 110 111 111 112 112 113 113 114 114 115 115 116 116 117 117 118 118 119 119 120 120 121 121 122 122 123 123 124 124 125 125 126 126 127 127 128 128 129 129 130 130 131 131 132 132 133 133 134 134 135 135 136 136 137 137 138 138 139 139 140 140 141 141 142 142 143 143 144 144 145 145 146 146 147 147 148 148 149 149 150 150 151 151 152 152 153 153 154 154 155 155 156 156 157 157 158 158 159 159 160 160 161 161 162 162 163 163 164 164 165 165 166 166 167 167 168 168 169 169 170 170 171 171 172 172 173 173 174 174 175 175 176 176 177 177 178 178 179 179 180 180 181 181 182 182 183 183 184 184 185 185 186 186 187 187 188 188 189 189 190 190 191 191 192 192 193 193 194 194 195 195 196 196 197 197 198 198 199 199 200 200 201 201 202 202 203 203 204 204 205 205 206 206 207 207 208 208 209 209 210 210 211 211 212 212 213 213 214 214 215 215 216 216 217 217 218 218 219 219 220 220 221 221 222 222 223 223 224 224 225 225 226 226 227 227 228 228 229 229 230 230 231 231 232 232 233 233 234 234 235 235 236 236 237 237 238 238 239 239 240 240 241 241 242 242 243 243 244 244 245 245 246 246 247 247 248 248 249 249 250 250 1 
</DataArray>
<DataArray type="UInt32" Name="offsets" format="ascii">
2 4 6 8 10 12 14 16 18 20 22 24 26 28 30 32 34 36 38 40 42 44 46 48 50 52 54 56 58 60 62 64 66 68 70 72 74 76 78 80 82 84 86 88 90 92 94 96 98 100 102 104 106 108 110 112 114 116 118 120 122 124 126 128 130 132 134 136 138 140 142 144 146 148 150 152 154 156 158 160 162 164 166 168 170 172 174 176 178 180 182 184 186 188 190 192 194 196 198 200 202 204 206 208 210 212 214 216 218 220 222 224 226 228 230 232 234 236 238 240 242 244 246 248 250 252 254 256 258 260 262 264 266 268 270 272 274 276 278 280 282 284 286 288 290 292 294 296 298 300 302 304 306 308 310 312 314 316 318 320 322 324 326 328 330 332 334 336 338 340 342 344 346 348 350 352 354 356 358 360 362 364 366 368 370 372 374 376 378 380 382 384 386 388 390 392 394 396 398 400 402 404 406 408 410 412 414 416 418 420 422 424 426 428 430 432 434 436 438 440 442 444 446 448 450 452 454 456 458 460 462 464 466 468 470 472 474 476 478 480 482 484 486 488 490 492 494 496 498 500 
</DataArray>
<DataArray type="UInt32" Name="types" format="ascii">
3 3 3 3 3 3 3 3 3 3 3 3 3 3 3 3 3 3 3 3 3 3 3 3 3 3 3 3 3 3 3 3 3 3 3 3 3 3 3 3 3 3 3 3 3 3 3 3 3 3 3 3 3 3 3 3 3 3 3 3 3 3 3 3 3 3 3 3 3 3 3 3 3 3 3 3 3 3 3 3 3 3 3 3 3 3 3 3 3 3 3 3 3 3 3 3 3 3 3 3 3 3 3 3 3 3 3 3 3 3 3 3 3 3 3 3 3 3 3 3 3 3 3 3 3 3 3 3 3 3 3 3 3 3 3 3 3 3 3 3 3 3 3 3 3 3 3 3 3 3 3 3 3 3 3 3 3 3 3 3 3 3 3 3 3 3 3 3 3 3 3 3 3 3 3 3 3 3 3 3 3 3 3 3 3 3 3 3 3 3 3 3 3 3 3 3 3 3 3 3 3 3 3 3 3 3 3 3 3 3 3 3 3 3 3 3 3 3 3 3 3 3 3 3 3 3 3 3 3 3 3 3 3 3 3 3 3 3 3 3 3 3 3 3 3 3 3 3 3 3 
</DataArray>
</Cells>
<CellData Scalars="pressure_p0,piezo_head_p0," Vectors="velocity_p0," Tensors="">
<DataArray type="Float64" Name="pressure_p0" format="ascii">
145.63228292339721 436.70902605236876 727.23478788191437 1016.8717685836093 1305.3072124306286 1592.2520421061402 1877.4395588952793 2160.624205786663 2441.5803906380761 2720.1013666844119 2995.9981677840169 3269.0985959127775 3539.2462585237654 3806.2996534939484 4070.1312994790105 4330.6269095924881 4587.684606416673 4841.2141764399894 5091.1363620992797 5337.382189685417 5579.8923314473141 5818.6165003029 6053.5128756357899 6284.5475587237588 6511.694056409453 6734.9327916854818 6954.2506399250105 7169.6404895454616 7381.1008259470063 7588.6353376192437 7792.2525433590936 7991.9654395900661 8187.7911668187353 8379.7506943073568 8567.8685220831503 8752.1723994446693 8932.6930591633936 9109.4639666152743 9282.5210831115619 9451.9026427315839 9617.6489419919453 9779.8021417170094 9938.4060805046847 10093.506099209299 10245.14887588998 10393.382270698403 10538.255180204074 10679.817400678576 10818.119499882452 10953.212696919622 11085.148749744541 11213.979849926769 11339.758524296061 11462.537543108976 11582.369834394776 11699.308404154697 11813.406262104068 11924.716352661559 12033.291490903935 12139.184303218175 12242.447172395692 12343.132186925677 12441.291094256343 12536.975257804019 12630.235617500795 12721.122653681592 12809.686354121306 12895.976184041972 12980.041058918792 13061.929319922318 13141.688711842186 13219.366363345554 13295.008769430653 13368.661775942994 13440.370566028403 13510.179648403464 13578.132847330056 13644.273294186409 13708.64342053275 13771.284952574762 13832.238906933198 13891.545587632758 13949.244584227854 14005.374770987326 14059.974307064236 14113.080637580828 14164.73049556257 14214.959904658637 14263.804182589734 14311.297945267299 14357.475111531292 14402.368908456612 14446.01187718109 14488.43587921057 14529.67210315915 14569.751071885061 14608.702649984967 14646.556051611531 14683.339848581321 14719.081978741935 14753.809754569178 14787.54987196685 14820.328419243397 14852.170886241256 14883.10217359624 14913.146602105771 14942.327922186036 14970.669323399568 14998.193444035882 15024.922380728938 15050.877698096392 15076.080438386522 15100.551131119786 15124.309802712909 15147.375986074167 15169.768730159474 15191.506609479649 15212.607733549936 15233.089756273605 15252.969885252103 15272.264891014862 15290.991116162411 15309.164484417126 15326.800509576322 15343.914304362945 15360.520589169675 15376.633700692553 15392.26760045073 15407.435883189381 15422.151785162983 15436.428192296808 15450.277648224499 15463.712362200098 15476.744216883097 15489.384775995395 15501.645291849189 15513.536712745183 15525.069690240653 15536.254586287059 15547.10148023719 15557.620175721913 15567.820207396777 15577.710847558916 15587.301112634759 15596.599769539249 15605.615341907367 15614.356116198829 15622.83014767697 15631.045266262929 15639.00908226627 15646.728991993319 15654.212183234511 15661.465640632126 15668.496150929872 15675.310308105763 15681.914518389853 15688.315005168362 15694.517813775823 15700.528816176869 15706.35371553931 15711.998050700182 15717.467200526458 15722.766388172142 15727.900685233446 15732.875015803811 15737.694160430459 15742.362759974239 15746.885319374491 15751.266211320673 15755.509679832443 15759.619843749944 15763.600700136005 15767.456127591937 15771.189889488629 15774.80563711459 15778.306912742646 15781.697152616875 15784.979689861459 15788.157757313027 15791.234490278086 15794.212929217112 15797.096022356862 15799.886628232387 15802.587518160301 15805.201378644768 15807.730813717646 15810.17834721426 15812.546424986185 15814.837417052433 15817.053619690403 15819.197257467935 15821.27048521779 15823.275389955812 15825.213992744071 15827.08825050019 15828.900057754083 15830.65124835329 15832.34359711807 15833.978821447361 15835.558582876762 15837.084488589568 15838.558092881973 15839.980898583421 15841.354358433138 15842.679876413837 15843.958809043557 15845.192466626537 15846.382114464062 15847.528974026183 15848.634224085145 15849.699001811361 15850.724403832777 15851.711487258377 15852.661270666649 15853.574735059718 15854.452824783872 15855.296448417221 15856.106479625108 15856.883757983996 15857.629089774387 15858.343248743477 15859.026976838068 15859.680984908349 15860.305953383076 15860.902532916687 15861.471345008864 15862.012982597038 15862.528010622289 15863.016966569108 15863.480360979433 15863.918677941387 15864.332375553107 15864.72188636202 15865.08761777992 15865.429952474216 15865.749248735628 15866.045840822622 15866.320039282906 15866.5721312522 15866.802380730554 15867.011028836427 15867.198294038713 15867.364372366959 15867.509437599856 15867.633641432261 15867.737113620795 15867.819962108164 15867.882273126335 15867.924111278611 15867.945519600673 
</DataArray>
<DataArray type="Float64" Name="piezo_head_p0" format="ascii">
145.63178292339722 436.70752605236873 727.23228788191443 1016.8682685836093 1305.3027124306286 1592.2465421061402 1877.4330588952794 2160.6167057866628 2441.5718906380762 2720.0918666844118 2995.987667784017 3269.0870959127774 3539.2337585237656 3806.2861534939484 4070.1167994790108 4330.6114095924886 4587.6681064166733 4841.1966764399895 5091.1178620992796 5337.3626896854166 5579.8718314473144 5818.5950003029002 6053.4903756357899 6284.5240587237586 6511.6695564094534 6734.9072916854821 6954.2241399250106 7169.6129895454615 7381.072325947006 7588.6058376192441 7792.2220433590937 7991.9339395900661 8187.758666818735 8379.7171943073572 8567.8340220831506 8752.1368994446693 8932.6565591633935 9109.426466615274 9282.4825831115613 9451.8631427315831 9617.6084419919462 9779.76064171701 9938.3635805046852 10093.462599209299 10245.10437588998 10393.336770698403 10538.208680204074 10679.769900678575 10818.070999882451 10953.163196919622 11085.098249744542 11213.928349926769 11339.706024296062 11462.484043108976 11582.315334394776 11699.252904154697 11813.349762104068 11924.65885266156 12033.232990903936 12139.124803218176 12242.386672395693 12343.070686925677 12441.228594256343 12536.911757804019 12630.171117500795 12721.057153681591 12809.619854121307 12895.908684041973 12979.972558918793 13061.859819922318 13141.618211842186 13219.294863345554 13294.936269430653 13368.588275942993 13440.296066028402 13510.104148403465 13578.056347330057 13644.195794186409 13708.56492053275 13771.205452574763 13832.158406933198 13891.464087632758 13949.162084227853 14005.291270987325 14059.889807064237 14112.995137580829 14164.64399556257 14214.872404658638 14263.715682589735 14311.208445267299 14357.384611531292 14402.277408456612 14445.91937718109 14488.342379210571 14529.57760315915 14569.655571885061 14608.606149984967 14646.458551611531 14683.241348581321 14718.982478741935 14753.709254569178 14787.448371966851 14820.225919243398 14852.067386241257 14882.997673596241 14913.041102105772 14942.221422186036 14970.561823399568 14998.084944035882 15024.812880728938 15050.767198096393 15075.968938386522 15100.438631119787 15124.19630271291 15147.261486074167 15169.653230159474 15191.390109479649 15212.490233549936 15232.971256273604 15252.850385252104 15272.144391014863 15290.869616162412 15309.041984417127 15326.677009576322 15343.789804362945 15360.395089169675 15376.507200692553 15392.14010045073 15407.307383189382 15422.022285162984 15436.297692296808 15450.146148224499 15463.579862200098 15476.610716883097 15489.250275995395 15501.509791849188 15513.400212745182 15524.932190240654 15536.11608628706 15546.961980237191 15557.479675721914 15567.678707396777 15577.568347558916 15587.157612634759 15596.455269539249 15605.469841907367 15614.20961619883 15622.682647676971 15630.896766262929 15638.85958226627 15646.578491993319 15654.060683234511 15661.313140632126 15668.342650929872 15675.155808105763 15681.759018389854 15688.158505168363 15694.360313775824 15700.37031617687 15706.19421553931 15711.837550700182 15717.305700526458 15722.603888172142 15727.737185233445 15732.710515803812 15737.52866043046 15742.19625997424 15746.717819374491 15751.097711320674 15755.340179832443 15759.449343749944 15763.429200136005 15767.283627591936 15771.01638948863 15774.631137114591 15778.131412742647 15781.520652616875 15784.802189861459 15787.979257313027 15791.054990278086 15794.032429217112 15796.914522356861 15799.704128232388 15802.404018160301 15805.016878644768 15807.545313717646 15809.99184721426 15812.358924986185 15814.648917052433 15816.864119690403 15819.006757467934 15821.078985217791 15823.082889955813 15825.020492744072 15826.89375050019 15828.704557754083 15830.45474835329 15832.14609711807 15833.780321447361 15835.359082876761 15836.883988589569 15838.356592881973 15839.778398583421 15841.150858433139 15842.475376413837 15843.753309043557 15844.985966626537 15846.174614464062 15847.320474026183 15848.424724085145 15849.488501811362 15850.512903832778 15851.498987258377 15852.447770666649 15853.360235059718 15854.237324783871 15855.07994841722 15855.888979625108 15856.665257983997 15857.409589774388 15858.122748743477 15858.805476838068 15859.458484908349 15860.082453383076 15860.678032916687 15861.245845008863 15861.786482597037 15862.30051062229 15862.788466569109 15863.250860979433 15863.688177941387 15864.100875553107 15864.48938636202 15864.85411777992 15865.195452474216 15865.513748735628 15865.809340822623 15866.082539282907 15866.333631252201 15866.562880730555 15866.770528836427 15866.956794038713 15867.121872366959 15867.265937599856 15867.389141432261 15867.491613620796 15867.573462108165 15867.634773126336 15867.675611278612 15867.696019600673 
</DataArray>
<DataArray type="Float64" Name="velocity_p0" NumberOfComponents="3" format="ascii">
0 0 1.747191339376378e-09 0 0 1.7449655599821342e-09 0 0 1.7406342326904116e-09 0 0 1.7343518931563573e-09 0 0 1.7262646773949092e-09 0 0 1.716510726343607e-09 0 0 1.7052205721804211e-09 0 0 1.6925175071859652e-09 0 0 1.6785179359063758e-09 0 0 1.6633317113411351e-09 0 0 1.6470624558498799e-09 0 0 1.6298078674426328e-09 0 0 1.6116600120901539e-09 0 0 1.5927056026639937e-09 0 0 1.5730262650902079e-09 0 0 1.5526987922759097e-09 0 0 1.5317953863440511e-09 0 0 1.510383889689268e-09 0 0 1.488528005345973e-09 0 0 1.4662875071383577e-09 0 0 1.4437184400630255e-09 0 0 1.420873311334764e-09 0 0 1.3978012725083685e-09 0 0 1.3745482930712178e-09 0 0 1.35115732588497e-09 0 0 1.32766846483818e-09 0 0 1.3041190950563166e-09 0 0 1.2805440360007168e-09 0 0 1.2569756777739773e-09 0 0 1.2334441109353007e-09 0 0 1.2099772501167466e-09 0 0 1.1866009517180745e-09 0 0 1.1633391259469929e-09 0 0 1.1402138434587278e-09 0 0 1.1172454368391803e-09 0 0 1.0944525971643178e-09 0 0 1.0718524658591746e-09 0 0 1.0494607220696147e-09 0 0 1.0272916657507791e-09 0 0 1.0053582966676192e-09 0 0 9.8367238949432699e-10 0 0 9.6224456519045042e-10 0 0 9.410843588257251e-10 0 0 9.2020028401542544e-10 0 0 8.9959989412340829e-10 0 0 8.7928984038176027e-10 0 0 8.5927592706971125e-10 0 0 8.3956316388808953e-10 0 0 8.2015581566033379e-10 0 0 8.0105744948381452e-10 0 0 7.8227097945168188e-10 0 0 7.6379870905792796e-10 0 0 7.4564237139558184e-10 0 0 7.2780316725131694e-10 0 0 7.1028180119602552e-10 0 0 6.9307851576646116e-10 0 0 6.7619312382845736e-10 0 0 6.5962503920820385e-10 0 0 6.4337330567493374e-10 0 0 6.2743662435329615e-10 0 0 6.118133796413946e-10 0 0 5.9650166370667026e-10 0 0 5.8149929962781049e-10 0 0 5.6680386324920802e-10 0 0 5.5241270381018983e-10 0 0 5.3832296340902473e-10 0 0 5.2453159535899041e-10 0 0 5.1103538149098739e-10 0 0 4.978309484546583e-10 0 0 4.8491478306788285e-10 0 0 4.7228324676195512e-10 0 0 4.5993258916774861e-10 0 0 4.478589608857143e-10 0 0 4.3605842548141525e-10 0 0 4.2452697074520482e-10 0 0 4.1326051925394349e-10 0 0 4.0225493827029918e-10 0 0 3.915060490134616e-10 0 0 3.8100963533394547e-10 0 0 3.7076145182322624e-10 0 0 3.6075723138783791e-10 0 0 3.5099269231564527e-10 0 0 3.4146354486144596e-10 0 0 3.3216549737720178e-10 0 0 3.2309426201093224e-10 0 0 3.1424555999761136e-10 0 0 3.0561512656444289e-10 0 0 2.9719871547022962e-10 0 0 2.889921032004305e-10 0 0 2.809910928353952e-10 0 0 2.7319151761080426e-10 0 0 2.6558924418691553e-10 0 0 2.5818017564347324e-10 0 0 2.5096025421514801e-10 0 0 2.4392546378293242e-10 0 0 2.3707183213530251e-10 0 0 2.3039543301215952e-10 0 0 2.2389238794488573e-10 0 0 2.1755886790395323e-10 0 0 2.1139109476601635e-10 0 0 2.0538534261107902e-10 0 0 1.9953793886002568e-10 0 0 1.938452652628031e-10 0 0 1.8830375874568815e-10 0 0 1.8290991212749127e-10 0 0 1.7766027471211191e-10 0 0 1.7255145276603777e-10 0 0 1.6758010988832328e-10 0 0 1.6274296727962599e-10 0 0 1.5803680391741402e-10 0 0 1.5345845664423956e-10 0 0 1.4900482017382256e-10 0 0 1.4467284702235629e-10 0 0 1.4045954736922031e-10 0 0 1.3636198885259702e-10 0 0 1.3237729630508691e-10 0 0 1.2850265143350999e-10 0 0 1.2473529244788198e-10 0 0 1.2107251364277339e-10 0 0 1.1751166493572175e-10 0 0 1.1405015136587879e-10 0 0 1.1068543255646461e-10 0 0 1.0741502214460646e-10 0 0 1.0423648718089099e-10 0 0 1.0114744750211365e-10 0 0 9.8145575080032622e-11 0 0 9.5228593348138295e-11 0 0 9.2394276509050003e-11 0 0 8.9640448825159177e-11 0 0 8.6964983894281843e-11 0 0 8.4365803912107378e-11 0 0 8.1840878924039612e-11 0 0 7.9388226067224419e-11 0 0 7.7005908805373189e-11 0 0 7.4692036157043356e-11 0 0 7.2444761919456344e-11 0 0 7.0262283888686795e-11 0 0 6.8142843078063286e-11 0 0 6.6084722935059949e-11 0 0 6.4086248558796629e-11 0 0 6.2145785918334161e-11 0 0 6.0261741072996308e-11 0 0 5.8432559395578109e-11 0 0 5.6656724799462027e-11 0 0 5.4932758969747447e-11 0 0 5.3259220599876002e-11 0 0 5.1634704633397019e-11 0 0 5.0057841512619213e-11 0 0 4.8527296433767014e-11 0 0 4.7041768609156275e-11 0 0 4.5599990537727818e-11 0 0 4.4200727282866792e-11 0 0 4.2842775759294788e-11 0 0 4.1524964028426629e-11 0 0 4.0246150602747659e-11 0 0 3.9005223759661942e-11 0 0 3.7801100864468082e-11 0 0 3.6632727703706236e-11 0 0 3.5499077827553539e-11 0 0 3.4399151902922898e-11 0 0 3.3331977076139513e-11 0 0 3.2296606346109823e-11 0 0 3.1292117947783278e-11 0 0 3.0317614745934594e-11 0 0 2.9372223639187031e-11 0 0 2.8455094974567718e-11 0 0 2.7565401972423475e-11 0 0 2.6702340161763617e-11 0 0 2.5865126825976481e-11 0 0 2.5053000458629253e-11 0 0 2.4265220230052057e-11 0 0 2.3501065463727698e-11 0 0 2.2759835123042492e-11 0 0 2.2040847308041556e-11 0 0 2.1343438762161497e-11 0 0 2.0666964389020674e-11 0 0 2.001079677880346e-11 0 0 1.937432574458316e-11 0 0 1.8756957867960985e-11 0 0 1.8158116054379225e-11 0 0 1.7577239097843461e-11 0 0 1.7013781254538131e-11 0 0 1.6467211825838113e-11 0 0 1.593701475021357e-11 0 0 1.5422688203803452e-11 0 0 1.4923744209882096e-11 0 0 1.4439708256676862e-11 0 0 1.3970118923801386e-11 0 0 1.3514527516483797e-11 0 0 1.3072497708503442e-11 0 0 1.2643605192525617e-11 0 0 1.2227437338602041e-11 0 0 1.1823592860069829e-11 0 0 1.1431681487165919e-11 0 0 1.1051323647696056e-11 0 0 1.0682150155234096e-11 0 0 1.0323801903952276e-11 0 0 9.9759295708100047e-12 0 0 9.6381933239763204e-12 0 0 9.3102625382140764e-12 0 0 8.9918155165110717e-12 0 0 8.6825392180375568e-12 0 0 8.3821289921390528e-12 0 0 8.0902883184172923e-12 0 0 7.8067285526611856e-12 0 0 7.5311686784293767e-12 0 0 7.2633350638605102e-12 0 0 7.0029612245852184e-12 0 0 6.7497875910851493e-12 0 0 6.5035612818887474e-12 0 0 6.2640358809363542e-12 0 0 6.0309712205172134e-12 0 0 5.8041331684951042e-12 0 0 5.5832934202058192e-12 0 0 5.368229294497553e-12 0 0 5.1587235346287253e-12 0 0 4.9545641126334626e-12 0 0 4.7555440381608689e-12 0 0 4.5614611710333581e-12 0 0 4.3721180374713421e-12 0 0 4.1873216500637136e-12 0 0 4.0068833314176702e-12 0 0 3.8306185405088065e-12 0 0 3.6583467031606262e-12 0 0 3.4898910448669198e-12 0 0 3.3250784271876864e-12 0 0 3.1637391866466896e-12 0 0 3.0057069764746881e-12 0 0 2.8508186112778299e-12 0 0 2.6989139135987048e-12 0 0 2.5498355636408006e-12 0 0 2.403428950713666e-12 0 0 2.2595420269810146e-12 0 0 2.1180251634722967e-12 0 0 1.9787310079074474e-12 0 0 1.8415143442688981e-12 0 0 1.7062319541868435e-12 0 0 1.5727424799789928e-12 0 0 1.4409062891066227e-12 0 0 1.3105853401791489e-12 0 0 1.1816430499249907e-12 0 0 1.05394416181693e-12 0 0 9.2735461533268901e-13 0 0 8.0174141644662762e-13 0 0 6.7697250883599351e-13 0 0 5.5291664613294065e-13 0 0 4.2944326411032598e-13 0 0 3.0642235444254621e-13 0 0 1.8372433809580287e-13 0 0 6.12199393801621e-14 
</DataArray>
</CellData>
</Piece>
</UnstructuredGrid>
</VTKFile>
