<?xml version="1.0"?>
<VTKFile type="UnstructuredGrid" version="0.1" byte_order="LittleEndian">
<UnstructuredGrid>
<Piece NumberOfPoints="9" NumberOfCells="11">
<Points>
<DataArray type="Float64" NumberOfComponents="3" format="ascii">
0 0 0 0 1 0 1 0 0 1 0 2 0 1 2 0 0.5 1 0.5 0 1 0.5 0.49999999999999989 1 0 0 2 
</DataArray>
</Points>
<Cells>
<DataArray type="UInt32" Name="connectivity" format="ascii">
2 1 0 7 6 2 0 7 5 6 0 7 1 5 0 7 2 6 3 7 5 4 7 1 6 5 0 8 5 6 7 8 4 5 7 8 8 6 7 3 4 8 7 3 
</DataArray>
<DataArray type="UInt32" Name="offsets" format="ascii">
4 8 12 16 20 24 28 32 36 40 44 
</DataArray>
<DataArray type="UInt32" Name="types" format="ascii">
10 10 10 10 10 10 10 10 10 10 10 
</DataArray>
</Cells>
<CellData Scalars="pressure_p0,conductivity,sigma," Vectors="velocity_p0," Tensors="">
<DataArray type="Float64" Name="pressure_p0" format="ascii">
-0.0083185702273929317 -0.0017436921784944118 -0.028304650788820801 -0.017188622049450927 1.1338266391343491e-16 -2.4914965923716892e-16 9.540979117872439e-17 0.028304650788820558 0.017188622049450063 0.0017436921784946629 0.0083185702273925605 
</DataArray>
<DataArray type="Float64" Name="velocity_p0" NumberOfComponents="3" format="ascii">
-0.05422144427056802 0.013044521644973016 -0.39191153868720252 -0.10922611026363228 -0.032413659845084389 -0.48282790166731654 -0.010323334058041408 -0.053014965776656278 -0.28502234925613662 0.046006073926542532 -0.0062320422950793222 -0.19145650229298336 1.1518563880485999e-15 2.0816681711721685e-17 -0.70128012219458191 0 -6.0715321659188248e-16 -0.20392058688314052 -1.5742615544489522e-16 -1.5916087892087205e-16 -0.15834574958674288 0.010323334058041395 0.053014965776658284 -0.28502234925613651 -0.046006073926540776 0.0062320422950794124 -0.19145650229298306 0.10922611026363224 0.032413659845084056 -0.48282790166731593 0.054221444270566015 -0.013044521644972801 -0.3919115386872033 
</DataArray>
<DataArray type="Float64" Name="conductivity" format="ascii">
0.41249999999999998 0.51249999999999996 0.27500000000000002 0.17499999999999999 0.76249999999999996 0.20000000000000001 0.13750000000000001 0.27500000000000002 0.17499999999999999 0.51249999999999996 0.41249999999999998 
</DataArray>
<DataArray type="Float64" Name="sigma" format="ascii">
0.10000000000000001 0.10000000000000001 0.10000000000000001 0.10000000000000001 0.10000000000000001 0.10000000000000001 0.10000000000000001 0.10000000000000001 0.10000000000000001 0.10000000000000001 0.10000000000000001 
</DataArray>
</CellData>
</Piece>
</UnstructuredGrid>
</VTKFile>
