<?xml version="1.0"?>
<VTKFile type="UnstructuredGrid" version="0.1" byte_order="LittleEndian">
<UnstructuredGrid>
<Piece NumberOfPoints="599" NumberOfCells="1080">
<Points>
<DataArray type="Float64" NumberOfComponents="3" format="ascii">
0.014261120859510951 0.01476364028082537 0 0 0 0 0 0.022222222222172731 0 0.030393520779906098 0.016393210364487439 0 0.020408163265391192 0 0 0.040816326530782147 0 0 0.051838137503398218 0.016097170421718029 0 0.06014203299484646 0.028800515441748099 0 0.061224489796173232 0 0 0.05997194079032258 0.04512095697672458 0 0.04395097424174637 0.032880702536447093 0 0.038287656994838798 0.053045050008237282 0 0.016784005309402529 0.052942578394164941 0 0.02085901357486063 0.03347530932066585 0 0 0.04444444444434547 0 0 0.066666666666538782 0 0 0.088888888888738943 0 0.0207341866468383 0.086451824494522836 0 0.024773355977313231 0.067081421531037314 0 0 0.1111111111109777 0 0.01494008276341045 0.1008555938909899 0 0.021796908541191849 0.1185794897852074 0 0.043801444738163997 0.1121383540808015 0 0.032717449973680472 0.098326472725607031 0 0.05587596540385175 0.095449649785454282 0 0.044093637822741567 0.077061145711795925 0 0.055599947731468188 0.063390459096043877 0 0.069428650838703046 0.078109012133597111 0 0.08347748713356852 0.068933876054200802 0 0.064375376681575586 0.1198167832100239 0 0.077413543502816748 0.10030203404452311 0 0.085089729736171488 0.119617281284406 0 0.098955340253080407 0.1056404584089907 0 0.1170604350569325 0.1121452492360058 0 0.094169754915606196 0.082171266397786241 0 0.11693983748236721 0.093447218298871995 0 0.11837332598570451 0.071168852510895733 0 0.12111194339545479 0.04844499445275665 0 0.096189142707762201 0.05697243691702588 0 0.103555154504992 0.036186477933083078 0 0.11299168747658229 0.018223577284824748 0 0.12394502061713961 0.031222640348626381 0 0.1224489795923465 0 0 0.1020408163269555 0 0 0.091646580262525548 0.018330347140998932 0 0.081632653061564309 0 0 0.070237773272778581 0.018029566749463509 0 0.074122400072202652 0.058482788768393967 0 0.079421396932280591 0.03754246087862223 0 0 0.20000000000000001 0 0.020408163265257129 0.20000000000000001 0 0.040816326530514258 0.20000000000000001 0 0.061224489795771393 0.20000000000000001 0 0.054019669473298691 0.18366584576742709 0 0.049714346880519983 0.16645371985076809 0 0.033215856157334828 0.17850266876265189 0 0.014023333902158141 0.182394709209038 0 0 0.1777777777777613 0 0.017135169343986061 0.16431058345961719 0 0.019520277349320991 0.14318452722090769 0 0 0.15555555555552261 0 0 0.13333333333325489 0 0.042554332387182259 0.13368213047820371 0 0.035635253823565798 0.15364607071364031 0 0.049938656267179422 0.14995167814392149 0 0.060260681239859858 0.13944864135565019 0 0.064370693814434943 0.15502759500660421 0 0.08062060994580153 0.13918761086732001 0 0.1042644740555471 0.12799034491895131 0 0.12024457380872181 0.14116844394060329 0 0.102056949318844 0.1521532026904773 0 0.105956119678229 0.17266400992904621 0 0.092232684106244869 0.1854899681538511 0 0.082775318469293938 0.1659099040050232 0 0.064606319906987564 0.17179095407592421 0 0.072854112358079245 0.18446705898418439 0 0.081632653061028529 0.20000000000000001 0 0.1020408163262857 0.20000000000000001 0 0.1104245037805535 0.18857291040970159 0 0.1224489795915428 0.20000000000000001 0 0.15160143162222731 0.18868551043161441 0 0.1428571428567999 0.20000000000000001 0 0.16326530612205711 0.20000000000000001 0 0.18367346938731419 0.20000000000000001 0 0.1866126448812436 0.17879102272255121 0 0.16862026566618729 0.15959243955905791 0 0.16816720278504441 0.18336701113475271 0 0.14970749744881609 0.17228271921525401 0 0.12945662023126131 0.18258835036036711 0 0.1272915627839476 0.15904714937094391 0 0.1470889987074466 0.15503786192178531 0 0.13948070701489459 0.1390949041904434 0 0.15875129629214141 0.1419258674381034 0 0.17653996983443249 0.13915185707924671 0 0.19794103540912841 0.13709335085893029 0 0.19043327742881019 0.15621779145264789 0 0.20975416132060401 0.1543080645520564 0 0.21868983795624461 0.137293434797324 0 0.24137752222243089 0.13632406157444521 0 0.22718765864317819 0.15249946285597349 0 0.2231302589847598 0.16911942216408479 0 0.2457904739350554 0.16109605343360389 0 0.2351917770941058 0.18375930957726971 0 0.2054582936884348 0.17401498380647001 0 0.2187377868626201 0.18565360194747971 0 0.20408163265257129 0.20000000000000001 0 0.2244897959178285 0.20000000000000001 0 0.2448979591830856 0.20000000000000001 0 0.1625436484314447 0.036804562425001693 0 0.159070163450932 0.056161337383110708 0 0.17681721105602091 0.04519280370752065 0 0.17460465285316529 0.02096245932491814 0 0.18367346938851981 0 0 0.1632653061231287 0 0 0.1577961925906774 0.017980129894371109 0 0.14285714285773771 0 0 0.13485946140366309 0.018399825352228508 0 0.1442826822303237 0.040178256704826013 0 0.13780375874147449 0.08587856819508799 0 0.14202611285248121 0.063574988226385382 0 0.1273498583307075 0.1248993784176109 0 0.132629020125939 0.10596507531517151 0 0.15385507203443771 0.1018757379169621 0 0.1426249752706252 0.1199675913907549 0 0.1618538799100781 0.1222458194092621 0 0.1745660379747517 0.1007160508754716 0 0.185197186166281 0.1177798427629492 0 0.16132583170166459 0.080257896954238864 0 0.18147781125296911 0.08573441888153932 0 0.17960122083731611 0.065925166371224572 0 0.20214832970878871 0.076994743220600292 0 0.19720110103667809 0.1002115461984506 0 0.21683888967822121 0.10000000000000001 0 0.20703177974839779 0.11780911450935801 0 0.22819533206086851 0.1195208034094417 0 0.23663154269384731 0.099999852711542658 0 0.24939025260864359 0.1150460111476158 0 0.22831221601338739 0.079998709103160537 0 0.24944762486911271 0.084858033575160474 0 0.24324251900825311 0.061777774471969589 0 0.23430583592859611 0.036648549012572591 0 0.2206735814990323 0.058175712829474563 0 0.20847249073992699 0.035540542589399177 0 0.19009301373328921 0.034073157834657267 0 0.19587735175055279 0.052872443167043211 0 0.1962989411828461 0.017947180708190801 0 0.21686838772826461 0.017106924500170241 0 0.20408163265391091 0 0 0.22448979591930199 0 0 0.2351672088610714 0.01465491501464453 0 0.24489795918469301 0 0 0.2653061224500417 0 0 0.25700251308237992 0.02362562813361252 0 0.27627320067291511 0.015564804075607201 0 0.2604232671994261 0.057679262856618799 0 0.25290916639082961 0.044910650108052209 0 0.26957169673549303 0.044822036065487528 0 0.27792816074553828 0.032494741090538792 0 0.29221405623725932 0.048840666425783288 0 0.28571428571537621 0 0 0.29496902623213711 0.020844035069628279 0 0.30612244898071062 0 0 0.31517107634029018 0.01465896475638216 0 0.32653061224604502 0 0 0.33145742517250892 0.017309542875164199 0 0.31677586907004962 0.035141245837118328 0 0.31681483488107132 0.058957338789268968 0 0.33758663167877262 0.058928408982099223 0 0.32842382447494362 0.047084260423130908 0 0.34266742307447001 0.036616865978363132 0 0.35382303008551941 0.055669198399400099 0 0.36744658438200012 0.047139053814245289 0 0.3634391732638978 0.021285487765500231 0 0.36734693877671393 0 0 0.34693877551137942 0 0 0.34607670892999892 0.018232357377153421 0 0.34479714999748901 0.1070013371697366 0 0.36299333490009011 0.1000000001223464 0 0.36763422178439081 0.063935884846261573 0 0.35349678190036288 0.07494533106641324 0 0.34416248687044387 0.092060188839689125 0 0.33007702991853233 0.078018205422051803 0 0.32944813763574499 0.10033607041789749 0 0.33260053143876739 0.1216090427884178 0 0.31071932435062022 0.114093667545518 0 0.29087709268298773 0.1003043475985618 0 0.28952475824062379 0.1177530934153852 0 0.29883676499032752 0.067246372919364389 0 0.31035370175335408 0.075542620387850062 0 0.31203408154665191 0.09189145499045652 0 0.29400579743018729 0.081599729818108591 0 0.27706731006400792 0.066417608078668589 0 0.26994257067391991 0.088943895605526055 0 0.25853353937696621 0.072259660934973852 0 0.27053077172815598 0.111189119451058 0 0.25523398141423093 0.10000272698805091 0 0.25847980686324717 0.12770187716902551 0 0.27707581061104891 0.13319601811286441 0 0.26817976395541898 0.15456122308673331 0 0.25766247549985788 0.142586694929493 0 0.25938337546477008 0.17946889585988759 0 0.27639076522410722 0.18446406430834869 0 0.27792817947646747 0.16750522292582129 0 0.29501222322187942 0.1791057009806894 0 0.29842079183030662 0.12998231436892371 0 0.29221519101341942 0.15115954652305769 0 0.26530612244835627 0.20000000000000001 0 0.28571428571363161 0.20000000000000001 0 0.30612244897890678 0.20000000000000001 0 0.32653061224418212 0.20000000000000001 0 0.34693877550945729 0.20000000000000001 0 0.36734693877473262 0.20000000000000001 0 0.33758666416873601 0.14107159639913791 0 0.32842392662435238 0.1529157576615422 0 0.31761276193294607 0.13934109139260939 0 0.31690933305773178 0.1645813199607519 0 0.31521253297539792 0.18526279960020131 0 0.3314880473742895 0.18262697705956521 0 0.34266746752872612 0.16338314173859969 0 0.34607673681674878 0.1817676475111932 0 0.36149988251448367 0.1794864343342604 0 0.36744430008880419 0.15270144407146971 0 0.35382303743801341 0.14433080265578599 0 0.35385728819193768 0.12500141966826869 0 0.36763422182444933 0.1360641150748462 0 0.38932598636737709 0.14216356842446981 0 0.38178705946202901 0.16654914399930651 0 0.38443243439069508 0.18679405704080401 0 0.40004235824763468 0.1747287639112568 0 0.39693031049940158 0.16000608545903319 0 0.42339944589258222 0.17596354166666661 0 0.43526905810909922 0.15669631231630171 0 0.42751872056312329 0.13647904948301201 0 0.40910089998727261 0.13275104121318221 0 0.41173616890562409 0.1538501493232815 0 0.38775510204000779 0.20000000000000001 0 0.40816326530528307 0.20000000000000001 0 0.4285714285705583 0.20000000000000001 0 0.44897959183583358 0.20000000000000001 0 0.45785401870150072 0.18847821593774741 0 0.46938775510110892 0.20000000000000001 0 0.48979591836638398 0.20000000000000001 0 0.45537322177885148 0.1559852445502132 0 0.46466881387066922 0.13472105192062919 0 0.445187673773
[...]
<CellData Scalars="A_conc," Vectors="" Tensors="">
<DataArray type="Float64" Name="A_conc" format="ascii">
0.0359830837000258 0.053085573444145356 0.049019424400779193 0.073436842613661124 0.11991650001252632 0.0846953235569608 0.18382173629596626 0.174300123319589 0.10736504261370376 0.26615708016789275 0.37968351816941343 0.28149884623909227 0.41293495820533893 0.25285343766269397 0.17982838735118992 0.2740105486900567 0.11223678969757447 0.090541572130532655 0.070188991740414639 0.028538914911604887 0.04530693195448264 0.05297095348161554 0.033033993730438874 0.049256965607745548 0.050533477143317296 0.030188683431909301 0.084659685982566332 0.050432771195324452 0.028407550225626368 0.034743529774904081 0.079287479651755643 0.078174418004196583 0.11345389559353794 0.12472266284500406 0.1886203469914946 0.28490073904557794 0.19445111488483735 0.20505511449466443 0.1435529772783074 0.12335289716797353 0.18115655889822957 0.2892045774581678 0.29668043758240309 0.45892455257495124 0.62450388984196925 0.45802749584496105 0.64532002273807443 1.0686091220874985 0.76329472137072718 0.59744638182645549 0.40040801286466599 0.97349057583811138 0.84262743537255369 1.2073455323767912 1.5571311860319277 1.3247321773650234 1.832650296135927 2.3278249313768011 2.01578216258202 1.2851719040944778 1.6970421137161082 2.3021475530201663 1.838560945438324 1.4459450646061045 2.0339159387876315 2.5961389840482161 1.9312014377120605 2.0217754717279828 2.6241548172843423 1.5075788563457673 1.4367969826752689 0.99696995068154748 0.70646035328715673 1.1152427819021837 0.7988127350208738 0.56676481292555614 0.54031234263808536 0.37559270841596287 0.52521792587168947 0.3687176138201152 0.77412161859890527 0.71168081100084424 1.0226229797746988 0.039997655605144712 0.097015025265749177 0.23882954112315347 0.27203653757007984 0.24300991604766542 0.31996925163917067 0.1791404947055818 0.12882863782484594 0.18280061020389851 0.15137257878326721 0.05284345589619395 0.065140417551355592 0.03611990670536027 0.026962658357391523 0.024938516721908104 0.086600644515332198 0.066689793324861552 0.043012724600930516 0.027476954629451884 0.046372024882370924 0.074390405216423816 0.17287689405337039 0.11332212050667506 0.24055998399557504 0.34203766265440733 0.29804157517556062 0.42557577038885636 0.61108902989451586 0.63042559649512642 0.44195696248980676 0.84894177444288199 0.86057968362476034 1.6388115155893981 1.1830112863464586 2.0610992708720266 2.0996414279310152 1.1564273559342035 2.2452876498347978 1.5929478127843408 1.7575176145563942 1.3637888894892716 0.94846686077570519 0.69272425755532097 0.42734888821934508 0.52822122390260007 0.37583789542574275 0.35577590652792501 0.50965594190961439 0.72731269458511916 1.0142996632841226 1.3872169903234537 1.865350167311947 2.4473266794018862 3.0169283684189212 3.8143376727597946 4.9484834021289661 6.8397789625618639 5.9998215503253238 8.0333116039217973 6.7344874920661155 7.7428190862749933 5.7146163259739522 4.9259496364238053 3.9458372812546347 2.9709914209065498 4.5555606250104317 3.6653959109507901 4.3061043684680937 3.4499003441394684 2.7875771695021836 2.7096672217625342 3.4502037446894032 4.049880772563764 4.9606549036595196 5.9513294639502163 5.1970548200818723 6.1849562513649525 7.1191261444505241 8.2468847732967898 7.0113323163234771 9.67664527977891 8.4307376540281389 10.89047025313536 12.135134850259277 10.896590628739785 13.376732350215551 15.502493590184844 14.347349162399661 15.164043462054554 13.182493983659029 12.16930199961865 13.138261095195443 14.141856233562837 15.069753334457893 13.218542739545265 12.286215656050672 11.511773283895598 11.210876746773641 10.057769751991765 9.0184013556808544 10.374987917685683 9.1172277093519938 12.375236173708855 13.537516147305961 15.326093591594137 14.337188021568775 6.0647507262280644 7.0286186992967004 6.8570740282510947 7.9513177791868044 7.8112691020977074 8.5657595284479058 8.4252663507135939 7.2356019194811534 6.3817833230872631 6.040913332302412 4.0431521416268712 4.2270969418432687 5.3160693304670588 3.387594791438719 3.3659802240752379 2.6144490389212298 5.0767103893369017 5.1577791917905245 4.3103996734304912 3.3921018824323852 2.4925544295395663 2.9927479024481496 4.5260364839508629 4.9047179766845419 3.8296275017272849 2.7545355609914144 3.2547605848561258 2.8686659850024965 3.562827867367977 3.936863784594768 4.7676227291047439 5.6676859299254403 5.5536456472747355 8.1337293605426098 7.8937769362106227 6.7302291550823812 5.7874243413794879 6.6729609911549996 6.8227820901182907 9.1610170191784484 7.9350053558026055 9.2486394200156319 11.545434474970538 10.375712033713631 10.336343076059995 11.945517823674319 9.5828442787467871 9.457150038611033 10.769933903771836 11.926094309000472 12.113909745601216 13.073165907630973 15.196792396372121 15.188943960916736 14.607783742519519 14.125138045340107 13.365098506964127 13.08666164884572 14.135799961714518 14.618990970720578 14.796536453799707 15.414282820023363 12.226166890753969 13.719891460179241 10.936545778241307 8.7688211839899033 9.7717661524413071 9.8332319123088965 9.8005061621659166 10.84811377772186 12.333922543850413 11.068698335554007 13.481486347901614 13.451673961206749 12.043442841360392 14.396744364373742 15.48240715389694 14.530460241650726 16.176204679259882 16.953205949191215 16.873438171522835 17.491286323447341 15.537085435302949 16.276863277651163 16.228907383643197 16.785039174011285 17.388790183639689 16.817437952314023 17.174035098724502 17.664777482883821 17.721884005364092 17.867525652913393 17.91913808417311 17.888504034556007 17.972098675214255 17.838600963245671 17.454068418891111 17.908905211185495 17.98696782352112 17.807449308752759 17.405076284093887 16.185573449707441 16.943766376750283 17.353911544433231 16.651242226271627 17.690417005582287 17.748832063453982 17.493343344381131 16.960338219272572 17.570013946567872 15.899487672788943 15.211570184011233 16.53842286308873 13.992638600901209 14.76911026621439 13.97771185656811 13.532846788676835 14.715915750389479 15.503784964769203 16.084926573785342 16.197031008368079 15.325407204883474 16.185450032961448 14.514053219461932 14.615170308152759 14.12016883170724 15.15386974369458 15.927921646576275 15.429055371572076 16.996099936973849 16.351164426930573 17.385015143304837 16.819245159306757 17.719449318307788 17.448743809745217 17.785857422670215 17.732259307240366 16.762064343187049 16.876594732458592 17.411539851310195 17.822867763636907 17.947628226251251 17.882657330986646 17.5857627391891 17.93728834305983 17.888680629597783 17.906626157881476 17.856824536697424 17.580535353278943 17.769541445824316 16.894702798003319 17.312247496607363 15.970080394406452 16.330909489008921 16.26991818821546 15.522140199344561 15.628902316895445 17.387229286730477 16.972545486849924 17.153571628401476 16.750595026698441 15.964552865392179 16.394093429631866 16.208076357445549 15.550800991598015 17.195134031514481 16.767742157923607 15.898258209704121 16.198925339764774 17.088541913313556 17.451799371860758 16.892329189817097 17.828343412860811 17.516281049221881 17.996064749169872 17.968265163187603 18.014334683395397 17.937408443123878 17.91465132247793 17.720184608564946 17.726901154582272 16.218855370321826 16.929408342986616 17.434330136364377 17.831452285989485 18.005319306301367 18.074664124858781 17.64326957312721 17.960912619979496 17.245837626399435 16.568100394736685 15.259178410676446 14.140419825770238 17.043926702752572 16.792344240789276 17.358845569596951 17.740685595423678 17.571404874149003 17.829143235436145 17.764537753549995 16.648227885703907 17.390996926813269 17.657609070106126 15.181221963902845 15.940313852361212 16.037887601775942 13.943834502659794 14.926963029620184 14.148552099010146 15.968699926128119 16.615227508000352 15.975665530382591 15.194719086018573 14.080763641032334 11.623707035215688 12.836156836808755 10.146120758216068 9.5586613429213934 10.702860949098664 11.562690152637867 12.809146971814492 12.894162258781183 11.424272263082836 10.023973695014174 9.3495196984796305 10.509276408011392 8.563152015447681 8.6499946268643519 5.6955790628990215 5.4667385452439454 7.0287364969251636 5.4199244846482877 6.8091857756689276 7.4460458718802522 8.1127381880774863 12.826936932159789 11.454456463858843 6.9984076870949536 4.3737398359348036 3.3637034504616867 2.8901848475757976 2.131902420456925 1.2226312489366773 0.83426238000006303 3.4433226985217775 2.729304584132755 4.8750026190670699 3.968984848936163 4.4444890474820875 4.3494362273698641 2.9045235571658221 3.3870574124391863 2.3974955678965673 1.8105518045527238 1.8038583143098756 1.316701099266143 0.89200251544015552 1.0862815508853265 1.3927050863162704 2.0747896654634506 1.7038975142962518 0.84183158753183163 1.1970578014277777 0.98028390289199918 1.3194869548664594 1.0720803878945657 0.95651012348397502 2.2443483865439555 1.7348994157328084 2.9723327840054745 3.4498779242633733 2.3650897016886598 2.6526992945159389 4.476335920081719 3.7430112389284753 4.476870542143681 3.9649310339102568 3.0467241502423024 2.7650947216771997 1.7159670307573687 2.1914820985244114 1.6132801544229871 0.95182540650901748 1.2226254818210429 1.2082989538303046 1.1242513418694986 0.86698893562111889 1.4357532746209123 1.8529239507025619 2.1090491705256529 0.85590579551623081 0.92221814725341744 1.3515269418571152 1.8330323346240582 1.2461181433230983 2.9153165230938791 2.1608275175062421 2.9295344125775706 3.4265242866956793 4.3855719415844074 3.3855384737861201 3.4284306991718587 2.7663664502974163 2.4422428867090553 4.6323531365118527 4.5615610690820922 6.4232503768411799 5.3023995560174679 7.1179000901062608 7.9924599155639999 5.7279813024737045 5.7446245270584448 8.8259532767589537 8.3531232625024092 7.0149220469533757 9.7741656102604608 11.587994918290111 12.854034107407465 12.325089568478059 10.936880801970091 9.5666820297663016 10.180452086267008 11.236498387596811 12.583423177630372 12.867122080122433 11.615673213203161 10.013644715541115 9.9731507159371358 11.485655426859005 13.179093309779965 13.07749230948388 11.388970995958598 9.7397988477746367 6.9860348439835054 8.7377617746484155 8.4287548978725724 6.3544553841128897 5.798230629268188 5.0318219469844685 5.86236204569569 8.2992370895877663 7.1675267932649973 8.5094980468988837 7.3680556535599946 0.00014503484200290164 2.0160213177694698e-05 2.2506523242191674e-06 4.3655595751318582e-09 1.1867344511498174e-07 7.1583505760647359e-10 1.4435565590110372e-18 1.3033056460816072e-09 2.0917132807579404e-09 4.1062525398038105e-10 5.157449920741231e-09 3.4879312372019928e-07 2.737465419711333e-07 3.898243345603809e-14 2.2872526951143428e-06 1.6113056548457609e-07 6.7773976176130831e-06 1.6506968941827788e-05 8.3622401879870372e-05 0.00033085732554842702 6.0474233004643735e-07 6.5712063232773822e-06 4.0394775011436954e-06 5.4529823817513656e-05 1.9649587152782098e-05 9.42221466179311e-05 1.6173415848482208e-05 0.00024723631932762051 0.00051140884539258209 0.00013296798301851886 0.0065608267557833461 0.0019297954338121355 0.0025014134637398309 0.0078175668925500631 0.00086350882003166218 0.0033542584248955122 0.00049608617876715372 0.00026629417829590347 0.0058019971521959023 0.0012573238484170717 0.092603486771867916 0.01493323560567221 0.29520250810734394 0.24748924347326934 0.016362055408060776 0.02338743220015373 0.071003336647826792 0.05496462388497754 0.18041357051335727 0.16542062700875304 0.00079303900129371724 0.0088225680075118829 0.0020979010086610004 0.0001226019077985987 1.0854594744035943e-05 1.0076290417492542e-07 5.360656572541646e-07 9.9764809823937297e-07 3.2172200893624275e-08 3.7743024307160528e-10 1.0384028794054581e-08 1.3178088189567999e-09 7.4718220153046266e-09 2.2206195331777577e-08 1.2167132588953694e-08 2.4787462183191044e-17 2.2412906103050698e-09 6.6873069349729967e-10 9.823345857706258e-06 5.0405195117288615e-07 1.4132369955854547e-06 8.2104704515548295e-06 2.2756948263727266e-05 6.7546815123958599e-05 6.7238757181146052e-05 2.0646642161696118e-05 7.5826804745102332e-05 4.1338198406467547e-06 1.0489563103878573e-07 3.2570366991581772e-07 2.4146866307931107e-08 7.4284135151565473e-10 2.5035979101671011e-09 1.3190980817672508e-08 6.0272288590498962e-09 3.640646248413028e-17 1.1446790282462283e-09 3.1933075202224805e-10 2.1072255538346791e-06 3.6411552558655338e-06 2.775653696045365e-05 2.8708009270265382e-05 0.00029834939876956701 0.0020192525208012095 0.0003541232219420134 0.0011220837369888637 0.02129359124180126 0.0046942340229264674 0.012436862279729313 0.007783832190400691 0.11622370342380875 0.054199314894071517 0.27265537403621642 0.35289836367654015 0.14676223212534584 0.045370869876833197 0.0183368455127314 0.073436085923376651 0.2154305476639205 0.08451484867536016 0.0093414440256017472 0.034060052754077225 0.0062873842015860942 0.001585847212345622 0.0006626716380292053 0.0032547977369781506 0.00070938462386034985 0.0030621740609635918 0.00089782637644690967 0.010310286615900692 0.050794193634888476 0.27449611697034415 0.14682344401529046 0.15858127195234017 0.077286143481701236 0.013640391757201425 0.023389369941902442 0.073720006314495337 0.0301655004304833 0.19374053849454209 0.27416620405242131 0.10337747812204565 0.034173472744083083 0.017789764393284672 0.0049080957813981063 0.0064200050808024892 0.00018973814153099494 0.00068819122009817417 9.1765096775749377 12.820489494947095 13.460394607558602 3.6419352063064876 5.7654386293611175 5.8246221367447255 3.3244872648088699 1.7797366491481998 0.66227342845674841 0.38288801627307367 0.71077390483081171 2.2302904214863029 1.4867663585973472 2.5435651799974708 0.38823307862676582 0.83101846812712965 1.2833436894999832 4.3488671923336231 5.0019857992084713 9.6350480227370756 7.9817557966651229 11.246047043369625 11.782363479426035 12.026197923661639 10.670333679415284 4.5777116603743382 6.9283783347822983 7.7786020014150905 7.5209194473036582 2.6563117172082782 0.4758694127354578 0.70513352969902798 1.618255797649145 2.8638610695711222 2.3402024788889166 1.0645988468826624 0.76310150369393037 3.4432745276247432 1.5874433652589468 6.6970264101538115 5.2728992734992577 3.9838373781115046 14.256969206686842 9.6376853469190777 11.635937648151339 8.4239164574991321 15.305116038085607 19.24379131568233 17.766205094844473 26.138202226669925 22.865143593516706 22.646543942369458 25.949012330773623 29.54414547130461 31.677997252326499 33.11439510016973 33.201146504100876 29.614436622733617 29.675676368596299 31.932831816941576 32.751387810846808 33.011002654562354 33.536399351821657 31.640134160545998 29.033575486256414 25.723500018855106 22.295542061176512 17.270930477552081 16.283542625349682 16.724807175979883 20.46693217983907 18.927944674205161 28.010379204407236 24.928306746424251 29.568511224492205 31.653801100344765 33.647362382203539 33.154211873138323 33.318139896809029 31.266595026006293 32.301025699465058 33.06465252993214 30.120277824499318 22.280863594487105 26.610032164345341 23.878009865640156 17.476901103309316 4.9499771730365003 8.2170617372154862 3.0516165955904753 0.43522426570462425 0.43023152033750017 0.97353185999579928 1.0656330855709035 1.8646277483375644 1.5382746404845402 2.7609614406066925 1.1195986498551134 0.61948327185643615 0.62075889446304156 2.2717013203278285 1.3331288386441982 3.4111508084008522 2.2581724201479982 3.472702227647829 5.0987629696917987 11.600678805126641 8.2736217635878475 8.8697100962489372 12.318321274326998 4.3724826356059143 6.0019587826062182 7.9232779504342306 12.968474918133541 12.15089819259244 17.585391817263265 27.26796500821991 23.278438725072007 23.843443412037185 16.50959962097194 17.296411752308231 22.779864367171626 26.459784739226109 21.481570852345939 25.242915710756378 29.000598646936027 31.918045109662874 29.673883845018132 32.379799907673934 33.616354050173776 33.333121412098734 33.526726329387735 31.359510094564953 30.805106216656853 33.040847987527229 33.493506515260407 33.109512790800743 28.075787298783908 17.857229169953463 21.758159356841247 28.579111595827548 33.443624902000131 32.584806141886396 32.99736891056034 31.467324937573053 29.287569012309401 31.35735923282073 32.598688328797891 33.950246980645389 32.990327321179095 31.061622470098758 27.646100109075416 30.458001225936453 27.037809518569549 22.937755651519378 23.56674452384901 20.32100526687119 20.188086392924745 16.665782012878768 26.632410543772508 25.688824311610873 22.775084812491922 15.023333643890901 15.288180648735249 18.824918386667072 17.778261315476534 10.960626588161396 9.749541262033933 11.356726321278808 6.8113956159180749 8.6163575340382259 12.994640545909627 11.749426106558351 8.7641025219081783 6.2568277236825836 5.744250782958721 3.6540958308555336 3.7220284245582009 1.413057532020674 2.453024428432665 4.1462761791559481 4.336365604796959 3.8931007240166213 2.9244253081310125 1.6818416434642613 1.0872083518901217 2.0025506379902636 2.723996977016927 13.815676013007128 6.8341270688750839 17.988348545574475 19.65816254810975 15.950618992949479 25.665421026002942 21.878372533287379 29.565518107024495 31.879372924121682 32.437912143420618 33.3235999631952 30.478692822678028 27.448288595560157 31.959768193946314 33.079711944735024 30.638856451090049 27.101929817730163 22.887967648858584 23.487097150109271 15.078215761474933 16.408518458009283 19.688720405957763 20.267146041979508 15.785047243270981 23.666816862372244 23.027424723176374 27.007656035420094 30.472955234951506 31.992472314134215 33.142475818974482 32.461556592984053 31.187220305655764 30.274751858250646 27.462119766533576 27.43226966108476 32.587422679898538 33.358218912794172 32.553257137767943 30.741265193558284 24.250354604810703 19.242905058671251 19.067089559141188 15.663177345971954 15.001335713016918 11.345918898301161 11.280456763560188 7.8726931751913494 8.5438431124127447 3.2202138607767399 1.9068461210915371 2.0342327700374785 5.0564948753975827 5.4834841018584282 3.4579416575331772 1.2852727623602078 2.2129887095661109 3.6719668152698981 8.183467636464675 5.5015816672530891 7.5909050515910934 14.888915326576043 11.84022679834532 12.812850815374945 8.6806142520835134 11.23268283605476 9.0715386438024854 7.250980213777888 6.2234523351523503 3.7287840288139664 1.4555098046530721 2.4593959215028383 1.8994234942804205 4.215754806168742 3.222509988735792 4.5081225121444302 1.2554405348119535 2.24628853871498 4.6798748914051318 3.0056884285543877 7.2242669059060418 11.889900600314746 14.120028927365226 10.142741439938462 0.050235571175383881 0.042099324627357534 0.056409144236318196 0.18646611001171717 0.093940933734226711 0.13911356080811604 0.072074483954515545 0.50385995243926651 0.25657531794820698 1.3214082834963536 0.90619849040897349 0.32505370748987644 1.1611778545542615 0.67507353715075336 0.78468792773869378 0.4508111070706905 0.21602481748801672 0.10155535747019843 0.079837782446858824 0.052428331022555605 0.047344308478791446 0.060239944924150905 0.0611552662311588 0.06324877549845262 0.052016703289649954 0.11678611274368959 0.094787724844037149 0.38681686138620941 0.1889332265534191 0.76597650958657204 1.1209260374331824 0.33881379016477969 0.58624548059892523 0.65586488704666912 1.0681858346159661 0.1805814660059214 0.33073900353214791 0.17721135844043784 0.093391008629066491 0.19693318800507426 0.066574511514269102 0.049708121288930929 0.05607382632255245 0.053202937015370461 0.053950857812228581 0.076711974835291921 0.16564079376278948 0.19876298058864378 0.18385736346147713 0.10584792327043432 0.28526303194604369 0.71811880047143106 0.49768321833137696 0.70940796406545492 0.51142921240867278 0.45018249524514364 0.31723040370347472 0.27714472878887819 0.29558425417225292 0.62783943710169987 0.69730829306942099 0.48802452190260026 0.59445947703687108 0.1490368196158193 0.18166605765424421 0.093538921810071785 0.095763011422983019 0.059183475595397154 0.086864027540823799 0.079330200968467865 0.13626789220362973 0.23229265909444258 0.19948903951729435 0.30566412094598905 0.34400822108913598 