<?xml version="1.0"?>
<VTKFile type="UnstructuredGrid" version="0.1" byte_order="LittleEndian">
<UnstructuredGrid>
<Piece NumberOfPoints="599" NumberOfCells="1080">
<Points>
<DataArray type="Float64" NumberOfComponents="3" format="ascii">
0.000000000000000e+00 0.000000000000000e+00 0.000000000000000e+00 0.000000000000000e+00 2.000000000000000e-01 0.000000000000000e+00 1.000000000000000e+00 2.000000000000000e-01 0.000000000000000e+00 1.000000000000000e+00 0.000000000000000e+00 0.000000000000000e+00 0.000000000000000e+00 2.222222222217273e-02 0.000000000000000e+00 0.000000000000000e+00 4.444444444434547e-02 0.000000000000000e+00 0.000000000000000e+00 6.666666666653878e-02 0.000000000000000e+00 0.000000000000000e+00 8.888888888873894e-02 0.000000000000000e+00 0.000000000000000e+00 1.111111111109777e-01 0.000000000000000e+00 0.000000000000000e+00 1.333333333332549e-01 0.000000000000000e+00 0.000000000000000e+00 1.555555555555226e-01 0.000000000000000e+00 0.000000000000000e+00 1.777777777777613e-01 0.000000000000000e+00 2.040816326525713e-02 2.000000000000000e-01 0.000000000000000e+00 4.081632653051426e-02 2.000000000000000e-01 0.000000000000000e+00 6.122448979577139e-02 2.000000000000000e-01 0.000000000000000e+00 8.163265306102853e-02 2.000000000000000e-01 0.000000000000000e+00 1.020408163262857e-01 2.000000000000000e-01 0.000000000000000e+00 1.224489795915428e-01 2.000000000000000e-01 0.000000000000000e+00 1.428571428567999e-01 2.000000000000000e-01 0.000000000000000e+00 1.632653061220571e-01 2.000000000000000e-01 0.000000000000000e+00 1.836734693873142e-01 2.000000000000000e-01 0.000000000000000e+00 2.040816326525713e-01 2.000000000000000e-01 0.000000000000000e+00 2.244897959178285e-01 2.000000000000000e-01 0.000000000000000e+00 2.448979591830856e-01 2.000000000000000e-01 0.000000000000000e+00 2.653061224483563e-01 2.000000000000000e-01 0.000000000000000e+00 2.857142857136316e-01 2.000000000000000e-01 0.000000000000000e+00 3.061224489789068e-01 2.000000000000000e-01 0.000000000000000e+00 3.265306122441821e-01 2.000000000000000e-01 0.000000000000000e+00 3.469387755094573e-01 2.000000000000000e-01 0.000000000000000e+00 3.673469387747326e-01 2.000000000000000e-01 0.000000000000000e+00 3.877551020400078e-01 2.000000000000000e-01 0.000000000000000e+00 4.081632653052831e-01 2.000000000000000e-01 0.000000000000000e+00 4.285714285705583e-01 2.000000000000000e-01 0.000000000000000e+00 4.489795918358336e-01 2.000000000000000e-01 0.000000000000000e+00 4.693877551011089e-01 2.000000000000000e-01 0.000000000000000e+00 4.897959183663840e-01 2.000000000000000e-01 0.000000000000000e+00 5.102040816316877e-01 2.000000000000000e-01 0.000000000000000e+00 5.306122448970195e-01 2.000000000000000e-01 0.000000000000000e+00 5.510204081623515e-01 2.000000000000000e-01 0.000000000000000e+00 5.714285714276833e-01 2.000000000000000e-01 0.000000000000000e+00 5.918367346930153e-01 2.000000000000000e-01 0.000000000000000e+00 6.122448979583471e-01 2.000000000000000e-01 0.000000000000000e+00 6.326530612236790e-01 2.000000000000000e-01 0.000000000000000e+00 6.530612244890109e-01 2.000000000000000e-01 0.000000000000000e+00 6.734693877543428e-01 2.000000000000000e-01 0.000000000000000e+00 6.938775510196746e-01 2.000000000000000e-01 0.000000000000000e+00 7.142857142850065e-01 2.000000000000000e-01 0.000000000000000e+00 7.346938775503385e-01 2.000000000000000e-01 0.000000000000000e+00 7.551020408156776e-01 2.000000000000000e-01 0.000000000000000e+00 7.755102040810377e-01 2.000000000000000e-01 0.000000000000000e+00 7.959183673463979e-01 2.000000000000000e-01 0.000000000000000e+00 8.163265306117582e-01 2.000000000000000e-01 0.000000000000000e+00 8.367346938771183e-01 2.000000000000000e-01 0.000000000000000e+00 8.571428571424785e-01 2.000000000000000e-01 0.000000000000000e+00 8.775510204078387e-01 2.000000000000000e-01 0.000000000000000e+00 8.979591836731990e-01 2.000000000000000e-01 0.000000000000000e+00 9.183673469385591e-01 2.000000000000000e-01 0.000000000000000e+00 9.387755102039194e-01 2.000000000000000e-01 0.000000000000000e+00 9.591836734692796e-01 2.000000000000000e-01 0.000000000000000e+00 9.795918367346398e-01 2.000000000000000e-01 0.000000000000000e+00 1.000000000000000e+00 1.777777777778356e-01 0.000000000000000e+00 1.000000000000000e+00 1.555555555556712e-01 0.000000000000000e+00 1.000000000000000e+00 1.333333333334779e-01 0.000000000000000e+00 1.000000000000000e+00 1.111111111112750e-01 0.000000000000000e+00 1.000000000000000e+00 8.888888888903346e-02 0.000000000000000e+00 1.000000000000000e+00 6.666666666675342e-02 0.000000000000000e+00 1.000000000000000e+00 4.444444444448301e-02 0.000000000000000e+00 1.000000000000000e+00 2.222222222224152e-02 0.000000000000000e+00 9.795918367347222e-01 0.000000000000000e+00 0.000000000000000e+00 9.591836734694444e-01 0.000000000000000e+00 0.000000000000000e+00 9.387755102041666e-01 0.000000000000000e+00 0.000000000000000e+00 9.183673469388888e-01 0.000000000000000e+00 0.000000000000000e+00 8.979591836736109e-01 0.000000000000000e+00 0.000000000000000e+00 8.775510204083332e-01 0.000000000000000e+00 0.000000000000000e+00 8.571428571430554e-01 0.000000000000000e+00 0.000000000000000e+00 8.367346938777775e-01 0.000000000000000e+00 0.000000000000000e+00 8.163265306124998e-01 0.000000000000000e+00 0.000000000000000e+00 7.959183673472220e-01 0.000000000000000e+00 0.000000000000000e+00 7.755102040819442e-01 0.000000000000000e+00 0.000000000000000e+00 7.551020408166664e-01 0.000000000000000e+00 0.000000000000000e+00 7.346938775514311e-01 0.000000000000000e+00 0.000000000000000e+00 7.142857142862099e-01 0.000000000000000e+00 0.000000000000000e+00 6.938775510209887e-01 0.000000000000000e+00 0.000000000000000e+00 6.734693877557676e-01 0.000000000000000e+00 0.000000000000000e+00 6.530612244905465e-01 0.000000000000000e+00 0.000000000000000e+00 6.326530612253253e-01 0.000000000000000e+00 0.000000000000000e+00 6.122448979601041e-01 0.000000000000000e+00 0.000000000000000e+00 5.918367346948830e-01 0.000000000000000e+00 0.000000000000000e+00 5.714285714296617e-01 0.000000000000000e+00 0.000000000000000e+00 5.510204081644406e-01 0.000000000000000e+00 0.000000000000000e+00 5.306122448992194e-01 0.000000000000000e+00 0.000000000000000e+00 5.102040816339983e-01 0.000000000000000e+00 0.000000000000000e+00 4.897959183687205e-01 0.000000000000000e+00 0.000000000000000e+00 4.693877551033862e-01 0.000000000000000e+00 0.000000000000000e+00 4.489795918380517e-01 0.000000000000000e+00 0.000000000000000e+00 4.285714285727172e-01 0.000000000000000e+00 0.000000000000000e+00 4.081632653073828e-01 0.000000000000000e+00 0.000000000000000e+00 3.877551020420483e-01 0.000000000000000e+00 0.000000000000000e+00 3.673469387767139e-01 0.000000000000000e+00 0.000000000000000e+00 3.469387755113794e-01 0.000000000000000e+00 0.000000000000000e+00 3.265306122460450e-01 0.000000000000000e+00 0.000000000000000e+00 3.061224489807106e-01 0.000000000000000e+00 0.000000000000000e+00 2.857142857153762e-01 0.000000000000000e+00 0.000000000000000e+00 2.653061224500417e-01 0.000000000000000e+00 0.000000000000000e+00 2.448979591846930e-01 0.000000000000000e+00 0.000000000000000e+00 2.244897959193020e-01 0.000000000000000e+00 0.000000000000000e+00 2.040816326539109e-01 0.000000000000000e+00 0.000000000000000e+00 1.836734693885198e-01 0.000000000000000e+00 0.000000000000000e+00 1.632653061231287e-01 0.000000000000000e+00 0.000000000000000e+00 1.428571428577377e-01 0.000000000000000e+00 0.000000000000000e+00 1.224489795923465e-01 0.000000000000000e+00 0.000000000000000e+00 1.020408163269555e-01 0.000000000000000e+00 0.000000000000000e+00 8.163265306156431e-02 0.000000000000000e+00 0.000000000000000e+00 6.122448979617323e-02 0.000000000000000e+00 0.000000000000000e+00 4.081632653078215e-02 0.000000000000000e+00 0.000000000000000e+00 2.040816326539119e-02 0.000000000000000e+00 0.000000000000000e+00 6.635856282261660e-01 9.999999997353709e-02 0.000000000000000e+00 6.017099942173270e-01 1.018372095310263e-01 0.000000000000000e+00 6.429359032934795e-01 1.033597382548348e-01 0.000000000000000e+00 6.841497426478215e-01 9.999999991616094e-02 0.000000000000000e+00 5.227754852549503e-01 1.000000000000000e-01 0.000000000000000e+00 5.852103129142072e-01 9.999999999992476e-02 0.000000000000000e+00 5.466304762188327e-01 1.018543566178084e-01 0.000000000000000e+00 7.089060871209075e-01 1.015797878639597e-01 0.000000000000000e+00 3.294481376357450e-01 1.003360704178975e-01 0.000000000000000e+00 2.908770926829877e-01 1.003043475985618e-01 0.000000000000000e+00 4.098368213291410e-01 9.754255884196135e-02 0.000000000000000e+00 3.629933349000901e-01 1.000000001223464e-01 0.000000000000000e+00 7.622961987180608e-01 9.605473387378186e-02 0.000000000000000e+00 8.491644596128544e-01 9.182168396222394e-02 0.000000000000000e+00 5.007586314432788e-01 9.999999999999999e-02 0.000000000000000e+00 9.230159322774689e-01 1.007268675471269e-01 0.000000000000000e+00 8.664701418664117e-01 1.076712491225906e-01 0.000000000000000e+00 2.366315426938473e-01 9.999985271154266e-02 0.000000000000000e+00 2.168388896782212e-01 1.000000000000000e-01 0.000000000000000e+00 1.745660379747517e-01 1.007160508754716e-01 0.000000000000000e+00 1.972011010366781e-01 1.002115461984506e-01 0.000000000000000e+00 1.538550720344377e-01 1.018757379169621e-01 0.000000000000000e+00 1.326290201259390e-01 1.059650753151715e-01 0.000000000000000e+00 7.741354350281675e-02 1.003020340445231e-01 0.000000000000000e+00 2.552339814142309e-01 1.000027269880509e-01 0.000000000000000e+00 4.409363782274157e-02 7.706114571179593e-02 0.000000000000000e+00 9.561458207326632e-01 1.229301525610412e-01 0.000000000000000e+00 4.993865626717942e-02 1.499516781439215e-01 0.000000000000000e+00 9.550725189111069e-01 4.829411318820009e-02 0.000000000000000e+00 4.395097424174637e-02 3.288070253644709e-02 0.000000000000000e+00 9.562058539142814e-01 1.671301644007421e-01 0.000000000000000e+00 9.679759360039387e-01 3.254350244928760e-02 0.0000000000000
[...]
<CellData Scalars="A_conc," Vectors="" Tensors="">
<DataArray type="Float64" Name="A_conc" format="ascii">
1.394829794454697e-05 1.723761178880105e-04 2.506653992705508e-01 1.134696718480332e-01 4.052066220489073e-04 2.144543349697444e-04 3.858308401975414e-02 2.951194986086286e-03 5.480787860623394e-04 1.324915831323193e-05 3.148806895232865e-08 1.281598904989025e-04 1.392891128805830e-04 1.093943356667554e-01 9.176456884353525e-05 4.648273530341210e-02 1.635515770907340e-04 2.959151707773570e-03 1.463897652537398e-02 1.300751843081882e+00 1.192865016158892e+00 1.344318536521754e-01 1.232466139893690e-01 1.724935265411805e+01 1.722471056278317e+01 9.576463398995834e+00 9.568193445162267e+00 1.369131519943531e+01 1.362930171047830e+01 2.421090311344872e-02 1.050819223256534e+00 7.610642099752168e-03 8.751068963819459e-03 1.136047329853254e+01 1.245067129061457e+01 1.136220636422693e+01 1.246551765942874e+01 3.424129724477959e+00 1.361298320874111e+00 1.389910630705687e+00 7.974846332015801e-04 8.134922157177331e-04 8.505435158559853e-01 7.398206204234400e-04 3.125773371548281e-04 5.853243311988556e-04 3.695224014165978e-01 9.201700683601607e-01 2.058246250730558e+01 3.891912353246090e-03 1.030588403725595e+01 6.029565739914985e+00 1.716071907383772e-03 3.356803869500686e-01 3.153908283901511e-01 3.625577930458776e-04 3.589955079464117e-04 1.956128556757304e-01 2.270254328341384e-02 1.332308985850775e+01 1.013576546923941e+01 1.164206487998404e+01 1.295364844924102e+01 1.018602446721109e+01 1.161441535502609e+01 4.989695291937451e-03 2.836542852054221e-03 1.266940626736873e+01 7.414054209858911e+00 2.357291780391966e-03 1.842077302484110e+01 1.691967325027057e+01 1.658736696548741e+01 6.069513828955433e-02 6.647380645875195e-02 2.576900228804709e-01 2.523845316629276e-01 2.345338940085021e+00 1.618743336356216e+00 1.782491910535571e+00 2.329812569055870e+00 1.752297426482214e+00 1.834321471268746e+00 1.711950670879641e+01 1.713721605541081e+01 1.775611807898219e+01 1.784066495204420e+01 1.723602172285264e+01 1.708640772729584e+01 1.775462851264478e+01 1.793793244315757e+01 4.992187482720357e+00 4.885551416232803e+00 4.933099131834062e+00 2.200934361255560e+01 2.227868518906269e+01 2.236544743985135e+01 2.089989194006435e+01 2.647315605088760e+01 2.710741657190388e+01 2.536336604877887e-01 2.631283879138033e-01 9.337509767534891e-03 1.053012939470623e-02 1.228705145251267e-04 4.289275899278848e-04 1.976692688336364e-03 1.825910066218641e+01 1.819629459833650e+01 1.841324069694216e+01 1.846667952890699e+01 1.834932625756295e+01 1.825791830445302e+01 1.846214967435525e+01 1.854052284485642e+01 3.081963501742669e+01 7.116407213432235e-01 4.816715969155426e-01 7.054954040014141e-01 5.141383553231845e-01 9.811962819976598e+00 9.727118776346099e+00 3.573021736517639e+01 3.491293919582006e+01 5.077585294688375e-02 5.834928216778387e-02 2.017589685897247e-02 1.764247655379574e-02 7.984120386835927e-02 1.051695482013653e-01 3.933055870436351e-02 2.970644335627426e-02 5.620458380841189e+00 8.702250510563461e+00 8.085498553837729e+00 8.057587192738284e+00 8.644241389693093e+00 1.584526085931661e+01 2.755620751269895e-02 4.304009950250019e+00 2.186017014938150e+00 3.036241215111619e+00 1.667067057441665e+00 7.978183005951373e-02 4.688702642077594e-02 3.724237214670028e+01 3.525346654866465e+01 3.175827494280508e+01 1.159952033442712e-01 1.053453672106814e+01 8.957769777416477e+00 1.072241507730974e+01 1.219999693311510e+01 1.377145940337840e+01 1.238202760810179e+01 3.811948252684028e+00 3.908708054962604e+00 1.215764201964106e-02 1.014082402832179e-02 2.798383741093462e+00 1.663682487473917e-02 1.488129412368671e+01 1.621578968139630e+01 1.125473301333439e+01 1.574302237589709e+01 1.425461012565216e+01 1.063059990938724e+01 9.028872269428899e+00 1.077497753221891e+01 1.480850184483787e+01 1.612941859520321e+01 1.468859052416139e+01 1.208445638747264e+01 1.636506712970813e+01 1.208333575764275e+01 1.365802973228801e+01 1.230837487328999e+01 3.800877492670020e+00 3.890897240510021e+00 2.769055251786342e+00 7.355409229997067e-03 7.858622389304541e-03 1.438699683102873e-02 3.551325024139496e+01 1.233670063303503e-02 2.130816873301515e-02 1.573916338894681e+01 2.483993401501512e+01 3.926880419192081e-01 1.500067124660473e-01 4.848915354582397e-01 1.055327389203549e+00 1.714969976246767e-04 3.687893770332933e-04 3.503122968587935e+00 3.138053507608849e+00 6.599695324495644e+00 2.309056771421809e+00 3.313452057829755e+00 1.810826301277801e-03 3.389071220407111e-03 1.718788214373890e-03 1.371029360156027e-03 2.070959815187104e-02 7.325900730534878e-02 1.504175264264356e-04 1.852629636304353e-04 3.442010960166680e-02 2.004288081249234e-02 1.258485778371916e-04 1.512660686326986e-04 2.055632481854939e+00 1.689320701097280e+00 8.725150580429815e-01 3.418037213046420e+00 1.150264165345174e-03 1.161529102068180e-03 6.503552982438164e-04 2.202882364668570e-03 3.139170315582576e+01 2.834292865263044e-03 2.801372658955684e-03 2.730302953848995e+01 2.624103236926301e+01 2.055374247545895e+01 3.773157841413745e+01 1.653113626022116e-01 2.017386990439700e+00 1.978670613518324e+00 2.457428570726231e+01 2.670286432724113e+01 2.333423846885525e+01 2.039821411264458e+01 1.349691733263640e+01 3.570411719993953e+01 3.747477819308255e+01 7.236674044528672e+00 5.275006597187952e+00 1.825785254939873e+01 4.342907230263071e+00 7.162371090592169e+00 5.461878450835309e+00 8.593354221606244e+00 2.700640850077966e+00 2.507856759412562e+00 2.495502633336212e+00 2.829519154738045e+01 3.151547102190332e+01 7.117794216661835e+00 6.004714445923242e+00 7.479466363468623e+00 6.106322848549075e+00 3.853612895250766e-02 5.306587405150566e-02 1.700022624869352e+01 3.036014623863346e+00 3.018028481414203e+00 1.573741675007056e+01 1.575300845390589e+01 1.452516436084911e+01 1.635180255543033e+01 1.561443626529890e+01 1.563007514448362e+01 1.440583735922667e+01 1.622901698139488e+01 6.989837618642292e-01 3.522297260793184e+01 6.245870174053437e+00 7.483197819130131e+00 6.274334309339185e+00 7.528937589051612e+00 9.409909180993489e-02 1.012090323717403e-01 4.466983986758406e+00 4.809787437765604e+00 4.997512201512135e+00 5.298944909850935e+00 3.594627571920637e-01 2.556207705376043e+00 2.422718311238988e-03 1.845656930766391e+01 1.841121414470914e+01 3.169523883554213e+01 3.108507898090252e+01 3.481903519090032e+01 9.138023494240146e-01 1.836490208591010e-02 1.459935286743134e-02 1.049979453886175e+01 2.065130037201313e+00 2.287253535780272e+00 2.797033987466540e+00 2.094163263853878e+00 2.313742277528886e+00 2.820156419566714e+00 2.105993016998596e+01 1.422415588591355e+01 1.438368861239323e+01 1.125324036847048e+00 1.154655778707069e+00 6.513410723178479e+00 6.864037583815243e+00 6.413547743850485e+00 6.693865227556966e+00 2.068978637638573e-02 1.892954725072832e-02 3.604629868964480e-02 6.065705329781487e-04 2.881759612826534e-04 3.198871533064271e+01 2.817044248265578e+01 4.255448685811190e-01 2.018329892517961e-01 3.395847839259474e+01 3.205158458154629e+01 3.314166707451318e+01 1.202530981090231e-02 1.505882534553693e-02 9.550496070740601e-03 7.681849923815097e-03 4.374861806917518e-01 7.174694221945421e-01 4.303277578036825e-01 6.779481864276649e-01 1.538422722128895e+00 1.045190498796799e+00 1.470965136011867e+00 9.331636338861089e-01 3.515553204407462e+01 1.513634901344054e-02 1.294331567528589e-02 2.749216152954753e+01 2.040622103945496e-05 4.046239311417532e-05 6.040081242753494e+00 6.031825098130358e+00 1.771964435023627e-01 3.816095516243788e-08 4.050298461801400e-04 3.639519508169424e+01 6.267248832285946e-03 3.332550865057121e-03 3.885514395663732e-01 3.749278391322616e+01 3.668766129883264e+01 3.730262689945275e+01 3.955294222886481e+00 5.893354933483288e+00 1.005958390534992e+01 1.426660402971343e+01 7.598832955747406e-09 3.077307690759520e-04 1.852628118620229e-05 3.665262540722013e-05 1.840582838992370e+01 1.838570336013871e+01 9.590097300244309e-02 1.608014058687504e-01 3.671898407742528e+01 3.697304653196319e+01 1.306129308510946e-01 2.256687798097531e+01 2.335880565459006e+01 9.452162880208233e+00 6.649515839960092e+00 3.243175160074230e+01 4.377134112434097e+00 6.519085255007020e+00 4.660236756476975e-02 4.508649860721170e-02 7.733710709639852e-02 1.563225203993025e+01 1.408246705437232e+01 1.314449625927577e+01 1.404911074454963e+01 1.311057863218438e+01 1.152343749824990e-02 1.134240690237004e-02 1.789632536717416e+01 1.497844804818345e+01 2.788329204615881e-02 2.491076603892044e-02 2.590623551311058e-01 8.852412272537379e+00 1.349408262239516e+01 1.933004343794237e+00 2.206806979614351e+00 1.455947412722296e+00 1.668875826806775e+00 1.425335016129512e+00 1.639216299014988e+00 2.835366044643426e+01 2.761625777064409e+01 3.570928893516929e+00 3.530943791718268e+00 3.837985629441958e+00 3.273221089290298e+00 1.160322255013353e-01 7.623168615141566e-02 2.869980131616065e+01 5.743672059982340e-03 3.153470170891340e-03 9.598191106565345e+00 3.032836679438519e+01 6.378277706185514e+00 7.443744173207361e+00 6.319096305255416e+00 7.521560855302091e+00 7.943077157224561e+00 3.628661131144926e+01 3.693594671694382e+01 3.212927642802688e+01 3.292954257029946e+01 3.179590166283180e+01 2.372309608956152e-02 1.688271276304559e+01 1.823000591355468e+01 2.053431807164836e+01 3.030187215998474e+01 6.144924029435805e+00 5.231413325378983e+00 5.940303709708315e+00 5.072832689501652e+00 5.075756954944868e-02 8.010205799405050e-02 6.859582933101124e+00 9.416192097480806e+00 9.896908865985530e+00 1.462289649862168e+01 3.714268036251715e-05 7.840765990656796e-05 8.664710679750443e-05 5.808687283793406e-04 3.349916220474889e-03 2.085238440428450e-03 1.169636679161156e-01 4.384986430329121e-01 4.763097862339745e-04 6.742781730131460e-04 3.187448401351094e-04 1.153956951248133e-03 1.343872510426831e-03 5.815019189400633e-01 1.410978461339247e-01 1.346220763610092e+00 1.834152678648370e+00 4.067570719091378e-04 1.642868950747762e-03 1.604331467603412e-03 3.188821622665732e-05 8.135905569077665e-05 6.436592151339528e-05 7.755846249489140e+00 7.987860822656525e+00 6.362121901805986e+00 6.204529697459881e+00 8.260236583256901e+00 8.144873410451821e+00 6.367565201751442e+00 6.668272332191789e+00 7.605731525762525e+00 2.641148545193448e+00 9.615464024288593e-03 1.796124572534955e-02 5.346100612731683e-03 2.439834857047267e+00 3.784661751363446e+00 2.321981495645870e+00 1.361774574808975e+00 2.859831260821082e-02 1.625548177174010e-02 3.155201094796019e-02 5.649185916597231e-02 9.362321286055471e-02 1.010839070089767e-01 3.609837000696093e+01 3.713908769755314e+01 8.389881256618123e-03 9.862203296167802e-03 8.463941813800401e-03 6.683526623682092e-03 8.284970614411882e-03 5.936326722350681e-03 9.375759890063472e+00 1.296948110742660e+01 1.010334802918401e+01 6.495203281117145e+00 3.355151703481879e+01 3.640811317298675e+01 3.754734903017088e+01 2.206873056558648e-03 3.493392895635581e+01 3.719329390834863e+01 3.644334818046519e+01 3.761514217345174e+01 4.278242731087936e+00 5.264423935526359e+00 4.461755803470117e+00 5.640593176641281e+00 4.189429521175994e+00 5.159456157376382e+00 5.478624223051600e+00 1.361459928231961e-01 1.881303842176772e-01 1.107529414824838e-01 5.657167469768449e-02 2.639846188940312e-02 3.465834499129223e-02 8.720373443673485e-01 5.844572425856753e-01 6.213032434127530e-01 3.936861503964005e-01 1.520720943979217e+01 1.525121488518256e+01 1.980578313382426e-01 1.431347871679725e-01 6.642672857118039e-02 4.147709026066686e-02 7.579831220279580e-02 4.727476421546176e-02 4.245416721815627e-01 4.430705365504716e-01 4.627283003678256e+00 3.807486488825446e+00 2.315864792901029e+01 1.930506444241678e+01 1.817226641849769e+01 1.841148000186909e+01 3.614542785485438e+01 3.458627887739958e+01 7.714695639753583e-03 8.406522194444873e-03 1.492585325394189e-02 6.057734727399186e-03 6.923027124296561e-03 1.152463375985508e-02 1.120806619661383e-02 1.917321710581148e-02 9.322421115704761e-03 1.635617911443821e-02 4.670547418018922e-01 6.089379884064131e-01 1.125109504869913e+00 5.829710150268093e-01 1.031990449129289e+00 3.940206322231986e-02 3.436467013630559e-02 1.452858847818319e+01 1.501337766568918e+01 8.158797393761867e-02 4.413783012669465e-02 3.957006797079635e+00 4.848780187700674e+00 5.330801961961581e+00 3.940853786437374e+00 4.831323020809496e+00 5.367931927583419e+00 2.697529988034166e+01 2.780012398179021e+01 1.088366552982820e+01 1.098047523069298e+01 1.607643314437304e+01 1.553875487526086e+01 1.560638192953102e+01 1.522155845679855e+01 3.739458263502129e+01 3.690653113470061e+01 3.618898682789382e+01 7.422558262821710e+00 6.947730650973879e+00 8.620950276409017e+00 9.642654340398527e+00 7.354719029300878e+00 6.850413317474606e+00 8.687991309521134e+00 9.726610960727918e+00 2.947779907803987e-02 2.855383869394156e-02 1.702193442516601e-02 9.127788367070536e+00 1.316847395516511e+01 1.903204841222594e-01 5.113952855971271e-02 8.522701797287199e-02 1.217327897217155e-01 1.372193638191959e+01 1.348893081472478e+01 1.130185559705247e-04 7.979816704866012e-03 1.662623481935363e-05 3.744341902078562e-05 1.353684920949288e-03 7.877342810424156e-04 1.870504252470151e-03 2.319305845257901e+00 4.346466286619732e+00 2.718438158483366e-04 1.617930023605158e+01 1.732301087229849e+01 1.663312793507029e+01 1.608002397028119e+01 1.703647684617086e+01 1.638788958503395e+01 4.308048954059193e-04 8.839922002582453e-04 1.330706331053645e+01 1.243919445891843e+01 1.341584080794000e+01 1.258551047575335e+01 1.124235097301055e+00 6.376969253814888e-01 1.118028305877884e+01 1.211820509267040e+01 9.528596379454774e+00 1.065420121731094e+01 1.173360087815528e+01 9.004789423332753e+00 1.136714192280422e+01 1.240916568345423e+01 3.003374676579758e+00 1.780933586860007e+01 1.816475856157338e+01 1.776814278506581e+01 1.814238656081163e+01 3.248714747098495e+00 3.676151346282862e+01 3.778591322876184e+01 3.500088927556045e+01 7.013318658954154e-03 3.683039196506776e-03 1.143058116414658e-02 6.477799238619287e-04 3.747502618971374e-02 6.259781752113836e-05 2.959375769177620e-05 9.740782379035608e-05 5.198118459856667e+00 1.321993649192326e+01 1.019608167216556e+01 8.450499141402785e+00 1.636984539713418e-01 1.969517305009228e-01 1.084037139625697e-01 1.764420121708840e-05 3.992543143614508e-05 1.248718258872646e-06 6.725487580338362e-03 1.283450874655150e+00 3.703910706142021e+01 3.557149692619624e+01 1.083806664459019e+01 9.546883394185492e+00 1.063503930755190e+01 9.351404423830939e+00 1.705828616925833e+01 1.755507336814850e+01 1.707136974726822e+01 1.767172004716707e+01 1.927256996778448e-04 2.711052441638266e-04 5.524225687077916e-04 9.939839018279319e-04 1.467425471043364e-04 1.678868871527734e+01 1.677518380412972e+01 1.170805318464912e-01 1.102117758322840e-01 1.797739992878441e+01 1.783294609877283e+01 1.739407653502214e+01 3.621188148607575e+01 3.651311718945016e+01 3.016323457599998e+01 3.417041173693683e+01 1.724291369798446e+01 1.684890303812909e+01 1.718499225738279e+01 1.681806934950889e+01 6.049498425964641e+00 6.926972210021136e+00 1.651297033179457e+01 1.464018132820884e+01 1.583972070568393e+01 1.655647240949619e+01 1.479413846347340e+01 1.587787617481628e+01 5.290493620478788e-03 7.159478118409035e-03 1.030665633682569e-02 1.287119661614336e-02 4.910384453131966e+00 6.473268441154355e+00 5.185088430641164e+00 4.915968751947780e+00 6.494118663631735e+00 5.185773372208800e+00 3.360554013745058e+00 4.218326405961580e+00 4.237602068114327e+00 3.401023733390191e+00 4.276195888463385e+00 4.385015857892724e+00 4.326710015947746e+00 1.736580808092160e+00 2.303244462970382e+00 7.335820644975029e+00 4.019168400782079e+00 2.606718873237971e+00 4.392994489510924e+00 2.562600362900841e+01 2.203794789746775e+01 1.669183857764688e+01 8.867332741227792e-02 5.602633832118863e-02 2.404911104599803e+00 3.114676186183369e+00 1.295185675603579e+00 1.754162990111121e+00 1.329400251372723e+01 1.329061278050801e+01 1.221836667194305e+01 1.091874648046423e+01 1.813890795500191e+01 1.700123608372063e+01 1.659245778286054e+01 1.773137339354113e+01 2.354117766161678e+01 1.662896438012157e+01 1.592870458863307e+01 1.381858235602042e+01 1.458450299004939e+01 1.519087280237470e+01 1.307745926711524e+01 1.642372274946719e+01 1.580781340092046e+01 1.359089536676353e+01 1.448249205918958e+01 1.508518431523149e+01 1.296295408540862e+01 9.694702744425432e-01 3.026008712604731e+00 2.250906016861366e+00 1.450439833179386e+00 1.014761318020042e+00 3.112895104435372e+00 2.380338023272537e+00 1.563064997215329e+00 8.410358151985196e+00 6.395686783242567e+00 8.438418631923001e+00 6.316223283314084e+00 1.352151614259219e+01 1.724068667457673e+01 2.252110760915444e+01 2.358370663210563e+01 2.670042921399851e-04 1.759126486830598e+01 1.759635350417321e+01 1.817274186234130e+01 1.815163048406212e+01 6.068450262717240e-02 3.868586293201355e-02 6.613159390396384e-02 3.207212587319672e-02 3.571482555967744e-02 2.925354377231111e+01 2.788209602788753e+01 8.498661500837529e-02 1.504148785521437e-02 4.254205276303752e-02 3.495213273680221e-02 9.331790304277189e-02 8.858906280615611e-05 7.666626817112893e-02 1.198666785979383e-02 3.371212187631100e-02 3.031920601325398e-02 7.632745317875853e-02 4.529009932443509e-02 1.313783259928194e-02 2.520938965461505e-02 4.031341557484920e-02 9.969879862769223e-03 1.978173653012865e-02 3.235947867562034e+01 3.590508893041820e+01 1.601876655510281e+01 1.519511768369625e+01 1.588630122008031e+01 1.533856109777791e+01 1.635102658348118e+01 1.496991507802086e+01 1.564070730341156e+01 1.571495006441853e+01 9.421787539733412e+00 1.018390811919744e+01 9.641767278935928e+00 2.159388257182978e-01 1.162507084840346e+00 1.824683644281989e+00 1.885545488074393e+00 4.302693138892244e-01 2.888333305075113e-01 2.757254752503242e-01 4.091926042123775e-01 9.469222404939177e-01 2.372233968900372e-01 9.076207016402642e-01 9.885082356723340e-02 6.846960263615788e-03 2.794579083032036e-02 1.603341883313918e-01 3.524387481477397e-01 1.626782631056660e+01 1.540506198699463e+01 1.621919033271859e+01 1.523018428263626e+01 3.196794148815669e+01 3.308818075177273e+01 2.680936200251093e+01 8.870773804765239e+00 4.313137378556025e+00 1.450766917612611e+01 2.786276487223081e-01 6.441750774164734e-01 1.907654605433409e-05 9.527541844886957e-06 1.149866991372388e+01 1.197594552174385e+01 1.241637021524456e+01 3.712024850954795e-02 3.016203753140823e-02 4.816862981158208e-02 1.166448565746636e-02 4.097410545234852e-02 3.322514974676603e-02 5.267710403219952e-02 1.331752944894285e-02 3.087918226060490e+00 2.321097190836568e+00 8.498152905108291e-03 3.051338121181237e-03 4.635459409508139e-03 4.531780591886006e-03 1.542555682302506e+01 1.169566263110862e+00 5.548764921955298e-01 2.442755775075411e+00 2.302275956049384e+00 2.507968785365612e+00 1.388121882137228e+01 8.177622647683535e+00 1.033002523736042e+01 1.090442664831781e+01 6.101587293983002e-01 2.467273386058002e-01 5.410753124320244e-01 2.150730616913967e-01 6.409356660636483e-01 2.813504706813552e+01 2.094738499753526e+01 4.386001028316804e-05 3.618248549293376e+01 3.418143065947228e+01 3.629694570231556e+01 3.708651658677056e+01 3.716418908402827e+01 7.534725082107029e-01 3.153997738996470e+00 5.113887725175976e+00 4.227486046024947e+00 1.445652518489348e+01 1.428335436035300e+01 1.468504998556138e+01 8.192135903494908e+00 7.308776244213067e+00 8.884419676862091e+00 8.182656500808806e+00 7.413935069186477e+00 8.608144657177165e+00 8.775476338256535e+00 8.411253215243587e+00 8.607569298109585e-03 4.584974781905587e-03 1.392234677924762e-02 1.544013019794572e-02 3.247396840639118e-01 1.403008957843316e-01 3.858636173016035e+00 3.689510346374118e+00 2.917640150059643e+00 4.134470880219460e+00 3.183472526038372e+00 5.596449745776372e-01 2.035458605912902e-01 1.780154725260968e+00 2.284865990337558e+00 1.784049480484131e+00 3.297067421858149e+01 3.568822553455854e+01 3.320698711437784e+01 1.134878724389468e-01 3.266541364489867e-01 3.121466410959634e-01 2.019