<?xml version="1.0"?>
<VTKFile type="UnstructuredGrid" version="0.1" byte_order="LittleEndian">
<UnstructuredGrid>
<Piece NumberOfPoints="599" NumberOfCells="1080">
<Points>
<DataArray type="Float64" NumberOfComponents="3" format="ascii">
0.014261120859510951 0.01476364028082537 0 0 0 0 0 0.022222222222172731 0 0.030393520779906098 0.016393210364487439 0 0.020408163265391192 0 0 0.040816326530782147 0 0 0.051838137503398218 0.016097170421718029 0 0.06014203299484646 0.028800515441748099 0 0.061224489796173232 0 0 0.05997194079032258 0.04512095697672458 0 0.04395097424174637 0.032880702536447093 0 0.038287656994838798 0.053045050008237282 0 0.016784005309402529 0.052942578394164941 0 0.02085901357486063 0.03347530932066585 0 0 0.04444444444434547 0 0 0.066666666666538782 0 0 0.088888888888738943 0 0.0207341866468383 0.086451824494522836 0 0.024773355977313231 0.067081421531037314 0 0 0.1111111111109777 0 0.01494008276341045 0.1008555938909899 0 0.021796908541191849 0.1185794897852074 0 0.043801444738163997 0.1121383540808015 0 0.032717449973680472 0.098326472725607031 0 0.05587596540385175 0.095449649785454282 0 0.044093637822741567 0.077061145711795925 0 0.055599947731468188 0.063390459096043877 0 0.069428650838703046 0.078109012133597111 0 0.08347748713356852 0.068933876054200802 0 0.064375376681575586 0.1198167832100239 0 0.077413543502816748 0.10030203404452311 0 0.085089729736171488 0.119617281284406 0 0.098955340253080407 0.1056404584089907 0 0.1170604350569325 0.1121452492360058 0 0.094169754915606196 0.082171266397786241 0 0.11693983748236721 0.093447218298871995 0 0.11837332598570451 0.071168852510895733 0 0.12111194339545479 0.04844499445275665 0 0.096189142707762201 0.05697243691702588 0 0.103555154504992 0.036186477933083078 0 0.11299168747658229 0.018223577284824748 0 0.12394502061713961 0.031222640348626381 0 0.1224489795923465 0 0 0.1020408163269555 0 0 0.091646580262525548 0.018330347140998932 0 0.081632653061564309 0 0 0.070237773272778581 0.018029566749463509 0 0.074122400072202652 0.058482788768393967 0 0.079421396932280591 0.03754246087862223 0 0 0.20000000000000001 0 0.020408163265257129 0.20000000000000001 0 0.040816326530514258 0.20000000000000001 0 0.061224489795771393 0.20000000000000001 0 0.054019669473298691 0.18366584576742709 0 0.049714346880519983 0.16645371985076809 0 0.033215856157334828 0.17850266876265189 0 0.014023333902158141 0.182394709209038 0 0 0.1777777777777613 0 0.017135169343986061 0.16431058345961719 0 0.019520277349320991 0.14318452722090769 0 0 0.15555555555552261 0 0 0.13333333333325489 0 0.042554332387182259 0.13368213047820371 0 0.035635253823565798 0.15364607071364031 0 0.049938656267179422 0.14995167814392149 0 0.060260681239859858 0.13944864135565019 0 0.064370693814434943 0.15502759500660421 0 0.08062060994580153 0.13918761086732001 0 0.1042644740555471 0.12799034491895131 0 0.12024457380872181 0.14116844394060329 0 0.102056949318844 0.1521532026904773 0 0.105956119678229 0.17266400992904621 0 0.092232684106244869 0.1854899681538511 0 0.082775318469293938 0.1659099040050232 0 0.064606319906987564 0.17179095407592421 0 0.072854112358079245 0.18446705898418439 0 0.081632653061028529 0.20000000000000001 0 0.1020408163262857 0.20000000000000001 0 0.1104245037805535 0.18857291040970159 0 0.1224489795915428 0.20000000000000001 0 0.15160143162222731 0.18868551043161441 0 0.1428571428567999 0.20000000000000001 0 0.16326530612205711 0.20000000000000001 0 0.18367346938731419 0.20000000000000001 0 0.1866126448812436 0.17879102272255121 0 0.16862026566618729 0.15959243955905791 0 0.16816720278504441 0.18336701113475271 0 0.14970749744881609 0.17228271921525401 0 0.12945662023126131 0.18258835036036711 0 0.1272915627839476 0.15904714937094391 0 0.1470889987074466 0.15503786192178531 0 0.13948070701489459 0.1390949041904434 0 0.15875129629214141 0.1419258674381034 0 0.17653996983443249 0.13915185707924671 0 0.19794103540912841 0.13709335085893029 0 0.19043327742881019 0.15621779145264789 0 0.20975416132060401 0.1543080645520564 0 0.21868983795624461 0.137293434797324 0 0.24137752222243089 0.13632406157444521 0 0.22718765864317819 0.15249946285597349 0 0.2231302589847598 0.16911942216408479 0 0.2457904739350554 0.16109605343360389 0 0.2351917770941058 0.18375930957726971 0 0.2054582936884348 0.17401498380647001 0 0.2187377868626201 0.18565360194747971 0 0.20408163265257129 0.20000000000000001 0 0.2244897959178285 0.20000000000000001 0 0.2448979591830856 0.20000000000000001 0 0.1625436484314447 0.036804562425001693 0 0.159070163450932 0.056161337383110708 0 0.17681721105602091 0.04519280370752065 0 0.17460465285316529 0.02096245932491814 0 0.18367346938851981 0 0 0.1632653061231287 0 0 0.1577961925906774 0.017980129894371109 0 0.14285714285773771 0 0 0.13485946140366309 0.018399825352228508 0 0.1442826822303237 0.040178256704826013 0 0.13780375874147449 0.08587856819508799 0 0.14202611285248121 0.063574988226385382 0 0.1273498583307075 0.1248993784176109 0 0.132629020125939 0.10596507531517151 0 0.15385507203443771 0.1018757379169621 0 0.1426249752706252 0.1199675913907549 0 0.1618538799100781 0.1222458194092621 0 0.1745660379747517 0.1007160508754716 0 0.185197186166281 0.1177798427629492 0 0.16132583170166459 0.080257896954238864 0 0.18147781125296911 0.08573441888153932 0 0.17960122083731611 0.065925166371224572 0 0.20214832970878871 0.076994743220600292 0 0.19720110103667809 0.1002115461984506 0 0.21683888967822121 0.10000000000000001 0 0.20703177974839779 0.11780911450935801 0 0.22819533206086851 0.1195208034094417 0 0.23663154269384731 0.099999852711542658 0 0.24939025260864359 0.1150460111476158 0 0.22831221601338739 0.079998709103160537 0 0.24944762486911271 0.084858033575160474 0 0.24324251900825311 0.061777774471969589 0 0.23430583592859611 0.036648549012572591 0 0.2206735814990323 0.058175712829474563 0 0.20847249073992699 0.035540542589399177 0 0.19009301373328921 0.034073157834657267 0 0.19587735175055279 0.052872443167043211 0 0.1962989411828461 0.017947180708190801 0 0.21686838772826461 0.017106924500170241 0 0.20408163265391091 0 0 0.22448979591930199 0 0 0.2351672088610714 0.01465491501464453 0 0.24489795918469301 0 0 0.2653061224500417 0 0 0.25700251308237992 0.02362562813361252 0 0.27627320067291511 0.015564804075607201 0 0.2604232671994261 0.057679262856618799 0 0.25290916639082961 0.044910650108052209 0 0.26957169673549303 0.044822036065487528 0 0.27792816074553828 0.032494741090538792 0 0.29221405623725932 0.048840666425783288 0 0.28571428571537621 0 0 0.29496902623213711 0.020844035069628279 0 0.30612244898071062 0 0 0.31517107634029018 0.01465896475638216 0 0.32653061224604502 0 0 0.33145742517250892 0.017309542875164199 0 0.31677586907004962 0.035141245837118328 0 0.31681483488107132 0.058957338789268968 0 0.33758663167877262 0.058928408982099223 0 0.32842382447494362 0.047084260423130908 0 0.34266742307447001 0.036616865978363132 0 0.35382303008551941 0.055669198399400099 0 0.36744658438200012 0.047139053814245289 0 0.3634391732638978 0.021285487765500231 0 0.36734693877671393 0 0 0.34693877551137942 0 0 0.34607670892999892 0.018232357377153421 0 0.34479714999748901 0.1070013371697366 0 0.36299333490009011 0.1000000001223464 0 0.36763422178439081 0.063935884846261573 0 0.35349678190036288 0.07494533106641324 0 0.34416248687044387 0.092060188839689125 0 0.33007702991853233 0.078018205422051803 0 0.32944813763574499 0.10033607041789749 0 0.33260053143876739 0.1216090427884178 0 0.31071932435062022 0.114093667545518 0 0.29087709268298773 0.1003043475985618 0 0.28952475824062379 0.1177530934153852 0 0.29883676499032752 0.067246372919364389 0 0.31035370175335408 0.075542620387850062 0 0.31203408154665191 0.09189145499045652 0 0.29400579743018729 0.081599729818108591 0 0.27706731006400792 0.066417608078668589 0 0.26994257067391991 0.088943895605526055 0 0.25853353937696621 0.072259660934973852 0 0.27053077172815598 0.111189119451058 0 0.25523398141423093 0.10000272698805091 0 0.25847980686324717 0.12770187716902551 0 0.27707581061104891 0.13319601811286441 0 0.26817976395541898 0.15456122308673331 0 0.25766247549985788 0.142586694929493 0 0.25938337546477008 0.17946889585988759 0 0.27639076522410722 0.18446406430834869 0 0.27792817947646747 0.16750522292582129 0 0.29501222322187942 0.1791057009806894 0 0.29842079183030662 0.12998231436892371 0 0.29221519101341942 0.15115954652305769 0 0.26530612244835627 0.20000000000000001 0 0.28571428571363161 0.20000000000000001 0 0.30612244897890678 0.20000000000000001 0 0.32653061224418212 0.20000000000000001 0 0.34693877550945729 0.20000000000000001 0 0.36734693877473262 0.20000000000000001 0 0.33758666416873601 0.14107159639913791 0 0.32842392662435238 0.1529157576615422 0 0.31761276193294607 0.13934109139260939 0 0.31690933305773178 0.1645813199607519 0 0.31521253297539792 0.18526279960020131 0 0.3314880473742895 0.18262697705956521 0 0.34266746752872612 0.16338314173859969 0 0.34607673681674878 0.1817676475111932 0 0.36149988251448367 0.1794864343342604 0 0.36744430008880419 0.15270144407146971 0 0.35382303743801341 0.14433080265578599 0 0.35385728819193768 0.12500141966826869 0 0.36763422182444933 0.1360641150748462 0 0.38932598636737709 0.14216356842446981 0 0.38178705946202901 0.16654914399930651 0 0.38443243439069508 0.18679405704080401 0 0.40004235824763468 0.1747287639112568 0 0.39693031049940158 0.16000608545903319 0 0.42339944589258222 0.17596354166666661 0 0.43526905810909922 0.15669631231630171 0 0.42751872056312329 0.13647904948301201 0 0.40910089998727261 0.13275104121318221 0 0.41173616890562409 0.1538501493232815 0 0.38775510204000779 0.20000000000000001 0 0.40816326530528307 0.20000000000000001 0 0.4285714285705583 0.20000000000000001 0 0.44897959183583358 0.20000000000000001 0 0.45785401870150072 0.18847821593774741 0 0.46938775510110892 0.20000000000000001 0 0.48979591836638398 0.20000000000000001 0 0.45537322177885148 0.1559852445502132 0 0.46466881387066922 0.13472105192062919 0 0.445187673773
[...]
<CellData Scalars="A_conc," Vectors="" Tensors="">
<DataArray type="Float64" Name="A_conc" format="ascii">
1.914131017551671 2.3244929975139561 2.2358486838408629 2.7362961944103108 3.4805816610968283 2.9446152530034495 4.2784405668231376 4.1813285519780834 3.2919831002640803 5.1058140759570385 5.9947448828929693 5.2300423295786711 6.2194903165747792 4.9274330875760732 4.219927637747487 5.1559940815169085 3.3467740207937418 3.0009225738482428 2.642881271190431 1.6726712423110588 2.1158941909084712 2.2724739668308063 1.7887983159561851 2.1574074054668446 2.1781498670713275 1.6659219624705581 2.863736795271687 2.2251017263299673 1.6596668155922438 1.8189962754911977 2.7448658660043712 2.7801795083340881 3.3374295397135212 3.5266979486267394 4.2801867365772166 5.2008718749219298 4.3778216659905063 4.4631846096645393 3.7728365462830333 3.4163222239438911 4.1158517693543786 5.1493848935050242 5.2737102701527583 6.4488074871695975 7.3585912420805322 6.3831459255089475 7.4122105492755521 9.162948528724673 7.976270983435457 7.2529892685136961 6.0620854687419659 8.8355388536042856 8.3852369706811594 9.7199433863082341 10.692967932470003 9.9837049965696529 11.326939796383931 12.310297774427092 11.732810147001075 9.8226311928530023 10.916547307411875 12.20070473785445 11.285877882483906 10.376544794164698 11.818167132192407 12.868456521068413 11.615485526274192 11.781666905394118 12.875695473289781 10.585357228213558 10.419886656580832 9.0065643902757753 7.8137952275608189 9.4291953877017676 8.2371919620805905 7.12752534593875 6.9929185288280671 5.9330582966497323 6.8385241887768267 5.855755574322508 8.0295144971078649 7.775279191026085 9.0447083981187735 2.1057446359844785 3.2712282090365594 5.0198204592443441 5.3179778555489836 5.0117596807691687 5.6671336248051842 4.3687432582788155 3.7597249478433792 4.4300656199075688 4.0543193329071849 2.4293618463464632 2.696214499625595 2.0124447424371734 1.7311792076548738 1.6535866182580055 3.1084695236204514 2.7007785005721381 2.1670461939923489 1.6852339254345328 2.1620758720044035 2.7537307614830442 4.2540415324040888 3.4735040661147814 4.9357287438923176 5.8088280332379219 5.3717238778683427 6.3015692345910175 7.3776329852625322 7.5493584253136063 6.479548688986533 8.5250672647375012 8.5151044446311914 10.984902298365569 9.6979634390787499 11.855887075136245 12.043713395782637 9.6693259459984588 12.368214200879471 10.920312933784444 11.383940253465791 10.39493387645509 9.0009846482698599 7.9323652839502241 6.4206506802885119 7.1023628007472155 6.1375568072967157 6.0080903134595713 7.0185605658959016 8.1444204307667789 9.3084236958262423 10.487698322235413 11.680789607130581 12.804806739836989 13.664363486742342 14.643646511225018 15.711564497158204 16.827834610929589 16.418598829323972 17.264717229634268 16.750021259367944 17.130650390749537 16.203325608579682 15.675251606228668 14.782473475834419 13.560190332911638 15.315926940895809 14.42735498806481 15.040320337856013 14.136591057605322 13.248920310857685 13.017964917698102 14.028806399413613 14.678077903695341 15.501178206801832 16.181801536950321 15.792780292680757 16.417397269007495 16.851640329707514 17.134377927900051 16.700624396006528 17.481929133767132 17.273380663703183 17.498533022595776 17.335863538238137 17.415874687369822 16.863322532286396 15.479123670477911 16.452956646355037 15.850238212701125 17.014473344424744 17.343956516061869 17.044683985476322 16.592215977299162 15.957456078826599 17.050035239621344 17.35232965821239 17.533242494418026 17.515357148325094 17.545439331072618 17.450225703724598 17.604777244957692 17.496605994650366 17.36811206781401 16.978404718603386 15.829029631455994 16.545999137699415 16.265226962628063 16.775578528134012 16.621460025717635 17.029514988583589 17.046412350824866 17.245169902144859 17.223810503657297 16.844428865589414 16.470664888969182 16.293981158427734 14.727258368195859 14.890971701896062 15.816619876444744 13.966890322425819 13.978622027452012 12.867121492390325 15.654167133035823 15.680008089822941 14.958540627681531 13.946613323177717 12.580486833270172 13.315402239457388 15.053173696046004 15.413643391991277 14.374655363877864 13.074157056027319 13.758262068914934 13.141940603693737 14.059120374686698 14.530507134920176 15.307019575765278 15.964172891913487 15.861852503989194 17.09661445437807 16.992295742572491 16.556462002574658 16.032359102229368 16.507614648494101 16.578679726277354 17.277500435878913 17.000063841343568 17.310273105668749 17.304954339086109 17.387927847390284 17.370927088128624 17.24703181381587 17.378355839288293 17.367994443803433 17.425455194465663 17.287379430180508 17.250284003376436 16.966566053795468 15.694272337233903 15.710691857171925 16.2121164016908 16.472313113420213 16.842287595948132 16.95002928974851 16.453195032441364 16.167793744367692 16.080305438656104 15.559136489196455 17.21138785737628 16.72306861616887 17.394601815350629 17.263929316565186 17.391551225422958 17.46181756090321 17.432520087496108 17.435525260800226 17.266847982533776 17.461219809415258 16.879595784592723 16.864437398533834 17.281524518552004 16.355298661743589 15.563334338079411 16.316195208819373 14.787112771877002 13.540126625684625 13.745791269812752 12.430969223860775 15.421163128014193 14.560024068570236 14.66156954009319 13.802038670808118 12.477995048939142 13.699177126562667 12.931592292974443 11.489295162907176 11.312309776368959 10.309031587354474 9.0842282320287548 10.142615189900425 10.11749155572932 11.166985069233387 12.38518356457211 8.5938649415344859 8.8029834731398271 7.3740701321188649 6.1495883269148361 4.2517728800717141 5.2906052304907778 6.3886295771786337 5.0025638953829521 7.3063330111530878 7.5400409870239482 6.673685316793625 5.4947087884868111 7.016475349250932 4.1466004863381372 3.5076731188889214 4.8847964298856654 2.6491112015905185 3.1399818505914148 2.6145797468701635 2.2847835585042175 2.9997617617090881 3.5975426274200677 4.3190840192131033 4.5353263638214862 3.6652021463658482 4.5546160708204422 3.0472047243294487 3.0864766988907739 2.6990641628745351 3.4188789702716083 4.1173350003502005 3.7198480404791989 5.692601555862387 4.7343467509784789 6.4905227409764032 5.3342006157700306 7.5617525462193758 6.6886538825772117 7.9995927294335978 7.7581607820354259 5.2876855830285994 5.5172111858833617 6.6841613353656468 10.525607328203931 9.777751918037346 9.0484056550364773 11.738051284196285 9.6326014978841901 8.474967498283231 9.0634055500252355 10.309660109557139 11.727827790853517 11.054114578123796 13.535347214311169 12.584028170355289 14.901528292753348 14.461335234341423 14.554297431120673 15.419935755727327 15.325345237316908 12.486902597259121 13.46551956804848 12.950773214945873 13.787931256010717 14.919320938432394 14.43410280372863 14.709268992029521 15.467707031582846 13.031940486075928 13.901031113371953 15.12164469318552 14.853245956309884 13.496713122959106 12.551634856976429 13.824581010133095 11.25279889158303 12.468787601979098 8.4784750433459521 10.230928466691127 8.9917449586237836 10.229111981782703 8.6060239545605555 11.521443144503085 11.325700184897233 14.906094616877532 13.856880649501878 12.788214065171044 11.52861278710602 10.480897793734261 9.1509702247536531 6.6239252719824151 7.8868615953848167 5.7287730810969784 4.6371061977016126 3.3558689243409923 2.578351497851421 5.3965834700165622 5.181131986551585 6.2590368644331082 7.569489409556061 6.5679201520400561 7.3971216344876431 7.1763850066934181 4.781100825726865 6.1643729110377716 6.9053774595909445 3.3108085061189012 3.9441587005113989 4.0778417439548065 2.4666560126545152 3.1403348705390179 2.6435508413672566 4.0330227074720231 4.7839694434895215 4.0822382261353596 3.379682031367401 2.6417802629958631 1.5219424110738697 1.9937306030623156 1.0751208074594045 0.93008368275549325 1.2090712959340628 1.4547565181725648 1.9237990744603333 1.9474047669137684 1.3875758337413506 0.99415286817089676 0.86595282268975882 1.1387467396269337 0.71728113341969668 0.70528381247529259 0.2895138921635102 0.27828776617496842 0.46543793246032861 0.28251381629772515 0.44271089617289161 0.54250910117943707 0.64025037761761561 1.9060065772156234 1.3937056002543655 0.43771628217526043 0.17759635453514527 0.12437374276397138 0.11458299918059278 0.11960047624972478 0.24173076827852405 0.42561300462236007 0.14897306220884088 0.1369781855761677 0.23933430619768356 0.17867709285903641 0.20362104601248521 0.18843615178735867 0.11510824614285819 0.13826852284101837 0.12467802830837546 0.16027864609619413 0.14835299342018854 0.24017140596358916 0.42397591873703433 0.38158333712325482 0.25201840601203362 0.16232682780295654 0.22576551821992438 0.63899176059247464 0.37335089395785448 0.48604036811768891 0.30685480438271345 0.44088705607484546 0.54295691694479864 0.15708210641048714 0.20160199380670163 0.14382598039898914 0.15908186527121765 0.16096438369265872 0.15066437598287102 0.21495144601963073 0.17056858725466356 0.21119968572897413 0.18204423595035074 0.14806122495855725 0.14618040983649788 0.23776662963817072 0.16896448110084814 0.23537658214998158 0.54371222910637429 0.36327306248122115 0.39150678314345222 0.41427849054499566 0.65173570695763761 0.27654197900395971 0.18162238599545982 0.17599849660731198 0.49225926957367605 0.47872697537813408 0.275677492050446 0.17365525099666398 0.28466957094326428 0.12847182094956131 0.13913237172359971 0.12896537496505903 0.15082631627312892 0.18914439219225762 0.13640855832738791 0.15592285430473996 0.14768423303293099 0.14019669669525159 0.22366991469786524 0.22197128074077904 0.39799750071006201 0.27868492240367904 0.49640450686113746 0.6327821649742752 0.30839705638460685 0.32382498561779521 0.78915962911794446 0.66974079210775228 0.46115015375963053 0.96191546366408964 1.5096217736209758 2.0058605247925105 1.7334709299804467 1.2601552308554378 0.95609543137209552 1.1006706543032738 1.4219828892910267 1.9285100454625355 2.0330859208795582 1.5376015541690449 1.0494896601901582 1.0428971249779919 1.4921354148763617 2.2225969062132669 2.212081958493358 1.4881002114948121 1.0034438119303291 0.48434652968242059 0.76602044182467943 0.72336222628482871 0.39615672330326479 0.33764643449699516 0.25506938936765933 0.33153352488382726 0.6699072106587417 0.49309677288085646 0.71959718628075098 0.53139154862536508 2.6335086239076293e-09 2.2199945174987165e-10 1.6589637316480247e-11 1.1804036310202182e-14 4.6862952493427602e-13 1.665061437339595e-15 2.7423362904754477e-28 4.1758011116494367e-15 6.70237150136705e-15 1.3156464050234655e-15 1.6524577649412958e-14 1.6006171616352209e-11 8.7946627787196959e-12 1.2169519486009496e-21 1.1141318478213787e-10 4.1991504338219448e-12 2.9592870873101682e-10 7.3229974448886716e-10 3.2494376458338916e-09 3.2102465199993066e-08 8.2074129907492185e-12 1.0807951699159205e-10 1.0169217689821952e-10 1.3905821027214435e-09 5.2213121408888296e-10 2.0147334805328399e-09 2.7639172324778522e-10 6.2141833205614046e-09 1.3514270552647801e-08 3.5311340976811812e-09 3.2402252017545922e-07 7.8709318128465605e-08 8.7833695527118578e-08 3.5247043923156725e-07 7.7950851364325636e-08 3.6820506177554169e-07 1.9733165623898047e-08 1.1123818900782982e-08 5.910425845826416e-07 5.3865746454477691e-08 2.5747689445856426e-05 1.73229812246428e-06 0.0001070046432109129 9.8838870959880244e-05 8.9995097636509905e-07 2.2643086492898775e-06 9.2204548499228459e-06 4.8050248718234184e-06 3.0240561208508439e-05 2.405220782802777e-05 2.1827462196578128e-08 4.5342164424483289e-07 6.7641760217868144e-08 2.1588906520981788e-09 9.0823803996583616e-11 3.1066437950766482e-13 2.9613129516070998e-12 5.5143193160895817e-12 1.2364651703895251e-13 1.159379765747382e-15 4.1927442845855365e-14 4.0480088160712915e-15 2.2964532141229871e-14 6.8278216908610666e-14 4.8856306854759419e-14 1.9512732976790979e-26 9.164203059552119e-15 2.7343101692561511e-15 2.4524128349082547e-10 4.3259040569447736e-12 1.1665407218807139e-11 7.3836999938608232e-11 5.9030001549745989e-10 1.7421289425792388e-09 1.3967875207249851e-09 3.2291589172508874e-10 3.2847847574873066e-09 5.5309051065453654e-11 4.1627926925972597e-13 2.7205794276463299e-12 1.5064947586653033e-13 3.2012165045833807e-15 1.0789059077956063e-14 5.1732607462841273e-14 1.7034137288883789e-14 3.4732634584024134e-26 3.2342586742496963e-15 9.0226006096208902e-16 7.1376283272591138e-11 1.2693587127010604e-10 1.1686091717849844e-09 1.4122287326620408e-09 2.3110989041662031e-08 1.7979122445185157e-07 1.7803083287640657e-08 9.4926395539255005e-08 2.9196744698884031e-06 4.6285128838537474e-07 1.553129901196443e-06 9.3443937591728502e-07 2.9210826050697821e-05 1.1863636644840236e-05 9.2719032847916286e-05 0.0001256616133741667 3.595307210471912e-05 7.3001336954483156e-06 1.8466961583425737e-06 1.3763342888357046e-05 5.9425981367381193e-05 1.4271876702723225e-05 7.7557824198656298e-07 4.3399324402041812e-06 5.3179801491375832e-07 1.0025715421715107e-07 2.9489292068490506e-08 2.1753245987766189e-07 3.6302250709406753e-08 1.9754093194846133e-07 3.0407521430265188e-08 8.7782109073257205e-07 6.0683045476179212e-06 6.432731151382527e-05 2.8105181713665703e-05 2.5742555234025971e-05 1.0167027590703444e-05 1.1831711189000909e-06 2.3337334589020319e-06 9.5556428762102951e-06 3.0851203822958982e-06 3.6882816106103632e-05 6.3351924594264741e-05 1.6701611900551822e-05 3.5708205088139847e-06 1.6240619899356547e-06 3.0413119430190663e-07 4.8932408143502344e-07 4.7767235351964374e-09 1.8115321411107669e-08 0.032290250931229975 0.068444426726816665 0.065637573365205482 0.0046859565910649763 0.01067072347777219 0.012324551698463181 0.0047704316546517203 0.0016001752297322073 0.00024891366475939057 9.3118598423751252e-05 0.00022455637802706473 0.0024023910598073251 0.00074431842211763251 0.0017771593797523205 9.7968449432543408e-05 0.00030765982598195764 0.00070791432692308563 0.0067603568513750316 0.0075832507408056544 0.030630785925482514 0.019286775517065223 0.049681491279264731 0.045840792056219083 0.08104864660310078 0.060543780774293357 0.010842477481508964 0.023730101352974486 0.031172384294097563 0.020797577380544503 0.0029162223339166665 0.00018682143285196168 0.00030436552024049361 0.0019229112666730255 0.0048667309277840723 0.0031951330003365712 0.00087961511037968525 0.00048442861441203673 0.0060975499745628842 0.001541856063241065 0.020676556208463398 0.012742617667348197 0.0079580379183215762 0.11423476329929856 0.042797194277697764 0.063527927168039525 0.032834531758452593 0.11975320886876875 0.22161190808640002 0.19526278598914601 0.69212345976989265 0.4423463989922955 0.352838443199054 0.55617772361957463 1.0019281860250966 1.668216190913828 2.5308702683806512 4.4026649975307706 1.2547627779272295 1.4677024479438998 2.4373511657144311 3.6971738163540397 2.6027161955133837 3.4133792202846927 1.8352731019004427 1.0671685710590417 0.75343035189121776 0.4628651713161232 0.2063528655945005 0.13218079545708422 0.11637934577570576 0.22779292670035406 0.17199969244331875 0.73389248381890115 0.44831024729191821 1.0135657257242212 1.4835693034308588 3.896467206474088 2.8167259015153348 2.7178071681466975 1.3947889072308004 2.2303848390490666 3.8173302959776905 1.2836962722785417 0.33907467143673753 0.67419324831447669 0.37859852345032824 0.15711370689019283 0.0060349023315173951 0.017722533347318461 0.002586110742789386 0.00010623861331161434 0.00010606369383403541 0.00038157634901630512 0.0005360530549783167 0.0012488833065592618 0.00075223854899021203 0.002151525398728074 0.00089415963233228175 0.00038288705759325758 0.00029560412935811589 0.0022362974834284196 0.00099905167067665303 0.0038280012353325505 0.0028222800383598473 0.0050640701189086212 0.0095902900841877362 0.044157828615729339 0.021721383123413894 0.032596784865968335 0.063314033653903451 0.0047193750720156743 0.011230110580572501 0.017943873164164705 0.055502906989228558 0.048173570825060644 0.1357890336115089 0.64669840019156921 0.35612005260671575 0.3848301615416273 0.1312633994758963 0.13649815762826115 0.33705916502917777 0.56998914887467855 0.28811235086983794 0.48986692311280838 0.89455110852737396 1.5831464958819217 0.94879400483099152 1.72282166765453 2.5913008039544039 2.3561671811302825 4.2667482206516052 1.4748630096853581 1.2493342277273656 2.557510333664764 3.8822315629830664 2.5394945113647198 0.76140268870254468 0.13330700005147222 17.773353726700332 10.965036592283322 4.1108554192004298 6.0679203983805863 5.60851589375996 7.7736369595750485 10.25317768320622 7.8346059698869208 6.1983027399807629 3.7138850107429922 5.807116230013964 8.3164764507174684 11.983965379208659 8.9165850390353594 12.562984880991181 16.612893661304103 16.036628720838383 19.141538413396127 19.236547807461598 22.475045691175694 13.02773178401487 13.949639386900332 16.822686555345882 23.950707410295095 23.658431917649157 20.544808682569091 21.470550948610693 27.23165740061016 28.005482262457893 26.848793350484847 29.966115071886286 28.867272290987092 25.62348322232069 26.535118089823357 28.662662737658131 30.01060539836454 30.127143138770851 30.242388949177915 30.194431637888179 27.825979874482837 29.607682889886313 30.525804647005106 30.271705994622195 30.348547273204197 30.242883248415822 28.750971792382479 26.964000853375033 29.081865640760764 29.70880028455862 24.920989348357036 29.705512649020569 21.191318881419736 19.687311663028293 23.021242070289034 13.88553484435735 17.586794960298679 9.7658371627406559 6.8891352471272596 5.8380405378965197 4.3518871930767329 8.7933759546691412 12.10242839019026 6.8675082977671504 5.5023736102968881 8.6789049260786015 12.476174328628652 16.638996776533432 16.058317706114632 23.759047383867141 22.645499080517595 19.671530603956178 19.135939065482837 23.147517132477326 15.85807574389171 16.498881105498441 12.55514347219075 8.8318758711039838 7.0486215587166523 5.1612228909579807 5.4492941858869139 7.6166300395374869 8.9638256817881121 12.05544187799407 12.128953372140145 5.9726753812307143 4.3007790565993211 6.1218266874750302 8.5416181945748413 15.332768999476357 20.034565522144685 20.16755854748105 23.290443676039384 23.760055761482075 26.663301144511415 26.650054861715709 28.934702199324203 28.780597328737699 29.725010849622599 28.318556850225733 28.207019569068013 29.73104374439334 29.905187395130277 29.590941293631786 26.82498897124167 28.795413100213423 30.004305126294035 28.815676606884203 29.954157680346952 28.888550444503188 23.814775765050623 26.394583833517242 25.687467806775864 28.571949498049577 26.821839782835404 28.360001262150675 29.477895235798218 29.83105007585948 29.927157855528133 27.570294139915138 29.281146757739791 28.564649869502457 29.974256055547837 29.92450324459335 30.136131996142701 26.840272626861879 28.803199520441666 29.848154988676832 29.372558526833473 29.225014681088915 26.330810955046573 24.535398998277724 27.526909952653003 11.657649069581273 10.429012486976974 12.858374165969272 18.569253117965598 15.353448547066085 16.925043137775646 13.644527481407208 22.928897580584817 19.694090736835882 26.898847163087879 25.590439293715665 20.997917731768034 26.82216230719467 24.543235679363363 24.955908275856295 22.514127778540598 18.846510469270545 15.017601011873964 13.891835178273674 11.397281127261664 9.2342800466718149 11.612201849866988 8.4242016199738536 12.061990438720965 9.7928957048853142 15.626426449733168 14.336079369574684 21.356297203936052 17.828949739046212 24.682111955920426 25.944920456698085 20.362997260583505 23.255225142166623 23.581717847477961 26.002311629622007 18.051974923312944 20.637517632000289 17.731391199792579 14.676985089245225 17.929628634335579 12.883199480359966 10.409082377930769 11.574730387330453 8.7578047594063921 7.9605944776827133 6.2348642926340396 3.5663044078211756 3.0229070502718294 3.1695641375648336 4.7855396621013897 2.1143797811913894 0.76751572361949616 1.2267880368675321 0.76898630404017665 1.184564633608566 1.4230764666341822 1.9527711496723001 2.3052166371929794 2.2124593371678349 0.9369017358415781 0.85096946470160906 1.3397234833576932 1.0677591241024149