<?xml version="1.0"?>
<VTKFile type="UnstructuredGrid" version="0.1" byte_order="LittleEndian">
<UnstructuredGrid>
<Piece NumberOfPoints="599" NumberOfCells="1080">
<Points>
<DataArray type="Float64" NumberOfComponents="3" format="ascii">
0.014261120859510951 0.01476364028082537 0 0 0 0 0 0.022222222222172731 0 0.030393520779906098 0.016393210364487439 0 0.020408163265391192 0 0 0.040816326530782147 0 0 0.051838137503398218 0.016097170421718029 0 0.06014203299484646 0.028800515441748099 0 0.061224489796173232 0 0 0.05997194079032258 0.04512095697672458 0 0.04395097424174637 0.032880702536447093 0 0.038287656994838798 0.053045050008237282 0 0.016784005309402529 0.052942578394164941 0 0.02085901357486063 0.03347530932066585 0 0 0.04444444444434547 0 0 0.066666666666538782 0 0 0.088888888888738943 0 0.0207341866468383 0.086451824494522836 0 0.024773355977313231 0.067081421531037314 0 0 0.1111111111109777 0 0.01494008276341045 0.1008555938909899 0 0.021796908541191849 0.1185794897852074 0 0.043801444738163997 0.1121383540808015 0 0.032717449973680472 0.098326472725607031 0 0.05587596540385175 0.095449649785454282 0 0.044093637822741567 0.077061145711795925 0 0.055599947731468188 0.063390459096043877 0 0.069428650838703046 0.078109012133597111 0 0.08347748713356852 0.068933876054200802 0 0.064375376681575586 0.1198167832100239 0 0.077413543502816748 0.10030203404452311 0 0.085089729736171488 0.119617281284406 0 0.098955340253080407 0.1056404584089907 0 0.1170604350569325 0.1121452492360058 0 0.094169754915606196 0.082171266397786241 0 0.11693983748236721 0.093447218298871995 0 0.11837332598570451 0.071168852510895733 0 0.12111194339545479 0.04844499445275665 0 0.096189142707762201 0.05697243691702588 0 0.103555154504992 0.036186477933083078 0 0.11299168747658229 0.018223577284824748 0 0.12394502061713961 0.031222640348626381 0 0.1224489795923465 0 0 0.1020408163269555 0 0 0.091646580262525548 0.018330347140998932 0 0.081632653061564309 0 0 0.070237773272778581 0.018029566749463509 0 0.074122400072202652 0.058482788768393967 0 0.079421396932280591 0.03754246087862223 0 0 0.20000000000000001 0 0.020408163265257129 0.20000000000000001 0 0.040816326530514258 0.20000000000000001 0 0.061224489795771393 0.20000000000000001 0 0.054019669473298691 0.18366584576742709 0 0.049714346880519983 0.16645371985076809 0 0.033215856157334828 0.17850266876265189 0 0.014023333902158141 0.182394709209038 0 0 0.1777777777777613 0 0.017135169343986061 0.16431058345961719 0 0.019520277349320991 0.14318452722090769 0 0 0.15555555555552261 0 0 0.13333333333325489 0 0.042554332387182259 0.13368213047820371 0 0.035635253823565798 0.15364607071364031 0 0.049938656267179422 0.14995167814392149 0 0.060260681239859858 0.13944864135565019 0 0.064370693814434943 0.15502759500660421 0 0.08062060994580153 0.13918761086732001 0 0.1042644740555471 0.12799034491895131 0 0.12024457380872181 0.14116844394060329 0 0.102056949318844 0.1521532026904773 0 0.105956119678229 0.17266400992904621 0 0.092232684106244869 0.1854899681538511 0 0.082775318469293938 0.1659099040050232 0 0.064606319906987564 0.17179095407592421 0 0.072854112358079245 0.18446705898418439 0 0.081632653061028529 0.20000000000000001 0 0.1020408163262857 0.20000000000000001 0 0.1104245037805535 0.18857291040970159 0 0.1224489795915428 0.20000000000000001 0 0.15160143162222731 0.18868551043161441 0 0.1428571428567999 0.20000000000000001 0 0.16326530612205711 0.20000000000000001 0 0.18367346938731419 0.20000000000000001 0 0.1866126448812436 0.17879102272255121 0 0.16862026566618729 0.15959243955905791 0 0.16816720278504441 0.18336701113475271 0 0.14970749744881609 0.17228271921525401 0 0.12945662023126131 0.18258835036036711 0 0.1272915627839476 0.15904714937094391 0 0.1470889987074466 0.15503786192178531 0 0.13948070701489459 0.1390949041904434 0 0.15875129629214141 0.1419258674381034 0 0.17653996983443249 0.13915185707924671 0 0.19794103540912841 0.13709335085893029 0 0.19043327742881019 0.15621779145264789 0 0.20975416132060401 0.1543080645520564 0 0.21868983795624461 0.137293434797324 0 0.24137752222243089 0.13632406157444521 0 0.22718765864317819 0.15249946285597349 0 0.2231302589847598 0.16911942216408479 0 0.2457904739350554 0.16109605343360389 0 0.2351917770941058 0.18375930957726971 0 0.2054582936884348 0.17401498380647001 0 0.2187377868626201 0.18565360194747971 0 0.20408163265257129 0.20000000000000001 0 0.2244897959178285 0.20000000000000001 0 0.2448979591830856 0.20000000000000001 0 0.1625436484314447 0.036804562425001693 0 0.159070163450932 0.056161337383110708 0 0.17681721105602091 0.04519280370752065 0 0.17460465285316529 0.02096245932491814 0 0.18367346938851981 0 0 0.1632653061231287 0 0 0.1577961925906774 0.017980129894371109 0 0.14285714285773771 0 0 0.13485946140366309 0.018399825352228508 0 0.1442826822303237 0.040178256704826013 0 0.13780375874147449 0.08587856819508799 0 0.14202611285248121 0.063574988226385382 0 0.1273498583307075 0.1248993784176109 0 0.132629020125939 0.10596507531517151 0 0.15385507203443771 0.1018757379169621 0 0.1426249752706252 0.1199675913907549 0 0.1618538799100781 0.1222458194092621 0 0.1745660379747517 0.1007160508754716 0 0.185197186166281 0.1177798427629492 0 0.16132583170166459 0.080257896954238864 0 0.18147781125296911 0.08573441888153932 0 0.17960122083731611 0.065925166371224572 0 0.20214832970878871 0.076994743220600292 0 0.19720110103667809 0.1002115461984506 0 0.21683888967822121 0.10000000000000001 0 0.20703177974839779 0.11780911450935801 0 0.22819533206086851 0.1195208034094417 0 0.23663154269384731 0.099999852711542658 0 0.24939025260864359 0.1150460111476158 0 0.22831221601338739 0.079998709103160537 0 0.24944762486911271 0.084858033575160474 0 0.24324251900825311 0.061777774471969589 0 0.23430583592859611 0.036648549012572591 0 0.2206735814990323 0.058175712829474563 0 0.20847249073992699 0.035540542589399177 0 0.19009301373328921 0.034073157834657267 0 0.19587735175055279 0.052872443167043211 0 0.1962989411828461 0.017947180708190801 0 0.21686838772826461 0.017106924500170241 0 0.20408163265391091 0 0 0.22448979591930199 0 0 0.2351672088610714 0.01465491501464453 0 0.24489795918469301 0 0 0.2653061224500417 0 0 0.25700251308237992 0.02362562813361252 0 0.27627320067291511 0.015564804075607201 0 0.2604232671994261 0.057679262856618799 0 0.25290916639082961 0.044910650108052209 0 0.26957169673549303 0.044822036065487528 0 0.27792816074553828 0.032494741090538792 0 0.29221405623725932 0.048840666425783288 0 0.28571428571537621 0 0 0.29496902623213711 0.020844035069628279 0 0.30612244898071062 0 0 0.31517107634029018 0.01465896475638216 0 0.32653061224604502 0 0 0.33145742517250892 0.017309542875164199 0 0.31677586907004962 0.035141245837118328 0 0.31681483488107132 0.058957338789268968 0 0.33758663167877262 0.058928408982099223 0 0.32842382447494362 0.047084260423130908 0 0.34266742307447001 0.036616865978363132 0 0.35382303008551941 0.055669198399400099 0 0.36744658438200012 0.047139053814245289 0 0.3634391732638978 0.021285487765500231 0 0.36734693877671393 0 0 0.34693877551137942 0 0 0.34607670892999892 0.018232357377153421 0 0.34479714999748901 0.1070013371697366 0 0.36299333490009011 0.1000000001223464 0 0.36763422178439081 0.063935884846261573 0 0.35349678190036288 0.07494533106641324 0 0.34416248687044387 0.092060188839689125 0 0.33007702991853233 0.078018205422051803 0 0.32944813763574499 0.10033607041789749 0 0.33260053143876739 0.1216090427884178 0 0.31071932435062022 0.114093667545518 0 0.29087709268298773 0.1003043475985618 0 0.28952475824062379 0.1177530934153852 0 0.29883676499032752 0.067246372919364389 0 0.31035370175335408 0.075542620387850062 0 0.31203408154665191 0.09189145499045652 0 0.29400579743018729 0.081599729818108591 0 0.27706731006400792 0.066417608078668589 0 0.26994257067391991 0.088943895605526055 0 0.25853353937696621 0.072259660934973852 0 0.27053077172815598 0.111189119451058 0 0.25523398141423093 0.10000272698805091 0 0.25847980686324717 0.12770187716902551 0 0.27707581061104891 0.13319601811286441 0 0.26817976395541898 0.15456122308673331 0 0.25766247549985788 0.142586694929493 0 0.25938337546477008 0.17946889585988759 0 0.27639076522410722 0.18446406430834869 0 0.27792817947646747 0.16750522292582129 0 0.29501222322187942 0.1791057009806894 0 0.29842079183030662 0.12998231436892371 0 0.29221519101341942 0.15115954652305769 0 0.26530612244835627 0.20000000000000001 0 0.28571428571363161 0.20000000000000001 0 0.30612244897890678 0.20000000000000001 0 0.32653061224418212 0.20000000000000001 0 0.34693877550945729 0.20000000000000001 0 0.36734693877473262 0.20000000000000001 0 0.33758666416873601 0.14107159639913791 0 0.32842392662435238 0.1529157576615422 0 0.31761276193294607 0.13934109139260939 0 0.31690933305773178 0.1645813199607519 0 0.31521253297539792 0.18526279960020131 0 0.3314880473742895 0.18262697705956521 0 0.34266746752872612 0.16338314173859969 0 0.34607673681674878 0.1817676475111932 0 0.36149988251448367 0.1794864343342604 0 0.36744430008880419 0.15270144407146971 0 0.35382303743801341 0.14433080265578599 0 0.35385728819193768 0.12500141966826869 0 0.36763422182444933 0.1360641150748462 0 0.38932598636737709 0.14216356842446981 0 0.38178705946202901 0.16654914399930651 0 0.38443243439069508 0.18679405704080401 0 0.40004235824763468 0.1747287639112568 0 0.39693031049940158 0.16000608545903319 0 0.42339944589258222 0.17596354166666661 0 0.43526905810909922 0.15669631231630171 0 0.42751872056312329 0.13647904948301201 0 0.40910089998727261 0.13275104121318221 0 0.41173616890562409 0.1538501493232815 0 0.38775510204000779 0.20000000000000001 0 0.40816326530528307 0.20000000000000001 0 0.4285714285705583 0.20000000000000001 0 0.44897959183583358 0.20000000000000001 0 0.45785401870150072 0.18847821593774741 0 0.46938775510110892 0.20000000000000001 0 0.48979591836638398 0.20000000000000001 0 0.45537322177885148 0.1559852445502132 0 0.46466881387066922 0.13472105192062919 0 0.445187673773
[...]
<CellData Scalars="A_conc," Vectors="" Tensors="">
<DataArray type="Float64" Name="A_conc" format="ascii">
1.8525189471729111e-05 3.6651291470391583e-05 3.1887692471022704e-05 6.4365397100800198e-05 0.0001512647379308968 8.1357748567041578e-05 0.00031874342810956399 0.00028817546579136885 0.00012584811782016234 0.00060656999619809987 0.0011539563050550197 0.00067427659422970528 0.0013438707476636658 0.00058532413193470992 0.00031257706617877326 0.00065035495422978635 0.00013928885584598219 9.7407681280701813e-05 6.2597569362542286e-05 1.3248768837913699e-05 2.95935144308756e-05 3.9925287727547816e-05 1.7644019414018e-05 3.7443310839396378e-05 4.0462326302929304e-05 1.6626130133620378e-05 9.1764462189445825e-05 3.7142623136187559e-05 1.3948199902875448e-05 2.04061598525539e-05 8.6647039559651317e-05 7.8407599470515393e-05 0.00015041746289045721 0.00017149691417913732 0.00035899544809648025 0.00073982055785449218 0.00036878928421956966 0.00040520647777885746 0.000214454192624556 0.00018526289433365694 0.00036255772360888207 0.00081349214430211049 0.00079748452546927096 0.0017187881044765036 0.0030513380080886034 0.0018108262314726641 0.0033890711496660508 0.0084981527826141438 0.0045317804758713857 0.0028013725914705911 0.001371029295113335 0.0071594780557691275 0.0052904935500522818 0.010306656258461567 0.017021934342582638 0.012871196552262461 0.023723096029415598 0.038536128890211872 0.028553838596219728 0.012336700505917774 0.02130816866145941 0.03868586285771318 0.024210902924843094 0.01463897617398513 0.027883291526294023 0.045086497762479992 0.024910765327878684 0.027556205137309921 0.046887024064961647 0.015440127863833458 0.013922346122927094 0.0070133180840693116 0.0036830386501818984 0.008607567050776985 0.0045849726798308328 0.0024227163846985075 0.0022068725454980689 0.0011615287362948838 0.0022028821029994217 0.0011502639559001525 0.0046354592933074857 0.003891912073866426 0.007610641780827326 1.9074340581052253e-05 8.8587026769718411e-05 0.00043080262095212044 0.00055242147417511236 0.00047630915759126324 0.00078773353758374693 0.00027184321877376442 0.00014674177028702675 0.00027110419304800617 0.00019272369923413029 3.109298182803327e-05 4.3857918952146858e-05 1.5922042909030107e-05 9.5255172594989792e-06 8.8145783126055442e-06 7.2749848709519456e-05 4.9418319626930575e-05 2.3263464552767657e-05 1.184259773655658e-05 3.0822767085072502e-05 6.8445311328694852e-05 0.0002670039427502735 0.00012767606880318186 0.0004898694282862502 0.0009088241979869707 0.00077027718622315797 0.001466326204545419 0.0028342927146572799 0.0028365423267923658 0.0014774654168707593 0.0049896947341648498 0.0053461004457333716 0.017961245433054711 0.0096154637609371565 0.029477798901698368 0.028598312127382286 0.008751068052038756 0.031552009616063782 0.016255480798238131 0.018929545649965799 0.011342405340152186 0.0057436707512055103 0.0031534688751004604 0.0013536841531120816 0.0018705029621949474 0.00099398262261357097 0.0008839899839212206 0.0017160697207667277 0.0033325487751520921 0.0062672467637479561 0.011523435469603747 0.020689784208304505 0.036046296478039946 0.056491856910626394 0.093623210571616669 0.1653113600707776 0.3594627548371892 0.25906235268597017 0.53787364943584726 0.35267029758868335 0.50314543073767193 0.23732376825461271 0.16558935784655948 0.10108390519747847 0.056026336913675936 0.14313478595477841 0.088673326228766225 0.13061293041131911 0.080102057432964668 0.050757569022421872 0.051139528368418577 0.085227017815732414 0.12173278955726108 0.19032048393479853 0.28883333030983416 0.19805783081753314 0.29781108911633319 0.4210687544444196 0.64093566590219475 0.43026931373772859 0.92761209875594464 0.64481881973751531 1.2939850853701256 1.7801547248113736 1.3451937364281759 2.495502633148948 4.2183264057624452 3.0879182256486422 3.8074864884249449 2.3210971904210438 1.7840494797076578 2.2848659895901546 2.9176401490568429 3.6895103454842166 2.3022759548541107 1.8119349475518249 1.4595346682532269 1.381721975908226 1.0116628952089335 0.74495753290076361 1.0750942251304247 0.75347250606600591 1.8246836421310781 2.4427557732134688 3.8586361717334192 3.0033746749648387 0.29632030594575759 0.41467127240635282 0.40833187691075379 0.58864790879873252 0.54460462618574346 0.69105846921034852 0.65694125083136756 0.44817037197339304 0.3274450620205378 0.28652708137393101 0.11599520242377628 0.12884971348956106 0.21365344300661127 0.079781827752530843 0.077337106216450652 0.046602367005314262 0.19133085069697442 0.20260696959616739 0.13614599248546411 0.081587973633075753 0.044137829916773952 0.066131593813246958 0.16080140581449157 0.18813038409351751 0.11075294138478078 0.053065873964523225 0.076231686060810488 0.060684502573837139 0.095900972947201124 0.11603222542920268 0.17719644342629021 0.26312838783352493 0.25363366042933844 0.62130324333441833 0.58445724252716325 0.39368615031003112 0.27572547511602596 0.38855143950417137 0.40919260411731806 0.85750611183697933 0.59299814726191336 0.87203734430199997 1.6187433362729164 1.1928650160847447 1.188015060646666 1.7824919104001169 0.94692224035043804 0.91380234933633853 1.3007518429850524 1.7522974263715798 1.8343214710987941 2.3298125689342122 3.9570067969569638 3.9408537862980166 3.3605540135550918 3.0180284812761302 2.5078567592613199 2.3453389399901563 3.036014623755027 3.4010237332623294 3.5195521029860015 4.1259237889075404 1.8929951985242268 2.7006408496889063 1.367124888824224 0.74365212055572605 0.99716505640320152 0.98159479048596843 0.98659077208663892 1.3154281583638108 1.8855454862830463 1.3684954565119489 2.5079687836704156 2.5132182259288518 1.788297972004834 3.1834725249274345 4.1344708788431905 3.2487147455198508 4.9921874815637599 6.3190963045575934 6.1063228476773315 7.4794663628645566 4.277768424060076 5.2270296328830543 5.1221348163066782 6.0400812421500278 7.4225582623772528 6.1449240291890757 6.9477306507336944 8.4384186317337324 8.6209502760264876 9.6426543400663576 10.883665529629102 9.811962819805121 9.8416710720621445 8.7754763376310621 7.5215608547242629 11.379268675824427 11.170476649687437 12.608431741834194 13.83384880683835 15.71495006472429 14.68859052496547 13.59089536658141 14.969915077938724 12.673568378835729 12.439194458755503 13.30706331040618 14.48249205908183 12.962954085254541 15.807813400845468 16.423722749415909 15.085184315140481 17.224710562758609 16.775183804091625 17.260031529087115 17.574554333674349 16.919673250880347 16.351026583933347 15.640707303371828 15.425556823011316 16.267826310573955 15.405061986989736 16.848903038142247 16.818069349494191 17.184992257373047 16.512970331761338 15.839720705642225 16.21919033270354 14.283354360312579 15.230184282606995 13.488930814665986 14.640181328161265 12.416370215171082 13.290612780450097 11.975945521663716 12.218366671869969 14.685049985538832 14.456525184869319 13.294002513679803 9.421787539597684 10.183908119077994 10.918746480365062 8.1826565006524792 10.330025237251302 11.498669913636745 10.90442664821968 9.6417672788144344 8.1921359033575065 8.8844196767482586 6.3162232831957024 7.3087762440872472 4.8487801875678693 5.330801961841046 5.2314133251876767 4.276195888321336 4.38501585770834 7.4139350690145527 6.3956867830705457 6.9269722098652888 6.0494984258111586 4.8313230206567175 5.3679319274095931 5.0728326892608511 4.2376020678712401 6.8504133172251596 5.9403037094364191 4.6272830032474825 4.9330991311971424 6.3782777056119322 7.3547190289299547 6.0318250975898522 8.6879913092553736 7.4437441727665865 11.498509313165718 9.7266109605407998 10.98047523061528 9.727118776209176 11.36714192272132 8.410358151795986 8.6081446570089319 4.885551415312305 6.0047144451333114 7.1177942161094041 8.4112532149087027 9.4765988895868229 10.822010327211649 13.361127297497166 12.09476601130967 14.254610126637903 15.338561098658365 16.587366966582714 17.320673785565379 14.584502990150371 14.794138463492702 13.721936381908048 12.409165683399642 13.415840807978086 12.585510475754591 12.806680602674437 15.195117683989602 13.818582356184328 13.077459267149816 16.628964380427263 16.018766556097923 15.88630122040955 17.422060737925435 16.788688715431661 17.249352654286973 15.928704588828053 15.190872802506984 15.877876174876757 16.556472409579627 17.242913698047357 18.16475856166435 17.809335868677927 18.411214144815112 18.456569307829419 18.376334145685263 18.245909437974554 17.890924328631549 17.877080575681699 18.307653003779365 18.517573069012343 18.501286881054483 18.43069143385037 18.46214967477038 18.54052284566038 17.937932443677933 17.754628513030809 18.257918304850737 17.67172004737079 18.172266418701586 18.275775562144538 18.411480002048648 17.915743979782675 18.306100829497801 18.349326258338337 17.236021723299469 16.351802555816445 15.737416750385741 14.525164361114856 12.199996933255585 10.630599909158377 16.179300236231683 15.251214885337621 17.323010872410876 16.633127935177122 17.071369747478343 17.086407727632569 15.753008454276372 16.215789681673723 14.881294123859103 13.691315199555412 13.77145940358357 12.382027608141989 10.774977532207366 11.362206364303663 12.465517659539646 14.082467054491319 13.144496259321837 10.135765469261177 11.642064880010956 10.838066644573523 12.118205092670717 11.180283058762768 10.654201217308447 14.383688612445008 13.323089858529279 15.538754875330241 16.07643314442673 14.528588478230944 15.013377665729717 17.001236083783493 16.387889585122181 17.036476846258132 16.592457782927941 15.606381929595056 15.221558456866553 13.110578632240582 14.224155885975392 12.953648449277242 10.635039307554779 11.733600878168399 11.614415355060419 11.360473298553028 10.18602446723448 12.450671290658111 13.629301710623896 14.049110744623047 10.534536721263859 10.722415077382749 12.308374873431815 13.658029732566863 12.083335757916995 15.614436266346475 14.405837359530974 15.630075144824987 16.129418595426699 17.119506709533606 16.229016982143833 16.08002397039111 15.20720943989277 14.808501845019098 17.137216055621632 17.058286169368259 18.032700610743813 17.555073368246589 18.196294598471745 18.355839817544048 17.840664952652972 17.756118079162327 18.413240697109373 18.466679529439794 18.259100662800861 18.479635547718388 18.169705395419641 17.795570647211498 18.038195785221948 18.363309426810758 18.407119651897879 18.375819769241563 18.205787309957977 17.843627105650555 17.768142785060945 18.142386560818448 18.409242243007689 18.405828389934207 18.172741862338206 17.596353504163435 17.591264868316497 18.151630484079789 18.385703360158345 18.138907955040708 18.427724588163436 18.364763101426568 17.977399928890225 17.731373393590978 17.394076535097078 17.83294609883238 18.431779386263678 18.246290984241234 18.420773024863212 18.257852549435611 1.8341526788015576 0.58150191898826864 0.14109784613813742 0.0016428689510933395 0.020042880813718501 0.00030773076920523709 7.5988329597053048e-09 0.00040675707191832491 0.00064777992386688276 0.00012815989050152655 0.0016043314676690438 0.0067254875802608555 0.0079798167046571458 1.2487182586811165e-06 0.037475026189356914 0.011430581163541466 0.11346967184588291 0.25066539926535392 0.92017006835400239 1.3612983208709508 0.034420109602751353 0.20183298925202245 0.10939433566844875 0.8725150580356873 0.36952240141700032 1.3462207635749648 0.42554486858007512 2.6411485451302665 4.3131373784444307 1.6893207010736309 13.881218821270295 8.1776226475854319 8.8707738047394518 14.507669176090094 3.1380535076025566 6.5996953244670031 3.4180372130102459 2.0556324818395684 10.305884037204329 6.0295657398767109 24.83993401501165 15.739163388910963 33.551517034844061 30.819635017465153 18.640084050145624 20.582462507279651 27.492161529542326 25.823328231431134 32.359478675819858 31.822486767964776 4.4669839870552703 13.496917333031767 7.6057315261524661 1.7365808081027958 0.46705474181169682 0.027945790831346365 0.05295029797238824 0.098850823572119495 0.0067824603480424557 0.00012287051455769476 0.0019766926889827636 0.0004289275900016555 0.0023572917806750273 0.0068469602642174821 0.0029511949860220894 3.1488068955514547e-08 0.00054807878604306724 0.00016355157708653416 0.1956128556714275 0.038583084018707095 0.11696366791309729 0.43849864301507863 0.39268804191115553 1.0508192232345976 1.0553273891763255 0.4848915354440359 0.85054351583543952 0.15000671246099445 0.020709598150443695 0.02270254328279294 0.0029591517077490297 0.00017237611787012823 0.00058086872829977477 0.0033499162200869123 0.0020852384402048549 3.8160955150213024e-08 0.00040502984613393061 0.00011301855595648427 0.046482735302741274 0.073259007303781112 0.33568038693629276 0.31539082838067234 1.389910630672043 5.1981184597597752 2.3090567713777643 3.5031229685126832 15.632252039875171 8.4504991412796322 13.219936491797299 10.196081672074818 26.809362002463228 21.05993016988322 31.967941488137626 33.088180751712493 28.135047068071678 20.947384997474249 15.896405829326973 23.541177661571325 30.163234575910369 24.943548513193281 11.890264793580592 18.915889811109775 10.059583905376659 5.2750065972101723 3.3134520577597302 7.2366740444627915 3.424129724422281 7.4140542098128943 4.7832738205253156 12.669406267335454 23.334238468783635 33.141667074436285 29.336964760266238 31.391703155773872 26.702864327222564 14.978448048239271 17.896325367134075 26.241032369794414 20.39821411270697 31.79590166335101 32.92954257118997 27.303029539482964 20.553742476389182 15.845260860152866 9.5981911070857073 10.499794538888345 2.0375507675110289 4.3267100161604564 30.77134112810328 27.107416571663702 26.473156050880398 36.182485493168173 34.181430659598298 34.070575680654379 36.296945702965331 37.086516588254021 36.098370008604078 35.222972608201658 37.139087697826433 37.164189084410367 37.731578414230576 37.193293908430142 35.25346654859564 37.242372146680211 37.394582634997704 35.513250241443572 34.93392895641729 30.328366794423399 31.988715330682609 28.699801316217105 28.170442482715622 27.882096027957076 29.253543772347651 35.155532044144472 32.970674218616793 32.129276428123546 32.431751600783031 36.90653113473612 34.170411736848585 36.188986827830895 36.513117189438908 36.39519508174655 36.71898407741719 36.211881486033164 35.73021736516111 36.145427854845693 36.973046531949116 33.206987114361127 34.586278877393653 35.688225534552608 25.62600362905745 30.301872159943791 28.295191547367047 31.515471021895316 24.574285707284488 20.534318071714207 22.037947897584949 13.168473955255465 16.691838577739762 17.000226248769856 13.494082622484802 9.4521628802825166 6.6495158400336676 4.3464662866763089 2.3722672000729319 9.1277883671488027 8.8524122726717849 5.6204583809463768 3.5325243769908186 4.3771341124641872 3.0362412151313301 6.5190852550837306 9.8969088660748312 13.521516142742314 17.240686674710552 22.521107609218141 23.583706632112971 23.158647929048747 19.305064442472887 20.899891940044682 11.254733013201239 14.622896498688728 9.4161920974627549 6.8595829330604703 2.4398348570022228 4.0191684005927986 3.9552942228257204 7.3358206447805268 5.4618784498994417 3.1002765821450429 8.5933542208009897 17.379694015507024 12.714821600531092 15.743022375828751 22.365447439381349 35.00088927632509 31.758274943303526 36.761513463956646 35.704117200897343 35.905088930604826 37.474778193651559 37.547349030246735 37.615142173484614 37.785913229243263 37.039107061608135 36.687661298842599 34.912939195856396 36.408113173009426 37.302626899468137 37.492783913244253 36.443348180462223 36.93594671694207 36.286611311438463 34.819035190871986 28.353660446410984 31.695238835514843 31.085078980921978 27.616257770680065 35.571496926293811 33.958478392568999 32.051584581531884 26.975299880639366 27.800123981744846 22.278685189015505 12.084456387386416 16.365067129625203 15.771327990499842 23.358805654635592 22.566877980965089 16.882712763039905 12.96948110743304 18.230005913594237 14.266604029746105 10.103348029234258 6.4952032811655549 9.3757598900808414 5.8933549334576458 3.7846617513460146 4.3040099502949385 2.1860170149741385 7.1623710903126589 7.9430771571198804 4.3929944892773616 2.6067188729597648 4.3429072297729414 11.161695851176779 22.009343612726024 0.050775852331473519 0.32473968348376137 2.4265172695123831 1.3074862292272842 1.3617745746008172 0.69898376164497644 0.35243874776778317 0.74437003835948745 1.162507084865406 2.3219814956259475 1.1695662630942734 0.5548764921230751 0.21593882564544808 0.54107531244663565 0.21507306169801343 0.076327453181758126 0.076666268078866562 0.030319205919932507 0.033712121877960396 0.011986667813814062 0.16033418793540635 0.14030089520303737 0.058349281751951684 0.0076818494701753164 0.0095504958975643831 0.020175896423181853 0.017642475909631729 0.0059363262590818398 0.007858621708602893 0.0066835264529728662 0.011664485336983235 0.0082849702864616799 0.0060577346815684592 0.0069230271150834037 0.0093224210338829702 0.016356179038438577 0.019781736511968143 0.04031341555879589 0.041477090194862162 0.12324661395559594 0.066426728532449075 0.030162037196551368 0.03207212517241758 0.037120248247554638 0.04816862952844958 0.094099091558552103 0.14934509765297896 0.081609268417703107 0.060695137572717855 0.0073554085549572025 0.014386996140931344 0.029706443236364642 0.039330558598907564 0.015058825274090453 0.20354586030814525 0.079841203682157122 0.5596449740877727 1.1789739000468602 1.684619685299237 2.3032444627754081 0.64417507711678201 0.27862764849879246 1.1202247018493785 1.3878907008339296 0.60255945832732816 0.23722339684191379 0.08498661497037853 0.1051695480478296 0.012025309786019595 0.0150414878428199 0.034952132707972768 0.04254205275861532 0.01492585325082001 0.11708053185041947 0.093317903038323546 0.24672733860266369 0.61015872940257365 0.90762070163410424 1.6670670574454358 2.0511385577458388 1.1242350973362429 0.66571405107764303 0.30057941400166083 0.26131152105011801 1.3990778402253801 2.3193058452891795 1.2834508746822446 0.63769692539748302 0.11021177583515049 0.034364670136884781 0.039402063223459294 0.011524633760556395 0.012943315675397749 0.0093375097675466763 0.01053012939457271 0.014599352866044746 0.0099698798540207231 0.056571674693307449 0.10840371395849405 0.11348787243759378 0.034658344990549553 0.026398461888133693 0.057804452503983694 0.16369845397089539 0.091910581477242098 0.0452900993242418 0.01313783259755125 0.025209389654015903 0.018364902085383671 0.015136349013632765 0.0084065221916344388 0.0077146956315863897 0.011208066193090211 0.0083898812440376582 0.0098622032841520074 0.01331752944918153 0.019173217106151094 0.04727476421959026 0.13443185365718502 0.075798312206401791 0.10120903240597412 0.04097410547170393 0.052677104060918245 0.033225149768728861 0.15975253467184647 0.088843055252761732 0.035714825599692329 0.066473806494664223 0.016636824887334197 0.0084639417744441642 0.012157641947493129 0.010140824002854029 1.4559474123976475 1.6688758266172403 1.2411054875528829 0.61049676718650103 0.92009827546738787 0.76041869640528337 1.1546557783959948 0.32821152749507421 0.53134754773743875 0.15698259412386628 0.20584926754497346 0.44307053650128914 0.16122239305022157 0.25167723663452424 0.23714182807349904 0.35356303904828734 0.6089379884195063 1.0147613180365329 1.1658181041362985 1.5523840708144097 2.0173869903788209 1.5630649972292003 2.3803380232882079 1.4709651360108782 1.9330043437888946 0.93316363388191181 1.1251095048736548 0.43748618069713674 0.71746942219867271 0.25238453166675084 0.20198756147080965 0.51413835532162588 0.32665413644598928 0.31214664109412493 0.1969517304962809 0.67794818641497878 0.48167159691336475 0.71164072134241452 1.0451904987966461 0.70549540399835642 1.2951856755977216 1.7541629901026863 1.5384227221212134 2.2068069796011809 2.4049111045814304 3.1146761861635168 4.809787437729887 5.2989449098159733 5.11388772514493 3.8379856294160448 6.3675652017152178 9.5468833941543245 8.1448734104085609 9.528596379420545 8.2602365832178393 7.7558462494529792 6.6682723321502335 6.2045296974211546 6.3621219017788251 9.0047894233167263 9.3514044238181988 7.9878608226433698 8.70225