<?xml version="1.0"?>
<VTKFile type="UnstructuredGrid" version="0.1" byte_order="LittleEndian">
<UnstructuredGrid>
<Piece NumberOfPoints="541" NumberOfCells="1000">
<Points>
<DataArray type="Float64" NumberOfComponents="3" format="ascii">
0 0 0 0 1 0 1 1 0 1 0 0 0 0.5 0 0.5 1 0 1 0.5 0 0.5 0 0 0.5 0.5 0 0 0.049999999999907327 0 0 0.099999999999778932 0 0 0.1499999999996332 0 0 0.19999999999948739 0 0 0.24999999999934711 0 0 0.29999999999947341 0 0 0.34999999999960502 0 0 0.39999999999973668 0 0 0.44999999999986839 0 0 0.54999999999999993 0 0 0.59999999999999976 0 0 0.6499999999999998 0 0 0.69999999999999984 0 0 0.74999999999999989 0 0 0.79999999999999982 0 0 0.84999999999999987 0 0 0.89999999999999991 0 0 0.94999999999999996 0 0.049999999999907327 1 0 0.099999999999778932 1 0 0.1499999999996332 1 0 0.19999999999948739 1 0 0.24999999999934711 1 0 0.29999999999947341 1 0 0.34999999999960502 1 0 0.39999999999973668 1 0 0.44999999999986839 1 0 0.54999999999999993 1 0 0.59999999999999976 1 0 0.6499999999999998 1 0 0.69999999999999984 1 0 0.74999999999999989 1 0 0.79999999999999982 1 0 0.84999999999999987 1 0 0.89999999999999991 1 0 0.94999999999999996 1 0 1 0.95000000000000007 0 1 0.90000000000000024 0 1 0.8500000000000002 0 1 0.80000000000000016 0 1 0.75000000000000011 0 1 0.70000000000000018 0 1 0.65000000000000013 0 1 0.60000000000000009 0 1 0.55000000000000004 0 1 0.44999999999979179 0 1 0.39999999999999991 0 1 0.3500000000003467 0 1 0.30000000000069338 0 1 0.25000000000102929 0 1 0.20000000000083221 0 1 0.15000000000062411 0 1 0.1000000000004161 0 1 0.050000000000207989 0 0.95000000000000007 0 0 0.90000000000000024 0 0 0.8500000000000002 0 0 0.80000000000000016 0 0 0.75000000000000011 0 0 0.70000000000000018 0 0 0.65000000000000013 0 0 0.60000000000000009 0 0 0.55000000000000004 0 0 0.44999999999979179 0 0 0.39999999999999991 0 0 0.3500000000003467 0 0 0.30000000000069338 0 0 0.25000000000102929 0 0 0.20000000000083221 0 0 0.15000000000062411 0 0 0.1000000000004161 0 0 0.050000000000207989 0 0 0.049999999999907327 0.5 0 0.099999999999778932 0.5 0 0.1499999999996332 0.5 0 0.19999999999948739 0.5 0 0.24999999999934711 0.5 0 0.29999999999947341 0.5 0 0.34999999999960502 0.5 0 0.39999999999973668 0.5 0 0.44999999999986839 0.5 0 0.5 0.95000000000000007 0 0.5 0.90000000000000024 0 0.5 0.8500000000000002 0 0.5 0.80000000000000016 0 0.5 0.75000000000000011 0 0.5 0.70000000000000018 0 0.5 0.65000000000000013 0 0.5 0.60000000000000009 0 0.5 0.55000000000000004 0 0.95000000000000007 0.5 0 0.90000000000000024 0.5 0 0.8500000000000002 0.5 0 0.80000000000000016 0.5 0 0.75000000000000011 0.5 0 0.70000000000000018 0.5 0 0.65000000000000013 0.5 0 0.60000000000000009 0.5 0 0.55000000000000004 0.5 0 0.5 0.049999999999907327 0 0.5 0.099999999999778932 0 0.5 0.1499999999996332 0 0.5 0.19999999999948739 0 0.5 0.24999999999934711 0 0.5 0.29999999999947341 0 0.5 0.34999999999960502 0 0.5 0.39999999999973668 0 0.5 0.44999999999986839 0 0.2489962798508365 0.25045589276658847 0 0.35183211661870822 0.14068636747866661 0 0.14642857142856219 0.35357142857141971 0 0.1468441295610933 0.1441280232407802 0 0.35371896147447351 0.35207987288804249 0 0.24885392191016831 0.1095680955199838 0 0.38792895373993491 0.2465331984188868 0 0.1098432055749146 0.24999999999998551 0 0.24999999999999509 0.39015679442508178 0 0.41474867724865022 0.085251322751317193 0 0.085251322751285399 0.41474867724864328 0 0.085251322751361422 0.085251322751267455 0 0.4147486772486999 0.4147486772486999 0 0.32676672825558623 0.070988923897011683 0 0.4244330345419618 0.17964494368034509 0 0.17964494368028161 0.075566965457818339 0 0.076551482401096119 0.18074697389267991 0 0.1829004613848996 0.4257014890904261 0 0.075566965457871907 0.32035505631969441 0 0.42443303454212999 0.32035505631971462 0 0.32485037023743257 0.42252063606660017 0 0.28323795321842432 0.1800458652760705 0 0.17900240392815411 0.28242294189944689 0 0.32202548895006922 0.28209242784984911 0 0.21314711753641541 0.18140124357578011 0 0.22675483431528479 0.32226059582054611 0 0.34401704403840427 0.21400789402298909 0 0.14765003828931139 0.2107336584867868 0 0.29668136328859879 0.34862304207220829 0 0.2287295243217361 0.055738222614712521 0 0.44507839721264347 0.26676981456791149 0 0.054921602787359823 0.26676981456789323 0 0.27090104425495592 0.44433471587743018 0 0.20597454237758769 0.36163587631531352 0 0.37061662151835162 0.049361608679257957 0 0.45116743210651339 0.1304631984279884 0 0.13079539411209021 0.45129686624410659 0 0.048933028806049127 0.13057565049041919 0 0.049695285177695322 0.37014929849084349 0 0.12985070150919131 0.049695285177636293 0 0.36999550707365908 0.45097228940507378 0 0.45030471482230322 0.37014929849087552 0 0.19992572628195029 0.13298089525159801 0 0.29952489760380191 0.13061147298307579 0 0.13124946125602999 0.30021459468860429 0 0.36541588621528998 0.29784115215566859 0 0.19817473867912619 0.22966033767512689 0 0.29900805705886913 0.2307437922122276 0 0.45006094674727393 0.049939053252725678 0 0.049939053252718357 0.45006094674728131 0 0.049939053252714832 0.049939053252714458 0 0.45155546960055909 0.45155546960055909 0 0.28535787966508452 0.040997434039757918 0 0.45837566233796467 0.21496062213928149 0 0.040902071848020333 0.21695619809520539 0 0.21940929229971959 0.46006596582023551 0 0.36634396548604953 0.098619481206936005 0 0.10019171678150619 0.36851182260159998 0 0.1314881773984512 0.1001917167814514 0 0.39980828321848422 0.36851182260164861 0 0.39791482171894588 0.13651959991084811 0 0.36552586562403078 0.39870540675930871 0 0.13610308783088509 0.40063264831089429 0 0.099367351689118713 0.1361030878308033 0 0.24349705814113851 0.1559941710220436 0 0.27477467384659637 0.29917665887992267 0 0.37769174437471592 0.1869495303164449 0 0.24853472249852021 0.20625671876095891 0 0.15305993590804801 0.25099769163161822 0 0.1080954158735314 0.20728557537219169 0 0.29289883247780052 0.39144624501764308 0 0.34767361211511949 0.25117126239044052 0 0.18092988968447121 0.3226117504950482 0 0.22220417630110581 0.28190202962739158 0 0.32610588992015749 0.032704233892765708 0 0.46679522579728788 0.17501375284934709 0 0.176621029559166 0.46741286423095368 0 0.033277316611033107 0.17565576449548501 0 0.036036770684585398 0.32145483387550189 0 0.32314938431302531 0.46356552826982089 0 0.46396322931541528 0.32145483387551599 0 0.17764503390253311 0.036200094650033432 0 0.41005086005483898 0.039985702861265203 0 0.46001429713870579 0.089949139945145154 0 0.089949139945131901 0.46001429713871461 0 0.039985702861277832 0.089949139945122158 0 0.03998570286113802 0.41005086005491759 0 0.089949139945056739 0.039985702861083668 0 0.41192744031565531 0.46091001509805762 0 0.46001429713887992 0.41005086005494301 0 0.32415126250434573 0.31979102550825761 0 0.32511317650161292 0.17833555763855879 0 0.21018187001863381 0.39823390272327719 0 0.28711665878673959 0.086204954276461576 0 0.41870155844144408 0.218971621824574 0 0.21108251132115291 0.096302202119862179 0 0.40796154768835918 0.28630530080853878 0 0.090188998248030866 0.28395171702589778 0 0.17228899031219369 0.38616122131393488 0 0.1719527938089627 0.1757485956097096 0 0.1679024884561762 0.1120037836267631 0 0.32673507862046719 0.38267504056076052 0 0.1209343611071495 0.17289717132638771 0 0.25698395696643828 0.35320773616619477 0 0.078062755696984454 0.2243517123855911 0 0.33086126932634818 0.10790307783024911 0 0.1093255766039901 0.33346700096397752 0 0.390674423396005 0.33346700096401272 0 0.22981445203976261 0.42382767406811328 0 0.2521401364215316 0.75147419219910538 0 0.14642857142856891 0.85357142857142232 0 0.14642857142856891 0.64642857142857768 0 0.35357142857142593 0.8535714285714352 0 0.35287024565367059 0.64377511658572306 0 0.25150015979941831 0.89244003968486774 0 0.25114607808983158 0.60956809551999314 0 0.1108312085615223 0.75559819276840834 0 0.39015679442508211 0.74999999999999989 0 0.08525132275131618 0.58525132275134872 0 0.085251322751316014 0.91474867724865161 0 0.41474867724866921 0.91474867724870823 0 0.41474867724866932 0.58525132275129199 0 0.17964494368033601 0.57556696545803754 0 0.1796449436803364 0.92443303454196246 0 0.07450811647840519 0.81801880372936897 0 0.075566965457953036 0.67964494368031658 0 0.32039736268454039 0.9240875951131674 0 0.32035505631970568 0.57556696545787034 0 0.42443303454204268 0.67964494368031447 0 0.42443303454204251 0.82035505631968519 0 0.2180183378527436 0.67845843328543243 0 0.21700079053944521 0.82164877795160374 0 0.32007839721254128 0.7834930313588907 0 0.28685288246358592 0.68140124357578058 0 0.1776891997896376 0.77287676094860103 0 0.28398153060502701 0.82491098710580402 0 0.35315005803082522 0.71199913425975936 0 0.15146710907650879 0.70645575976088659 0 0.2712704756783807 0.55573822261474248 0 0.26976735427474191 0.94516205703623157 0 0.05199550059202291 0.72949852386991876 0 0.44434513865678282 0.7300566646405362 0 0.13870679025515861 0.79586568022082727 0 0.1304631984279728 0.54883256789348667 0 0.13046319842797299 0.95116743210651311 0 0.049618109596186691 0.86997901768987251 0 0.049695285177786402 0.62985070150908395 0 0.45116743210658061 0.8695368015719549 0 0.45116743210658072 0.63046319842804532 0 0.37014929849085898 0.54969528517769528 0 0.37015238204514711 0.9502795370213597 0 0.30007427371805828 0.63298089525159296 0 0.19793968753806779 0.87264148585901413 0 0.19780174982944179 0.62812539096710163 0 0.37264148585908768 0.80206031246195753 0 0.30326847652722422 0.87263406406541288 0 0.30275024065893258 0.72884380053035125 0 0.04993905325272522 0.54993905325272541 0 0.049939053252724748 0.95006094674727437 0 0.45006094674728681 0.95006094674728747 0 0.45006094674728719 0.54993905325271264 0 0.2157107323243565 0.54176044096659981 0 0.21546021209041669 0.95838960564189579 0 0.039357337852812882 0.78081051323985462 0 0.45825345257866312 0.78451045772854544 0 0.1019209253664527 0.63659040449622994 0 0.10019171678159031 0.86851182260167925 0 0.36851182260162141 0.6001917
[...]
<CellData Scalars="pressure_p0," Vectors="velocity_p0," Tensors="">
<DataArray type="Float64" Name="pressure_p0" format="ascii">
0.99999682354770303 0.99999676539919435 0.99999960066247517 0.9999998569307722 0.99999980292819179 0.99999971494274886 0.99999304999637684 0.99999303511021864 0.99999821854716342 0.99999714386191441 0.99999734363818193 0.99999677671719356 0.99999733010917979 0.99999839586812866 0.99999706736370597 0.99999814866877323 0.99999981642971103 0.99999581989028297 0.99999655805133114 0.9999996892630385 0.99999566899576098 0.99999624455331015 0.99999832820056855 0.99999660965824488 0.99999763813235021 0.99999776845057164 0.99999783106632756 0.9999968817597551 0.99999675264671417 0.99999750226320416 0.99999942586100876 0.9999957544501008 0.99999623125528381 0.99999837079937348 0.9999972127177934 0.9999965850498338 0.99999846365895606 0.99999985456591622 0.99999981732721765 0.99999499592745633 0.99999474192823945 0.99999893045011434 0.99999781845949576 0.99999682873784246 0.99999647264489233 0.99999793945373128 0.99999607936251333 0.99999968776711823 0.99999695853038029 0.99999802295420515 0.99999690069795311 0.99999845182527536 0.99999869422676568 0.99999726909746556 0.99999918478913452 0.99999544993578571 0.99999874701804137 0.99999789958824281 0.9999963370760836 0.99999752991384772 0.9999966752655558 0.99999684200437156 0.99999864110393544 0.99999931373962925 0.99999529428014888 0.99999831622245605 0.99999653134782962 0.99999640751803343 0.99999868199469077 0.99999656076147714 0.9999988407058189 0.99999838512256267 0.99999735808209966 0.99999710298817701 0.99999778212555701 0.99999614969718409 0.99999986936681717 0.99999723281907971 0.99999705196128863 0.99999710841070311 0.99999668124794616 0.99999871988425282 0.99999973916417584 0.99999966405392193 0.99999471130350504 0.99999455596282538 0.99999909450763869 0.99999841496277475 0.99999673417358226 0.99999932500772148 0.99999825333519266 0.99999568582298115 0.99999782389662695 0.99999797914495903 0.99999710355004612 0.99999912385242329 0.99999900718601875 0.99999516945587774 0.99999751951773685 0.99999736267714612 0.99999758238513525 0.9999980209916437 0.99999807763120008 0.99999669000159064 0.99999699955647126 0.99999903543904756 0.99999988376952686 0.99999984741013626 0.99999405153659682 0.99999395686926285 0.99999931932301878 0.99999783648245499 0.99999626992174595 0.99999749546423899 0.99999676843458052 0.99999692371317628 0.99999924566627918 0.9999997408265564 0.99999965166154969 0.99999388374078113 0.99999384451683371 0.99999945884948471 0.99999662559221836 0.9999986522086467 0.99999640023517 0.99999700261853963 0.99999879016534199 0.99999907967931045 0.99999540367103834 0.99999808465149487 0.99999827144627895 0.99999742016200543 0.99999915356312119 0.99999622282266798 0.9999992492312042 0.99999597279978414 0.99999734226218928 0.99999737063303296 0.99999863227338492 0.99999942542638287 0.9999965868439229 0.99999542592040314 0.99999575289499554 0.99999653195874161 0.99999871870765089 0.9999996917291456 0.9999951452252398 0.99999548608791922 0.99999815841636885 0.99999975214575021 0.99999805689081311 0.99999951794353392 0.99999748632163343 0.99999920938885123 0.99999707325209108 0.99999700856675244 0.99999679045984147 0.99999729590111608 0.99999751318837826 0.9999969685546799 0.99999826504968348 0.99999846863174335 0.99999867988062952 0.99999808106675125 0.99999705869839017 0.99999679503493566 0.99999880291890453 0.99999949149299239 0.99999934071571772 0.99999912978291228 0.99999488805952219 0.9999947933965001 0.99999806939943792 0.99999749579487662 0.99999769936010829 0.99999707113896297 0.9999985862154086 0.99999580460102733 0.99999889144880805 0.9999969982177922 0.99999696179632802 0.99999827634139837 0.99999783996704772 0.99999803502132489 0.99999850282975111 0.99999813100730872 0.99999634441910246 0.99999888840828643 0.99999753894317522 0.99999753774527589 0.99999733812085556 0.99999863244306597 0.99999616091390719 0.99999771239051971 0.99999790114981102 0.99999731650284118 0.99999898130614584 0.99999574009248215 0.99999863004174649 0.99999885805643285 0.99999615062101077 0.99999938549063239 0.99999694131992767 0.99999685010706041 0.99999912216874876 0.99999932631563715 0.99999949420126888 0.99999935506393289 0.99999442545530748 0.99999444716938068 0.99999904390995176 0.99999593625432559 0.99999699839029188 0.99999687649811797 0.99999761372047302 0.99999754469166358 0.99999645618816368 0.99999632492146251 0.9999975709010186 0.99999976829385606 0.99999768677270562 0.99999953230941208 0.99999664379532094 0.9999974852375928 0.99999638266569546 0.99999784693429472 0.99999989786246091 0.99999987358116937 0.99999578091256591 0.99999530862996089 0.99999853583623632 0.99999883311403348 0.99999657019889099 0.99999943857806217 0.99999601907408509 0.99999910245977552 0.99999917749122946 0.99999761148461996 0.99999645942861481 0.99999812604648541 0.99999830788478916 0.9999987029868036 0.9999972227638172 0.99999871388671724 0.99999588278862839 0.99999834409176469 0.99999841587115035 0.99999711251010859 0.99999604905444328 0.99999890353109211 0.9999990586569214 0.99999633465442961 0.99999783852942215 0.99999779683181833 0.99999905515015752 0.99999734406879925 0.99612130063333471 0.94440569350093384 0.99617393711557145 0.97238126016642901 0.03954478678102076 0.28591970456965154 0.078669265131858179 0.71678879452772715 0.58027437576865437 0.52438805006252487 0.76352756813464828 0.53820527427952392 0.51955745794929964 0.88545239444322865 0.7139813325670612 0.26040287547726115 0.87260428781320554 0.7383098164211328 0.31378891730192687 0.78930926099355325 0.40472109153080782 0.9792555338519886 0.061239073115301593 0.50866088787426 0.95718241158107942 0.96764304127141221 0.1082468584743245 0.45955283681849618 0.91860368391695135 0.7700129745087152 0.7161259988697557 0.78393340190624405 0.38628321826814116 0.79133455192806634 0.51606364526633164 0.47766240842139962 0.94157620532807895 0.20260036921223626 0.84441224658446545 0.44752103373502528 0.78482412278626679 0.98625688080274565 0.98753081331861936 0.97398784642529712 0.040802423142517391 0.087749631069108033 0.29408912478122062 0.91982886414791387 0.75583934202686665 0.68584678042208302 0.96068688528561363 0.56577350004064653 0.9377135960812446 0.098533535724976279 0.76828525030619788 0.37064064436074362 0.41196274193790006 0.56059828496699149 0.36314248351245793 0.88393160195163678 0.9341650458436892 0.72017329487165882 0.35067610883147848 0.56611480474661779 0.84581427580773516 0.24560424723070584 0.41588037250022303 0.9423354782294453 0.80506809456284634 0.19114814641067879 0.39771219451304241 0.68384125570012566 0.40205075490886283 0.37926387771471787 0.72148975327696041 0.98215813634740678 0.04027715447869204 0.61018224206730387 0.97682233017812559 0.50714508988701223 0.83473421935450254 0.82004009390212718 0.97958842876413499 0.98078081485956703 0.9520498935740952 0.072670521413104872 0.18315201016012697 0.24930650864153825 0.82872473339933572 0.47898860426938739 0.92690967512239797 0.75009181246690182 0.18924697334701526 0.3250137255337785 0.61796379563419135 0.61938477207404963 0.87423478366384 0.94457052836454158 0.63762399793982438 0.28018288147653492 0.78264560421027185 0.81842645910303591 0.88064369486592819 0.73451205286805399 0.67954774580383792 0.84575633648862236 0.86557604105809327 0.99290103756488657 0.99327677778021661 0.978328473103664 0.032312125110298934 0.1188337316934264 0.18753280298144187 0.88598162996765661 0.586111113351516 0.8935677765761999 0.17576687857379264 0.91121345618380123 0.98778812363749968 0.89424249273832013 0.98804164476198308 0.95066281306991929 0.31170225531745593 0.071771742727796253 0.14928482903943982 0.69680731417354491 0.79892403336887918 0.85233979687737627 0.83642585939085645 0.91231136816104574 0.27981954082318944 0.26565880732864178 0.83714251730510658 0.92891698006284451 0.82538562283154682 0.26143643396940913 0.52130855367666473 0.81393679082579129 0.80956723792925445 0.63685106017788751 0.90462955339515361 0.52462269231443326 0.47536036459136355 0.81389297078798539 0.375621734421413 0.92071626000505491 0.95025480576547405 0.35209839976460477 0.89018844113677864 0.95784071518727087 0.97511481096523167 0.74065647796558676 0.97225394410627697 0.13624050532252141 0.22290644871970933 0.12714196298876157 0.070137962007152402 0.94251732750523587 0.72445108968287253 0.60704668494257907 0.61433237572257626 0.57076063535878652 0.62491203541406914 0.59871353098053337 0.7630843243212988 0.96283275469037488 0.8299080655663289 0.90574299966041316 0.96439008831845052 0.14134693651081154 0.34811959388983371 0.67549582450156442 0.2400007362291669 0.79664152547932243 0.83484909980407918 0.8691170920638005 0.66009654063682877 0.83225490975299188 0.61732313169436759 0.2967935801037192 0.25619933879740553 0.47607829107028543 0.42192518908050769 0.89927495574212479 0.79424165479303266 0.31351039112102069 0.53465328546324131 0.48363626492343315 0.88673592784897104 0.63635009204587334 0.90418864139844612 0.75223855974259468 0.40870942777636693 0.48241457755132372 0.51517117619666752 0.85788538031774375 0.7147288820271871 0.67581276771550813 0.85230529414845169 0.8757694486338734 0.38479377557184846 0.68857605625308271 0.68337849962018415 0.72069955594392954 0.4765415522047991 0.9722259006084002 0.87543280068252083 0.97270300038157886 0.90411201571054256 0.43186065837619547 0.14011605327345378 0.58758768924443128 0.17815063034661188 0.96495187438835783 0.65796917067315175 0.93367577525144951 0.67239272357126634 0.9290976027379787 0.96562245545229941 0.13536585499528547 0.068573384385900674 0.69793039072763929 0.98660322991069371 0.98382272279125393 0.98829670035833472 0.048533969089751675 0.029418385665585894 0.96053684548255824 0.40197552816171134 0.45680337061306425 0.68085861109668278 0.7213291226755506 0.57863740986271861 0.52437479232446449 0.81148320362757143 0.90331819335759123 0.64448150733394227 0.18314819095716137 0.64552814141158288 0.61040554957115978 0.6373886240093225 0.70868924786528098 0.73836861579808488 0.92693404124515788 0.59641081017145037 0.82586137842689822 0.85669209238360389 0.35378536181863773 0.89192047099235727 0.86861808089015669 1.9502460302022006e-06 1.2660756802054493e-07 2.6867773255365199e-07 3.7698061435365895e-07 1.7467079560054291e-07 3.1808294585776629e-06 3.238901903194e-06 6.9461005878799029e-06 6.9314191279138391e-06 1.7979427702509815e-06 3.0736172677271843e-06 1.9436961214031719e-06 3.1147137187203634e-06 1.4595257899609204e-06 2.7324799395357516e-06 2.4981502099932107e-06 1.9910982545682152e-06 3.3128741408883164e-06 1.2435743186883079e-06 3.0823455117715561e-06 4.0973702243408998e-06 3.9409341316786581e-06 1.8820218316536141e-06 1.7577035353019413e-07 3.4414672490178979e-06 3.8626254857172278e-06 1.8549329199624885e-06 3.15722689659409e-06 3.5185039594492721e-06 2.8515831850463542e-07 3.6861563326861106e-06 3.7570616772483774e-06 1.6771847439979611e-06 3.4252641548792154e-06 1.5844796737042695e-06 3.5301225144702837e-06 2.8795024046234412e-06 2.7408892114452444e-06 1.7334699312579218e-06 2.0696710455383273e-06 2.4524150121836446e-06 3.5509307681061586e-06 5.1814742780168233e-07 1.6364401046987165e-06 3.776628218579994e-06 5.2561774541556757e-06 5.0076407934770737e-06 1.477017762062618e-07 3.4142390703025474e-06 1.5310109273623236e-06 1.7944510767489618e-07 2.7874504787446149e-06 1.071707813076469e-06 1.0610600708156064e-06 3.2157206952335013e-06 1.4678181863869154e-06 2.6190552721455893e-06 1.3383133135247126e-06 3.0355950017389331e-06 1.3785882016158e-06 3.0189950686490921e-06 3.9954006589999838e-06 2.0645247826654267e-06 3.1708982885376554e-07 3.3699859012727373e-06 6.757169031861977e-07 1.6856196102540855e-06 4.3315145445685753e-06 2.7354102449655544e-06 2.1025789952168401e-06 3.7139658142022243e-06 7.9971942483911562e-07 2.8674636156754015e-06 2.5914239917895539e-06 2.1087056056537203e-06 2.3986765865867109e-06 1.4818915102892085e-06 3.0451082123725488e-06 2.9562306088415292e-06 1.0076788304880515e-06 3.161364387144733e-06 4.791791505905338e-06 8.6825755171926489e-07 1.8960240364342684e-06 2.5919565102361425e-06 2.7049974337308652e-06 1.3435571930976292e-06 2.0780146747744032e-06 1.8811194629480659e-06 2.2182821938032465e-06 4.250404186858997e-06 2.7440480534221786e-06 1.401112338289674e-07 3.377043939145407e-06 1.8627088054400658e-06 1.0547892882842648e-06 5.4432953563377795e-06 3.3177721176735981e-06 5.2773375752274113e-06 2.8948341374857389e-06 1.266387961801417e-06 2.630565388290161e-07 3.325924751043135e-07 9.0769455766202767e-07 8.070165672195949e-07 1.2701545954805248e-06 3.2684768619277196e-06 4.5146732399368195e-06 2.9004093135362701e-06 6.9011509927723769e-07 1.3349934611690663e-06 4.7152884500826482e-06 2.4038435332596334e-06 2.3747401460456763e-06 3.3078715985420247e-06 9.5630744584092104e-07 3.0043500308791776e-06 6.0421620533277016e-06 5.9307510771017646e-06 1.1621919708796909e-07 1.5260957154516355e-07 6.8101994433222416e-07 2.1678905804484533e-06 3.9245562613329086e-06 5.9825854086472896e-07 2.7847772349939315e-06 3.2331477963225253e-06 6.1394086113493283e-06 6.0833078433191879e-06 7.2415354605124383e-07 2.4245742383719835e-07 3.0856624642265099e-06 3.2664565925240513e-07 5.2492551342221581e-07 3.0062399038187888e-06 9.3468027043775121e-07 1.1875804731256015e-06 4.5654091040242077e-06 3.4081942775753778e-06 2.3946945881784779e-06 3.3617142098599986e-06 1.4215427942551681e-06 1.9229245503168485e-06 8.0612707519525566e-07 6.9664349902626285e-07 3.5756884172422143e-06 3.51813724739635e-06 1.7403397176391106e-06 4.8719270689645971e-06 1.8882311798609454e-06 5.6148803388723699e-07 4.5195091769307672e-06 2.9515595750320586e-07 1.3733569764906138e-06 4.8961614769578766e-07 3.4140122391343816e-06 4.5913658207344113e-06 4.2591583061342691e-06 2.5848800693584959e-07 3.4683450041446043e-06 1.8249592310586743e-06 1.2850088156160088e-06 2.629363055581467e-06 2.6578201777397385e-06 2.1371936031693162e-06 2.5138047762126679e-06 3.625781959400309e-06 2.2538872788831601e-06 1.2067420871480424e-06 3.4935235778864034e-06 2.201036513573645e-06 2.4881067641127862e-06 3.0497712915683953e-06 2.9816432296131074e-06 2.3118810988672945e-06 2.1210645376983155e-06 2.9430986137199066e-06 5.1073745495314294e-07 5.1018864327003312e-06 3.2048960414301665e-06 1.1836477107384048e-06 8.7228030448860949e-07 5.2084738053267073e-06 6.5576624003490958e-07 2.2997785629596277e-06 2.5133878068480612e-06 3.7073945096065795e-06 3.9478778222707568e-06 1.7420840831171991e-06 1.5869798716353054e-06 1.5167070039603313e-06 1.6020562801485093e-06 2.9633430649785674e-06 2.9263221871407069e-06 1.4042101645179258e-06 2.9375814081481104e-06 4.1515714105462258e-06 1.1056912069053716e-06 2.5703135389481153e-06 2.8511188911364923e-06 1.0261571474244187e-06 1.9208514520337672e-06 2.6613227271465395e-06 1.1434871974386182e-06 8.5997766834666127e-07 1.8106906704273852e-06 2.6886380677775865e-06 3.9816804572585908e-06 9.7887927577835547e-07 1.0142048497008832e-06 3.0660278771621447e-06 3.1533764834669545e-06 5.5255327290809072e-06 5.5620469074533958e-06 6.5252926103371535e-07 4.8907689328845648e-07 6.2841297512483269e-07 8.4861248696173782e-07 8.5145199998597098e-07 5.2218960849821922e-07 2.3867206299102086e-06 2.4556777161510943e-06 2.2425218147631765e-06 2.3959169155815862e-06 2.5790969135678907e-07 4.4198782308638904e-06 4.3380901092208169e-06 1.4659170191826972e-06 3.6186781179558927e-06 4.705208476397583e-06 2.5147584617164912e-06 1.1087407081107175e-07 1.1697737059940056e-07 4.2221194664240356e-06 2.1421011900696956e-06 1.6740009278190511e-06 3.3351321690128031e-06 6.8729404330523294e-07 4.1036450132931095e-06 2.3892047340984798e-06 2.3675133644784681e-06 1.6788493606470661e-06 2.7813983905190106e-06 1.0449652621361571e-06 2.176640943834463e-06 3.9289145376034706e-06 3.6445817807074599e-06 2.2126701953684894e-06 0.16643249604178204 0.52525288931331104 0.0038255559341431695 0.96044838638030794 0.92132105135594844 0.0038837010287083762 0.28320189471960633 0.055588215908470781 0.71409880573409712 0.027614741396021526 0.18639679237309609 0.47735842420434083 0.22987508244331356 0.49381999344756894 0.21553203111134128 0.54603859481342654 0.1773772775375371 0.61216181087741961 0.23359375125503659 0.50682483558270874 0.73942846594515099 0.28470563000448201 0.30316503875677336 0.68606454632065172 0.26040423534230972 0.38057557118997565 0.62038636047181517 0.15490417816395302 0.032063738961750313 0.49027453384073016 0.024588948942980242 0.93965857081418847 0.045170783055147407 0.53915364702974455 0.89256748941666175 0.042939420734072878 0.53251792315968127 0.19498923093273013 0.26702926221804923 0.47155877547081954 0.30851653682089286 0.41347696042253246 0.23139247209101219 0.43010439091303576 0.28651595415597741 0.44388925883304442 0.076963160934862246 0.551168136030736 0.79781845613542823 0.080349997188340086 0.012312843597705712 0.95917849315323167 0.013816540749492592 0.70590078717485161 0.078389121494921471 0.21516270451568376 0.91062975675573932 0.026047349691292514 0.31363691426236984 0.41614136374272975 0.040256876543046251 0.065975045972648361 0.90246932893841314 0.43302991329915053 0.06211211863068293 0.65093013529728683 0.67306868263894737 0.11820436544247898 0.10542413315142088 0.75773291206083626 0.16190186546280488 0.43171374861283152 0.29170582582135596 0.44140802011919028 0.61094609818173629 0.31948830858425104 0.37464286788006773 0.35586921341119027 0.30978347122596667 0.058495063825841229 0.80874513890055355 0.35503510226872581 0.19492279818456965 0.26396086324457296 0.40142860850328604 0.38799080960817156 0.27503694632296816 0.033473100546586372 0.38962312843001234 0.015953348371197097 0.95986465834390089 0.15269273833487285 0.65461932888502283 0.019064236352660708 0.92729665553948171 0.020488542614078238 0.75067996104463997 0.16894902130266587 0.1799480567244286 0.81501510846197722 0.047986688088142687 0.81064957961907391 0.073907583490439771 0.2499101458961494 0.2728696490424104 0.05405152983413801 0.72139239482719797 0.60082410498642957 0.12727072704340259 0.62953585078052388 0.9676772630346584 0.0067055638409082201 0.0071212820961455356 0.81245342408715104 0.1138982110682817 0.13441319738752627 0.8811975615021882 0.021664328378352013 0.073902687470566372 0.12838328430559798 0.82580076014582016 0.41209113687862908 0.92821099963327736 0.011952686981529652 0.01223262870490043 0.85069904016058129 0.30314833503787897 0.1057472540496731 0.68840143216028082 0.049328046205396325 0.07043876191015544 0.74007880792806258 0.47355868823125724 0.17606141317358215 0.18787956052327764 0.19172397243895617 0.58390614602544777 0.58921646293936847 0.11501558299462536 0.10516712824882266 0.73434649420233056 0.74764724151163942 0.11105545955385665 0.14712292503854366 0.52285438427673703 0.47308520922546293 0.023659447716810261 0.046511315787631916 0.081774043416841996 0.058930632744482701 0.77552187796151006 0.029026045019104024 0.62414220096271344 0.043870360921372198 0.87141373757223772 0.18160835862072353 0.27550402349670511 0.64767022893866089 0.92985184316445169 0.86371633001711012 0.10527980568708886 0.25929875983359801 0.092269602750787633 0.15332622233449436 0.18151199273454005 0.59212180873635523 0.5423549173534139 0.10865404648053881 0.15528467770040766 0.16448912443712982 0.62046458662167647 0.63933729498163827 0.11859344765866728 0.23732876694050875 0.24750131767779909 0.51784220690416172 0.50315618611521806 0.11964473046758548 0.035432255995273859 0.037277902879579147 0.85859069658009635 0.759982403332641 0.32201039585254243 0.17008022538582651 0.65051668447646249 0.094288302057820544 0.13040540633131475 0.74408993733569984 0.70519917752807615 0.23528402821341299 0.24446796426650286 0.3800161794949648 0.337901616296165 0.23715380302918432 0.5007035749894998 0.22957528509421166 0.49221565577652521 0.098765204411492821 0.68788247454904994 0.46386335886250118 0.20703814377163679 0.2593017973165101 0.3097874549068611 0.39169542894413234 0.44393367662308486 0.12