<?xml version="1.0"?>
<VTKFile type="UnstructuredGrid" version="0.1" byte_order="LittleEndian">
<UnstructuredGrid>
<Piece NumberOfPoints="3918" NumberOfCells="1306">
<Points>
<DataArray type="Float64" NumberOfComponents="3" format="ascii">
2.199999999999999e+00 1.000000000000000e+00 0.000000000000000e+00 2.167042760209688e+00 9.180909330202516e-01 0.000000000000000e+00 2.276253312368741e+00 8.960026502048396e-01 0.000000000000000e+00 4.794660531865603e+00 4.928781786967001e-01 0.000000000000000e+00 4.895148782943732e+00 5.622595023726160e-01 0.000000000000000e+00 4.773700345920383e+00 5.924187786805324e-01 0.000000000000000e+00 2.543072460766750e+00 7.257064952909391e-01 0.000000000000000e+00 2.612778635682587e+00 6.379739460669237e-01 0.000000000000000e+00 2.649888912334054e+00 7.569619856190068e-01 0.000000000000000e+00 1.948052693999185e+00 1.289873040940654e-01 0.000000000000000e+00 1.894432874635162e+00 7.551835003504323e-02 0.000000000000000e+00 1.999999999995511e+00 0.000000000000000e+00 0.000000000000000e+00 4.558741850192379e+00 1.706710584301058e-01 0.000000000000000e+00 4.482003026509532e+00 2.394413792785933e-01 0.000000000000000e+00 4.451469977250477e+00 1.357957442429618e-01 0.000000000000000e+00 3.299999999999999e+00 1.000000000000000e+00 0.000000000000000e+00 3.204890379983837e+00 9.254368576810614e-01 0.000000000000000e+00 3.273830491511281e+00 8.834576202305108e-01 0.000000000000000e+00 3.299999999999999e+00 1.000000000000000e+00 0.000000000000000e+00 3.273830491511281e+00 8.834576202305108e-01 0.000000000000000e+00 3.353422182013107e+00 9.028315595988372e-01 0.000000000000000e+00 4.111703902366866e+00 1.331175536465074e-01 0.000000000000000e+00 4.099999999998633e+00 0.000000000000000e+00 0.000000000000000e+00 4.182764237453481e+00 8.084782043728693e-02 0.000000000000000e+00 4.699999999999545e+00 0.000000000000000e+00 0.000000000000000e+00 4.776755050008729e+00 9.373387207737824e-02 0.000000000000000e+00 4.690158205531358e+00 1.364814217295172e-01 0.000000000000000e+00 1.948052693999185e+00 1.289873040940654e-01 0.000000000000000e+00 1.999999999995511e+00 0.000000000000000e+00 0.000000000000000e+00 2.049999999995552e+00 8.978335458097943e-02 0.000000000000000e+00 2.612778635682587e+00 6.379739460669237e-01 0.000000000000000e+00 2.680790723483929e+00 5.770944853520404e-01 0.000000000000000e+00 2.721274941296599e+00 6.860745476515622e-01 0.000000000000000e+00 2.217157304231143e+00 1.490340955835976e-01 0.000000000000000e+00 2.263108527926066e+00 7.883543312226374e-02 0.000000000000000e+00 2.320771471773918e+00 1.774611341310380e-01 0.000000000000000e+00 6.201761285132973e-01 8.145180217066926e-01 0.000000000000000e+00 5.107672864112288e-01 8.169186336319382e-01 0.000000000000000e+00 5.291217175395199e-01 7.399324289248853e-01 0.000000000000000e+00 2.764640797973617e+00 6.197673077442869e-01 0.000000000000000e+00 2.721274941296599e+00 6.860745476515622e-01 0.000000000000000e+00 2.680790723483929e+00 5.770944853520404e-01 0.000000000000000e+00 3.000000000000007e-01 1.000000000000000e+00 0.000000000000000e+00 2.235202862591317e-01 8.887389633270458e-01 0.000000000000000e+00 3.153592145619369e-01 8.815404533065442e-01 0.000000000000000e+00 2.299999999999999e+00 1.000000000000000e+00 0.000000000000000e+00 2.199999999999999e+00 1.000000000000000e+00 0.000000000000000e+00 2.276253312368741e+00 8.960026502048396e-01 0.000000000000000e+00 1.299999999999999e+00 1.000000000000000e+00 0.000000000000000e+00 1.246238897717278e+00 9.001620782265900e-01 0.000000000000000e+00 1.325594839248253e+00 8.832813258746552e-01 0.000000000000000e+00 1.299999999999999e+00 1.000000000000000e+00 0.000000000000000e+00 1.325594839248253e+00 8.832813258746552e-01 0.000000000000000e+00 1.386478687610004e+00 9.220875103295796e-01 0.000000000000000e+00 3.099999999999999e+00 1.000000000000000e+00 0.000000000000000e+00 3.138079516399413e+00 8.908467724822530e-01 0.000000000000000e+00 3.204890379983837e+00 9.254368576810614e-01 0.000000000000000e+00 1.599999999996661e+00 0.000000000000000e+00 0.000000000000000e+00 1.679983210048711e+00 8.220201556683318e-02 0.000000000000000e+00 1.609545399082946e+00 1.308291592921435e-01 0.000000000000000e+00 1.061007011519329e+00 5.618772874050625e-01 0.000000000000000e+00 1.160572984923127e+00 6.015530474704378e-01 0.000000000000000e+00 1.050000000000000e+00 6.706367924525535e-01 0.000000000000000e+00 6.215262983536076e-01 7.328515730233995e-01 0.000000000000000e+00 6.201761285132973e-01 8.145180217066926e-01 0.000000000000000e+00 5.291217175395199e-01 7.399324289248853e-01 0.000000000000000e+00 1.948052693999185e+00 1.289873040940654e-01 0.000000000000000e+00 2.049999999995552e+00 8.978335458097943e-02 0.000000000000000e+00 2.057936946544583e+00 1.849235821189668e-01 0.000000000000000e+00 2.091091774288676e+00 8.874649005201438e-01 0.000000000000000e+00 1.981107049933336e+00 8.600018538720656e-01 0.000000000000000e+00 2.085258760309228e+00 8.052686384966041e-01 0.000000000000000e+00 1.039491394416145e+00 8.340298301149526e-01 0.000000000000000e+00 9.354088824890808e-01 8.828123294523768e-01 0.000000000000000e+00 9.137231126914012e-01 8.048617635747636e-01 0.000000000000000e+00 1.981107049933336e+00 8.600018538720656e-01 0.000000000000000e+00 1.996885229669902e+00 7.683000423456376e-01 0.000000000000000e+00 2.085258760309228e+00 8.052686384966041e-01 0.000000000000000e+00 2.299999999999999e+00 1.000000000000000e+00 0.000000000000000e+00 2.276253312368741e+00 8.960026502048396e-01 0.000000000000000e+00 2.395017918255099e+00 9.023368606738377e-01 0.000000000000000e+00 4.399999999999088e+00 0.000000000000000e+00 0.000000000000000e+00 4.443360971034338e+00 6.001006090376452e-02 0.000000000000000e+00 4.340464407462508e+00 1.058022966868348e-01 0.000000000000000e+00 7.543413513517198e-01 1.288879963162577e-01 0.000000000000000e+00 6.466910199083232e-01 1.799054750174742e-01 0.000000000000000e+00 6.626722243468293e-01 7.849715957809261e-02 0.000000000000000e+00 9.999999999992801e-02 0.000000000000000e+00 0.000000000000000e+00 2.066914384950196e-01 8.554607894793897e-02 0.000000000000000e+00 8.279903559142687e-02 8.279903559151081e-02 0.000000000000000e+00 3.431815931955504e-01 3.314386771104964e-01 0.000000000000000e+00 2.371857680100064e-01 3.586554844111011e-01 0.000000000000000e+00 2.478307344467225e-01 2.478307344464838e-01 0.000000000000000e+00 1.039491394416145e+00 8.340298301149526e-01 0.000000000000000e+00 1.035017143854235e+00 9.257730596464975e-01 0.000000000000000e+00 9.354088824890808e-01 8.828123294523768e-01 0.000000000000000e+00 1.763223103020597e+00 6.969213383069597e-01 0.000000000000000e+00 1.659764170257915e+00 7.783869792876411e-01 0.000000000000000e+00 1.641237689750194e+00 6.703960699373966e-01 0.000000000000000e+00 2.171230381509611e+00 6.460806590265337e-01 0.000000000000000e+00 2.235035871331497e+00 5.528935828550036e-01 0.000000000000000e+00 2.240765570563543e+00 6.710361137189144e-01 0.000000000000000e+00 3.099999999999999e+00 1.000000000000000e+00 0.000000000000000e+00 3.204890379983837e+00 9.254368576810614e-01 0.000000000000000e+00 3.199999999999998e+00 1.000000000000000e+00 0.000000000000000e+00 4.689375887502736e+00 8.629982390821114e-01 0.000000000000000e+00 4.559658010798574e+00 8.268398885804081e-01 0.000000000000000e+00 4.659699064592896e+00 7.795622692497817e-01 0.000000000000000e+00 2.217157304231143e+00 1.490340955835976e-01 0.000000000000000e+00 2.320771471773918e+00 1.774611341310380e-01 0.000000000000000e+00 2.244951071131736e+00 2.260199244934647e-01 0.000000000000000e+00 3.859396958574677e-01 4.484332494195724e-01 0.000000000000000e+00 2.998774732159264e-01 4.343088009374657e-01 0.000000000000000e+00 3.431815931955504e-01 3.314386771104964e-01 0.000000000000000e+00 1.948052693999185e+00 1.289873040940654e-01 0.000000000000000e+00 2.057936946544583e+00 1.849235821189668e-01 0.000000000000000e+00 1.949071218763063e+00 2.055183505669977e-01 0.000000000000000e+00 4.558741850192379e+00 1.706710584301058e-01 0.000000000000000e+00 4.451469977250477e+00 1.357957442429618e-01 0.000000000000000e+00 4.536544111235556e+00 7.547590122663222e-02 0.000000000000000e+00 2.764640797973617e+00 6.197673077442869e-01 0.000000000000000e+00 2.748586785039362e+00 5.211021237021853e-01 0.000000000000000e+00 2.861122426073405e+00 5.967442355315300e-01 0.000000000000000e+00 9.849196667091529e-01 7.457027191416240e-01 0.000000000000000e+00 1.039491394416145e+00 8.340298301149526e-01 0.000000000000000e+00 9.137231126914012e-01 8.048617635747636e-01 0.000000000000000e+00 2.171230381509611e+00 6.460806590265337e-01 0.000000000000000e+00 2.122199951799849e+00 5.850416005702397e-01 0.000000000000000e+00 2.235035871331497e+00 5.528935828550036e-01 0.000000000000000e+00 1.948411343815324e+00 5.977864372950021e-01 0.000000000000000e+00 1.831604818415202e+00 5.415700660643472e-01 0.000000000000000e+00 1.949496869330408e+00 5.032480558805372e-01 0.000000000000000e+00 9.555466748202026e-01 6.138712331357172e-01 0.000000000000000e+00 9.543842823432471e-01 5.002189144552502e-01 0.000000000000000e+00 1.061007011519329e+00 5.618772874050625e-01 0.000000000000000e+00 3.211383243381871e+00 8.238513614296178e-01 0.000000000000000e+00 3.287305785442545e+00 7.342276537100590e-01 0.000000000000000e+00 3.314972634714863e+00 8.093336828947851e-01 0.000000000000000e+00 1.399999999999999e+00 1.000000000000000e+00 0.000000000000000e+00 1.463012078585596e+00 8.920964591701215e-01 0.000000000000000e+00 1.500000000000000e+00 1.000000000000000e+00 0.000000000000000e+00 3.699999999998025e+00 0.000000000000000e+00 0.000000000000000e+00 3.799999999998176e+00 0.000000000000000e+00 0.000000000000000e+00 3.736690596671465e+00 1.064195787014745e-01 0.000000000000000e+00 3.099999999997114e+00 0.000000000000000e+00 0.000000000000000e+00 3.199999999997265e+00 0.000000000000000e+00 0.000000000000000e+00 3.138143461708514e+00 1.082496513635721e-01 0.000000000000000e+00 3.287305785442545e+00 7.342276537100590e-01 0.000000000000
[...]
<PointData Scalars="A_conc," Vectors="" Tensors="">
<DataArray type="Float64" Name="A_conc" format="ascii">
4.985738957212814e-03 4.526322937012065e-03 6.225800687532687e-03 2.985718422566229e-01 3.263765597378323e-01 2.928581520943666e-01 9.711851705449720e-03 1.181721284380769e-02 1.300374547756408e-02 2.906855280115569e-03 2.473313946977049e-03 3.538900702057689e-03 2.384799710697516e-01 2.187987585507970e-01 2.110909375545456e-01 4.216189148106760e-02 3.409123872841956e-02 3.983890562726788e-02 4.127470934798711e-02 3.892776511357099e-02 4.609162224374178e-02 1.402865396360822e-01 1.380422739229045e-01 1.553423157403495e-01 2.734291913894686e-01 2.943280688791755e-01 2.707527411201806e-01 2.748602481394956e-03 3.391465092081608e-03 3.810229934236631e-03 1.115402400894422e-02 1.346238777915914e-02 1.492709568306006e-02 4.986625482855097e-03 5.727637802649187e-03 6.757195519628564e-03 1.458913163415340e-04 9.645974552908736e-05 1.037944189000878e-04 1.612465996584850e-02 1.447134487789081e-02 1.298234778738796e-02 8.542061710435493e-05 3.611859882635739e-05 5.569273571349843e-05 6.438119154866561e-03 4.768872447161002e-03 6.034192666938195e-03 7.097050568318085e-04 5.702051348890611e-04 7.577764254256100e-04 6.688052361515343e-04 7.183065114480942e-04 8.852552617427662e-04 2.848284593349258e-02 3.110012896789929e-02 3.599985153454232e-02 1.371524279632026e-03 1.707455351855689e-03 1.338421516844926e-03 3.769188604084567e-04 5.340214953907388e-04 3.613344114109412e-04 1.420426976671862e-04 1.403744854973597e-04 9.673861238039500e-05 2.701876543553234e-03 3.774992129445707e-03 3.862908749020460e-03 4.155879697882274e-03 2.917403045940789e-03 4.103083955461126e-03 4.030733199494708e-04 2.766200114442276e-04 2.587622742696525e-04 3.052747939636599e-03 3.218154027243061e-03 4.186353567319446e-03 6.107397900800400e-03 5.695757695146323e-03 7.936423751275450e-03 2.001921955999261e-01 2.107600520602421e-01 1.856129872250546e-01 1.959213820667723e-04 1.341173154520316e-04 1.394026528712206e-04 5.543012260573286e-05 5.091376519244140e-05 3.040555203836297e-05 7.373640233851365e-05 4.871250696476472e-05 5.101382325158654e-05 3.884730176797298e-04 3.820420953362468e-04 2.571284913347059e-04 2.104973909022976e-03 1.516776812681600e-03 1.428337105883045e-03 4.572275221587784e-03 5.531527565708648e-03 5.655325323625840e-03 2.808348928802042e-02 3.567716628092942e-02 3.548721271357502e-02 2.713520358044122e-01 2.368155321657670e-01 2.634285579252952e-01 5.026653199612641e-03 6.770319062480558e-03 5.489354075424411e-03 7.962208213811642e-05 5.612539350803803e-05 6.814188435859060e-05 2.820386721958852e-03 3.951910476707603e-03 2.870856712675743e-03 2.381810167090200e-01 2.106881561599393e-01 2.325212565001889e-01 1.547944688952854e-02 1.474974051814519e-02 1.957840635930452e-02 3.303086191534341e-04 3.996373909756980e-04 2.479752807945241e-04 4.751940725832828e-03 4.065494946175326e-03 5.692225553803206e-03 3.066971956005630e-03 2.068470622825808e-03 3.074046965947444e-03 2.910240774471202e-04 2.876736092672728e-04 4.219299596060792e-04 3.445226324423611e-02 4.080976281759977e-02 4.326889465824769e-02 8.210724295404813e-04 1.008124587259788e-03 1.156637215859928e-03 7.801645823130654e-02 9.300336525304369e-02 8.286576999651278e-02 2.876496337643031e-02 3.597215163776146e-02 3.090509511990305e-02 4.151024045754316e-02 3.522777981220199e-02 3.358088782267014e-02 2.706530168791565e-01 3.051446419619996e-01 2.753006169235556e-01 1.919840184154274e-04 1.967944095283513e-04 1.256848038206703e-04 1.357715192261045e-02 1.751762283513645e-02 1.504806324573838e-02 2.715489596250802e-01 2.486499278737443e-01 2.371374378138847e-01 2.738509411674188e-01 2.711760435759999e-01 2.557674861182553e-01 2.983281801102368e-01 3.256252140003660e-01 3.261766990879069e-01 3.381042941753322e-04 5.188867197155065e-04 5.183348776149756e-04 1.413719760139661e-01 1.275385838909315e-01 1.391373497214875e-01 1.769906938873252e-01 1.891827160169936e-01 2.016178580571500e-01 5.130330422875035e-05 7.035549108907780e-05 4.719879887680052e-05 1.780958992396552e-02 2.291464161989411e-02 2.258885328492764e-02 1.486982360150944e-01 1.283651278160778e-01 1.495839137664010e-01 6.321456606758727e-02 5.108642229495940e-02 6.387574867399168e-02 1.459086054885384e-03 2.052951429330231e-03 1.451501279290410e-03 2.708031691431370e-04 3.965476981455406e-04 4.095099194706853e-04 4.443446658705619e-02 4.425517762475736e-02 5.467410988159088e-02 8.566921797233937e-02 7.092186838693904e-02 8.579003417274783e-02 9.403771339606868e-04 1.309473585132212e-03 9.285871331223421e-04 2.703591688567835e-01 2.940205918105401e-01 3.049608356471825e-01 1.779918242893098e-01 1.672762735922342e-01 1.901449781295720e-01 1.273134158805384e-04 8.821502476956708e-05 8.224775149228480e-05 9.431102649988246e-03 6.533358204502898e-03 8.772793229111240e-03 4.594737085132842e-03 4.723194599496608e-03 3.498186748188084e-03 8.648457188852703e-04 8.123361626631108e-04 1.048631443145781e-03 8.180572409619372e-02 9.202866289073242e-02 9.622188046309267e-02 3.533157821946643e-02 3.721631977611147e-02 3.019485565705916e-02 8.959573658632236e-04 6.498382669104741e-04 6.727458304138465e-04 3.448771693657264e-02 4.324696023413307e-02 4.156892245603867e-02 9.170702860277623e-02 1.090197203613923e-01 1.057055000300135e-01 1.204022712632399e-04 1.234953053271161e-04 7.675938597149749e-05 5.859518063113002e-03 7.733099578193279e-03 7.884939255087396e-03 3.133533261986242e-02 4.081444005320492e-02 3.305017839798390e-02 9.525144708001729e-03 7.469971410391864e-03 6.724756258678191e-03 1.906581781545342e-02 1.929740444523395e-02 1.435601703804581e-02 7.487564608673232e-02 6.877571539093257e-02 6.144964468376516e-02 6.375365231170718e-04 9.056858341190542e-04 8.663174768469950e-04 3.425002697495667e-02 3.521585976951948e-02 4.220773726133823e-02 9.053522791574441e-02 9.270533210536996e-02 1.065973727844113e-01 1.942609179456417e-03 1.452147418795814e-03 1.305885608484235e-03 1.603516655818631e-03 1.143998577149420e-03 1.140411148596758e-03 2.171028889562535e-02 2.808753298415723e-02 2.753799607766265e-02 6.074289164284116e-02 7.670959512896154e-02 7.487648243988859e-02 1.461714214407184e-01 1.732614359860605e-01 1.703695690640377e-01 7.137693101945228e-02 5.730546426529007e-02 6.396860647515608e-02 3.768015901396836e-02 4.052150072770312e-02 3.084636481696550e-02 1.441203069866592e-03 1.408329268051233e-03 1.141547959219200e-03 7.142083376564388e-02 6.239909208834692e-02 5.745689814239844e-02 1.656247623990558e-01 1.482587588261955e-01 1.394427824560906e-01 1.007702804690028e-02 9.470617977384204e-03 1.214476205300992e-02 1.772519767457315e-01 2.010624195264208e-01 1.865288589036336e-01 4.606819722471188e-03 4.398462188543941e-03 3.317735687048292e-03 1.189050203671458e-03 1.639526417714758e-03 1.474659305563903e-03 1.562204350647165e-03 1.842956907015874e-03 1.393932419419564e-03 6.251423199089721e-02 6.977940674862917e-02 5.852427528732052e-02 6.594714376861236e-04 9.403860264666931e-04 8.638082062724177e-04 1.046408088058161e-01 8.866748435690319e-02 9.095231593214489e-02 3.924259512318233e-04 2.934416604325316e-04 2.713248866823221e-04 1.852092946446982e-01 2.105467342353368e-01 2.124330535596898e-01 8.984833117321805e-04 6.454311470092742e-04 6.993148392075772e-04 1.078063439432028e-01 1.036987468789225e-01 8.990804484687848e-02 1.117724274750119e-04 1.085717788242889e-04 1.614282574665431e-04 5.113213604790865e-05 4.528244989389399e-05 3.635007688722014e-05 3.324830500686556e-05 3.913182381295879e-05 4.786867523764237e-05 2.047524501988515e-03 1.995859828648960e-03 1.438084933798408e-03 1.441972686062370e-04 1.166175789190549e-04 9.348659639120291e-05 1.654555090378734e-01 1.391032996164401e-01 1.543306350260859e-01 8.714679570264129e-05 4.857252821653563e-05 4.247265403509278e-05 7.521827328541968e-05 6.342830902951952e-05 8.801460516385296e-05 8.326538954526363e-04 5.912935327732631e-04 6.224434936613827e-04 1.884018492505077e-01 1.965836454933652e-01 2.120217195516243e-01 7.978618120800878e-04 5.824915918914324e-04 8.840550069789048e-04 2.153215605904872e-03 3.108665842627137e-03 2.313280046224783e-03 8.540094863130822e-03 7.964388238284409e-03 9.900275727148997e-03 4.431199303255537e-05 4.935788069320181e-05 6.606980840718835e-05 1.892936834921622e-01 1.780954515046685e-01 1.974574666850555e-01 2.821489004083521e-04 2.359313983818421e-04 1.892333411667720e-04 1.250601566864432e-02 1.129766736568350e-02 1.500353527973016e-02 3.098931911948168e-04 3.882663030565743e-04 2.532746487670862e-04 1.613902872919201e-01 1.510724636832964e-01 1.765269070089241e-01 1.326196372500008e-01 1.150630301840750e-01 1.114517881695255e-01 3.635943314344658e-02 3.097271242215317e-02 3.846856894588235e-02 8.021030091132741e-04 5.613553259516447e-04 7.352362908414101e-04 9.873578458363635e-02 1.143941522990907e-01 1.024013966964486e-01 1.106285008287196e-01 1.289538809268203e-01 1.319467292873859e-01 5.300401132177741e-02 5.459261558695293e-02 4.345195434686232e-02 1.498793912866030e-04 1.572435341897515e-04 1.019241740813492e-04 8.055977723329668e-05 5.068644810458061e-05 7.383034241405051e-05 3.262841769958540e-01 3.117003269958031e-01 2.926961200836203e-01 7.908190291688613e-02 8.710962470979350e-02 7.075808095071910e-02 5.385379402674464e-02 4.440183944461219e-02 4.814413460796354e-02 2.828842310291350e-04 1.913051720354340e-04 2.275955117568755e-04 2.038164357038000e-01 1.773129805453866e-01 1.889596221886371e-01 1.919441984180479e-03 1.275127036324390e-03 1.642723627408593e-03 1.928412770688595e-03 1.799469008674997e-03 2.552269256147637e-03 2.661191795223149e-02 2.176990952849552e-02 2.192828737743945e-02 2.261370221148884e-02 2.245762868975936e-02 1.871466792781843e-02 8.340532851688316e-02 9.373105300532676e-02 9.993736776230555e-02 1.033497373862773e-03 8.299509006204373e-04 7.257461616513822e-04 4.608451562293456e-02 3.699131393246510e-02 4.015462170518075e-02 9.265623147588412e-02 1.035359245156268e-01 9.890789236069276e-02 8.723920552886906e-04 6.948418904208723e-04 7.698384721863871e-04 4.093907977299689e-02 3.780060338905857e-02 3.559526500063422e-02 4.345596821311922e-02 5.342627187449783e-02 5.413617189106913e-02 8.648337066710923e-02 7.186750435710536e-02 7.224384947512402e-02 8.792402913815744e-04 1.274586143521956e-03 1.267237223272190e-03 2.232455073397003e-02 2.190304781107244e-02 1.726986676657773e-02 3.897276681455672e-04 3.191782381699766e-04 2.507706107640598e-04 1.510249575767178e-01 1.628600725636992e-01 1.764276831492889e-01 2.191593690459299e-03 3.021333696391143e-03 3.070748508886666e-03 2.326241814888570e-02 1.829528882142500e-02 1.815359260013112e-02 7.606338155178401e-04 5.991912060405004e-04 5.415670429713821e-04 1.225867746083696e-01 1.044671025687936e-01 1.126044296090344e-01 6.993598685952271e-03 8.265499339684771e-03 8.833025299812830e-03 8.088842185061949e-03 1.126976002667053e-02 1.030782196738575e-02 4.681985683959946e-03 3.435068092785758e-03 3.569376239772222e-03 8.370566667362645e-05 6.701543041557970e-05 5.125876465821333e-05 5.648516375060774e-05 7.166428061962252e-05 5.068374346693152e-05 2.211579851521902e-03 2.806810252655682e-03 3.336168649163147e-03 2.170145902704421e-03 3.323805598903788e-03 3.022791852090532e-03 2.354622602777074e-02 1.811748393054376e-02 1.841521584276019e-02 2.578584232313572e-04 2.467151863165121e-04 1.611553568645060e-04 7.123415219673208e-05 4.750304892785567e-05 6.978368215811521e-05 2.325780718228725e-02 1.788845945397056e-02 2.249663935242584e-02 1.834024199106287e-02 1.915372946978747e-02 2.281397986355924e-02 1.702580109010450e-04 2.052288857035032e-04 2.503259446708603e-04 6.406192515947327e-02 5.147414694837556e-02 5.413904450447892e-02 1.495429750164919e-01 1.271794647518584e-01 1.321995909918650e-01 8.197279691406717e-03 9.559701500848151e-03 1.132790274966242e-02 5.102816850168041e-03 6.359416373924140e-03 5.133580017710828e-03 4.736717375304984e-04 4.620193383657941e-04 6.906409636171817e-04 6.333182986990439e-02 5.330237577614737e-02 6.333819764934255e-02 1.487182333237618e-01 1.312822331804726e-01 1.492917100326935e-01 2.287149738813871e-01 2.523699487933846e-01 2.307432463227819e-01 1.979345279596647e-03 2.533624641147771e-03 2.433392738403864e-03 5.341831664597983e-03 5.372009736379770e-03 4.143645920636453e-03 3.027784390436632e-04 3.891662664118870e-04 4.310365619401251e-04 3.050613839769798e-04 4.318867465983276e-04 3.766094212839500e-04 2.323605308479091e-03 2.425571166133400e-03 2.912687192685033e-03 1.292134917383755e-02 1.233815653039124e-02 9.947400738147209e-03 4.667913163505521e-05 7.265576321960784e-05 6.100817719977699e-05 5.426262474998549e-03 4.514360522249762e-03 4.383365787535891e-03 2.716989808446714e-05 2.690627278323163e-05 3.895630473520540e-05 9.065436276014500e-04 1.025728731749991e-03 7.229719328196145e-04 1.115529978308126e-04 1.529383473354301e-04 1.095865086800036e-04 2.309573460708438e-04 2.955067501799974e-04 2.065915387051549e-04 1.258658279356648e-04 8.917532681706104e-05 9.615866380121684e-05 4.455204693795148e-04 5.683089068963025e-04 6.357095247710540e-04 1.742442347119651e-04 2.559940247672646e-04 1.791585678410706e-04 6.262701573994737e-03 7.664606268131880e-03 5.627785379575323e-03 5.494416085914175e-03 7.592976815039269e-03 7.177733310238392e-03 6.013477203970331e-05 5.448378679550671e-05 4.524068859346687e-05 1.378740081087858e-03 2.006705969801610e-03 1.939517252470116e-03 3.551092516726696e-01 3.551092516726696e-01 3.252617533738906e-01 2.686205579754393e-03 2.819591372746823e-03 3.729598250052445e-03 6.447057878354209e-02 5.193338063710982e-02 5.330753639110793e-02 1.502797466148606e-01 1.292488248576879e-01 1.304175353678971e-01 1.733821857760659e-03 2.334861442602110e-03 2.525876759515636e-03 1.565029057055318e-03 1.114232615132938e-03 1.532398302236341e-03 2.649278925750117e-03 3.557295748533214e-03 2.513764293570757e-03 2.369299525952125e-01 2.564938317771230e-01 2.578042901949832e-01 2.724329927396524e-04 4.111080599379032e-04 3.959755202264355e-04 1.312228479763768e-02 1.022428324947290e-02 9.926627633287216e-03 5.507253477293729e-02 4.662390141242010e-02 4.399820564721355e-02 5.999430606457066e-03 4.214053620283631e-03 5.156250190147198e-03 1.324281058467178e-04 8.766004649413508e-05 7.866510091808451e-05 3.009522584745104e-03 2.243023593280482e-03 3.055252556444811e-03 4.820095696844353e-05 3.886745473851853e-05 5.322137589507618e-05 3.137027577255243e-03 2.365569600811152e-03 2.169656449050161e-03 8.197487728923728e-05 5.036482507102668e-05 6.698862053405474e-05 3.682330114841525e-02 3.243971168807312e-02 3.149511497997757e-02 2.777983180371866e-02 3.222184490484786e-02 3.315695276804048e-02 2.196795324525518e-01 1.967471522371529e-01 2.119869766650544e-01 9.608792770080375e-05 7.782234502010832e-05 1.029363855818984e-04 3.307202969111819e-03 4.402706728701643e-03 3.462542176778618e-03 3.733271476009378e-03 4.370951112896017e-03 3.254117305229007e-03 3.552018620628153e-01 3.259455050769977e-01 3.253935218126544e-01 1.938239292912792e-04 2.868709954225607e-04 3.040485648906795e-04 3.640781765939508e-03 3.550833508462521e-03 4.710513214841654e-03 1.885507833612250e-02 1.636436748506971e-02 1.465468191610798e-02 1.205255886752624e-04 8.941912117694958e-05 1.316438989536487e-04 1.106518947950784e-04 1.220729276704669e-04 1.589643580530220e-04 2.464143536711294e-04 2.225805187079245e-04 1.800495749301505e-04 4.096467805364865e-05 6.413759729393196e-05 6.390513972809808e-05 3.344671625816428e-03 2.297658203935034e-03 2.758845602537942e-03 4.798431703134410e-02 5.284944100834919e-02 5.872153563255407e-02 6.649564229048471e-02 7.205253930752158e-02 8.000887973220110e-02 8.604239159867634e-02 7.793352877421966e-02 9.035981972775060e-02 4.899765945802120e-02 4.528751066954051e-02 4.177580048014928e-02 6.899312424969164e-05 1.029657602759218e-04 1.032890112380163e-04 1.840998352144913e-02 1.979809672383793e-02 1.587842932906363e-02 8.358619217256869e-02 9.995439240223214e-02 9.162280074509881e-02 1.031943695999359e-03 7.218840752187317e-04 8.433849703779917e-04 4.607709973417945e-02 4.040278742786724e-02 3.692220667070413e-02 1.573167731351949e-03 1.557783227858351e-03 1.079359567646298e-03 2.199253736883298e-02 2.227714776709833e-02 2.804005870543990e-02 6.232587386298452e-02 6.177421501175507e-02 7.572090451783625e-02 1.480927691403519e-01 1.471678700800911e-01 1.712174193047490e-01 1.885580761304544e-02 1.533145409146282e-02 1.914984783914597e-02 5.924128946978875e-04 4.194095038587718e-04 4.764102252779308e-04 1.705501555175887e-02 1.878231090539906e-02 1.454354849491790e-02 1.120257659654209e-03 1.571517678538732e-03 1.564110869560843e-03 3.631307513152189e-04 5.235157035065897e-04 3.764812415564306e-04 2.777584714659757e-02 2.172697881008779e-02 2.205825826419174e-02 7.438083080336880e-02 6.172526495114477e-02 6.239419558165933e-02 1.471977011212964e-01 1.480896090883258e-01 1.691550690580974e-01 1.585487792375241e-01 1.547197950836118e-01 1.372445195246927e-01 1.470619602680035e-04 1.048466409543155e-04 1.515724244015688e-04 6.545437136564052e-03 5.443633301978577e-03 5.318059115613514e-03 1.185993933821501e-03 9.704536249964433e-04 8.480923552124582e-04 1.737285837852074e-02 1.343710837985720e-02 1.524295590197319e-02 2.182789323996696e-03 1.754570565825476e-03 1.729592487161499e-03 5.764657943599243e-03 5.279196242616567e-03 4.363350427193584e-03 8.019733214127847e-02 7.193788829132218e-02 6.780512767986922e-02 6.054356533762428e-02 6.902499115874376e-02 7.312136897159906e-02 9.046749859394071e-05 5.959484453862502e-05 8.729191951539131e-05 1.836229158705240e-03 1.651612500631928e-03 1.314618625954846e-03 3.319616109911534e-03 3.031091218346908e-03 2.251545280547255e-03 6.570331113006483e-05 6.884727668889025e-05 9.312864172630670e-05 3.990265324795005e-03 4.564199153865836e-03 5.462586941967324e-03 1.504655635319231e-02 1.929526730959230e-02 1.833869389346485e-02 7.830074726912213e-04 9.836325204532822e-04 1.088364059430607e-03 7.637656253923437e-04 6.952771633471663e-04 8.713431449296651e-04 9.984613426470577e-02 1.034940599466275e-01 9.258180413404174e-02 3.558426144206031e-02 3.771896153967505e-02 4.091470796753661e-02 1.410244319448863e-02 1.554689186449414e-02 1.198033397213836e-02 2.786390595916852e-03 2.019723741301471e-03 2.468655491640999e-03 1.287742570283132e-02 9.547543948147271e-03 1.164528151623139e-02 7.178838620015196e-05 7.851133377584459e-05 9.963942363210649e-05 4.669044023375982e-05 5.407480514600661e-05 6.404456970547236e-05 5.038758346648965e-05 7.137434713066384e-05 6.058862553160924e-05 6.287302651462191e-04 6.751886608192729e-04 4.364374464214570e-04 9.785363046618414e-02 1.165543971946276e-01 1.137815011959880e-01 2.322964176531976e-03 3.142989917334716e-03 2.182342293209714e-03 1.260459241879081e-04 1.203192629899336e-04 8.091894349108443e-05 2.029323499090556e-01 1.880177985118252e-01 2.122524340415428e-01 3.199394269013389e-04 3.087722769498245e-04 4.047030807519732e-04 1.446996634534978e-04 1.701277893980103e-04 1.142157876850405e-04 1.699197811000026e-04 1.515082752545557e-04 1.128116502628947e-04 4.363645588266084e-02 5.409297624920809e-02 5.318832230374768e-02 8.632051506401529e-02 7.319978545422662e-02 7.185840573095946e-02 8.893997148741953e-04 1.255514169955721e-03 1.275871616743486e-03 7.199127187212758e-04 1.027137506913331e-03 8.315361613634356e-04 3.306221462677290e-03 4.280951034436253e-03 4.539070054786829e-03 5.472516377979979e-03 4.304074004775407e-03 4.040290658810207e-03 2.927394039514104e-02 2.642556987111987e-02 3.186240389459541e-02 2.432042349812396e-05 3.569352206796824e-05 4.157686283220075e-05 1.593046362019429e-03 1.300446186521113e-03 1.113107500403433e-03 8.296901276283621e-05 7.140854759331739e-05 4.393128720608033e-05 1.528862214903583e-02 1.570713149145353e-02 1.917942423608825e-02 4.922203310017929e-03 6.568402865747705e-03 6.220174304122288e-03 2.202011658875262e-02 2.528672222849914e-02 2.818172486943660e-02 2.629329483322520e-03 3.70