<?xml version="1.0"?>
<VTKFile type="UnstructuredGrid" version="0.1" byte_order="LittleEndian">
<UnstructuredGrid>
<Piece NumberOfPoints="3918" NumberOfCells="1306">
<Points>
<DataArray type="Float64" NumberOfComponents="3" format="ascii">
2.199999999999999e+00 1.000000000000000e+00 0.000000000000000e+00 2.167042760209688e+00 9.180909330202516e-01 0.000000000000000e+00 2.276253312368741e+00 8.960026502048396e-01 0.000000000000000e+00 4.794660531865603e+00 4.928781786967001e-01 0.000000000000000e+00 4.895148782943732e+00 5.622595023726160e-01 0.000000000000000e+00 4.773700345920383e+00 5.924187786805324e-01 0.000000000000000e+00 2.543072460766750e+00 7.257064952909391e-01 0.000000000000000e+00 2.612778635682587e+00 6.379739460669237e-01 0.000000000000000e+00 2.649888912334054e+00 7.569619856190068e-01 0.000000000000000e+00 1.948052693999185e+00 1.289873040940654e-01 0.000000000000000e+00 1.894432874635162e+00 7.551835003504323e-02 0.000000000000000e+00 1.999999999995511e+00 0.000000000000000e+00 0.000000000000000e+00 4.558741850192379e+00 1.706710584301058e-01 0.000000000000000e+00 4.482003026509532e+00 2.394413792785933e-01 0.000000000000000e+00 4.451469977250477e+00 1.357957442429618e-01 0.000000000000000e+00 3.299999999999999e+00 1.000000000000000e+00 0.000000000000000e+00 3.204890379983837e+00 9.254368576810614e-01 0.000000000000000e+00 3.273830491511281e+00 8.834576202305108e-01 0.000000000000000e+00 3.299999999999999e+00 1.000000000000000e+00 0.000000000000000e+00 3.273830491511281e+00 8.834576202305108e-01 0.000000000000000e+00 3.353422182013107e+00 9.028315595988372e-01 0.000000000000000e+00 4.111703902366866e+00 1.331175536465074e-01 0.000000000000000e+00 4.099999999998633e+00 0.000000000000000e+00 0.000000000000000e+00 4.182764237453481e+00 8.084782043728693e-02 0.000000000000000e+00 4.699999999999545e+00 0.000000000000000e+00 0.000000000000000e+00 4.776755050008729e+00 9.373387207737824e-02 0.000000000000000e+00 4.690158205531358e+00 1.364814217295172e-01 0.000000000000000e+00 1.948052693999185e+00 1.289873040940654e-01 0.000000000000000e+00 1.999999999995511e+00 0.000000000000000e+00 0.000000000000000e+00 2.049999999995552e+00 8.978335458097943e-02 0.000000000000000e+00 2.612778635682587e+00 6.379739460669237e-01 0.000000000000000e+00 2.680790723483929e+00 5.770944853520404e-01 0.000000000000000e+00 2.721274941296599e+00 6.860745476515622e-01 0.000000000000000e+00 2.217157304231143e+00 1.490340955835976e-01 0.000000000000000e+00 2.263108527926066e+00 7.883543312226374e-02 0.000000000000000e+00 2.320771471773918e+00 1.774611341310380e-01 0.000000000000000e+00 6.201761285132973e-01 8.145180217066926e-01 0.000000000000000e+00 5.107672864112288e-01 8.169186336319382e-01 0.000000000000000e+00 5.291217175395199e-01 7.399324289248853e-01 0.000000000000000e+00 2.764640797973617e+00 6.197673077442869e-01 0.000000000000000e+00 2.721274941296599e+00 6.860745476515622e-01 0.000000000000000e+00 2.680790723483929e+00 5.770944853520404e-01 0.000000000000000e+00 3.000000000000007e-01 1.000000000000000e+00 0.000000000000000e+00 2.235202862591317e-01 8.887389633270458e-01 0.000000000000000e+00 3.153592145619369e-01 8.815404533065442e-01 0.000000000000000e+00 2.299999999999999e+00 1.000000000000000e+00 0.000000000000000e+00 2.199999999999999e+00 1.000000000000000e+00 0.000000000000000e+00 2.276253312368741e+00 8.960026502048396e-01 0.000000000000000e+00 1.299999999999999e+00 1.000000000000000e+00 0.000000000000000e+00 1.246238897717278e+00 9.001620782265900e-01 0.000000000000000e+00 1.325594839248253e+00 8.832813258746552e-01 0.000000000000000e+00 1.299999999999999e+00 1.000000000000000e+00 0.000000000000000e+00 1.325594839248253e+00 8.832813258746552e-01 0.000000000000000e+00 1.386478687610004e+00 9.220875103295796e-01 0.000000000000000e+00 3.099999999999999e+00 1.000000000000000e+00 0.000000000000000e+00 3.138079516399413e+00 8.908467724822530e-01 0.000000000000000e+00 3.204890379983837e+00 9.254368576810614e-01 0.000000000000000e+00 1.599999999996661e+00 0.000000000000000e+00 0.000000000000000e+00 1.679983210048711e+00 8.220201556683318e-02 0.000000000000000e+00 1.609545399082946e+00 1.308291592921435e-01 0.000000000000000e+00 1.061007011519329e+00 5.618772874050625e-01 0.000000000000000e+00 1.160572984923127e+00 6.015530474704378e-01 0.000000000000000e+00 1.050000000000000e+00 6.706367924525535e-01 0.000000000000000e+00 6.215262983536076e-01 7.328515730233995e-01 0.000000000000000e+00 6.201761285132973e-01 8.145180217066926e-01 0.000000000000000e+00 5.291217175395199e-01 7.399324289248853e-01 0.000000000000000e+00 1.948052693999185e+00 1.289873040940654e-01 0.000000000000000e+00 2.049999999995552e+00 8.978335458097943e-02 0.000000000000000e+00 2.057936946544583e+00 1.849235821189668e-01 0.000000000000000e+00 2.091091774288676e+00 8.874649005201438e-01 0.000000000000000e+00 1.981107049933336e+00 8.600018538720656e-01 0.000000000000000e+00 2.085258760309228e+00 8.052686384966041e-01 0.000000000000000e+00 1.039491394416145e+00 8.340298301149526e-01 0.000000000000000e+00 9.354088824890808e-01 8.828123294523768e-01 0.000000000000000e+00 9.137231126914012e-01 8.048617635747636e-01 0.000000000000000e+00 1.981107049933336e+00 8.600018538720656e-01 0.000000000000000e+00 1.996885229669902e+00 7.683000423456376e-01 0.000000000000000e+00 2.085258760309228e+00 8.052686384966041e-01 0.000000000000000e+00 2.299999999999999e+00 1.000000000000000e+00 0.000000000000000e+00 2.276253312368741e+00 8.960026502048396e-01 0.000000000000000e+00 2.395017918255099e+00 9.023368606738377e-01 0.000000000000000e+00 4.399999999999088e+00 0.000000000000000e+00 0.000000000000000e+00 4.443360971034338e+00 6.001006090376452e-02 0.000000000000000e+00 4.340464407462508e+00 1.058022966868348e-01 0.000000000000000e+00 7.543413513517198e-01 1.288879963162577e-01 0.000000000000000e+00 6.466910199083232e-01 1.799054750174742e-01 0.000000000000000e+00 6.626722243468293e-01 7.849715957809261e-02 0.000000000000000e+00 9.999999999992801e-02 0.000000000000000e+00 0.000000000000000e+00 2.066914384950196e-01 8.554607894793897e-02 0.000000000000000e+00 8.279903559142687e-02 8.279903559151081e-02 0.000000000000000e+00 3.431815931955504e-01 3.314386771104964e-01 0.000000000000000e+00 2.371857680100064e-01 3.586554844111011e-01 0.000000000000000e+00 2.478307344467225e-01 2.478307344464838e-01 0.000000000000000e+00 1.039491394416145e+00 8.340298301149526e-01 0.000000000000000e+00 1.035017143854235e+00 9.257730596464975e-01 0.000000000000000e+00 9.354088824890808e-01 8.828123294523768e-01 0.000000000000000e+00 1.763223103020597e+00 6.969213383069597e-01 0.000000000000000e+00 1.659764170257915e+00 7.783869792876411e-01 0.000000000000000e+00 1.641237689750194e+00 6.703960699373966e-01 0.000000000000000e+00 2.171230381509611e+00 6.460806590265337e-01 0.000000000000000e+00 2.235035871331497e+00 5.528935828550036e-01 0.000000000000000e+00 2.240765570563543e+00 6.710361137189144e-01 0.000000000000000e+00 3.099999999999999e+00 1.000000000000000e+00 0.000000000000000e+00 3.204890379983837e+00 9.254368576810614e-01 0.000000000000000e+00 3.199999999999998e+00 1.000000000000000e+00 0.000000000000000e+00 4.689375887502736e+00 8.629982390821114e-01 0.000000000000000e+00 4.559658010798574e+00 8.268398885804081e-01 0.000000000000000e+00 4.659699064592896e+00 7.795622692497817e-01 0.000000000000000e+00 2.217157304231143e+00 1.490340955835976e-01 0.000000000000000e+00 2.320771471773918e+00 1.774611341310380e-01 0.000000000000000e+00 2.244951071131736e+00 2.260199244934647e-01 0.000000000000000e+00 3.859396958574677e-01 4.484332494195724e-01 0.000000000000000e+00 2.998774732159264e-01 4.343088009374657e-01 0.000000000000000e+00 3.431815931955504e-01 3.314386771104964e-01 0.000000000000000e+00 1.948052693999185e+00 1.289873040940654e-01 0.000000000000000e+00 2.057936946544583e+00 1.849235821189668e-01 0.000000000000000e+00 1.949071218763063e+00 2.055183505669977e-01 0.000000000000000e+00 4.558741850192379e+00 1.706710584301058e-01 0.000000000000000e+00 4.451469977250477e+00 1.357957442429618e-01 0.000000000000000e+00 4.536544111235556e+00 7.547590122663222e-02 0.000000000000000e+00 2.764640797973617e+00 6.197673077442869e-01 0.000000000000000e+00 2.748586785039362e+00 5.211021237021853e-01 0.000000000000000e+00 2.861122426073405e+00 5.967442355315300e-01 0.000000000000000e+00 9.849196667091529e-01 7.457027191416240e-01 0.000000000000000e+00 1.039491394416145e+00 8.340298301149526e-01 0.000000000000000e+00 9.137231126914012e-01 8.048617635747636e-01 0.000000000000000e+00 2.171230381509611e+00 6.460806590265337e-01 0.000000000000000e+00 2.122199951799849e+00 5.850416005702397e-01 0.000000000000000e+00 2.235035871331497e+00 5.528935828550036e-01 0.000000000000000e+00 1.948411343815324e+00 5.977864372950021e-01 0.000000000000000e+00 1.831604818415202e+00 5.415700660643472e-01 0.000000000000000e+00 1.949496869330408e+00 5.032480558805372e-01 0.000000000000000e+00 9.555466748202026e-01 6.138712331357172e-01 0.000000000000000e+00 9.543842823432471e-01 5.002189144552502e-01 0.000000000000000e+00 1.061007011519329e+00 5.618772874050625e-01 0.000000000000000e+00 3.211383243381871e+00 8.238513614296178e-01 0.000000000000000e+00 3.287305785442545e+00 7.342276537100590e-01 0.000000000000000e+00 3.314972634714863e+00 8.093336828947851e-01 0.000000000000000e+00 1.399999999999999e+00 1.000000000000000e+00 0.000000000000000e+00 1.463012078585596e+00 8.920964591701215e-01 0.000000000000000e+00 1.500000000000000e+00 1.000000000000000e+00 0.000000000000000e+00 3.699999999998025e+00 0.000000000000000e+00 0.000000000000000e+00 3.799999999998176e+00 0.000000000000000e+00 0.000000000000000e+00 3.736690596671465e+00 1.064195787014745e-01 0.000000000000000e+00 3.099999999997114e+00 0.000000000000000e+00 0.000000000000000e+00 3.199999999997265e+00 0.000000000000000e+00 0.000000000000000e+00 3.138143461708514e+00 1.082496513635721e-01 0.000000000000000e+00 3.287305785442545e+00 7.342276537100590e-01 0.000000000000
[...]
<PointData Scalars="A_conc," Vectors="" Tensors="">
<DataArray type="Float64" Name="A_conc" format="ascii">
4.756157846523348e-05 3.798515254993417e-05 7.221348141556316e-05 6.865789991798629e-02 9.021641066965974e-02 6.482127375262069e-02 1.172229297770290e-04 1.841325257765151e-04 2.224866521467928e-04 2.053989157280797e-05 1.519857944924851e-05 3.267841777316720e-05 4.291215140532144e-02 3.330676585233121e-02 2.980002695326214e-02 1.511515379209055e-03 9.030889418606324e-04 1.333307822457134e-03 1.371874077647619e-03 1.188063948000721e-03 1.766383436932758e-03 1.284069051565799e-02 1.235604267177397e-02 1.702009061064694e-02 5.571875539588432e-02 6.977536835109779e-02 5.393212181997568e-02 1.676524634265717e-05 2.932303590334431e-05 3.348912051996717e-05 1.454309539994927e-04 2.248684406736539e-04 2.774491766285824e-04 4.364605622659153e-05 5.898961737800079e-05 8.161404119620108e-05 3.761464021446305e-07 1.850736722770858e-07 2.153033292272866e-07 3.110463038201653e-04 2.490702582472232e-04 1.943108555753480e-04 4.673076786248013e-06 -1.846163703687421e-06 -2.212937717527695e-06 7.509283928566356e-05 4.010696546498988e-05 6.593274540865162e-05 7.762428195606174e-06 3.579657735842489e-07 6.928278458430821e-07 7.350573895019831e-06 1.765427849938287e-07 2.748903139792182e-06 6.825977329483770e-04 8.490829490514836e-04 1.170084542283851e-03 1.001414663820009e-05 9.512784709611075e-06 5.171966442656926e-06 1.124588841736544e-06 2.077641568138274e-06 1.034773225730666e-06 3.513948926811601e-07 3.490919120530126e-07 1.741271737726690e-07 1.617404666386789e-05 3.316557113087100e-05 3.486587149201289e-05 3.869588653700752e-05 1.808197593537162e-05 3.782630008285967e-05 1.479258878934867e-06 2.298576467482753e-07 9.525729171363620e-07 2.160255408835381e-05 2.415465795885882e-05 3.995034793419032e-05 6.298794520347098e-05 5.376915168320864e-05 1.051285150260181e-04 2.806393071552215e-02 3.234159669614704e-02 2.207724345832207e-02 7.467854546600258e-08 5.702744132560573e-07 -2.959566490526830e-07 3.325856153403479e-06 -4.473831992696677e-07 -6.384931124714432e-07 1.319546072165317e-07 6.281456097096323e-08 8.590577527618766e-08 1.520981779401205e-06 1.544429476100206e-07 2.546382589323323e-07 1.462645971370102e-05 7.993679342949463e-06 7.046838973704107e-06 3.888420375482099e-05 5.807437278167658e-05 6.079622619948095e-05 6.282101534200227e-04 1.130046126668790e-03 1.118670313640770e-03 5.743204451487036e-02 3.727432758212065e-02 5.273617597453402e-02 4.493792576864124e-05 8.188139596316429e-05 5.452208772302712e-05 1.528501789913507e-07 8.253688139302829e-08 1.164500632388460e-07 1.918318090171696e-05 3.685389582169817e-05 2.007774826287277e-05 4.223147769726149e-02 2.886965588084308e-02 3.955307491987146e-02 2.651809672277511e-04 2.355688629550040e-04 4.324816309655746e-04 9.831991116234599e-07 1.521546387751670e-06 6.246784581472394e-07 4.470881451671646e-05 3.167143218343459e-05 6.306599960073286e-05 2.469388116693291e-05 1.056664586568385e-05 2.479272220070824e-05 7.794793570215418e-07 7.634741800823158e-07 1.497777337468188e-06 9.114351927867134e-04 1.389445631352974e-03 1.582991294290519e-03 7.489387259636715e-06 1.390180190529256e-06 1.001756920470848e-05 4.039342341247421e-03 6.309818692040877e-03 4.667338037051401e-03 7.077907816964784e-04 1.176361473937372e-03 8.254662980434977e-04 1.492149013312980e-03 1.030258668034112e-03 9.166598971724142e-04 5.322094285143261e-02 7.674806973037286e-02 5.620783937380803e-02 3.072899949964129e-07 6.953070525402306e-07 2.733268654024332e-07 2.079390206151337e-04 3.606786182640459e-04 2.590013450092225e-04 5.807258721407334e-02 4.476870324046282e-02 3.839143755459971e-02 5.786243653371860e-02 5.609011239596034e-02 4.662547454124980e-02 6.655923465553826e-02 8.823460056824568e-02 8.856676429880003e-02 8.277457383593192e-07 1.947699738701686e-06 1.948145468886308e-06 1.374409325530155e-02 1.030043944957145e-02 1.326805722828685e-02 2.009613416082209e-02 2.458315422556538e-02 2.939674912944748e-02 2.886921848639957e-06 3.276928070730426e-06 -1.002084085301864e-06 3.003530039634322e-04 5.424142449542016e-04 5.288423798429115e-04 1.534939370306086e-02 9.958615113276018e-03 1.552892643735867e-02 3.037172190808617e-03 1.735442964279540e-03 3.109579558477639e-03 7.472320537285444e-06 1.407730939877119e-05 7.380421702079496e-06 6.273287392933812e-07 1.333497273904977e-06 1.406445291630913e-06 1.493203614409897e-03 1.474974657020540e-03 2.415991182370480e-03 5.288416337803646e-03 3.169034732953992e-03 5.294006606358026e-03 4.020564362828642e-06 7.361301545873562e-06 3.918570591198703e-06 5.171100564814572e-02 6.805004204009818e-02 7.585613306965122e-02 2.154414577584243e-02 1.786764787014028e-02 2.594594612066469e-02 2.906336319925727e-07 1.570510221094865e-07 1.366555717905141e-07 1.354541251743634e-04 5.981176057049179e-05 1.176383648618467e-04 4.425853514105019e-05 4.680897157343433e-05 2.477970505026071e-05 8.563500755358175e-06 2.556453831803317e-06 2.504567875434163e-06 4.264117042521771e-03 5.960714582568312e-03 6.576321466556998e-03 1.099292488043814e-03 1.214048419840212e-03 7.339168032105431e-04 4.339684194632977e-06 2.427818886766647e-06 2.531709869985786e-06 9.053020704733784e-04 1.576272893531308e-03 1.444282695291647e-03 5.220769227902969e-03 8.374029495425218e-03 7.741956273561493e-03 2.625328670910447e-07 2.730898519162064e-07 1.100649244239406e-07 5.311479912656907e-05 9.767149818931126e-05 1.013517772183942e-04 7.988716022753256e-04 1.459678946951654e-03 9.149495205865775e-04 1.392112963082119e-04 8.640575117008502e-05 6.788062036722168e-05 4.032378077527913e-04 4.127528146875845e-04 2.059151478770770e-04 4.182806294066643e-03 3.418095916102536e-03 2.539412599257202e-03 2.120251621582378e-06 4.254455745324055e-06 4.016448213460438e-06 9.547391062474017e-04 1.018019371862817e-03 1.537478954774464e-03 5.362941137145059e-03 5.695939689117475e-03 8.143094868391017e-03 1.301865208238672e-05 7.748290933020064e-06 5.987594730839630e-06 9.848306728869068e-06 5.295876753020034e-06 5.244222026427446e-06 4.114090306527411e-04 7.641679048712010e-04 7.255862428461424e-04 2.342232049653829e-03 4.368434629117868e-03 4.094576004243646e-03 1.277904422980447e-02 2.130354540836985e-02 2.018565882902334e-02 3.854290763722071e-03 2.223992183190659e-03 2.974409333119049e-03 1.214078458013245e-03 1.423645469972376e-03 7.318499538227711e-04 1.091162843536418e-05 6.140082169982559e-06 5.342434440998680e-06 3.860639302302669e-03 2.815919788015093e-03 2.259268930362426e-03 1.954523065102588e-02 1.453864710832192e-02 1.209587039989078e-02 1.372530152581891e-04 1.198857188097314e-04 2.013352760279457e-04 2.040783761756189e-02 2.941611773731473e-02 2.355629498652654e-02 4.521195027732930e-05 4.150404918183492e-05 2.255692962068336e-05 5.310276766756487e-06 1.005339864001787e-05 8.179786761608869e-06 8.802089625445962e-06 1.192497858044949e-05 6.851428962472639e-06 2.832575127857653e-03 3.687061836705412e-03 2.387413362386802e-03 2.309374257285146e-06 4.571187944557264e-06 3.872008162494041e-06 7.871477165659401e-03 5.156736673315759e-03 5.493207709749414e-03 3.698560272298864e-07 9.905601356531884e-07 -3.900957157652736e-08 2.137966375309230e-02 3.198619978589104e-02 3.262748949548875e-02 4.275814264460331e-06 2.316958563345137e-06 2.792434266546406e-06 8.210909151490768e-03 7.459742394889356e-03 5.011639558211107e-03 2.137110452847306e-07 2.024610383332206e-07 4.004150175850543e-07 5.770080780430437e-08 1.401517153440793e-07 -2.070852202952185e-08 7.047053040696321e-08 -1.782452542356958e-08 1.385518894137408e-07 1.369347816297386e-05 1.307809356927423e-05 6.604547103049709e-06 3.762320868750058e-07 3.397658171961504e-09 2.027013293641026e-07 1.942490243248996e-02 1.178849730899135e-02 1.612921736002587e-02 4.021576934288677e-06 -2.152217832733212e-06 -8.497556494956994e-08 1.346932531845684e-07 9.653859356051447e-08 1.735960521612913e-07 3.862680899672355e-06 2.067512363316896e-06 2.291418057407487e-06 2.324225941404298e-02 2.643723320034614e-02 3.294524474184402e-02 3.482940939692528e-06 1.834484115635670e-06 4.158579205040372e-06 1.237428646372928e-05 2.566992437911321e-05 1.511194462164143e-05 1.077496851540434e-04 9.243465675297074e-05 1.449534881688269e-04 -4.918585491439946e-07 3.650596379209665e-07 4.176461260603325e-07 2.474631890574018e-02 2.055326341603211e-02 2.789621968411549e-02 8.524367748347178e-07 6.288290333363592e-07 4.093908027470232e-07 1.938362495761659e-04 1.537498764278088e-04 2.813436008785390e-04 9.567563146085068e-07 1.312622860663881e-06 5.869488899271128e-07 1.739927143326956e-02 1.433029336636511e-02 2.232755037358990e-02 1.251251820482558e-02 8.642818767505724e-03 7.857616876408289e-03 1.140593428187458e-03 7.681085259512363e-04 1.291984672923286e-03 3.611791432904443e-06 1.807054815525657e-06 3.099701727852045e-06 6.299524932431383e-03 9.278655245476429e-03 6.985245037965528e-03 7.352463471657978e-03 1.151137983687263e-02 1.211693539201978e-02 2.217390359376157e-03 2.353354880874106e-03 1.322040450542978e-03 3.514484384741159e-07 3.788050465712223e-07 1.671448172004125e-07 4.647669832195386e-06 -2.398404132828130e-06 -1.029884365713288e-06 8.958096348570153e-02 7.806801736992133e-02 6.364034643698541e-02 4.391467631936088e-03 5.552718245657090e-03 3.249569286306177e-03 2.322075947148627e-03 1.461579986686371e-03 1.798870321565081e-03 8.539647776258457e-07 4.227351211366009e-07 5.892929216368560e-07 3.025721451187945e-02 2.016024666927283e-02 2.433965755075601e-02 1.272476515315464e-05 5.506365391756288e-06 9.232113981328530e-06 1.147250464844205e-05 9.893820583312514e-06 1.928500036011802e-05 7.061989169089411e-04 4.568367262859307e-04 4.621890499744799e-04 5.259664228306280e-04 5.207664765157034e-04 3.401903482603661e-04 4.413592426589127e-03 6.087502255415801e-03 7.148341041268928e-03 5.216007456167046e-06 3.531504318982022e-06 2.693669160614836e-06 1.780047132750511e-03 1.065241408135717e-03 1.303580905742390e-03 5.617238835675368e-03 7.535452392294343e-03 6.708225648260019e-03 4.038447984497598e-06 2.637333791791466e-06 3.226767767731544e-06 1.426876809359812e-03 1.193915134032422e-03 1.028447226533738e-03 1.323064100579146e-03 2.249161485268806e-03 2.318162020799620e-03 5.515007656627803e-03 3.488168914966770e-03 3.545600712704919e-03 3.240524546415662e-06 6.907057657354229e-06 6.844085537943331e-06 5.220135888273162e-04 5.016108521793382e-04 2.857831517858513e-04 1.343453779580908e-06 9.439612950015859e-07 5.915812339033639e-07 1.428634527978850e-02 1.781698668834735e-02 2.223655749556626e-02 1.220131909125108e-05 2.391797454039180e-05 2.476747781975215e-05 5.710733645210291e-04 3.415939549614023e-04 3.349203899766392e-04 7.408995928748851e-06 -1.071879065791984e-06 6.300598272888682e-06 1.060513811657306e-02 6.901547096217779e-03 8.508054292982717e-03 7.334298237485777e-05 1.058974069739999e-04 1.207159812284837e-04 8.580021802634567e-05 1.780566822093605e-04 1.497155784842197e-04 4.717991694358416e-05 2.580085753808555e-05 2.799590265280067e-05 1.697249501855615e-07 2.356268923898351e-07 -8.489444672460370e-08 -5.083868805267187e-08 2.244301566001224e-07 1.586498429853514e-07 1.240043784068264e-05 2.072522595973916e-05 2.846180763944502e-05 1.148812026912108e-05 2.817907062263271e-05 2.370598349253734e-05 5.835146501207113e-04 3.305139526381514e-04 3.464936658302722e-04 3.377282623528954e-07 1.049980533102634e-06 8.332267891071984e-08 1.160517629828288e-07 7.253548694093102e-08 1.438007480803889e-07 5.599463520633808e-04 3.023150538435137e-04 5.221617688785189e-04 3.415961384651216e-04 3.773317680948160e-04 5.494887322150979e-04 3.601128929778410e-07 5.161525521388534e-07 7.227810780968482e-07 3.201647429362142e-03 1.891205366796793e-03 2.147572739230573e-03 1.590944865277191e-02 1.023537217222114e-02 1.140374279720049e-02 9.108919693385896e-05 1.289798885206308e-04 1.809084369420189e-04 4.782707759528336e-05 7.406610022443955e-05 4.848904200996555e-05 1.525628850620450e-06 1.453418811652778e-06 2.984151236547921e-06 3.039700553819474e-03 1.948577462533783e-03 3.041115242399149e-03 1.527145929615416e-02 1.064936249051334e-02 1.545539261786871e-02 3.634717975131203e-02 4.876069525397005e-02 3.721836404713259e-02 1.126693068195475e-05 1.853365790587358e-05 1.720974123374705e-05 5.566182251486170e-05 5.629916135287696e-05 3.237116059209821e-05 7.862416651173738e-07 1.252393077516893e-06 1.525303746844128e-06 7.829082796208097e-07 1.541615649587236e-06 1.348727457465711e-06 1.490633348789481e-05 1.628049937340107e-05 2.303368558418312e-05 2.183746020066781e-04 1.993523281246684e-04 1.221113159039512e-04 6.102610349961523e-08 1.345034014370138e-07 1.024821092785888e-07 5.814727183428812e-05 4.061586856048745e-05 3.794304027931302e-05 9.167660491134435e-08 5.975186381171557e-09 9.640287559738158e-08 8.093855731771893e-06 3.109798616942771e-06 2.827842549448076e-06 -7.003214888597137e-07 6.709286521631222e-07 5.904381067348353e-07 7.846278607434376e-07 1.097130877100524e-06 1.928543530163273e-07 2.842107272558545e-07 1.566397936968526e-07 1.794251605442096e-07 4.837178780613184e-07 2.904313417298578e-06 1.537837330265299e-06 1.701257206406303e-07 9.674818196492773e-07 5.718179874306429e-07 6.683703122239813e-05 9.907704257311402e-05 5.264553815197357e-05 4.773070285544028e-05 9.642754408032877e-05 8.646430625100907e-05 -1.481574341783305e-08 1.909003137285116e-07 2.460058004551167e-08 6.138580651840203e-06 1.333186558902929e-05 1.254170590447627e-05 1.096825105560504e-01 1.096825105560503e-01 8.301372101924856e-02 1.783974992728044e-05 1.983129767235292e-05 3.363555276853551e-05 3.238413703363831e-03 1.927678125118872e-03 2.070576379044003e-03 1.606115385749197e-02 1.065576477320455e-02 1.098977440595310e-02 8.651305361490474e-06 1.622992170249678e-05 1.874678243977698e-05 9.265943548099551e-06 4.647239411451958e-06 8.929976861809329e-06 2.010381567850465e-05 3.289521657354916e-05 1.528278177950482e-05 3.852706053246028e-02 4.947971452805162e-02 5.026098451639095e-02 6.341073215757359e-07 1.413559425412377e-06 1.328641719143711e-06 2.285137116394967e-04 1.374122590064531e-04 1.283918492040278e-04 2.439573681255735e-03 1.667790818243453e-03 1.428473840562240e-03 6.754364843992330e-05 3.214983512666239e-05 5.230293938289654e-05 5.524499093480111e-06 -3.021689435172944e-06 -7.976727072953581e-08 2.381334147360896e-05 1.283945020006684e-05 2.445332423790898e-05 -4.410563236776019e-07 1.612109966598333e-07 3.997900997269842e-07 2.614485558674181e-05 1.545124923153392e-05 1.279437912134064e-05 3.136421851305020e-07 1.318377303149307e-07 -4.454799154454333e-07 1.202242638044393e-03 9.061801941549258e-04 8.397393976204777e-04 6.555663276923052e-04 9.331290548217891e-04 9.976557665421449e-04 3.526652450796389e-02 2.522651082827833e-02 3.181230018056597e-02 1.897172353239516e-07 1.283324455248003e-07 2.116793201785013e-07 2.455199347788787e-05 4.292034417724763e-05 2.698923806679873e-05 3.131666925051926e-05 4.220911243790325e-05 2.331259088612147e-05 1.111347426716437e-01 8.545722691394990e-02 8.511961288879623e-02 8.692183702997859e-08 1.199035800440339e-06 4.971995878675262e-07 2.901227940282840e-05 2.722550179980401e-05 4.742855976227677e-05 4.019887247804840e-04 3.003923514072778e-04 2.316337397408144e-04 2.586327192419412e-07 1.461054968595333e-07 2.969519626098993e-07 2.072496311842756e-07 2.475999526958100e-07 3.897042316285378e-07 8.873098928508616e-07 3.128514908832696e-07 5.426747515391349e-07 -5.013950504729844e-07 6.181858483467219e-07 -1.167907978737383e-07 2.857746491637346e-05 1.346978984315142e-05 2.003981541069734e-05 1.656317555884114e-03 2.122353449139290e-03 2.709319431000077e-03 2.969745680080035e-03 3.674925077593898e-03 4.732938243051210e-03 5.185177062306562e-03 3.981755249830854e-03 5.854261603118161e-03 1.955955581577040e-03 1.627563612778318e-03 1.334405928237020e-03 7.818237455130549e-08 3.338553238820583e-08 4.018616554015668e-07 3.691020202415646e-04 4.307261815013485e-04 2.632885455453460e-04 4.490168757662042e-03 7.154319665992021e-03 5.769241646960517e-03 5.214228019929349e-06 2.648654412683846e-06 3.626148848118859e-06 1.781609060732795e-03 1.324637020462014e-03 1.054699169161397e-03 9.345520205328247e-06 9.199250802856427e-06 4.302265174126033e-06 4.568211828855082e-04 4.701514571518914e-04 7.749246891926825e-04 2.710964089973990e-03 2.639087563219721e-03 4.327484322574386e-03 1.415081736491322e-02 1.383777192164484e-02 2.104741661173811e-02 3.908113787730460e-04 2.433437884556739e-04 4.062148918939585e-04 7.059333266811532e-06 6.274878030167508e-06 -2.104692689899374e-06 3.298330397860560e-04 3.965584560723418e-04 2.235001888481638e-04 4.663730023004554e-06 9.311991035683118e-06 9.224493958096206e-06 1.051000339569299e-06 2.018340149341832e-06 1.128164390745864e-06 7.640405734916998e-04 4.482101171231782e-04 4.623591626238392e-04 4.178649864483284e-03 2.654710034630680e-03 2.729972079964328e-03 1.396634879251342e-02 1.415127327161075e-02 2.046702744835683e-02 1.764778660002473e-02 1.643878404324554e-02 1.161856234410094e-02 8.941827555114704e-07 -5.700341422345330e-07 -2.457065586513096e-07 7.715401354741716e-05 5.363820977512169e-05 5.082315619318373e-05 9.529499942459911e-06 2.006669186764079e-06 7.045827064064824e-06 3.525383260592505e-04 2.009227796632058e-04 2.697718653759537e-04 1.516544920062945e-05 1.005514753222287e-05 9.773776866351911e-06 6.344390535886068e-05 5.355041035695434e-05 3.554708841329584e-05 4.747110855231156e-03 3.636899348063593e-03 3.123992681526343e-03 2.457345157131183e-03 3.485220645423136e-03 3.983412041483439e-03 2.058569012703453e-07 8.518481661011581e-08 1.614873775692666e-07 1.478945185716842e-05 7.542997822833128e-06 9.609833184721836e-06 2.803892630511224e-05 2.364892092886912e-05 1.244266750324241e-05 -6.037598201940247e-07 8.547155984342140e-07 -2.509557782401901e-07 3.127960938546522e-05 4.195862478151298e-05 5.920565274095866e-05 2.345644689931818e-04 4.132326480869374e-04 3.727721827295521e-04 2.937991238150132e-06 4.646590891142646e-06 5.556144768272566e-06 3.183485800296455e-06 2.646617999440426e-06 4.033256518923960e-06 6.846215614174401e-03 7.518787928636998e-03 5.587756946642501e-03 1.029097826834992e-03 1.185836709564560e-03 1.425532693405829e-03 2.439569064761515e-04 2.929807313886305e-04 1.649700588630747e-04 2.365494861376651e-05 1.389370873202376e-05 1.543998674742659e-05 2.183920143162919e-04 1.131496524035093e-04 1.812951590346915e-04 8.318145639941611e-07 -2.526222643642149e-07 -5.791922996299460e-07 7.466220254946670e-08 8.205139911279922e-08 1.284144816922356e-07 6.674222490357755e-08 1.425525287672222e-07 1.146210892477031e-07 2.516877410003087e-06 2.841909422996038e-06 1.198796645812699e-06 5.848083475164058e-03 9.508137556244958e-03 8.970738856312012e-03 1.487025531500743e-05 2.624672754692948e-05 1.302293551348184e-05 5.790596478102901e-06 -1.764683713549816e-06 -2.896230920537939e-06 2.884615699236874e-02 2.277762356413473e-02 3.278205006461771e-02 9.316509174718597e-07 8.506835638312057e-07 1.380660166185243e-06 4.113380679121261e-07 3.943085634030760e-07 1.695371562513763e-07 4.214473999425960e-07 3.501785694941800e-07 1.974844345646558e-07 1.341663170336476e-03 2.311441735822548e-03 2.233712849498491e-03 5.494583318097101e-03 3.666862882239765e-03 3.478134541422592e-03 3.330500358577427e-06 6.728006928887456e-06 6.922591198301786e-06 2.652566828637086e-06 5.178056874187296e-06 3.553692058893646e-06 2.272448126475206e-05 3.972489547933035e-05 4.418414660989807e-05 5.946037670260289e-05 3.735154132551142e-05 3.268122348530633e-05 7.802604170700076e-04 6.117494546273433e-04 9.418093389829079e-04 2.440392348422353e-08 5.071900491450106e-08 6.445998292809454e-08 9.709983200876634e-06 6.710537166756636e-06 4.866710669239739e-06 4.171068241132130e-06 -7.430548132455858e-07 -2.143519357918735e-06 2.555947483355744e-04 2.726351450376923e-04 4.146684992422688e-04 4.160291233884819e-05 7.710969720012983e-05 6.929749216841152e-05 4.410675083582603e-04 6.128414815728038e-04 7.7449243166