<?xml version="1.0"?>
<VTKFile type="UnstructuredGrid" version="0.1" byte_order="LittleEndian">
<UnstructuredGrid>
<Piece NumberOfPoints="714" NumberOfCells="1306">
<Points>
<DataArray type="Float64" NumberOfComponents="3" format="ascii">
0.000000000000000e+00 0.000000000000000e+00 0.000000000000000e+00 5.000000000000000e+00 0.000000000000000e+00 0.000000000000000e+00 5.000000000000000e+00 1.000000000000000e+00 0.000000000000000e+00 0.000000000000000e+00 1.000000000000000e+00 0.000000000000000e+00 9.999999999992801e-02 0.000000000000000e+00 0.000000000000000e+00 1.999999999998339e-01 0.000000000000000e+00 0.000000000000000e+00 2.999999999997341e-01 0.000000000000000e+00 0.000000000000000e+00 3.999999999996643e-01 0.000000000000000e+00 0.000000000000000e+00 4.999999999995944e-01 0.000000000000000e+00 0.000000000000000e+00 5.999999999995166e-01 0.000000000000000e+00 0.000000000000000e+00 6.999999999992880e-01 0.000000000000000e+00 0.000000000000000e+00 7.999999999989961e-01 0.000000000000000e+00 0.000000000000000e+00 8.999999999987042e-01 0.000000000000000e+00 0.000000000000000e+00 9.999999999984124e-01 0.000000000000000e+00 0.000000000000000e+00 1.099999999998120e+00 0.000000000000000e+00 0.000000000000000e+00 1.199999999997829e+00 0.000000000000000e+00 0.000000000000000e+00 1.299999999997537e+00 0.000000000000000e+00 0.000000000000000e+00 1.399999999997245e+00 0.000000000000000e+00 0.000000000000000e+00 1.499999999996953e+00 0.000000000000000e+00 0.000000000000000e+00 1.599999999996661e+00 0.000000000000000e+00 0.000000000000000e+00 1.699999999996369e+00 0.000000000000000e+00 0.000000000000000e+00 1.799999999996077e+00 0.000000000000000e+00 0.000000000000000e+00 1.899999999995785e+00 0.000000000000000e+00 0.000000000000000e+00 1.999999999995511e+00 0.000000000000000e+00 0.000000000000000e+00 2.099999999995593e+00 0.000000000000000e+00 0.000000000000000e+00 2.199999999995745e+00 0.000000000000000e+00 0.000000000000000e+00 2.299999999995897e+00 0.000000000000000e+00 0.000000000000000e+00 2.399999999996049e+00 0.000000000000000e+00 0.000000000000000e+00 2.499999999996201e+00 0.000000000000000e+00 0.000000000000000e+00 2.599999999996353e+00 0.000000000000000e+00 0.000000000000000e+00 2.699999999996505e+00 0.000000000000000e+00 0.000000000000000e+00 2.799999999996657e+00 0.000000000000000e+00 0.000000000000000e+00 2.899999999996809e+00 0.000000000000000e+00 0.000000000000000e+00 2.999999999996961e+00 0.000000000000000e+00 0.000000000000000e+00 3.099999999997114e+00 0.000000000000000e+00 0.000000000000000e+00 3.199999999997265e+00 0.000000000000000e+00 0.000000000000000e+00 3.299999999997417e+00 0.000000000000000e+00 0.000000000000000e+00 3.399999999997569e+00 0.000000000000000e+00 0.000000000000000e+00 3.499999999997721e+00 0.000000000000000e+00 0.000000000000000e+00 3.599999999997873e+00 0.000000000000000e+00 0.000000000000000e+00 3.699999999998025e+00 0.000000000000000e+00 0.000000000000000e+00 3.799999999998176e+00 0.000000000000000e+00 0.000000000000000e+00 3.899999999998329e+00 0.000000000000000e+00 0.000000000000000e+00 3.999999999998481e+00 0.000000000000000e+00 0.000000000000000e+00 4.099999999998633e+00 0.000000000000000e+00 0.000000000000000e+00 4.199999999998784e+00 0.000000000000000e+00 0.000000000000000e+00 4.299999999998937e+00 0.000000000000000e+00 0.000000000000000e+00 4.399999999999088e+00 0.000000000000000e+00 0.000000000000000e+00 4.499999999999240e+00 0.000000000000000e+00 0.000000000000000e+00 4.599999999999393e+00 0.000000000000000e+00 0.000000000000000e+00 4.699999999999545e+00 0.000000000000000e+00 0.000000000000000e+00 4.799999999999696e+00 0.000000000000000e+00 0.000000000000000e+00 4.899999999999848e+00 0.000000000000000e+00 0.000000000000000e+00 5.000000000000000e+00 9.999999999981467e-02 0.000000000000000e+00 5.000000000000000e+00 1.999999999995579e-01 0.000000000000000e+00 5.000000000000000e+00 2.999999999992664e-01 0.000000000000000e+00 5.000000000000000e+00 3.999999999989749e-01 0.000000000000000e+00 5.000000000000000e+00 4.999999999986943e-01 0.000000000000000e+00 5.000000000000000e+00 5.999999999989468e-01 0.000000000000000e+00 5.000000000000000e+00 6.999999999992100e-01 0.000000000000000e+00 5.000000000000000e+00 7.999999999994734e-01 0.000000000000000e+00 5.000000000000000e+00 8.999999999997368e-01 0.000000000000000e+00 4.899999999999999e+00 1.000000000000000e+00 0.000000000000000e+00 4.800000000000000e+00 1.000000000000000e+00 0.000000000000000e+00 4.699999999999999e+00 1.000000000000000e+00 0.000000000000000e+00 4.600000000000000e+00 1.000000000000000e+00 0.000000000000000e+00 4.499999999999999e+00 1.000000000000000e+00 0.000000000000000e+00 4.399999999999999e+00 1.000000000000000e+00 0.000000000000000e+00 4.299999999999999e+00 1.000000000000000e+00 0.000000000000000e+00 4.199999999999998e+00 1.000000000000000e+00 0.000000000000000e+00 4.099999999999999e+00 1.000000000000000e+00 0.000000000000000e+00 3.999999999999999e+00 1.000000000000000e+00 0.000000000000000e+00 3.899999999999999e+00 1.000000000000000e+00 0.000000000000000e+00 3.799999999999999e+00 1.000000000000000e+00 0.000000000000000e+00 3.699999999999998e+00 1.000000000000000e+00 0.000000000000000e+00 3.599999999999999e+00 1.000000000000000e+00 0.000000000000000e+00 3.499999999999999e+00 1.000000000000000e+00 0.000000000000000e+00 3.399999999999999e+00 1.000000000000000e+00 0.000000000000000e+00 3.299999999999999e+00 1.000000000000000e+00 0.000000000000000e+00 3.199999999999998e+00 1.000000000000000e+00 0.000000000000000e+00 3.099999999999999e+00 1.000000000000000e+00 0.000000000000000e+00 2.999999999999999e+00 1.000000000000000e+00 0.000000000000000e+00 2.899999999999999e+00 1.000000000000000e+00 0.000000000000000e+00 2.799999999999999e+00 1.000000000000000e+00 0.000000000000000e+00 2.699999999999999e+00 1.000000000000000e+00 0.000000000000000e+00 2.599999999999999e+00 1.000000000000000e+00 0.000000000000000e+00 2.500000000000000e+00 1.000000000000000e+00 0.000000000000000e+00 2.399999999999999e+00 1.000000000000000e+00 0.000000000000000e+00 2.299999999999999e+00 1.000000000000000e+00 0.000000000000000e+00 2.199999999999999e+00 1.000000000000000e+00 0.000000000000000e+00 2.100000000000000e+00 1.000000000000000e+00 0.000000000000000e+00 2.000000000000000e+00 1.000000000000000e+00 0.000000000000000e+00 1.899999999999999e+00 1.000000000000000e+00 0.000000000000000e+00 1.799999999999999e+00 1.000000000000000e+00 0.000000000000000e+00 1.699999999999999e+00 1.000000000000000e+00 0.000000000000000e+00 1.599999999999999e+00 1.000000000000000e+00 0.000000000000000e+00 1.500000000000000e+00 1.000000000000000e+00 0.000000000000000e+00 1.399999999999999e+00 1.000000000000000e+00 0.000000000000000e+00 1.299999999999999e+00 1.000000000000000e+00 0.000000000000000e+00 1.199999999999999e+00 1.000000000000000e+00 0.000000000000000e+00 1.100000000000000e+00 1.000000000000000e+00 0.000000000000000e+00 9.999999999999991e-01 1.000000000000000e+00 0.000000000000000e+00 8.999999999999995e-01 1.000000000000000e+00 0.000000000000000e+00 7.999999999999998e-01 1.000000000000000e+00 0.000000000000000e+00 7.000000000000002e-01 1.000000000000000e+00 0.000000000000000e+00 5.999999999999996e-01 1.000000000000000e+00 0.000000000000000e+00 4.999999999999991e-01 1.000000000000000e+00 0.000000000000000e+00 3.999999999999995e-01 1.000000000000000e+00 0.000000000000000e+00 3.000000000000007e-01 1.000000000000000e+00 0.000000000000000e+00 1.999999999999993e-01 1.000000000000000e+00 0.000000000000000e+00 9.999999999999964e-02 1.000000000000000e+00 0.000000000000000e+00 0.000000000000000e+00 8.999999999995836e-01 0.000000000000000e+00 0.000000000000000e+00 7.999999999999998e-01 0.000000000000000e+00 0.000000000000000e+00 7.000000000006934e-01 0.000000000000000e+00 0.000000000000000e+00 6.000000000013869e-01 0.000000000000000e+00 0.000000000000000e+00 5.000000000020587e-01 0.000000000000000e+00 0.000000000000000e+00 4.000000000016644e-01 0.000000000000000e+00 0.000000000000000e+00 3.000000000012483e-01 0.000000000000000e+00 0.000000000000000e+00 2.000000000008322e-01 0.000000000000000e+00 0.000000000000000e+00 1.000000000004160e-01 0.000000000000000e+00 7.477570327540725e-01 4.905967956478702e-01 0.000000000000000e+00 1.346210646643281e+00 4.806066422083806e-01 0.000000000000000e+00 1.949496869330408e+00 5.032480558805372e-01 0.000000000000000e+00 4.449999999999997e+00 5.000000000000384e-01 0.000000000000000e+00 3.859142349610828e+00 5.103468031113156e-01 0.000000000000000e+00 3.246530027037640e+00 5.183101712757180e-01 0.000000000000000e+00 2.657531292711257e+00 5.037429884868682e-01 0.000000000000000e+00 3.824015840967434e-01 6.064457502813875e-01 0.000000000000000e+00 2.306343155343502e+00 6.315316747431162e-01 0.000000000000000e+00 1.049999999998266e+00 3.374999999994497e-01 0.000000000000000e+00 1.641930697057102e+00 3.436055112169133e-01 0.000000000000000e+00 4.150000000000006e+00 6.625000000000185e-01 0.000000000000000e+00 3.552784161359181e+00 6.642488388863971e-01 0.000000000000000e+00 2.940292465243163e+00 6.575992780735344e-01 0.000000000000000e+00 1.641237689750194e+00 6.703960699373966e-01 0.000000000000000e+00 1.050000000000000e+00 6.706367924525535e-01 0.000000000000000e+00 2.960517759676693e+00 3.261740577967960e-01 0.000000000000000e+00 3.551899302943298e+00 3.210887133285832e-01 0.000000000000000e+00 4.150779393876139e+00 3.209867287821391e-01 0.000000000000000e+00 2.213980362532827e+00 3.194901812685164e-01 0.000000000000000e+00 4.927283029162088e-01 3.252862896001115e-01 0.000000000000000e+00 4.696684455724628e+00 3.145438084075651e-01 0.000000000000000e+00 4.690990908683984e+00 6.962960281446974e-01 0.000000000000000e+00 2.487221901830106e+00 2.763334294511438e-01 0.000000000000000e+00 6.215262983536076e-01 7.328515730233995e-01 0.000000000000000e+00 2.065768881873406e+00 7.342557316219342e-01 0.000000000000000e+00 2.543072460766750e+00 7.257064952909391e-01 0.000000000000000e+00 8.105176211436336e-01 2.535517621144286e-01 0.0000000000000
[...]
<CellData Scalars="A_conc,As-lin_conc,Bs-lang_conc,Cs-freund_conc," Vectors="" Tensors="">
<DataArray type="Float64" Name="A_conc" format="ascii">
6.518632216548145e-31 3.204010324543501e-01 0.000000000000000e+00 4.148028883771384e-70 1.989069936281260e-02 9.745620029183820e-307 5.966664266207681e-302 1.372064387736398e-225 2.984224566934772e-01 5.388282330645621e-29 0.000000000000000e+00 1.129403840964878e-196 1.053103313001051e-221 0.000000000000000e+00 7.395512503684738e-73 1.153062584513789e-13 3.299452445591347e-67 7.844657113718167e-28 9.782499787656682e-322 2.810299572194482e-29 1.823911065265331e-256 4.702346037241463e-234 1.279574676083741e-188 2.486176889533142e-211 6.367123841348369e-287 1.621394353145705e-214 9.044928727675711e-32 1.949470060733412e-14 2.608162625772152e-273 8.545295878409294e-33 5.256976048887069e-231 1.659570865766397e-176 1.596863130711005e-228 0.000000000000000e+00 1.008118717385001e-316 2.701216883895285e-01 2.141329915640547e-319 1.092920023448557e-253 3.830969379926446e-306 1.067011350935124e-01 0.000000000000000e+00 3.871965998361563e-227 0.000000000000000e+00 1.365863823792473e-293 1.451626748508955e-264 1.468114722878172e-310 1.007922548425937e-12 7.974206334992180e-265 0.000000000000000e+00 1.575590710029321e-315 2.958255556689947e-01 1.861931042286041e-217 1.014998498858910e-14 2.426148735125086e-01 2.896191466264681e-01 3.374883509784435e-01 1.922003856895809e-252 1.755701631872245e-229 4.845611009360885e-40 2.637512933590914e-14 0.000000000000000e+00 6.386270229676355e-230 2.316426884692070e-283 6.425375501256073e-268 1.338204320779645e-267 3.294107150566599e-298 1.488158955988172e-265 3.218735900216790e-239 3.122900041432654e-01 9.890019501287292e-112 9.014700477097777e-255 0.000000000000000e+00 9.555493267018018e-215 4.591806447280913e-28 2.316245747090904e-260 1.264017548320245e-319 1.278795173392443e-223 5.550018473353755e-312 3.866805006903430e-253 1.181623936236719e-252 7.028408637252189e-14 4.531219317047366e-317 1.211884804191818e-226 0.000000000000000e+00 2.709193685024561e-277 1.889078048132983e-220 1.514969052910858e-316 1.955114402771423e-257 6.881205847974113e-215 1.026112287061197e-239 0.000000000000000e+00 8.828522017291581e-274 6.370985836853003e-218 1.935128584233842e-282 1.590208943342700e-312 1.256968273908359e-70 1.213269634051887e-282 3.315991022394906e-226 0.000000000000000e+00 5.120774703087354e-40 5.977842702599403e-280 1.360357620319647e-211 4.021966953192496e-276 8.482715479287541e-282 2.954265919618220e-224 1.986901762620539e-255 5.837498929521039e-67 6.266648698755657e-09 1.238346554831812e-227 1.418200560704643e-248 8.207549322794624e-249 1.809768907453505e-212 3.947910584469274e-215 7.407781388194200e-225 4.641941338359190e-217 5.783884393947236e-222 4.210038041905499e-73 5.930020036430420e-250 4.397504555811443e-263 4.112691972905607e-11 3.773724247465869e-259 2.467114587856597e-284 1.149361938764100e-247 4.068604225087680e-298 3.292299625430674e-30 3.611094949679936e-250 0.000000000000000e+00 8.639960626617027e-218 1.551006188297674e-212 4.384097097201077e-238 3.370538562948693e-317 1.529296762845394e-243 1.710351700836721e-247 1.025634439402623e-233 7.026773165391637e-293 2.100749069904060e-269 5.182535655881653e-30 3.303036775648495e-01 2.793201684774048e-264 2.425015745404395e-296 5.411503040949658e-246 2.470412224753606e-66 8.505537459856717e-212 1.028451325314622e-295 0.000000000000000e+00 0.000000000000000e+00 1.952338545147714e-261 2.017609590922775e-232 4.258537638040040e-308 6.469810458771483e-257 9.450578633873085e-236 1.090974374626808e-312 3.804628672831152e-293 9.710987361502553e-270 1.810601187163901e-279 0.000000000000000e+00 7.006090539118430e-235 2.075016815092800e-216 1.940877945860906e-211 0.000000000000000e+00 1.264346019318495e-12 9.326928690437049e-239 4.510415465752639e-252 0.000000000000000e+00 2.371733040023012e-279 4.219822847916540e-298 1.337946700485378e-211 2.488698876007231e-244 1.685144376884508e-244 0.000000000000000e+00 1.102801710302284e-211 2.378618524452217e-227 0.000000000000000e+00 0.000000000000000e+00 4.242436696406368e-254 7.495154475169907e-288 7.525615135132016e-233 0.000000000000000e+00 1.649243659168372e-260 1.179311688977517e-255 4.170689879176419e-283 5.692921843521072e-229 1.955999975386453e-01 3.286419183161993e-248 5.190344824180976e-265 6.611936197693673e-228 8.994484499219996e-224 5.566995747170279e-244 0.000000000000000e+00 1.566416083934888e-257 1.594738943502110e-211 1.527738680986369e-227 1.009582083574798e-28 2.288912195667985e-177 2.758605601947145e-214 2.027078352673554e-253 9.265917195532376e-212 1.920323440833600e-214 0.000000000000000e+00 0.000000000000000e+00 3.522575835659534e-214 5.220887194974524e-263 3.624401009166279e-01 2.250593224236004e-235 4.909865220152016e-288 7.845147114633405e-230 1.259397113937379e-291 7.612569113822842e-228 1.198960324873925e-12 2.660512568251847e-01 2.579328240601165e-260 0.000000000000000e+00 1.094329587759257e-297 3.251813199023617e-31 5.610324126070602e-70 6.704685798146494e-282 1.829466464259646e-211 5.391949525887917e-287 3.012823330204791e-183 1.739111073361188e-321 0.000000000000000e+00 1.457826281118905e-05 4.679107455761072e-257 3.778079382763312e-227 1.335235510363862e-222 3.497895316985644e-01 1.487544104274841e-211 8.271183674700816e-76 0.000000000000000e+00 1.690547748858788e-249 8.438421924357645e-246 3.404654247668632e-217 8.334273889476391e-184 3.819988196616335e-292 1.010652121081766e-287 2.053412473694195e-269 7.366572013669899e-260 5.093048983682889e-301 4.792585606183576e-214 0.000000000000000e+00 4.126861840506770e-260 1.460426972917607e-228 1.919632484705274e-308 1.231239010702736e-272 0.000000000000000e+00 1.810504703093481e-278 1.114659813392393e-221 0.000000000000000e+00 9.554919632434192e-13 0.000000000000000e+00 1.677828515515539e-272 1.201092853287769e-263 0.000000000000000e+00 1.254790354751032e-278 6.833069613597440e-226 1.167677178222016e-221 2.428859791583323e-71 0.000000000000000e+00 7.804549891064973e-13 0.000000000000000e+00 3.485390776515688e-256 2.468030900420842e-215 9.614748313056360e-269 3.627223639080631e-273 8.314119256612828e-232 6.578216995950348e-13 1.288506452387081e-179 8.930142281458929e-74 7.168455015399410e-219 0.000000000000000e+00 5.722676436324242e-289 6.468569148356351e-240 8.725164902262530e-252 1.153320814564116e-312 1.442955171851546e-33 5.979334269221755e-13 5.042592344914331e-33 1.694485748082729e-174 4.064965035493721e-227 7.492527504327111e-224 1.612522035942048e-251 1.050995141895043e-242 3.332110179918188e-249 5.389688595897727e-29 2.405241438299032e-23 3.924267439463436e-231 1.797667115895102e-224 5.837210967825413e-242 1.020879332775062e-293 1.935836362259411e-270 3.245630899585692e-235 1.367322710528880e-293 4.237944016655225e-227 3.492019952402933e-223 0.000000000000000e+00 2.266577363099529e-277 1.615493393925774e-235 3.999702095682530e-30 0.000000000000000e+00 1.075719923759651e-255 0.000000000000000e+00 8.681225866686116e-240 6.983177497509912e-274 1.108378416345981e-221 8.475992593794089e-319 9.417066797726337e-14 4.802781783572208e-14 1.561758124902164e-38 1.340818164905671e-273 0.000000000000000e+00 4.090290553023584e-269 0.000000000000000e+00 0.000000000000000e+00 1.307105823861980e-246 0.000000000000000e+00 9.860906123058919e-77 2.056408829711854e-261 5.837219141228189e-257 2.988012983598300e-01 1.058398960628244e-229 2.319665143540103e-234 6.016930719437844e-250 2.672807952544393e-246 1.679643626481778e-217 6.307202812881829e-270 2.998957443254822e-279 6.014007756964735e-284 2.638417451539884e-218 0.000000000000000e+00 2.232468474277936e-70 3.320715983670329e-01 3.254023551050175e-01 3.266897974031527e-01 3.313574198924425e-01 4.546634856210206e-186 9.986041268742498e-29 3.831483034894655e-287 8.037119346550529e-258 1.561644320723711e-291 1.365921973407549e-231 1.915192264216362e-274 3.603280441197275e-214 0.000000000000000e+00 2.276587058343309e-01 0.000000000000000e+00 1.202551890864056e-176 1.043899519884435e-249 0.000000000000000e+00 2.456598194182924e-220 9.402045657353640e-223 3.539895489002922e-01 0.000000000000000e+00 3.075127770572629e-223 1.184370376520942e-284 1.104034509986145e-12 3.490066579561094e-221 8.492825124299498e-255 8.234297661606751e-251 5.042543961172265e-270 2.224148849782316e-243 3.854252403146792e-68 2.067192228281634e-300 2.856573119045128e-28 6.671766332404672e-234 8.413014778100196e-70 7.386707075084386e-229 1.175098707010989e-231 4.725032768546348e-275 6.695614112796990e-289 3.089061275644372e-01 3.633194682515255e-01 3.633194744708587e-01 8.183582429798365e-05 7.965937632881751e-04 0.000000000000000e+00 9.853847637517566e-262 1.940498613173823e-223 1.191189228651391e-261 2.355852333057778e-234 1.022362991634439e-265 3.070842768634662e-01 7.472859929407113e-28 1.158606847636196e-211 2.866984792061915e-269 0.000000000000000e+00 8.599830612884631e-233 1.935109049505838e-250 0.000000000000000e+00 4.052879837422058e-266 3.186397955792141e-08 3.041740430791125e-01 2.286155014517464e-286 3.211038560908298e-221 6.907527673568565e-215 1.657830217242282e-226 2.225121746029411e-27 4.744928937141481e-175 9.801532225093515e-244 6.753335411983581e-249 4.649469098492272e-238 0.000000000000000e+00 2.875764576643373e-01 2.689300277796036e-219 8.985172527747760e-84 1.915065463031610e-273 1.479836297023174e-287 5.894495767223764e-235 1.325664219461037e-307 2.505859617651570e-01 6.815269276854629e-247 0.000000000000000e+00 3.626834565974238e-01 0.000000000000000e+00 1.193330889720337e-217 1.239332259592389e-228 2.942400160729262e-01 1.706675215158978e-224 3.860347662520116e-221 5.960976389763696e-287 2.316537850912775e-275 3.664726554259857e-234 2.093754402810758e-312 4.216238988338150e-251 1.940467492254908e-47 4.174587577375947e-231 4.104693200756195e-79 1.114410474985333e-251 3.560596592612964e-247 1.072122451475505e-321 1.214862022047705e-264 1.740908701633388e-88 6.639116015051971e-30 2.163843940996023e-243 0.000000000000000e+00 4.191943416791442e-269 3.557907684835174e-245 4.374318158300469e-173 7.788669583302603e-275 2.446731832872178e-274 2.540682838430353e-288 0.000000000000000e+00 4.614389578659069e-283 8.342713764102771e-274 3.358584625776854e-242 1.030621583776801e-300 1.448725509902458e-229 4.807730256534312e-288 0.000000000000000e+00 3.255179237370309e-28 3.438238324021013e-01 0.000000000000000e+00 1.862915738500285e-234 1.147159866779737e-302 3.337736741456904e-01 1.090601549053799e-246 2.047322067967866e-305 0.000000000000000e+00 2.081411187307676e-211 0.000000000000000e+00 1.617083031308176e-259 2.068302855764682e-01 2.969805768592131e-01 1.495741225885582e-28 0.000000000000000e+00 7.162883578046364e-84 2.331558823013235e-174 3.353766082888941e-01 3.266726235852517e-01 1.066145177663609e-220 2.942297519004163e-224 0.000000000000000e+00 0.000000000000000e+00 0.000000000000000e+00 2.908385512404209e-01 2.719550584237474e-01 2.858052075420168e-01 7.391937101729720e-224 1.884770589281829e-211 8.073289649940994e-240 0.000000000000000e+00 1.178692355319665e-116 4.462894160964625e-225 2.353480541225291e-03 6.023809651875463e-287 9.536918790027819e-245 5.189537761777674e-268 3.428059522378146e-217 7.344323802280024e-278 1.817348257211281e-282 9.465598202679328e-285 3.557536080795816e-243 3.258001617575536e-01 7.118278940326703e-02 6.543182590588545e-234 1.841683211692271e-225 3.711566285029458e-283 0.000000000000000e+00 1.568402713846180e-10 0.000000000000000e+00 9.458865921303863e-02 8.903200686136160e-235 6.982435283965525e-284 4.687823382895173e-278 8.375515033348060e-254 2.065682524616926e-314 5.673099963817340e-265 2.160536871158838e-292 4.509270962990315e-221 2.406138135394412e-269 0.000000000000000e+00 1.312458919715564e-13 1.058243785561873e-12 0.000000000000000e+00 9.203120658023222e-170 3.247684710389797e-231 2.462209527868105e-214 2.362652737649226e-233 2.963585812009467e-83 1.347053300486717e-01 1.756571607922416e-01 5.597397336009498e-71 1.080306246049074e-28 6.068881361753662e-241 4.064786454950952e-267 2.570623751133766e-01 3.058113533029568e-06 6.021269677877526e-224 3.538415988309409e-220 0.000000000000000e+00 2.720812938003948e-01 0.000000000000000e+00 3.628126426048431e-214 4.302645654079947e-03 1.812768742064016e-212 0.000000000000000e+00 1.049862931193488e-310 0.000000000000000e+00 1.033104818465573e-174 2.528935618971518e-72 2.058511758215579e-11 1.073895983467538e-311 8.462093204074717e-222 3.493097998380224e-277 8.309472416360345e-274 0.000000000000000e+00 1.612136346203743e-266 1.918377663015915e-258 6.938915632390641e-02 0.000000000000000e+00 3.386310748034262e-28 2.093924625957789e-12 1.799025194369909e-309 9.142391137063412e-238 1.311833587331718e-246 1.402073246033364e-307 2.708063275867884e-69 1.312815173156789e-42 2.797313593147441e-01 2.078034401203855e-15 2.371572770249258e-35 1.074534372579710e-261 1.084536142267148e-190 6.305970137585691e-224 0.000000000000000e+00 1.297886599483429e-264 3.319096038281902e-238 2.592323353888878e-233 2.965889338754171e-12 3.129778138840289e-01 1.449366920505498e-27 8.440063233471580e-222 2.079817774077232e-01 1.420935609419176e-01 1.198035743143545e-250 7.290689730138342e-32 5.775984952088534e-14 4.217541270502127e-245 0.000000000000000e+00 6.097108152687627e-278 2.700921653388139e-180 0.000000000000000e+00 3.087790557384155e-01 2.973862090734872e-01 5.403842367935935e-205 2.664876157634459e-238 4.667186450680718e-287 0.000000000000000e+00 0.000000000000000e+00 6.846661527886119e-242 1.454152875539476e-302 1.241759763804110e-248 4.395479826986600e-243 9.650674944000378e-253 1.223057318809351e-246 1.497261938663769e-248 3.342419648419833e-01 3.235096740525685e-01 9.479946007589558e-210 2.286604662969350e-312 2.429676848375388e-13 2.505344426842652e-272 1.796796014230751e-242 8.758198000017735e-256 2.199472696426509e-12 8.494924260499312e-315 3.066674736645185e-01 5.688648273606022e-291 1.901211387186535e-232 5.197945854725566e-258 0.000000000000000e+00 2.009092301459696e-228 2.476188383889251e-28 5.807097924005551e-262 3.892050059427873e-221 3.058233464670071e-15 3.722037207735781e-231 4.563871662968522e-246 0.000000000000000e+00 0.000000000000000e+00 8.515778584829014e-258 2.545796320128334e-238 0.000000000000000e+00 4.546779217543280e-241 8.971552917597452e-13 9.843506174932252e-228 3.498774482036480e-261 0.000000000000000e+00 7.109672636697124e-229 1.062541379930464e-27 1.702975093672954e-173 2.190995648743660e-225 2.213190682662023e-224 1.343270763023725e-260 0.000000000000000e+00 1.217185311121575e-248 2.202034087643168e-220 2.159968380197065e-265 1.901671729441044e-286 4.057603831116732e-227 1.798398950862137e-321 3.339702635493977e-260 2.487674625983761e-242 1.075973816591065e-238 2.914403740190262e-242 1.335117578592712e-255 9.101751462342255e-306 3.428240463347275e-251 0.000000000000000e+00 1.174094968725890e-257 1.512474252865544e-235 3.011128056023718e-211 4.151318287506466e-02 1.257787805429712e-12 1.295848595719333e-224 3.590172211038294e-251 5.181211653672050e-310 2.940689840551953e-214 2.410348659801105e-319 1.735425335817656e-219 3.150863919903925e-224 6.176202794282986e-228 7.265876491851905e-225 2.612564285336855e-70 1.652489453852622e-221 3.445844973388180e-249 3.239904419820025e-265 0.000000000000000e+00 0.000000000000000e+00 0.000000000000000e+00 5.601497654157229e-215 3.639990752434547e-217 3.559235342970313e-225 5.332292799167368e-230 0.000000000000000e+00 1.285217230516932e-257 6.935898015598885e-254 2.300538870099834e-265 1.911478081525997e-14 0.000000000000000e+00 2.421364691044405e-277 2.471889952199439e-254 8.942335566613666e-274 1.172845038797797e-272 1.083458079372772e-12 0.000000000000000e+00 2.605617219898583e-01 4.796454789223931e-29 3.555795626741347e-01 3.541430849011864e-01 2.845458991906654e-234 5.049589157207926e-13 6.117821616855800e-287 1.397219993964717e-291 0.000000000000000e+00 7.635063090752466e-209 3.418924305064956e-213 6.647588048128721e-317 1.130803590119514e-230 1.572565215730340e-255 0.000000000000000e+00 6.074372012885509e-119 3.167888519940239e-263 3.444686993281667e-01 3.548853797050181e-01 3.551753331883333e-01 3.447795787235013e-01 3.409154374415984e-01 3.424385884664038e-01 5.951269011625878e-214 6.607935433597592e-256 0.000000000000000e+00 0.000000000000000e+00 6.847273685590899e-246 9.770011837325395e-243 1.087912076731431e-73 3.073940847098574e-232 2.107529707980091e-01 2.461884615179154e-238 9.137558829980154e-16 3.031897174919734e-217 2.172424621558157e-214 1.670989904948032e-260 3.650428633997840e-297 1.685588445583151e-12 8.562832278552587e-15 1.480395362102927e-211 0.000000000000000e+00 1.395400670041730e-258 1.386284389661620e-211 1.792415419238630e-261 3.817452002378980e-276 0.000000000000000e+00 6.015167619000570e-238 9.843367050703022e-245 8.920507465080187e-298 3.168710046502890e-13 2.622206010003864e-238 2.980953306543760e-273 1.496758131885685e-227 5.871503530208578e-28 4.176121129052385e-269 5.815696927044055e-221 7.489643078212463e-215 0.000000000000000e+00 0.000000000000000e+00 1.036388217837855e-247 2.189805008938089e-238 5.727559808977943e-221 2.182986213642977e-168 0.000000000000000e+00 3.661166369753470e-01 3.661166392136320e-01 2.055916719521239e-246 2.733339990727675e-83 0.000000000000000e+00 7.665901809611510e-14 2.857680160029571e-214 1.187196381236328e-255 7.208541350318515e-232 2.680405667056892e-313 7.176227037999842e-13 9.417259486938929e-293 3.542203026456336e-01 3.542203095845775e-01 2.453328328106823e-260 2.082912100215002e-01 6.895130213295891e-02 9.645003370930544e-16 7.491527785618664e-183 2.961218413647986e-258 2.743186771036460e-01 2.539612498451825e-01 1.244185082132024e-217 6.206357905420358e-257 8.796355805771839e-281 1.482138447098869e-262 1.050455015431410e-264 1.687488678644127e-01 0.000000000000000e+00 3.427612594574637e-01 3.429649999688285e-01 5.352427093570499e-225 1.039696060682864e-220 1.265269379193382e-240 1.113114047203605e-233 2.692518934878485e-297 8.546320085737933e-236 2.403766937618418e-211 4.313273291730048e-216 3.148227718929177e-311 2.050808825782728e-12 1.964955129960237e-12 3.769486299470237e-242 8.897691344404692e-238 0.000000000000000e+00 5.815303355111754e-232 9.871020598855166e-110 4.728070381494670e-305 1.143363856171384e-309 1.147312768658787e-245 1.053300054715418e-249 0.000000000000000e+00 1.621777713281088e-66 4.712232099410791e-296 2.119237517150681e-227 3.004590090746117e-268 7.387208440363153e-218 0.000000000000000e+00 1.805013829515750e-278 3.070970560452331e-225 9.060146024640665e-237 1.304224282030466e-292 0.000000000000000e+00 1.123670396873442e-298 1.916363829160197e-231 1.143939770773639e-268 1.554271997931365e-28 8.981578598381576e-261 5.696484465118460e-168 8.973766979528787e-282 5.203056888905580e-220 0.000000000000000e+00 2.871016384610235e-01 8.947538900417067e-278 0.000000000000000e+00 1.188721943894039e-320 3.031677597739382e-225 2.461988298266612e-264 1.406426058458260e-303 2.777882954984030e-218 0.000000000000000e+00 0.000000000000000e+00 3.040500380561673e-13 1.733351045291436e-67 2.896454103544653e-235 0.000000000000000e+00 3.041524043630084e-01 3.126579469143528e-01 1.218147202329558e-13 1.615613147711075e-273 0.000000000000000e+00 2.897756865307721e-01 5.421187602820282e-262 6.588252823426721e-35 3.060886470772873e-15 2.424417795597493e-01 2.694171877362612e-01 1.293648350356609e-228 5.120438071420057e-251 3.046814894218008e-317 4.263892220309679e-260 4.365451973289579e-214 1.777591640884996e-218 2.308707326081350e-282 2.141106166901368e-252 8.437294421176777e-261 5.057021822844307e-36 0.000000000000000e+00 2.731794917290643e-01 2.673343287304301e-298 0.000000000000000e+00 2.907947910278497e-13 3.125418711729463e-01 3.434524582432565e-01 3.545277110444409e-01 3.577405813469930e-256 1.325845046353724e-253 0.000000000000000e+00 0.000000000000000e+00 1.199262311744431e-261 3.889885092837244e-230 3.864727762590507e-287 8.165118752343036e-270 9.038583003454378e-13 2.766767616710981e-322 0.000000000000000e+00 3.649550370655600e-168 3.1712047696