<?xml version="1.0"?>
<VTKFile type="UnstructuredGrid" version="0.1" byte_order="LittleEndian">
<UnstructuredGrid>
<Piece NumberOfPoints="3764" NumberOfCells="1271">
<Points>
<DataArray type="Float64" NumberOfComponents="3" format="ascii">
0 0 0 0.01142230349469592 0.01018508895725519 0 0.024999999999941638 0 0 0 0 0 0.01142230349469592 0.01018508895725519 0 0 0.02040816326539097 0 0.01142230349469592 0.01018508895725519 0 0 0.02040816326539097 0 0.0211689540835866 0.020294207212749191 0 0 0.02040816326539097 0 0.0211689540835866 0.020294207212749191 0 0.01479277905737322 0.034115505761851322 0 0.0211689540835866 0.020294207212749191 0 0.035194166143748373 0.036267990104473 0 0.01479277905737322 0.034115505761851322 0 0.01142230349469592 0.01018508895725519 0 0.0211689540835866 0.020294207212749191 0 0.024999999999941638 0 0 0.0211689540835866 0.020294207212749191 0 0.024999999999941638 0 0 0.038487747360091522 0.016387646381637401 0 0.024999999999941638 0 0 0.038487747360091522 0.016387646381637401 0 0.049999999999868497 0 0 0.0211689540835866 0.020294207212749191 0 0.038487747360091522 0.016387646381637401 0 0.035194166143748373 0.036267990104473 0 0.038487747360091522 0.016387646381637401 0 0.057137757658075793 0.024268715362519691 0 0.035194166143748373 0.036267990104473 0 0.038487747360091522 0.016387646381637401 0 0.057137757658075793 0.024268715362519691 0 0.049999999999868497 0 0 0.057137757658075793 0.024268715362519691 0 0.049999999999868497 0 0 0.07499999999993355 0 0 0.050584644170265841 0.049990004250751632 0 0.06741623899727188 0.043431041269210921 0 0.06509133171351128 0.061536721924481862 0 0.050584644170265841 0.049990004250751632 0 0.049796226955297958 0.071615432852654121 0 0.06509133171351128 0.061536721924481862 0 0.057137757658075793 0.024268715362519691 0 0.050584644170265841 0.049990004250751632 0 0.035194166143748373 0.036267990104473 0 0.057137757658075793 0.024268715362519691 0 0.050584644170265841 0.049990004250751632 0 0.06741623899727188 0.043431041269210921 0 0.050584644170265841 0.049990004250751632 0 0.034597865044751562 0.059538283100065183 0 0.049796226955297958 0.071615432852654121 0 0.050584644170265841 0.049990004250751632 0 0.035194166143748373 0.036267990104473 0 0.034597865044751562 0.059538283100065183 0 0.034597865044751562 0.059538283100065183 0 0.01831348993664601 0.050179875844019929 0 0.019904986126699369 0.070829013869890683 0 0.035194166143748373 0.036267990104473 0 0.034597865044751562 0.059538283100065183 0 0.01831348993664601 0.050179875844019929 0 0.035194166143748373 0.036267990104473 0 0.01831348993664601 0.050179875844019929 0 0.01479277905737322 0.034115505761851322 0 0 0.02040816326539097 0 0.01479277905737322 0.034115505761851322 0 0 0.040816326530782043 0 0.01831348993664601 0.050179875844019929 0 0.01479277905737322 0.034115505761851322 0 0 0.040816326530782043 0 0.01831348993664601 0.050179875844019929 0 0 0.040816326530782043 0 0 0.061224489796173009 0 0.01831348993664601 0.050179875844019929 0 0 0.061224489796173009 0 0.019904986126699369 0.070829013869890683 0 0 0.061224489796173009 0 0 0.081632653061564198 0 0.019904986126699369 0.070829013869890683 0 0 0.081632653061564198 0 0.017559835652970961 0.090791477478020521 0 0.019904986126699369 0.070829013869890683 0 0 0.081632653061564198 0 0.017559835652970961 0.090791477478020521 0 0 0.1020408163269553 0 0.017559835652970961 0.090791477478020521 0 0.019904986126699369 0.070829013869890683 0 0.034559277816410987 0.081557337373673669 0 0.017559835652970961 0.090791477478020521 0 0.033420380235769848 0.1007185673550383 0 0.034559277816410987 0.081557337373673669 0 0.034597865044751562 0.059538283100065183 0 0.019904986126699369 0.070829013869890683 0 0.034559277816410987 0.081557337373673669 0 0 0.1224489795923462 0 0.01752448428357762 0.1117329240166892 0 0.019544808628996119 0.13227401154704449 0 0 0.1224489795923462 0 0 0.1020408163269553 0 0.01752448428357762 0.1117329240166892 0 0.017559835652970961 0.090791477478020521 0 0 0.1020408163269553 0 0.01752448428357762 0.1117329240166892 0 0.017559835652970961 0.090791477478020521 0 0.01752448428357762 0.1117329240166892 0 0.033420380235769848 0.1007185673550383 0 0.01752448428357762 0.1117329240166892 0 0.034087126905203192 0.1209861277781773 0 0.033420380235769848 0.1007185673550383 0 0.01752448428357762 0.1117329240166892 0 0.034087126905203192 0.1209861277781773 0 0.019544808628996119 0.13227401154704449 0 0.034087126905203192 0.1209861277781773 0 0.033420380235769848 0.1007185673550383 0 0.049315670342561173 0.11135059134879691 0 0.034087126905203192 0.1209861277781773 0 0.049315670342561173 0.11135059134879691 0 0.052231975381521037 0.1324697710711607 0 0.033420380235769848 0.1007185673550383 0 0.049315670342561173 0.11135059134879691 0 0.049933671108161173 0.09180167525965921 0 0.049315670342561173 0.11135059134879691 0 0.049933671108161173 0.09180167525965921 0 0.065519376542323787 0.1020060103813805 0 0.049315670342561173 0.11135059134879691 0 0.064954619147309406 0.1186102718044463 0 0.052231975381521037 0.1324697710711607 0 0.049315670342561173 0.11135059134879691 0 0.064954619147309406 0.1186102718044463 0 0.065519376542323787 0.1020060103813805 0 0.034597865044751562 0.059538283100065183 0 0.034559277816410987 0.081557337373673669 0 0.049796226955297958 0.071615432852654121 0 0.033420380235769848 0.1007185673550383 0 0.034559277816410987 0.081557337373673669 0 0.049933671108161173 0.09180167525965921 0 0.034559277816410987 0.081557337373673669 0 0.049933671108161173 0.09180167525965921 0 0.049796226955297958 0.071615432852654121 0 0.049933671108161173 0.09180167525965921 0 0.065437769419401298 0.08280988356141343 0 0.065519376542323787 0.1020060103813805 0 0.049933671108161173 0.09180167525965921 0 0.049796226955297958 0.071615432852654121 0 0.065437769419401298 0.08280988356141343 0 0.049796226955297958 0.071615432852654121 0 0.065437769419401298 0.08280988356141343 0 0.06509133171351128 0.061536721924481862 0 0.065437769419401298 0.08280988356141343 0 0.08048382778577895 0.07165939129726534 0 0.06509133171351128 0.061536721924481862 0 0.065437769419401298 0.08280988356141343 0 0.082207783798225631 0.091809159878798771 0 0.065519376542323787 0.1020060103813805 0 0.065437769419401298 0.08280988356141343 0 0.082207783798225631 0.091809159878798771 0 0.08048382778577895 0.07165939129726534 0 0.082207783798225631 0.091809159878798771 0 0.08048382778577895 0.07165939129726534 0 0.10000000000000001 0.081632653061067179 0 0.08048382778577895 0.07165939129726534 0 0.10000000000000001 0.081632653061067179 0 0.10000000000000001 0.061224489795794243 0 0.064954619147309406 0.1186102718044463 0 0.065519376542323787 0.1020060103813805 0 0.081723953713685502 0.11220798238239139 0 0.064954619147309406 0.1186102718044463 0 0.081723953713685502 0.11220798238239139 0 0.077414369161380808 0.1326877944589693 0 0.082207783798225631 0.091809159878798771 0 0.065519376542323787 0.1020060103813805 0 0.081723953713685502 0.11220798238239139 0 0.082207783798225631 0.091809159878798771 0 0.081723953713685502 0.11220798238239139 0 0.10000000000000001 0.1020408163263421 0 0.081723953713685502 0.11220798238239139 0 0.10000000000000001 0.1224489795916153 0 0.077414369161380808 0.1326877944589693 0 0.081723953713685502 0.11220798238239139 0 0.10000000000000001 0.1224489795916153 0 0.10000000000000001 0.1020408163263421 0 0.10000000000000001 0.1224489795916153 0 0.10000000000000001 0.1020408163263421 0 0.10000000000000001 0.1224489795916153 0 0.10000000000000001 0.1020408163263421 0 0.1193707164044376 0.1125679358902586 0 0.1193707164044376 0.1125679358902586 0 0.11606503917892 0.092831191981644676 0 0.13729388873166179 0.1023778823952045 0 0.10000000000000001 0.1020408163263421 0 0.1193707164044376 0.1125679358902586 0 0.11606503917892 0.092831191981644676 0 0.10000000000000001 0.1224489795916153 0 0.1193707164044376 0.1125679358902586 0 0.1174898008840846 0.1331867759582076 0 0.1193707164044376 0.1125679358902586 0 0.1174898008840846 0.1331867759582076 0 0.1339798845637783 0.12436412822187751 0 0.10000000000000001 0.081632653061067179 0 0.11690923237079839 0.075771674886482066 0 0.10000000000000001 0.061224489795794243 0 0.10000000000000001 0.081632653061067179 0 0.10000000000000001 0.061224489795794243 0 0.082207783798225631 0.091809159878798771 0 0.10000000000000001 0.1020408163263421 0 0.10000000000000001 0.081632653061067179 0 0.10000000000000001 0.1020408163263421 0 0.10000000000000001 0.081632653061067179 0 0.10000000000000001 0.1020408163263421 0 0.10000000000000001 0.081632653061067179 0 0.11606503917892 0.092831191981644676 0 0.11606503917892 0.092831191981644676 0 0.11690923237079839 0.075771674886482066 0 0.13083011011621179 0.085621994819866154 0 0.10000000000000001 0.081632653061067179 0 0.11606503917892 0.092831191981644676 0 0.11690923237079839 0.075771674886482066 0 0.11690923237079839 0.075771674886482066 0 0.1224113123827702 0.061448209743527132 0 0.1353873695908793 0.070572908111639798 0 0.11690923237079839 0.075771674886482066 0 0.1224113123827702 0.061448209743527132 0 0.10000000000000001 0.061224489795794243 0 0.1224113123827702 0.061448209743527132 0 0.10000000000000001 0.061224489795794243 0 0.1184025638397351 0.044620515969080433 0 0.10000000000000001 0.061224489795794243 0 0.10000000000000001 0.040816326530532299 0 0.083041428864014916 0.050921892867974709 0 0.10000000000000001 0.061224489795794243 0 0.10000000000000001 0.040816326530532299 0 0.1184025638397351 0.044620515969080433 0 0.10000000000000001 0.061224489795794243 0 0.10000000000000001 0.040816326530532299 0 0.10000000000000001 0.040816326530532299 0 0.1184025638397351 0.044620515969080433 0 0.1186263405973806 0.02146853907924717 0 0.1184025638397351 0.044620515969080433 0 0.1186263405973806 0.02146853907924717 0 0.133965734735811 0.0345517845108698 0 0.1186263405973806 0.02146853907924717 0 0.1249999999999323 0 0 0.10000000000000001 0 0 0.10000000000000001 0 0 0.10000000000000001 0
[...]
<PointData Scalars="temperature," Vectors="" Tensors="">
<DataArray type="Float64" Name="temperature" format="ascii">
0.99989150114729464 0.99337396734002403 1.0001494967289128 1.0000147028366326 0.99323614385256376 0.98634793185956671 0.99330920868250916 0.98620181084418157 0.98671524202945526 0.98603536349453502 0.98690681723476337 0.9774280416503619 0.9868782408320611 0.97755264327930302 0.97739536851456166 0.99326458422206543 0.98683979686704248 1.0002833409437142 0.98711351531822633 0.99991567033360373 0.9901522167644784 0.99958836409873009 0.99055297161091282 1.0005290711686092 0.98656364812812369 0.99070625571789628 0.97796793534806581 0.99008486700958487 0.98789346602593409 0.97861890603608903 0.99048584031508791 0.98735584457384862 1.00037898076729 0.9887947094890519 0.99921474780805131 1.0010778932810225 0.97294501637591146 0.98194196664492961 0.97231911737210197 0.97292059887534632 0.96190436870552876 0.97231087999050403 0.98886624053969474 0.97302547355420177 0.9776144979106981 0.98794647702414151 0.97392601245356825 0.98098968708495338 0.97370918809609797 0.96333240685659849 0.96111115669716984 0.9729307943765908 0.97764006625278932 0.96407947256732174 0.96342200436959069 0.96668222965052042 0.95396738130478187 0.97835173710911572 0.96340529706926925 0.96669498901735607 0.9778948450861934 0.96718639132051054 0.97713698739661992 0.98627868370544125 0.97718307242009261 0.97238879656927812 0.9668207400578761 0.97747057831322159 0.97206769813289506 0.96651463489340117 0.97230896046849691 0.95855385485268363 0.96708846980172813 0.95792798954263558 0.95345364024639412 0.95839789232478101 0.94504798163744042 0.95297382623127469 0.94428711331140791 0.94059519789265766 0.95373973469121254 0.94492522954594305 0.9399604572512601 0.93205113443589738 0.94082409052545013 0.95361844694821152 0.949994564769301 0.94009202589008645 0.93877165361525217 0.95069504239577007 0.96397222819471307 0.95340607829503377 0.95024355789845638 0.91849406451859572 0.92799818407450052 0.9161169832862821 0.91957661249348066 0.93194158105346814 0.92700626450814527 0.94074502336615196 0.93119628338308347 0.92771409192994736 0.94049096012533862 0.92806422764893315 0.93838766624109804 0.92723061873202706 0.92757792618121371 0.93915849550279973 0.92760804055169643 0.92726029778201879 0.91667513239223075 0.92809381579750128 0.93868197197610148 0.9399269852534472 0.92707548616506186 0.94083139041396202 0.93141900324534466 0.93834199747899427 0.94021333572743415 0.95112779899900779 0.94086137633697842 0.95050141360831297 0.95432675993848248 0.94007104317674595 0.94704424165683387 0.93232800516632741 0.94003866486305399 0.94705410246313182 0.95518099682885382 0.96337245088790247 0.95081574396669133 0.96102419016276386 0.9392117239666955 0.95028114659110752 0.95028917052234352 0.95011176274598341 0.95051053677610942 0.96177482619122923 0.95041326490527112 0.96365180925029115 0.95447250925309535 0.95124394114500221 0.96102620297957941 0.96277494279677311 0.96109976871852509 0.96274619704134012 0.97308082818220265 0.96379501320088234 0.97582216679196465 0.9720451428204705 0.96274818474293145 0.9698933230552822 0.95536383062138097 0.96302439473635959 0.96968341908176303 0.97660640591186909 0.97091490364360111 0.97531163431128465 0.98549397316493215 0.97575803586970522 0.98531518928114037 0.99044055823205712 0.94765785141976888 0.95450896553587727 0.96251326823850325 0.9467370186634485 0.96354317603595174 0.95201186485896416 0.97085778388095989 0.95442572282220084 0.96260859674221133 0.96974375968757265 0.96370174993584479 0.9811402459503582 0.96273272750027084 0.97646786684892362 0.95275884813894174 0.96262468568417237 0.97674082044237709 0.9820521080617941 0.99221248179658528 0.99461060072191343 0.97672562666804941 0.98212705407153311 0.96159201349525902 0.96165738863893757 0.97183992505343775 0.95211275045894017 0.98121765773832847 0.96272622423499454 0.97092084655862443 0.97671601853187207 0.96135999783396064 0.95734197925428766 0.96251733551606322 0.95627023242321196 0.94532946373275273 0.98542543943857164 0.97629945632849457 0.99038213746050674 0.99647912600850252 0.99812347777936039 0.96994978210246918 0.9811864483670768 0.98632380015227039 0.9945302170676934 0.9965615928301691 0.98124583573704494 0.98625468592194743 0.97103168699431586 0.97079356814449358 0.97663683451206063 0.96396395958518266 0.98574456207282068 0.97171878212331209 0.97575859383260088 0.97562674800429638 0.97845579214758893 0.96817960311455276 0.97666231292195671 0.97762894632524444 0.99015732207680729 0.97864715659456691 0.98880588230845068 0.98533552120442947 0.98942546864911673 0.99412101772450423 0.98412160535399651 0.98935975509375884 0.99409037695244695 0.98511173159029353 0.99803171848441707 0.99926205370246257 0.99280101921102393 0.98646573767444357 0.99259781516383061 0.98521427755160051 0.99419724074015992 0.98509048984295478 0.99393601057007397 0.99911709703665919 1.0011829488938679 1.0005048251930884 0.99674902102490104 0.99731392172605526 1.0001971022250722 0.9998707399316612 0.99415417183508403 1.0008321470260209 0.99652241827825006 0.99916826638274892 0.99997077096109588 0.99307220803771523 0.99245165296182836 0.99750573939153364 0.99300559409352085 0.99764210912858353 0.99095510281572552 0.9967756587558706 0.99225737324400476 0.99721894501702146 1.0008610910624884 0.99715330517608047 0.99913448357277246 0.99187942272035501 0.99729034781426651 0.99895712830262107 0.9888834104690255 0.99022116142250904 1.0007696854523911 0.98711111557749043 0.99184637758232042 0.98170159396071555 0.99206410278092139 0.98161754684813229 0.98360284930511321 0.9756568619079431 0.97225530214116818 0.98501758008838625 0.98111599230688329 0.97322792255836543 0.98405479231048021 0.97689774591302714 0.98950862589676891 0.98377481404559775 0.993275321803331 0.99045840726011447 0.9850424080423269 0.88642661959279367 0.89809187888806596 0.87525130683574393 0.88667066755151736 0.89328273819755699 0.90640704319382337 0.8855421235757881 0.90762321482956709 0.89905145339529391 0.88619051336560362 0.87639546911874033 0.8937619666504043 0.88540652960701172 0.87724075896449338 0.87069833075748571 0.88649618815971964 0.86971539305556533 0.87524635703364839 0.8697999371885391 0.86420230859684466 0.85760294839545537 0.86470170138519176 0.85441711511358287 0.8566113716113043 0.862844394499235 0.85643417909607256 0.86583804407683485 0.86434724230875293 0.8642138290736302 0.87382166765864921 0.87625014910068433 0.86459711219704405 0.87374934862563713 0.87745520878217032 0.87043204185041134 0.86337637504808051 0.87725198110236213 0.87275754825807095 0.88471251751457647 0.87375139706354632 0.88541426075907681 0.88394368172101423 0.86587643159812222 0.87229931949698802 0.87548244369231565 0.87393224394377089 0.87374536650300416 0.88480753626289665 0.87549944927364987 0.88305759483599777 0.88559457286460364 0.88400394761264678 0.88499628793328777 0.89894885603062424 0.88437811592949123 0.89855481062808495 0.89790264828970556 0.88400938643834126 0.89327883677709197 0.90024688792461616 0.87755073068441214 0.88451708912111116 0.89271053326786887 0.89388395205776794 0.89954324174198075 0.91170125037655592 0.89267814853378413 0.91298658910396113 0.90709449455508551 0.89882182808000277 0.9209288202691247 0.9123457524033004 0.90996555058294282 0.92958701420572654 0.92042125839385014 0.90016658126170157 0.91066578788340202 0.91968906495932079 0.91103101842558853 0.9206440971165839 0.92851577852074341 0.91067896663740566 0.9051669018096864 0.92098430816607646 0.91004059157091788 0.9058852166909348 0.89774661418859369 0.89990021153716326 0.9109793300438761 0.8968791746565542 0.88555758041404531 0.89713935563623881 0.89369304504705771 0.89268910990509021 0.88574797840291053 0.89644127576447585 0.88458105387975783 0.89419034592833269 0.8840582714885179 0.89378958113981766 0.89522702451412217 0.90497639045628697 0.90520671825625276 0.89414634350234468 0.90477772243220089 0.90615558473083635 0.89745387285623324 0.89317400046106621 0.9059128623761048 0.90403502615879461 0.91661250550406514 0.90500310616717383 0.91640605424747779 0.91568613063172422 0.90489059956675466 0.90653201662544347 0.91636262346140118 0.89649842658321022 0.9038180149374001 0.90762417903597614 0.91942502735469411 0.90769930319911862 0.91517213663303798 0.92805858122234119 0.91588443323383661 0.91626781839651172 0.92745065372505953 0.91674411160298197 0.93095695937462186 0.91569967017794951 0.92068266054866676 0.93213844984517835 0.90619240810031532 0.91636172016279205 0.91999199875059889 0.9201470394933059 0.93632701678780428 0.92910121208025465 0.92107802776403491 0.93172304878117163 0.93544182599425008 0.93072383407087833 0.95192034733448616 0.9363134365730329 0.9475093029202325 0.93161524015694852 0.95101759742419156 0.93585323377130603 0.94914386636496717 0.92962409522860656 0.95252754021357178 0.93595720191271037 0.94912672809786891 0.9512789918025748 0.95013222602818004 0.97195235357907173 0.97770003955683804 0.95135169621044302 0.97209848437507973 0.97759065785233223 0.95637135455111821 0.97226175347948873 0.99228710247512697 0.98955722906819643 0.95631022633077856 0.950432812041479 0.97209851287613058 0.95726834975018216 0.94949577318850864 0.93743293292387542 0.98962225602060261 0.98659394788165367 0.94944541600109755 0.97297412700839636 0.96755624349892644 0.9491059394202489 0.97297590586614757 0.96759527880916052 0.94960944309575956 0.96722128170332466 0.94135560444530975 0.95026861477665603 0.94071898767367446 0.92807308245188347 0.9412951481988926 0.9360440723639285 0.91928845303455242 0.94036344311536002 0.9623350247472523 0.93691406274808209 0.9682627923348428 0.9401566535742093 0.96270086323173909 0.96822629819520645 0.96275453082776741 0.94252233105757421 0.98665465267445895 0.98334522996814211 0.96226544104196465 0.94284944820599426 0.93475365600182936 0.9492090719350238 0.96726007076856024 0.94359508784596913 0.95007700445854038 0.94275205157715158 0.92866645570648432 0.94236139324233048 0.92902743123254239 0.92099277187414996 0.94347125152023037 0.91988910328935869 0.93417895511516014 0.92036481283282534 0.91306323547967039 0.93373912505941381 0.91203208351251175 0.9304396937036995 0.9347198577742214 0.91237342774807506 0.93006082496086706 0.9077015215954447 0.93122627423446025 0.93386002187784634 0.95732907576201731 0.96337439428080673 0.93350499374889084 0.95780240680157303 0.96335972370960177 0.93582113080353235 0.95785018191522897 0.98339994657726848 0.97983876077570353 0.93615542467024349 0.92995904053115053 0.95733552047197146 0.93682964294754945 0.92932570617844068 0.9126386452054297 0.9288145466012182 0.95839018584658364 0.95279654571385197 0.93013251594160129 0.95835927199200166 0.95285609118475822 0.97988760819001219 0.97609696556135184 0.92983891928590112 0.92121570363611649 0.9054828389879177 0.92933874592779975 0.95213190360077793 0.92160294701564394 0.9216441599133165 0.89738738575146582 0.9175783063867019 0.92088841316504644 0.94699341715539398 0.91823311156192977 0.97614225763696971 0.97213810829751468 0.95330465681516807 0.92032087078363278 0.94765968184598026 0.95330873715085496 0.94769779608788784 0.92336712585492631 0.94695016429385026 0.92395890665635305 0.91490918676071276 0.93054968612614397 0.95226676246678499 0.92447162378123071 0.93116912773152871 0.923891688719361 0.90662160820528381 0.92326388278448557 0.90720974508840313 0.89945752970574022 0.92432565459693206 0.89844402702537152 0.91462422864847059 0.8649380201934006 0.86690206889004084 0.85515866037764476 0.865067264364759 0.87637689837127331 0.87291731605160805 0.8773010533831056 0.86815513164344549 0.88439504061901708 0.86390064689441282 0.87753725773938529 0.86793366195352262 0.88528210517275974 0.89720284844695952 0.87756843569912701 0.86694870965406823 0.88560398333050672 0.87719468700583547 0.88452336604089721 0.897931998857595 0.90644491289963069 0.92065245169844534 0.89840913080963369 0.90603355457514723 0.87645504217938952 0.88527665363037378 0.89388938842057297 0.88567295747316321 0.90533756940274146 0.89350866618874369 0.89395866077189778 0.91252551437816942 0.90090451280066286 0.89343060123328499 0.90140282646961667 0.88414407723239785 0.90600343992796695 0.89285600780503072 0.91366336663468117 0.92877946053592364 0.90649507037986787 0.91316275785185108 0.93569083755792393 0.91374377391357731 0.91959068611103489 0.9131338349099859 0.90034417450582038 0.92021270329137683 0.90035170744234483 0.89344913128446302 0.88529325271983661 0.89363565358944852 0.88502656345361475 0.88219707601649311 0.87766355559086207 0.89270791857015164 0.88491170714339151 0.8772519112083087 0.88524630822158978 0.87197591284339315 0.88410203095308149 0.87318794705733638 0.88314033881258636 0.88327953603753129 0.89492146983840071 0.88405608063283536 0.89296605955198138 0.88310938555278884 0.89550356812696019 0.89472808325561748 0.9047631109066232 0.89486616131886421 0.89563479393831624 0.90728502171071501 0.90428326269986048 0.89452538659145531 0.90801754063582807 0.90759762178746783 0.90705040486980748 0.90886596459180047 0.92061871998293132 0.90090686904621164 0.89297571854946667 0.90918677031886985 0.89392654285859219 0.89419722267350743 0.90794768388478264 0.90784289893034464 0.91957567156924691 0.92906633671458139 0.90149916758442106 0.90850100872987127 0.91897380037090148 0.94033477139210375 0.92030705247383116 0.92847851536814863 0.90911576126460691 0.92790905184056938 0.92033602812389359 0.92026946560547285 0.93075539380676386 0.91554712519720405 0.92072883215816903 0.93717599010435881 0.9302977203783519 0.94920880340092328 0.92913324293747723 0.93768049830847566 0.92857065647474168 0.91971660632328944 0.93824043889046493 0.95630611623436568 0.93836013107730976 0.94521811295809499 0.93757464425309001 0.92995718339038236 0.9460096468462158 0.92981789555821814 0.9165044875880507 0.9264939977389145 0.91612567909407672 0.91493444316725281 0.92681680593705462 0.90788679555264618 0.91972438177466376 0.91615574095843699 0.90762439568054243 0.91639029997412191 0.90379061310240105 0.91543927787154256 0.90472617102820341 0.91563237740963943 0.9147547113793848 0.90770245266909788 0.91946354867859659 0.90337229690809362 0.9076628425041674 0.89640307144950382 0.9044088640778305 0.91584202208756171 0.90654714702686745 0.89332157401843071 0.89627300178513414 0.88567815167536368 0.88179258682590178 0.88568535675177995 0.87561558642498372 0.871669920245287 0.87559280504773696 0.86581280832438268 0.87302605768641028 0.88313310430508063 0.87413612710236988 0.86454466340219394 0.87320864309612267 0.86421085579335921 0.86463445031964703 0.85471332455751947 0.85519616713273916 0.86292447518306181 0.86578493692264868 0.85642982630948206 0.97863141455180769 0.96892274859745608 0.9772881952769249 0.97912018262247213 0.96840144653162763 0.97039721519730637 0.96835299144588127 0.96657208565371744 0.95757410153857914 0.96889201112908852 0.95997697323251208 0.9570739887752584 0.96848547877451097 0.96034437177753895 0.97035614250101143 0.95983034123579902 0.97075525321295886 0.95798583230266077 0.97868219269051115 0.97086378291694553 0.98569832713300543 0.97906975361652959 0.98536169396995155 0.99004111196717126 0.98636571055786781 0.99975512430358671 0.98896593988767589 0.98612235029133533 1.0002602118171049 0.9998423388677441 0.99938076469681725 0.98937466780695227 1.0005020106095479 0.99214662442116108 1.0008309735837806 0.99034522699171124 0.99385035907191632 0.98857462647215077 0.98515067954420432 1.0008188445677215 0.99069172243468262 0.99958143358215668 0.98548690842437814 0.98461468135264829 0.97748069539843385 0.9854188174088071 0.97719336943283108 0.97669533634496486 0.97896779429219216 0.99026794534411966 0.97704439672733567 0.98907973617170641 0.9845630199726586 0.97799920947134511 0.97705513481092576 0.96731246938602877 0.97678203678334719 0.96837721498119045 0.97783656064197322 0.96655064528550305 0.97804910373558651 0.97669030522436473 0.96871178082412546 0.96661668866529571 0.97747276938698113 0.9679030453757046 0.97804407733022047 0.98631566334087839 0.97679479376384093 0.97607734579035177 0.96772164030862995 0.96444136824400362 0.96858175798812018 0.96361267112944216 0.95542754851331313 0.97076274144216823 0.96407777771488268 0.95334620528040648 0.9643636189842083 0.9545963411250088 0.95293124316345912 0.96723466347441933 0.95525581905319401 0.95689941022474556 0.96649756367800244 0.96803655470613059 0.95604422051355809 0.94513764194831684 0.9532320987830385 0.93856088305755037 0.96161705941744691 0.94613857797680578 0.95212523276579575 0.95261048491025313 0.93904284736013577 0.93850917884982499 0.95575036897239674 0.95157579045758878 0.9394051166124151 0.93026961780635098 0.93903038904497638 0.92607876289422941 0.93085442792580231 0.9451294021082195 0.93850361103212065 0.92654594287775616 0.939740437139712 0.92714544441042701 0.93826113725860727 0.92692382394991391 0.93939601712002951 0.93872366774550164 0.92808213117774074 0.93873406124233549 0.91573733847053007 0.92785092862165719 0.91846898085250717 0.91590712626722537 0.92588720629653054 0.92779922784146707 0.93905746226637499 0.94721539878155014 0.93844951504409158 0.95490273835044037 0.95716416899120915 0.94709199930298249 0.95558734868919504 0.93988650480095859 0.94658735144083817 0.94659168826741857 0.93925852131662613 0.95005844956307917 0.96016634025956149 0.95684178788635188 0.95014317313450947 0.95733418597664632 0.94697360100584926 0.94961095824298913 0.96002951997753261 0.95016218655975748 0.95778951886193386 0.94955875021737379 0.94501517635568955 0.95842346301777592 0.93913775202399397 0.95011161991299686 0.94445588169189854 0.93858387780242625 0.9449895704397725 0.93200895814337859 0.92680205076955269 0.91949307716284445 0.93190703648562201 0.92758280900788637 0.93930629884191119 0.93124033786614624 0.97041606867221952 0.98614308869155576 0.97210355765666856 0.97025147730267991 0.97227537128070607 0.95859923085264021 0.98573798642087729 1.0000953020337482 0.9862546849128937 0.98580348020264252 0.9724842421705393 0.98623786487901366 0.76490324982916957 0.75714045397406182 0.76458308924044283 0.77283795749976358 0.78081623415938661 0.7793969917019552 0.77073825316392675 0.77344510695830726 0.78160511130292887 0.76502571547933962 0.77270237429177335 0.77144570128313428 0.7633244773929585 0.76602017834846292 0.77327831705276673 0.7969671726446429 0.78894266061484175 0.79518401828906971 0.79709704447392393 0.80303648841915021 0.8051422022917768 0.79509343714368652 0.80483843656984344 0.79708050037774769 0.78897270771970829 0.78092966845511347 0.7865303816143856 0.78694507393050961 0.78837882917169488 0.797167997682939 0.77887187633393351 0.78847777416920262 0.78145522117017741 0.78802350066514093 0.79445441313308307 0.78198857533863331 0.7867383628656206 0.80020134197221937 0.7958810102537931 0.78816288525836276 0.7989543266996384 0.79760527098416945 0.79902623353427493 0.81392184468335804 0.81792121344939783 0.7995637088076053 0.79635409921881894 0.81719758188685587 0.80317994552382133 0.81136208432896184 0.81993668773310269 0.80445353381667573 0.7976884294376686 0.81022470329943097 0.7957535929912346 0.81226957130984012 0.81170130312574273 0.80049302424400315 0.79563562024851076 0.81239498750161343 0.81092538793549063 0.83141289657923056 0.82020824817474147 0.81392150729285007 0.81018795403841104 0.83233931743627343 0.81247808900682705 0.83390311340190426 0.832397630404491 0.81229017926715796 0.83257323572086472 0.81971670502555383 0.83234553886234364 0.85499076126097751 0.84844196914711079 0.8316388773340041 0.85481838565073009 0.86279471835627453 0.83287360323124338 0.83335532338919771 0.85376166898446404 0.79479686776647751 0.81901418905520718 0.80683942577650714 0.81963245506767923 0.82773666786762135 0.80631386493626378 0.81759104037088148 0.84858424006912636 0.84581515363439164 0.83325515802540306 0.81906584932469584 0.84733952171206106 0.81808246418934349 0.8454549302917842 0.82921122093846089 0.84642508022505292 0.82830116449900948 0.86190811528335876 0.82790343975875169 0.84210693558221283 0