<?xml version="1.0"?>
<VTKFile type="UnstructuredGrid" version="0.1" byte_order="LittleEndian">
<UnstructuredGrid>
<Piece NumberOfPoints="3764" NumberOfCells="1271">
<Points>
<DataArray type="Float64" NumberOfComponents="3" format="ascii">
0 0 0 0.01142230349469592 0.01018508895725519 0 0 0.02040816326539097 0 0.024999999999941638 0 0 0.01142230349469592 0.01018508895725519 0 0 0 0 0.024999999999941638 0 0 0.038487747360091522 0.016387646381637401 0 0.0211689540835866 0.020294207212749191 0 0.024999999999941638 0 0 0.0211689540835866 0.020294207212749191 0 0.01142230349469592 0.01018508895725519 0 0.035194166143748373 0.036267990104473 0 0.01479277905737322 0.034115505761851322 0 0.0211689540835866 0.020294207212749191 0 0 0.02040816326539097 0 0.0211689540835866 0.020294207212749191 0 0.01479277905737322 0.034115505761851322 0 0 0.02040816326539097 0 0.01142230349469592 0.01018508895725519 0 0.0211689540835866 0.020294207212749191 0 0 0.040816326530782043 0 0.01479277905737322 0.034115505761851322 0 0.01831348993664601 0.050179875844019929 0 0 0.040816326530782043 0 0 0.02040816326539097 0 0.01479277905737322 0.034115505761851322 0 0 0.061224489796173009 0 0.01831348993664601 0.050179875844019929 0 0.019904986126699369 0.070829013869890683 0 0 0.061224489796173009 0 0 0.040816326530782043 0 0.01831348993664601 0.050179875844019929 0 0.019904986126699369 0.070829013869890683 0 0.01831348993664601 0.050179875844019929 0 0.034597865044751562 0.059538283100065183 0 0.035194166143748373 0.036267990104473 0 0.034597865044751562 0.059538283100065183 0 0.01831348993664601 0.050179875844019929 0 0.035194166143748373 0.036267990104473 0 0.01831348993664601 0.050179875844019929 0 0.01479277905737322 0.034115505761851322 0 0.049796226955297958 0.071615432852654121 0 0.034597865044751562 0.059538283100065183 0 0.050584644170265841 0.049990004250751632 0 0.035194166143748373 0.036267990104473 0 0.050584644170265841 0.049990004250751632 0 0.034597865044751562 0.059538283100065183 0 0.06741623899727188 0.043431041269210921 0 0.06509133171351128 0.061536721924481862 0 0.050584644170265841 0.049990004250751632 0 0.049796226955297958 0.071615432852654121 0 0.050584644170265841 0.049990004250751632 0 0.06509133171351128 0.061536721924481862 0 0.035194166143748373 0.036267990104473 0 0.057137757658075793 0.024268715362519691 0 0.050584644170265841 0.049990004250751632 0 0.06741623899727188 0.043431041269210921 0 0.050584644170265841 0.049990004250751632 0 0.057137757658075793 0.024268715362519691 0 0.035194166143748373 0.036267990104473 0 0.038487747360091522 0.016387646381637401 0 0.057137757658075793 0.024268715362519691 0 0.035194166143748373 0.036267990104473 0 0.0211689540835866 0.020294207212749191 0 0.038487747360091522 0.016387646381637401 0 0.024999999999941638 0 0 0.049999999999868497 0 0 0.038487747360091522 0.016387646381637401 0 0.049999999999868497 0 0 0.057137757658075793 0.024268715362519691 0 0.038487747360091522 0.016387646381637401 0 0.049999999999868497 0 0 0.07499999999993355 0 0 0.057137757658075793 0.024268715362519691 0 0.07499999999993355 0 0 0.080950281899397181 0.026970278689124379 0 0.057137757658075793 0.024268715362519691 0 0.10000000000000001 0.020408163265267731 0 0.10000000000000001 0.040816326530532299 0 0.080950281899397181 0.026970278689124379 0 0.10000000000000001 0.020408163265267731 0 0.080950281899397181 0.026970278689124379 0 0.088491713649877388 0.01129776753660997 0 0.07499999999993355 0 0 0.10000000000000001 0 0 0.088491713649877388 0.01129776753660997 0 0.07499999999993355 0 0 0.088491713649877388 0.01129776753660997 0 0.080950281899397181 0.026970278689124379 0 0.10000000000000001 0 0 0.1186263405973806 0.02146853907924717 0 0.10000000000000001 0.020408163265267731 0 0.10000000000000001 0 0 0.10000000000000001 0.020408163265267731 0 0.088491713649877388 0.01129776753660997 0 0.10000000000000001 0 0 0.1249999999999323 0 0 0.1186263405973806 0.02146853907924717 0 0.10000000000000001 0.020408163265267731 0 0.1186263405973806 0.02146853907924717 0 0.10000000000000001 0.040816326530532299 0 0.133965734735811 0.0345517845108698 0 0.1184025638397351 0.044620515969080433 0 0.1186263405973806 0.02146853907924717 0 0.10000000000000001 0.040816326530532299 0 0.1186263405973806 0.02146853907924717 0 0.1184025638397351 0.044620515969080433 0 0.10000000000000001 0.061224489795794243 0 0.1184025638397351 0.044620515969080433 0 0.1224113123827702 0.061448209743527132 0 0.10000000000000001 0.040816326530532299 0 0.10000000000000001 0.061224489795794243 0 0.083041428864014916 0.050921892867974709 0 0.10000000000000001 0.040816326530532299 0 0.1184025638397351 0.044620515969080433 0 0.10000000000000001 0.061224489795794243 0 0.10000000000000001 0.061224489795794243 0 0.08048382778577895 0.07165939129726534 0 0.083041428864014916 0.050921892867974709 0 0.10000000000000001 0.040816326530532299 0 0.083041428864014916 0.050921892867974709 0 0.080950281899397181 0.026970278689124379 0 0.06741623899727188 0.043431041269210921 0 0.080950281899397181 0.026970278689124379 0 0.083041428864014916 0.050921892867974709 0 0.06741623899727188 0.043431041269210921 0 0.057137757658075793 0.024268715362519691 0 0.080950281899397181 0.026970278689124379 0 0.08048382778577895 0.07165939129726534 0 0.06509133171351128 0.061536721924481862 0 0.083041428864014916 0.050921892867974709 0 0.06741623899727188 0.043431041269210921 0 0.083041428864014916 0.050921892867974709 0 0.06509133171351128 0.061536721924481862 0 0.08048382778577895 0.07165939129726534 0 0.065437769419401298 0.08280988356141343 0 0.06509133171351128 0.061536721924481862 0 0.065519376542323787 0.1020060103813805 0 0.065437769419401298 0.08280988356141343 0 0.082207783798225631 0.091809159878798771 0 0.08048382778577895 0.07165939129726534 0 0.082207783798225631 0.091809159878798771 0 0.065437769419401298 0.08280988356141343 0 0.10000000000000001 0.081632653061067179 0 0.082207783798225631 0.091809159878798771 0 0.08048382778577895 0.07165939129726534 0 0.10000000000000001 0.061224489795794243 0 0.10000000000000001 0.081632653061067179 0 0.08048382778577895 0.07165939129726534 0 0.10000000000000001 0.061224489795794243 0 0.11690923237079839 0.075771674886482066 0 0.10000000000000001 0.081632653061067179 0 0.10000000000000001 0.061224489795794243 0 0.1224113123827702 0.061448209743527132 0 0.11690923237079839 0.075771674886482066 0 0.1224113123827702 0.061448209743527132 0 0.1353873695908793 0.070572908111639798 0 0.11690923237079839 0.075771674886482066 0 0.13083011011621179 0.085621994819866154 0 0.11606503917892 0.092831191981644676 0 0.11690923237079839 0.075771674886482066 0 0.10000000000000001 0.081632653061067179 0 0.11690923237079839 0.075771674886482066 0 0.11606503917892 0.092831191981644676 0 0.10000000000000001 0.081632653061067179 0 0.10000000000000001 0.1020408163263421 0 0.082207783798225631 0.091809159878798771 0 0.10000000000000001 0.081632653061067179 0 0.11606503917892 0.092831191981644676 0 0.10000000000000001 0.1020408163263421 0 0.10000000000000001 0.1020408163263421 0 0.11606503917892 0.092831191981644676 0 0.1193707164044376 0.1125679358902586 0 0.1193707164044376 0.1125679358902586 0 0.11606503917892 0.092831191981644676 0 0.13729388873166179 0.1023778823952045 0 0.1193707164044376 0.1125679358902586 0 0.1339798845637783 0.12436412822187751 0 0.1174898008840846 0.1331867759582076 0 0.10000000000000001 0.1224489795916153 0 0.1193707164044376 0.1125679358902586 0 0.1174898008840846 0.1331867759582076 0 0.10000000000000001 0.1020408163263421 0 0.10000000000000001 0.1224489795916153 0 0.081723953713685502 0.11220798238239139 0 0.10000000000000001 0.1020408163263421 0 0.1193707164044376 0.1125679358902586 0 0.10000000000000001 0.1224489795916153 0 0.10000000000000001 0.1224489795916153 0 0.077414369161380808 0.1326877944589693 0 0.081723953713685502 0.11220798238239139 0 0.10000000000000001 0.1020408163263421 0 0.081723953713685502 0.11220798238239139 0 0.082207783798225631 0.091809159878798771 0 0.065519376542323787 0.1020060103813805 0 0.082207783798225631 0.091809159878798771 0 0.081723953713685502 0.11220798238239139 0 0.065519376542323787 0.1020060103813805 0 0.081723953713685502 0.11220798238239139 0 0.064954619147309406 0.1186102718044463 0 0.077414369161380808 0.1326877944589693 0 0.064954619147309406 0.1186102718044463 0 0.081723953713685502 0.11220798238239139 0 0.052231975381521037 0.1324697710711607 0 0.049315670342561173 0.11135059134879691 0 0.064954619147309406 0.1186102718044463 0 0.065519376542323787 0.1020060103813805 0 0.064954619147309406 0.1186102718044463 0 0.049315670342561173 0.11135059134879691 0 0.033420380235769848 0.1007185673550383 0 0.049315670342561173 0.11135059134879691 0 0.034087126905203192 0.1209861277781773 0 0.052231975381521037 0.1324697710711607 0 0.034087126905203192 0.1209861277781773 0 0.049315670342561173 0.11135059134879691 0 0.033420380235769848 0.1007185673550383 0 0.049933671108161173 0.09180167525965921 0 0.049315670342561173 0.11135059134879691 0 0.065519376542323787 0.1020060103813805 0 0.049315670342561173 0.11135059134879691 0 0.049933671108161173 0.09180167525965921 0 0.065519376542323787 0.1020060103813805 0 0.049933671108161173 0.09180167525965921 0 0.065437769419401298 0.08280988356141343 0 0.049796226955297958 0.071615432852654121 0 0.065437769419401298 0.08280988356141343 0 0.049933671108161173 0.09180167525965921 0 0.049796226955297958 0.071615432852654121 0 0.06509133171351128 0.061536721924481862 0 0.065437769419401298 0.08280988356141343 0 0.049796226955297958 0.071615432852654121 0 0.034559277816410987 0.081557337373673669 0 0.034597865044751562 0.059538283100065183 0 0.049796226955297958 0.071615432852654121 0 0.049933671108161173 0.09180167525965921 0 0.034559277816410987 0.081557337373673669 0 0.033420380235769848 0.1007185673550383 0 0.034559277816410987 0.081557337373673669 0 0.049933671108161173 0.09180167525965921 0 0.019904986126699369 0.070829013869890683 0 0.0345592778
[...]
<PointData Scalars="temperature," Vectors="" Tensors="">
<DataArray type="Float64" Name="temperature" format="ascii">
0.98853859043464032 0.89282202875167471 0.79378406824924275 0.99843131667975016 0.88444347179252147 0.99728642299325776 0.98079892248309841 0.840172384336489 0.80398197494213686 0.98944020804840005 0.79665129779604049 0.89315872722225231 0.70101562610083878 0.70442145976858461 0.79800615752957949 0.79983228288584873 0.80433975341634345 0.69872649288905131 0.80146721553679512 0.88810021512948267 0.80386255337188817 0.6611484595703887 0.70285540410535752 0.61362635692108414 0.65724875511265124 0.79201730358440525 0.70508580220748929 0.55981276311231931 0.61393729791049534 0.5303934601044612 0.55724633132718882 0.65672350405591051 0.6166017567106622 0.53274029429758574 0.61284180854194614 0.59251284049136188 0.70002502601472982 0.58745263043110207 0.61668982025832797 0.70444745204139803 0.61371774756521102 0.70212233104996358 0.57863717059976094 0.59138064730975393 0.65981109846318597 0.69615189997783289 0.65828611043145546 0.59163951749228216 0.73054032529307844 0.6560700097078227 0.65731273838141835 0.58217594400949935 0.65543576869953157 0.65647584156936201 0.70260223988625303 0.80033913414163482 0.65127250536285219 0.72537363971382629 0.65996627922681184 0.79101172224229344 0.70271693113916622 0.83437921930968661 0.80157903020570553 0.6949409890398931 0.8036710182350294 0.84136160599782084 0.99258049748914023 0.99652221357305271 0.82478742562011986 0.97880166394522949 0.78694400018267108 0.84550317730049673 0.9820498351148107 1.0007162467437487 0.77879185104485804 0.9781293424958909 0.82145928157116099 0.80458903030801721 0.9347034759466516 0.87232601948207744 0.82573412905967991 0.92292698168356735 0.84199707556292025 0.92705106082786337 0.98087346327423763 1.0143360447450283 0.92279859565831446 0.96811935106348879 0.93317189805450718 0.83225720952282412 0.99916097168375329 0.86830424428576392 0.92061905036781477 1.0026278763165619 0.92073688080708771 0.93138465718123631 1.0131484948150631 0.9750712128380481 0.85131941439430692 0.93370616435125964 0.84614859941463094 0.87194622417219136 0.76448077085254729 0.76641963862822615 0.8667518666675057 0.86533416808737362 0.84966764995075439 0.77733682831792883 0.82581495803231664 0.77113498630366961 0.70807154058572574 0.88356272323518914 0.83965684139695329 0.75457960211058683 0.88297305096565815 0.76244671518699947 0.83888349222073244 0.83164212126265968 0.70003103253617516 0.75883097555112466 0.87009107166869459 0.76520945688921271 0.82334611753928932 0.72934625644256101 0.83818245847922357 0.75439074735443534 0.72689040940728 0.79012759159358181 0.8395055937911734 0.69635256728417405 0.65422209292429767 0.7648268638214416 0.72535408220308217 0.75778943345535055 0.66039452870724213 0.69499778669557433 0.60604551460460043 0.65483159309538086 0.5685193856616616 0.60314274580496996 0.66400100483663704 0.70110678529168124 0.66753873121916218 0.60101876423806255 0.79874439347409365 0.67134233095437346 0.69453809621533846 0.84446283838838376 0.80770792302570282 0.68735344185358416 0.8442086295770086 0.69758137498433248 0.80803460249601899 0.83361622069968322 0.70286219686085549 0.70761970284073883 0.71072470776306096 0.6282619806231764 0.70085547088733224 0.61136011706781068 0.67744811753738643 0.70661392956748037 0.80206967314782118 0.70212296773693683 0.6802248303835513 0.81103194915983501 0.78057088282969123 0.65991045786018765 0.81113373843038228 0.67108015753983807 0.78042296735183414 0.77181033513270525 0.67880282659123126 0.62806338554486385 0.62826508501417644 0.67845406400927422 0.54679534681751629 0.63011471515612161 0.53119825361400197 0.6127083785527937 0.74418239870601854 0.62665653148519074 0.61398875734152558 0.78202505974788405 0.75472896690485636 0.62526370766222228 0.78211153790306598 0.61702312684519733 0.75445055879891554 0.74240462851184896 0.58095276399685636 0.63627861859683132 0.77043366296824067 0.63593938638166347 0.66847898169300179 0.56253660413850881 0.67100657580959933 0.63527416573672224 0.56735650697574436 0.63007197115351221 0.53986863950708219 0.58509549304902753 0.53589607844064047 0.63541227825947444 0.47132739256002232 0.49159686131005159 0.53669959128476741 0.56861576487124876 0.53948885427833415 0.4887855419504199 0.47221601462272833 0.48956752930122838 0.43821266375730705 0.4693690908672517 0.43419565336711008 0.49334848889312799 0.47012024573716577 0.53185969629067686 0.49159792642973749 0.56393227572144711 0.49257330630548246 0.53041053484772094 0.56684601057995632 0.52836688025198408 0.60603612034059773 0.57970296819219647 0.60141943948035026 0.53199269835438678 0.57959814899266382 0.65960183068684486 0.60203350143828416 0.58042090384834932 0.52010086971465075 0.58901773213853248 0.58262276532000179 0.52981066275649702 0.51891317974667428 0.47298721605618649 0.51946392236439842 0.52880991730019966 0.53224099879486808 0.51912231330365965 0.47286224237819252 0.4720633675542929 0.47154195567887364 0.52060111766511208 0.53351781083982674 0.5917331891970512 0.517907258623867 0.48835545111701911 0.5584493769865202 0.53189574529777761 0.48825491301830309 0.53230249166944299 0.47224967962883224 0.43840317740731954 0.48933472489826552 0.4713964055668437 0.43676811147994132 0.47280546941061025 0.42764350802220819 0.4710715971918546 0.42840095686433266 0.47241103869308476 0.39872353109950776 0.42792331878132939 0.43590939622293873 0.47317697204100079 0.43733478673057363 0.42625838683263545 0.40123743401151907 0.43888060946501317 0.42584733607718483 0.3979279084011309 0.42882174349386831 0.39713865131719284 0.37284529105327341 0.40118057806309682 0.39384190232429339 0.35110818743946987 0.37315373929348045 0.36809463935322689 0.36913333521858449 0.39778377824417499 0.37197918724691598 0.38665895877121986 0.36850225917691143 0.40983364085693036 0.39873380724035279 0.4068132432259487 0.37155124347841523 0.39642196029227877 0.43846556595502578 0.40944276798306661 0.46564309078940253 0.40962801820068667 0.43720331296284176 0.47103289860535669 0.50372195186824986 0.43984175963921879 0.48989015880380438 0.43595952962473322 0.50756365777869572 0.47045527532763082 0.44046820565671235 0.40571961652709787 0.38624901159238301 0.41014108013014511 0.43601617201636556 0.38672320774194552 0.4130778785475076 0.37150316527939486 0.38264575205906515 0.43960269632619448 0.41681011525895489 0.4846659021809997 0.41573698087192668 0.44032045000555625 0.48934899366801371 0.46782277254413451 0.41149012789925071 0.39241285622590361 0.41696697097753199 0.46180877968019879 0.39390982181884199 0.36877432291049317 0.41618516848290593 0.34181548638330778 0.35142144943713982 0.36958254214410224 0.38341766163529162 0.35196022308298769 0.37183565961075365 0.38670300628696275 0.37149710059010821 0.3487423859236683 0.34698460961066341 0.37186806480698159 0.35146195314603823 0.3331580755045771 0.3512879995891256 0.34758753397588354 0.32767254874386731 0.35250339098224487 0.33923079731818867 0.31807102981529006 0.33298410176391519 0.33394318824994573 0.34195037568955722 0.34913291850849404 0.32103421468491938 0.34105366139838456 0.31820688943663966 0.35127917159905392 0.30585121249004882 0.31835746220349043 0.31708222363987515 0.31275169938318048 0.33926935841233985 0.32227439262239127 0.30105134259536831 0.32149324167470866 0.3095658575233875 0.28883405991851069 0.31020856756719262 0.30245654786756387 0.29436030665768737 0.30590556451542872 0.30505518781520297 0.3046037376374644 0.30926076922615642 0.32971899347923611 0.34096874288398588 0.33235980906164087 0.30605197322050959 0.33731710729749942 0.30962424103301933 0.32183371655064275 0.34108950338957283 0.37327279466643248 0.33228579077762321 0.33712267325570605 0.38708646958943416 0.37714540544891351 0.35657439863421658 0.32957179122538938 0.37644350340660476 0.35441617643460904 0.37794665916880077 0.42180332088491662 0.4438403064062249 0.42763701957110301 0.37273018026955684 0.43887870111077432 0.37697568170961659 0.3868432788041809 0.44418845489286907 0.38217440807194664 0.45156658467973193 0.39270105542643963 0.44590272027169142 0.38735505164176182 0.34103807421346266 0.3513602204572428 0.38340938289711424 0.39391789901492175 0.38677638677173132 0.3483647399246278 0.33692682508355953 0.37294289912336576 0.38841778034933794 0.3369769656640299 0.38833638461423392 0.35261206724690075 0.38688173124144243 0.46705548496870342 0.45133361567784536 0.5331887818535338 0.4510681520051581 0.46768193963501858 0.68582678458280943 0.66635716931203504 0.52650057350070867 0.65571268972855423 0.5341809818102744 0.53743158374193323 0.52803424059100068 0.4439549530138896 0.45115066621421085 0.53888681137829575 0.53432586694634254 0.44546211416289438 0.44464703223254415 0.51119094456194603 0.42625465480643659 0.43857160564145853 0.53401828421363551 0.51786013067175563 0.49117190616835543 0.42237390700552913 0.51581238707019128 0.61702081629473193 0.48743689193309891 0.51788307393848754 0.63678493736450992 0.51579755584646247 0.53485964952324216 0.64545533965847746 0.6273552285713242 0.50797378229445522 0.64502808724566929 0.49440287807891126 0.6273747188122879 0.50592124226083712 0.41886594290559059 0.50187441791557974 0.61712928133229661 0.50489825501543284 0.50128405081872984 0.63565379965451418 0.52989818084671481 0.50341993205125413 0.52863758956534856 0.43496248789653075 0.50667677886297258 0.44801376024581635 0.53014798355580917 0.54820720106230281 0.65585097001519876 0.5488079315018709 0.52813531261970659 0.66534672605787959 0.51935213843244765 0.64639901031046032 0.66512503533317713 0.64671712841902451 0.52538287245647408 0.68606887856112808 0.53868543295124582 0.66635961883678663 0.67573745376546557 0.55534084422043295 0.54831024107945814 0.55698373833982562 0.45987007891033443 0.54844594129074697 0.69760597321919338 0.59021442125262635 0.55442702938228361 0.55748414511505595 0.58892975432028249 0.48112511100690458 0.7077987285981916 0.54431909969765069 0.68675244535796354 0.70795673384816149 0.68698191271697473 0.55759087846857092 0.67586804079503793 0.53614031242701454 0.56828684295358345 0.48984070481884062 0.56090232296116527 0.46664255562965351 0.53940096098856039 0.46149363822507899 0.56676831971204911 0.48354551855222966 0.58772565036946067 0.56791216312688308 0.6978446047448672 0.56686479304837956 0.58732063427659209 0.71850399257586983 0.58824739249749614 0.58048004682055765 0.48929674521960315 0.50746153992443443 0.58172764018099199 0.58562006132648159 0.5864985713740859 0.50418581869818402 0.46475446959799971 0.54161169869086045 0.57718198920233776 0.46392189370059655 0.57798071405722584 0.50925705774516683 0.75506660487005184 0.73072116387647068 0.56863224802436596 0.75546640823293509 0.60369192863725851 0.73107355704344446 0.73063049835248273 0.70872097111112575 0.57721884749197472 0.7311341381650468 0.58001803304300836 0.70824915564932023 0.72096286512981411 0.61295742320529345 0.58930583358188393 0.50862895989528012 0.58989147157987765 0.61390454731523014 0.51431761831686396 0.60737176783936919 0.53534426469189056 0.51401148168185595 0.53656155931037186 0.46095467009916496 0.51456613917494587 0.48617142363173182 0.58321804035592895 0.51407568996475017 0.43373917490391634 0.48743659743554385 0.40545844662929226 0.43854941934743069 0.46483484326315144 0.50919843739981985 0.4650360893027885 0.43787847201684305 0.40892142884133431 0.4612048817622057 0.43568053830309528 0.40888615041844256 0.43576585812466601 0.39250157027508059 0.40571096173576254 0.39562733158841112 0.37133028429698056 0.40915604536788547 0.36819003079209911 0.3908834948452406 0.40929226589728701 0.39079640120964504 0.43502101773388369 0.35301968502744807 0.40500304684621774 0.39218470135997346 0.41040388321434507 0.43802120301319442 0.38808849710439558 0.34549655274318025 0.35536936093066313 0.37194381482425559 0.35785939078988671 0.38878735356565769 0.37086383839689196 0.32759351595961034 0.33522820543428328 0.35532152134471223 0.35810619466462112 0.33396272255802939 0.36273164825996679 0.39867581928467261 0.41028733089324482 0.36174866590724208 0.35329232642427083 0.36600376458271117 0.40469609661746125 0.40343360107942461 0.46589122184331838 0.48647384685104739 0.39906689763910863 0.46037717479429802 0.40925901470621007 0.40873908173418017 0.48152813831947722 0.43901344753763677 0.5512768819449414 0.4871918697246076 0.46551667379443817 0.45370393266547404 0.54184926932944277 0.46574604579190176 0.45420889004776738 0.46595894621698186 0.39401429252548981 0.44904964001519243 0.39873812629579236 0.38751051929204583 0.39903022779795694 0.34689609988045172 0.38748399060640559 0.45423484338757325 0.43929879068582806 0.52346398950049999 0.45396474303802059 0.38305339751564998 0.44015788653930116 0.50089972177757458 0.4403242481739234 0.42370950396810625 0.36995782274478711 0.42467683638754156 0.43949337574124658 0.37481135761919654 0.36210772485328774 0.41990129803900417 0.37439978805367147 0.32419877157099414 0.3626265965956661 0.37425686327252256 0.43512108254143583 0.3877651957656823 0.37479442100618598 0.38753632154042822 0.33735885265790627 0.30808271504051488 0.32848134632135706 0.34102712329457407 0.37054565679277218 0.34132604382480797 0.32791189337203025 0.31165544785730714 0.29781324573497164 0.32487840591575612 0.31140828117334268 0.33758639546995867 0.32014865325127279 0.33493960493684682 0.32016202641617331 0.34760143082490214 0.35113228762199061 0.31653406345624235 0.34109830377581007 0.3509462292609366 0.34130077785281648 0.38347529875634606 0.33133690209076994 0.35121042311816913 0.36458162487727103 0.39518677566287103 0.36478994955284344 0.35098233478141194 0.33317612578794542 0.31855206043779111 0.33024428312762238 0.31866951402408605 0.30563383673963301 0.31605242707878872 0.31405321249920182 0.32034077254785348 0.33432020436481835 0.30102152761570394 0.31046423020939451 0.32053030335660931 0.30574924361548578 0.29432082782087532 0.30558375356917961 0.28968325382690663 0.29856311430035459 0.31025267252825239 0.35060412727190748 0.33273135976004625 0.35023134122714278 0.37312308924809989 0.35067097207883907 0.3672187037900933 0.36911476874110638 0.37091950070401863 0.39576384163997119 0.40115769129351936 0.37281817916237198 0.3922321992980129 0.55695600200268802 0.48890928587801574 0.51358346083196837 0.48891745573905693 0.43819225297516801 0.46547759878602668 0.48862519005492144 0.46626131566729478 0.51468229983153824 0.43663231388222279 0.4276625115886733 0.46704444062849032 0.43821424509503065 0.4005251039631525 0.42540848191092212 0.42911583168503192 0.39559689010247251 0.43267823577443659 0.39761836582421423 0.39565681446889017 0.42863764701533824 0.42903655482875591 0.4737958002543185 0.46487792161051861 0.42630980449541905 0.43538472921189669 0.47722310443337163 0.48582504827471029 0.47699859719846505 0.43568810718977791 0.46531918751472107 0.53193807752286271 0.4878668437650901 0.46467843895738886 0.48877068548095542 0.43266929345550809 0.48585179055268918 0.53459556155518961 0.55605803823359845 0.62300400733845396 0.55230512272479371 0.5371755969057086 0.4899271977941701 0.55094214499570771 0.47220191759818331 0.55201032777758363 0.47372135920509545 0.54792585606634059 0.61550145546583168 0.55385987482675803 0.67209292385763331 0.61435331776204172 0.54670857378936077 0.55521047887632069 0.61199311541028401 0.63213188783204455 0.54935751635984265 0.61580704348904125 0.70040959849488427 0.62753839522766541 0.6113681506703077 0.5523208293798173 0.62903816888016384 0.61443785772907 0.55295894201605789 0.54947202186013133 0.50438209699071457 0.46422834667042062 0.47518015876747483 0.50218753482307565 0.47763209820567265 0.55049077709780314 0.50319271586633896 0.54876976741547767 0.55342725506077528 0.50232388846778386 0.51412694601786635 0.4668827977444544 0.50274992816503294 0.5542241597086236 0.51339031968750926 0.56954317857233328 0.51456088593513283 0.55319292195910663 0.55775352877922657 0.51339568078871323 0.56986649667794342 0.55843830952114393 0.56833689464950732 0.63966968062366392 0.5690599976466808 0.62648377692045387 0.64028853853229073 0.71286574192412744 0.78126687365476688 0.63891656337949498 0.70810969916845645 0.6253073565332482 0.69372570132655598 0.70996274172867246 0.64325779927096516 0.62313055677039575 0.5704008210619369 0.55209293020292116 0.62501390335743656 0.61306881553348824 0.6224510004608137 0.554216691733042 0.61024181390496146 0.69345033028554193 0.62538940802994336 0.6141486548240348 0.68894508266164101 0.68884014281927652 0.61229521628287287 0.62855158169858438 0.69160897531206733 0.70802710930625423 0.77710615165454577 0.68844504666967454 0.70727136320791806 0.68787298982920997 0.63196583558922304 0.75819376346452172 0.69194084678839329 0.77056153503958891 0.76459367349510332 0.69217715805477564 0.68716620504458148 0.71450297712110922 0.68593924170211651 0.82140779681071585 0.76079420181044322 0.81200164977487288 0.69301667295426539 0.76239743320029174 0.86608170666909667 0.81359933984272659 0.9836153926899861 0.83159676860176046 0.84441044901640183 1.00401226230754 0.98693241872882709 0.81024757484294618 0.9706345245679926 0.7882345343695123 0.82279552484089957 0.99531710225907732 0.99014470511969266 0.79851807540331987 0.70919537427169266 0.82882039993263801 0.78767164175711557 0.99078278911672668 0.76525632698919588 0.991404882875208 0.97204009360429933 0.7968984713754077 0.78894794416492664 0.79520865912168859 0.64920420281000002 0.79133121756462088 0.65866988206291255 0.6394791134237835 0.78125919290056012 0.65731975237974982 0.55570110079138135 0.64290301953804962 1.0035984165965306 0.99167843889399976 0.99282200810708909 0.9744776485678136 0.6995673752460666 0.67926845095469579 0.60316662031614354 0.58563304194667387 0.81033966613020936 0.78717822411946081 0.78705823781285678 0.76444892865111846 0.62134406143726539 0.60327925170301933 0.48998165867918553 0.47571806734051075 0.47563262483277702 0.46180313272454032 0.32329134344875443 0.31390260312595408 0.33303777225303649 0.3233536231889485 0.34307809603643158 0.33309962883735017 0.76432296581468606 0.74227827928139078 0.74214585372963948 0.7206884374500877 0.72056119100001903 0.6996966641913045 0.35340914337050605 0.34313981259566012 0.56840131132118343 0.55189053306782077 0.67913340778240583 0.65941542518515806 0.36405495591356912 0.35347485183234478 0.37503183552200325 0.36412135510665161 0.38632676469385008 0.37510001187568309 0.64004662791637301 0.6214518937558221 0.46171835623895724 0.44828378509870503 0.39797211415915928 0.38639597613418153 0.44819053708842149 0.43514956108967512 0.40998264335972584 0.39805409450484797 0.42234161555601857 0.41005587106957514 0.65928950416948839 0.64015551765983791 0.43505906624374913 0.42241483081552472 0.50475200891681526 0.49006797195103285 0.25544159467582928 0.24869573727121233 0.27076920867445753 0.26306893986385371 0.27882364866849441 0.27083373332816546 0.53564895360004394 0.52006432020058957 0.97506343758674086 0.95368423603210795 0.26298136610124817 0.25561741737334309 0.51997405286161746 0.5048362180912751 0.95402012313603535 0.93083307995856823 0.28717372582186246 0.27888434961226116 0.9309906067317526 0.90696408489801528 0.90702956750777664 0.88265493441961484 0.58552580260309883 0.56851382297037134 0.88263890804934075 0.8583051907043926 0.83410882149396692 0.81045060471282038 0.55178942978818613 0.5357454807666937 0.31384813775050668 0.30473803776164848 0.30468294018977421 0.29584583316242125 0.85824481039845579 0.83419552212711667 0.29579184207655917 0.28723545169251541 0.21150527587199625 0.21902097334202883 0.22627335415152608 0.22154774969783997 0.21494547063740377 0.22261949804859782 0.21482505184637576 0.2089165444268381 0.21564978111030073 0.20621844876672304 0.21233323052524924 0.21857899842730655 0.20878106263182289 0.20290160897074691 0.21000148594103102 0.21634317651892535 0.20235524384855241 0.22265819284504967 0.19887536161425215 0.20449816743977409 0.21340285702171627 0.19904749314984654 0.21345297963313711 0.21312237709494181 0.23034870842076938 0.21103826017575