<?xml version="1.0"?>
<VTKFile type="UnstructuredGrid" version="0.1" byte_order="LittleEndian">
<UnstructuredGrid>
<Piece NumberOfPoints="510" NumberOfCells="942">
<Points>
<DataArray type="Float64" NumberOfComponents="3" format="ascii">
0.000000000000000e+00 0.000000000000000e+00 0.000000000000000e+00 0.000000000000000e+00 1.000000000000000e+00 0.000000000000000e+00 1.000000000000000e+00 1.000000000000000e+00 0.000000000000000e+00 1.000000000000000e+00 0.000000000000000e+00 0.000000000000000e+00 0.000000000000000e+00 5.263157894724208e-02 0.000000000000000e+00 0.000000000000000e+00 1.052631578944842e-01 0.000000000000000e+00 0.000000000000000e+00 1.578947368417263e-01 0.000000000000000e+00 0.000000000000000e+00 2.105263157889683e-01 0.000000000000000e+00 0.000000000000000e+00 2.631578947362221e-01 0.000000000000000e+00 0.000000000000000e+00 3.157894736835109e-01 0.000000000000000e+00 0.000000000000000e+00 3.684210526307997e-01 0.000000000000000e+00 0.000000000000000e+00 4.210526315780885e-01 0.000000000000000e+00 0.000000000000000e+00 4.736842105253773e-01 0.000000000000000e+00 0.000000000000000e+00 5.263157894727392e-01 0.000000000000000e+00 0.000000000000000e+00 5.789473684201740e-01 0.000000000000000e+00 0.000000000000000e+00 6.315789473676089e-01 0.000000000000000e+00 0.000000000000000e+00 6.842105263150439e-01 0.000000000000000e+00 0.000000000000000e+00 7.368421052624787e-01 0.000000000000000e+00 0.000000000000000e+00 7.894736842099684e-01 0.000000000000000e+00 0.000000000000000e+00 8.421052631574764e-01 0.000000000000000e+00 0.000000000000000e+00 8.947368421049843e-01 0.000000000000000e+00 0.000000000000000e+00 9.473684210524922e-01 0.000000000000000e+00 5.263157894724208e-02 1.000000000000000e+00 0.000000000000000e+00 1.052631578944842e-01 1.000000000000000e+00 0.000000000000000e+00 1.578947368417263e-01 1.000000000000000e+00 0.000000000000000e+00 2.105263157889683e-01 1.000000000000000e+00 0.000000000000000e+00 2.631578947362221e-01 1.000000000000000e+00 0.000000000000000e+00 3.157894736835109e-01 1.000000000000000e+00 0.000000000000000e+00 3.684210526307997e-01 1.000000000000000e+00 0.000000000000000e+00 4.210526315780885e-01 1.000000000000000e+00 0.000000000000000e+00 4.736842105253773e-01 1.000000000000000e+00 0.000000000000000e+00 5.263157894727392e-01 1.000000000000000e+00 0.000000000000000e+00 5.789473684201740e-01 1.000000000000000e+00 0.000000000000000e+00 6.315789473676089e-01 1.000000000000000e+00 0.000000000000000e+00 6.842105263150439e-01 1.000000000000000e+00 0.000000000000000e+00 7.368421052624787e-01 1.000000000000000e+00 0.000000000000000e+00 7.894736842099684e-01 1.000000000000000e+00 0.000000000000000e+00 8.421052631574764e-01 1.000000000000000e+00 0.000000000000000e+00 8.947368421049843e-01 1.000000000000000e+00 0.000000000000000e+00 9.473684210524922e-01 1.000000000000000e+00 0.000000000000000e+00 1.000000000000000e+00 9.473684210527046e-01 0.000000000000000e+00 1.000000000000000e+00 8.947368421054093e-01 0.000000000000000e+00 1.000000000000000e+00 8.421052631581138e-01 0.000000000000000e+00 1.000000000000000e+00 7.894736842108185e-01 0.000000000000000e+00 1.000000000000000e+00 7.368421052635596e-01 0.000000000000000e+00 1.000000000000000e+00 6.842105263164103e-01 0.000000000000000e+00 1.000000000000000e+00 6.315789473692610e-01 0.000000000000000e+00 1.000000000000000e+00 5.789473684221118e-01 0.000000000000000e+00 1.000000000000000e+00 5.263157894749624e-01 0.000000000000000e+00 1.000000000000000e+00 4.736842105276671e-01 0.000000000000000e+00 1.000000000000000e+00 4.210526315802255e-01 0.000000000000000e+00 1.000000000000000e+00 3.684210526327841e-01 0.000000000000000e+00 1.000000000000000e+00 3.157894736853426e-01 0.000000000000000e+00 1.000000000000000e+00 2.631578947379012e-01 0.000000000000000e+00 1.000000000000000e+00 2.105263157903502e-01 0.000000000000000e+00 1.000000000000000e+00 1.578947368427626e-01 0.000000000000000e+00 1.000000000000000e+00 1.052631578951750e-01 0.000000000000000e+00 1.000000000000000e+00 5.263157894758752e-02 0.000000000000000e+00 9.473684210527046e-01 0.000000000000000e+00 0.000000000000000e+00 8.947368421054093e-01 0.000000000000000e+00 0.000000000000000e+00 8.421052631581138e-01 0.000000000000000e+00 0.000000000000000e+00 7.894736842108185e-01 0.000000000000000e+00 0.000000000000000e+00 7.368421052635596e-01 0.000000000000000e+00 0.000000000000000e+00 6.842105263164103e-01 0.000000000000000e+00 0.000000000000000e+00 6.315789473692610e-01 0.000000000000000e+00 0.000000000000000e+00 5.789473684221118e-01 0.000000000000000e+00 0.000000000000000e+00 5.263157894749624e-01 0.000000000000000e+00 0.000000000000000e+00 4.736842105276671e-01 0.000000000000000e+00 0.000000000000000e+00 4.210526315802255e-01 0.000000000000000e+00 0.000000000000000e+00 3.684210526327841e-01 0.000000000000000e+00 0.000000000000000e+00 3.157894736853426e-01 0.000000000000000e+00 0.000000000000000e+00 2.631578947379012e-01 0.000000000000000e+00 0.000000000000000e+00 2.105263157903502e-01 0.000000000000000e+00 0.000000000000000e+00 1.578947368427626e-01 0.000000000000000e+00 0.000000000000000e+00 1.052631578951750e-01 0.000000000000000e+00 0.000000000000000e+00 5.263157894758752e-02 0.000000000000000e+00 0.000000000000000e+00 5.031605205316716e-01 4.972204671541604e-01 0.000000000000000e+00 7.018426345490237e-01 2.903961232561490e-01 0.000000000000000e+00 7.124371303406183e-01 7.090403108987684e-01 0.000000000000000e+00 2.959265031394954e-01 2.966663041294382e-01 0.000000000000000e+00 2.938186736531156e-01 7.067766661704963e-01 0.000000000000000e+00 7.801937928777617e-01 4.904391120978470e-01 0.000000000000000e+00 4.931688450815972e-01 2.090043942654225e-01 0.000000000000000e+00 5.076595809067114e-01 7.864384670220363e-01 0.000000000000000e+00 2.135556561893741e-01 5.065362727025884e-01 0.000000000000000e+00 1.650664472902759e-01 8.338016493463405e-01 0.000000000000000e+00 8.342573608178855e-01 8.350202932814157e-01 0.000000000000000e+00 1.662185978925142e-01 1.650759962470238e-01 0.000000000000000e+00 8.355533113566691e-01 1.666700417113507e-01 0.000000000000000e+00 6.519512560047181e-01 4.312189365808246e-01 0.000000000000000e+00 5.621362444622332e-01 6.475298679778593e-01 0.000000000000000e+00 4.294822249996804e-01 3.549700593229496e-01 0.000000000000000e+00 3.536320720593975e-01 5.735590631903335e-01 0.000000000000000e+00 8.479412021123137e-01 6.441783643631318e-01 0.000000000000000e+00 6.465300124854763e-01 1.543069656979213e-01 0.000000000000000e+00 3.538793194897916e-01 8.442389788902098e-01 0.000000000000000e+00 1.557822789109310e-01 3.538322345572719e-01 0.000000000000000e+00 8.460132357852174e-01 3.583090328733871e-01 0.000000000000000e+00 6.409161858563438e-01 8.499201512288731e-01 0.000000000000000e+00 3.582865798996975e-01 1.537687516567927e-01 0.000000000000000e+00 1.541020176305262e-01 6.424933554336261e-01 0.000000000000000e+00 6.771662389406350e-01 5.788258972593741e-01 0.000000000000000e+00 5.826653097442865e-01 3.227153096450745e-01 0.000000000000000e+00 4.405851692511507e-01 6.717155615406296e-01 0.000000000000000e+00 3.108661768679045e-01 4.401587694435696e-01 0.000000000000000e+00 8.903374935751628e-01 5.298317609647162e-01 0.000000000000000e+00 5.337636846781881e-01 1.119457793706089e-01 0.000000000000000e+00 4.638071633258602e-01 8.894176464235550e-01 0.000000000000000e+00 1.103440217916095e-01 4.632948884003149e-01 0.000000000000000e+00 8.824677636795267e-01 7.368504859991440e-01 0.000000000000000e+00 7.370212440244595e-01 1.097964253678729e-01 0.000000000000000e+00 2.631396110533883e-01 8.809959638333399e-01 0.000000000000000e+00 1.190164503433553e-01 2.631521887657299e-01 0.000000000000000e+00 7.443262711786142e-01 8.870417634529453e-01 0.000000000000000e+00 8.868891732995268e-01 2.560221101450181e-01 0.000000000000000e+00 1.133218330296390e-01 7.441525939691115e-01 0.000000000000000e+00 2.559203017974330e-01 1.133295436221165e-01 0.000000000000000e+00 7.424808716016663e-01 3.986138223761216e-01 0.000000000000000e+00 6.054188573345922e-01 7.456941782159050e-01 0.000000000000000e+00 3.975872913300728e-01 2.526241588284512e-01 0.000000000000000e+00 2.580577183819916e-01 6.036739595749223e-01 0.000000000000000e+00 6.142080896929100e-01 5.220348583106467e-01 0.000000000000000e+00 5.208873425879845e-01 3.990422995790012e-01 0.000000000000000e+00 8.801665666670318e-02 9.102492524341748e-01 0.000000000000000e+00 9.102746851557741e-01 9.119861045675308e-01 0.000000000000000e+00 8.975126566524898e-02 8.801675238434796e-02 0.000000000000000e+00 9.121416801897935e-01 8.974623443180933e-02 0.000000000000000e+00 2.567236372031509e-01 3.821817147517051e-01 0.000000000000000e+00 3.836391856424191e-01 7.416011822662060e-01 0.000000000000000e+00 9.061229917788641e-01 4.397661165780427e-01 0.000000000000000e+00 4.396213509955152e-01 9.333436263400724e-02 0.000000000000000e+00 5.637395784657693e-01 9.050557920462406e-01 0.000000000000000e+00 9.425593221899588e-02 5.600143706998297e-01 0.000000000000000e+00 8.002282847878114e-01 7.413173225210187e-01 0.000000000000000e+00 7.475917500378439e-01 2.096060652455219e-01 0.000000000000000e+00 2.599332046268639e-01 7.969400291049720e-01 0.000000000000000e+00 2.032842424601615e-01 2.601622424388323e-01 0.000000000000000e+00 7.069255671821791e-01 7.923707150543984e-01 0.000000000000000e+00 7.919804277156113e-01 2.945639063861095e-01 0.000000000000000e+00 2.091144006854190e-01 7.060131151561713e-01 0.000000000000000e+00 2.951311216040563e-01 2.095654819556469e-01 0.000000000000000e+00 4.976508486218936e-01 5.864607765828778e-01 0.000000000000000e+00 4.255382448089687e-01 4.475656033583242e-01 0.000000000000000e+00 7.732905559451674e-01 5.845670180351498e-01 0.000000000000000e+00 6.327830359598302e-01 2.420497192047414e-01 0.000000000000000e+00 7.020317895612186e-01 4.994170690152414e-01 0.000000000000000e+00 4.982282759495711e-01 3.074262406441871e-01 0.000000000000000e+00 3.400347475592928e-01 3.571757225350826e-01 0.00000000000000
[...]
<PointData Scalars="pressure_p1," Vectors="" Tensors="">
<DataArray type="Float64" Name="pressure_p1" format="ascii">
6.567675084660587e-03 6.551949591022655e-03 6.567339279381660e-03 6.550825708615072e-03 7.176219426053799e-03 7.609879473311654e-03 7.655506932484221e-03 8.199656617893679e-03 8.366941071768823e-03 8.863548394932823e-03 5.737928429493906e-03 7.213966588785362e-03 9.382667092715251e-03 8.414819892425200e-03 7.857992888426771e-03 7.548405497252843e-03 7.789574532364507e-03 9.099035234937677e-03 7.539742726108133e-03 7.254041754615953e-03 7.362366178502509e-03 7.082953321585395e-03 2.405057951355673e-02 4.809546500265444e-02 6.964197481901654e-02 8.932331843938220e-02 1.068439980352318e-01 1.226442011106799e-01 1.337185566475477e-01 1.407364391080499e-01 1.448123174795555e-01 1.447778607575490e-01 1.407165183764061e-01 1.329296080803393e-01 1.219127231523591e-01 1.068352980993354e-01 8.884203061822520e-02 6.965472443207478e-02 4.821900911019165e-02 2.412823196389875e-02 7.174914039501845e-03 7.604848283568757e-03 7.641611279641744e-03 8.153481086213010e-03 8.273215883432623e-03 8.563877096386013e-03 5.498118724035352e-03 7.316820583618235e-03 9.597448153423010e-03 8.429025430040711e-03 7.851951220240565e-03 7.542908908217814e-03 7.786136363089838e-03 9.093392371756839e-03 7.533945988259585e-03 7.247729801348864e-03 7.354777113614723e-03 7.077563435770175e-03 2.403868184982613e-02 4.803508928366283e-02 6.944152808528035e-02 8.865519711336739e-02 1.061454909181586e-01 1.222081089951015e-01 1.337149488179302e-01 1.407883215821331e-01 1.448183067030986e-01 1.447678236495914e-01 1.407579753499613e-01 1.329967878001437e-01 1.219552401561414e-01 1.068581350039633e-01 8.885132826963411e-02 6.966018745362623e-02 4.822273735247472e-02 2.412984314377785e-02 1.453610423011538e-01 1.171435204189316e-01 1.142829105709405e-01 1.165817278175377e-01 1.159992541769434e-01 9.246614778650152e-02 1.452754754959595e-01 1.454436726058274e-01 9.037422271368512e-02 7.190651053327370e-02 7.206303108010147e-02 7.229171860117482e-02 7.160837527478404e-02 1.290774459872828e-01 1.426363132850596e-01 1.418373801302019e-01 1.301400191699265e-01 6.682506175072978e-02 1.302472019233433e-01 1.301441883570617e-01 6.833445897246526e-02 6.760217279887849e-02 1.313719246945100e-01 1.313171032539157e-01 6.768785446074362e-02 1.235555398897239e-01 1.404318487565994e-01 1.427587078438092e-01 1.202472056992671e-01 4.903039222588929e-02 1.444901407000860e-01 1.443371728410885e-01 4.939904667330974e-02 5.241794824218111e-02 1.069306193253222e-01 1.068997166654188e-01 5.309813059738612e-02 1.044583936038262e-01 5.050396625907349e-02 5.062201493552243e-02 1.045732281541839e-01 1.050700720501628e-01 1.373226527465728e-01 1.378133316674771e-01 1.051452146057033e-01 1.360103835758710e-01 1.450599616578185e-01 3.947765361771036e-02 4.021442297584971e-02 4.023414188964431e-02 3.938136794776792e-02 1.049140105586078e-01 1.358007169295956e-01 4.225331106363700e-02 1.426316958830567e-01 1.422914075640294e-01 4.248392156662102e-02 8.530914454471882e-02 1.034675405972098e-01 1.057826751877757e-01 8.655836704143428e-02 1.157365956624850e-01 8.834766560815967e-02 8.878150630961416e-02 1.163910113328480e-01 1.453783228902154e-01 1.413061531236543e-01 9.505158685560992e-02 1.329360499452127e-01 1.168767720962276e-01 1.453930115549046e-01 1.272958368064958e-01 1.287101905294179e-01 7.989013690391510e-02 3.718118110205459e-02 3.730187059173939e-02 7.898103357413383e-02 3.460896131248773e-02 8.045263614171294e-02 8.048407442891102e-02 3.456252888580735e-02 3.053339979976625e-02 1.378845478159602e-01 1.365051209755039e-01 3.356557038910534e-02 1.306008723281945e-01 1.270516531283050e-01 1.451123980428393e-01 1.159828667238394e-01 1.278965153951986e-01 3.620023415342339e-02 3.617474358042071e-02 1.281966461219086e-01 7.465453815701778e-02 1.415868929849071e-01 1.415759549098279e-01 7.540424955210794e-02 1.419328907919584e-01 1.412802178278516e-01 1.407159948706944e-01 7.969720729736618e-02 9.728746306608801e-02 1.416513682689275e-01 2.825563171619127e-02 1.235065901183621e-01 1.252344934164507e-01 2.939484487804769e-02 1.327246053675993e-01 1.441015105596642e-01 1.065634676407843e-01 1.368178067563212e-01 1.385427182153447e-01 1.233818755210589e-01 8.619643615787285e-02 1.389813736759400e-01 1.431468646690274e-01 9.698747930955860e-02 1.285695478236324e-01 1.191627055990652e-01 1.277884636127443e-01 9.721645805462091e-02 7.601339753891094e-02 2.679181958187815e-02 1.451888450297047e-01 1.451696513647154e-01 2.673358402652540e-02 1.439170809674234e-01 1.223463433660810e-01 6.991961394670627e-02 1.454214686536017e-01 1.453698333680483e-01 7.146062563559485e-02 6.834422958398197e-02 1.165656405996298e-01 6.956391576346371e-02 9.271352451715070e-02 7.157747034630524e-02 7.117197837894733e-02 9.300718090116072e-02 1.295093712634420e-01 2.498902291917918e-02 1.428253842201019e-01 1.426211802748967e-01 2.396988252037310e-02 1.369605075854151e-01 2.639135069438300e-02 9.574885429288831e-02 9.861844213995095e-02 2.662204213332045e-02 2.417278281613803e-02 9.622736600921408e-02 9.626026858184140e-02 2.414796768594080e-02 1.040425751764002e-01 1.073434379786197e-01 1.439936542071858e-01 1.225650131262267e-01 1.367444108765561e-01 2.367539519974472e-02 2.364378575258614e-02 1.369801496172898e-01 1.450715393839723e-01 2.205559442306786e-02 2.229509544338122e-02 2.229860150750046e-02 2.203320920807900e-02 2.250864424959081e-02 6.072621301130549e-02 6.071294928426748e-02 2.247839333284666e-02 2.344515610244730e-02 6.032379150660249e-02 6.003299266552176e-02 2.347377819605672e-02 6.707603785436345e-02 9.359163814077585e-02 9.372231438850878e-02 6.764594285987713e-02 1.204338607403354e-01 1.438999542891107e-01 1.017865725294462e-01 1.196767574680837e-01 6.627050726717758e-02 6.641824897514471e-02 1.198573091865849e-01 1.452375924812805e-01 1.212113433926590e-01 1.419124235563580e-01 1.309593783561349e-01 1.391383797685787e-01 1.391327088289401e-01 5.851691981329886e-02 1.269402102956854e-01 1.445779111604868e-01 1.159462988826818e-01 2.505228261125782e-02 2.503333949968557e-02 1.160393723268895e-01 1.358978633368373e-01 8.418831521210246e-02 1.367139644961131e-01 1.181207857417796e-01 1.399024077244227e-01 8.410923365387481e-02 1.360182928026102e-01 1.272915034679939e-01 1.034232321561580e-01 1.061662307800115e-01 1.076439420365052e-01 1.045316075950602e-01 1.143482163752861e-01 5.047962151754748e-02 1.358839089866440e-01 1.349997567281808e-01 5.057897079383828e-02 6.401133004721182e-02 4.953199129666794e-02 4.962057003448284e-02 6.368727967627608e-02 1.146902398281622e-01 1.451226094531884e-01 1.302196254394457e-01 1.137151654977787e-01 1.274212516211458e-01 8.392507986709377e-02 8.626356952793252e-02 8.708514542150095e-02 8.450823031797994e-02 1.346315466308538e-01 8.754216607693029e-02 1.427793383522134e-01 1.867370603828550e-02 1.430173695236355e-01 1.430874407041880e-01 1.865834310322735e-02 1.438539160254871e-01 1.435133496360806e-01 8.521148906409452e-02 5.338279451119652e-02 5.324068538016236e-02 8.531184983145164e-02 1.267939203822568e-01 8.132743416321297e-02 8.115805502941167e-02 1.270520513553355e-01 1.205865993929040e-01 1.242641940536308e-01 1.181388817313482e-01 8.467362334498511e-02 5.062474467064121e-02 1.452227452052094e-01 1.451978945740271e-01 5.116757512421068e-02 4.993053999035028e-02 1.215713561929637e-01 5.116432770418178e-02 1.450509693649051e-01 1.296338494324152e-01 8.762165581549551e-02 1.352533034786716e-01 5.200377104758908e-02 9.113612358617047e-02 1.424845068063824e-01 1.139647147130449e-01 1.820468799819235e-02 1.855143976169409e-02 1.129767291359358e-01 1.442434618000800e-01 1.440825286164647e-01 1.445788398605656e-01 1.435016441015220e-01 1.394355445040898e-01 1.110374152613519e-01 1.409634168930829e-01 9.687832730796375e-02 1.329286499480129e-01 1.488664371620567e-02 1.313228765063789e-01 1.315775046660898e-01 1.574261961436289e-02 1.023663536677625e-01 1.184214455846197e-01 4.815621814050560e-02 6.535037502308955e-02 6.541312602591680e-02 4.802714099423882e-02 4.812017664004033e-02 9.161374896798261e-02 9.247101219073829e-02 4.844082160585580e-02 4.651985370892457e-02 1.199679245295537e-01 1.197986431389688e-01 4.657137929790358e-02 1.383274457999777e-01 1.757665584824300e-02 7.913731185610315e-02 7.995954108868208e-02 1.763589954437095e-02 1.640670414045659e-02 7.965863241039012e-02 7.967081185234967e-02 1.639325510343229e-02 1.382019404703917e-01 1.325836033592433e-01 9.997871887742342e-02 1.438435645667693e-01 1.451767911643769e-01 1.271113717230934e-01 1.248122841416421e-01 1.452833650154018e-01 1.360554696888985e-01 1.444505953056004e-01 1.400509965163737e-01 6.003512906648954e-02 1.409955592484119e-01 1.391711527346912e-01 6.042942163214987e-02 1.413700093531663e-01 9.046386726749098e-02 1.438178853111216e-01 1.037103624901462e-01 1.454193745770148e-01 1.449016095078969e-01 1.038381281520773e-01 1.306316485847792e-01 1.322526249848223e-01 1.360330540619506e-01 1.171522744231348e-01 1.378874609120682e-01 1.428896575934747e-02 1.480384732896570e-02 1.376468137336991e-01 8.462198690262342e-02 1.358157399744495e-01 1.278758212864786e-01 1.702156569205702e-02 1.701273755290719e-02 1.280072171326487e-01 1.280284167065290e-01 1.436824077347706e-01 7.002993615583904e-02 1.437953671960371e-01 9.208074225027336e-02 4.096641565779173e-02 4.090450164603588e-02 9.213198515052426e-02 1.207340308260042e-01 1.058247663444109e-01 1.223679352344977e-01 4.596336638377756e-02 1.314438624413056e-01 4.856409253556883e-02 1.223112375153448e-01 1.368378784241624e-01 6.681975333997148e-02 1.192574748962304e-01 1.439653080276705e-01 1.095978323158817e-01 1.417928994222738e-01 1.414527904702694e-01 4.163342382756925e-02 1.273401771793165e-01 5.359794861128485e-02 5.365390997898523e-02 1.276262236055515e-01 1.444611405212390e-01 8.901354339587941e-02 1.444362179124666e-01 3.892446672630043e-02 1.741156210891520e-02 1.740473913259765e-02 3.885581298216081e-02 1.701717266944117e-02 3.919901658145409e-02 3.920421414412260e-02 1.699661735626731e-02 6.313293463667308e-02 1.440249397148984e-01 6.428743519561433e-02 1.389863139042159e-01 1.421977087082400e-01 1.100916771689430e-01 1.147494327616411e-01 7.879829414778372e-02 1.444369507531881e-01 1.442766045946755e-01 8.281373878691356e-02 1.413834614805310e-01 1.229900656805492e-01 1.046879328755338e-01 1.202830426595174e-01 1.373189238493557e-01 1.358638394385165e-01 1.188280480028279e-01 1.048799110072689e-01 9.950178580755953e-02 1.286574489378942e-01 1.141820154705328e-01 5.527873635261878e-02 8.087181875303383e-02 8.040277480989122e-02 5.551017775328023e-02 6.797892973388417e-02 1.396477083114394e-01 6.776016996363990e-02 1.377242068381943e-01 1.159998530041176e-02 1.165773133106739e-02 1.165857316974232e-02 1.159583844452579e-02 1.453467841798799e-01 1.149735070448417e-01 1.416416869120736e-01 1.099764365344124e-01 1.328859957415986e-01 1.419606622338176e-01 8.827011720619381e-02 9.914755153911409e-02 9.987506107682066e-02 8.918979269083709e-02 1.383061924330456e-01 7.342906667295308e-02 1.070237869412978e-01 1.073597862257704e-01 7.380708494228251e-02 1.368775671481007e-01 7.385326289884905e-02 6.865459265018418e-02 1.063411828119152e-01 6.958467577202390e-02 3.533567323987651e-02 1.139966863891795e-01 3.599156719953656e-02 
</DataArray>
</PointData>
<CellData Scalars="pressure_p0," Vectors="velocity_p0," Tensors="">
<DataArray type="Float64" Name="pressure_p0" format="ascii">