<?xml version="1.0"?>
<VTKFile type="UnstructuredGrid" version="0.1" byte_order="LittleEndian">
<UnstructuredGrid>
<Piece NumberOfPoints="510" NumberOfCells="942">
<Points>
<DataArray type="Float64" NumberOfComponents="3" format="ascii">
0.000000000000000e+00 0.000000000000000e+00 0.000000000000000e+00 0.000000000000000e+00 1.000000000000000e+00 0.000000000000000e+00 1.000000000000000e+00 1.000000000000000e+00 0.000000000000000e+00 1.000000000000000e+00 0.000000000000000e+00 0.000000000000000e+00 0.000000000000000e+00 5.263157894724208e-02 0.000000000000000e+00 0.000000000000000e+00 1.052631578944842e-01 0.000000000000000e+00 0.000000000000000e+00 1.578947368417263e-01 0.000000000000000e+00 0.000000000000000e+00 2.105263157889683e-01 0.000000000000000e+00 0.000000000000000e+00 2.631578947362221e-01 0.000000000000000e+00 0.000000000000000e+00 3.157894736835109e-01 0.000000000000000e+00 0.000000000000000e+00 3.684210526307997e-01 0.000000000000000e+00 0.000000000000000e+00 4.210526315780885e-01 0.000000000000000e+00 0.000000000000000e+00 4.736842105253773e-01 0.000000000000000e+00 0.000000000000000e+00 5.263157894727392e-01 0.000000000000000e+00 0.000000000000000e+00 5.789473684201740e-01 0.000000000000000e+00 0.000000000000000e+00 6.315789473676089e-01 0.000000000000000e+00 0.000000000000000e+00 6.842105263150439e-01 0.000000000000000e+00 0.000000000000000e+00 7.368421052624787e-01 0.000000000000000e+00 0.000000000000000e+00 7.894736842099684e-01 0.000000000000000e+00 0.000000000000000e+00 8.421052631574764e-01 0.000000000000000e+00 0.000000000000000e+00 8.947368421049843e-01 0.000000000000000e+00 0.000000000000000e+00 9.473684210524922e-01 0.000000000000000e+00 5.263157894724208e-02 1.000000000000000e+00 0.000000000000000e+00 1.052631578944842e-01 1.000000000000000e+00 0.000000000000000e+00 1.578947368417263e-01 1.000000000000000e+00 0.000000000000000e+00 2.105263157889683e-01 1.000000000000000e+00 0.000000000000000e+00 2.631578947362221e-01 1.000000000000000e+00 0.000000000000000e+00 3.157894736835109e-01 1.000000000000000e+00 0.000000000000000e+00 3.684210526307997e-01 1.000000000000000e+00 0.000000000000000e+00 4.210526315780885e-01 1.000000000000000e+00 0.000000000000000e+00 4.736842105253773e-01 1.000000000000000e+00 0.000000000000000e+00 5.263157894727392e-01 1.000000000000000e+00 0.000000000000000e+00 5.789473684201740e-01 1.000000000000000e+00 0.000000000000000e+00 6.315789473676089e-01 1.000000000000000e+00 0.000000000000000e+00 6.842105263150439e-01 1.000000000000000e+00 0.000000000000000e+00 7.368421052624787e-01 1.000000000000000e+00 0.000000000000000e+00 7.894736842099684e-01 1.000000000000000e+00 0.000000000000000e+00 8.421052631574764e-01 1.000000000000000e+00 0.000000000000000e+00 8.947368421049843e-01 1.000000000000000e+00 0.000000000000000e+00 9.473684210524922e-01 1.000000000000000e+00 0.000000000000000e+00 1.000000000000000e+00 9.473684210527046e-01 0.000000000000000e+00 1.000000000000000e+00 8.947368421054093e-01 0.000000000000000e+00 1.000000000000000e+00 8.421052631581138e-01 0.000000000000000e+00 1.000000000000000e+00 7.894736842108185e-01 0.000000000000000e+00 1.000000000000000e+00 7.368421052635596e-01 0.000000000000000e+00 1.000000000000000e+00 6.842105263164103e-01 0.000000000000000e+00 1.000000000000000e+00 6.315789473692610e-01 0.000000000000000e+00 1.000000000000000e+00 5.789473684221118e-01 0.000000000000000e+00 1.000000000000000e+00 5.263157894749624e-01 0.000000000000000e+00 1.000000000000000e+00 4.736842105276671e-01 0.000000000000000e+00 1.000000000000000e+00 4.210526315802255e-01 0.000000000000000e+00 1.000000000000000e+00 3.684210526327841e-01 0.000000000000000e+00 1.000000000000000e+00 3.157894736853426e-01 0.000000000000000e+00 1.000000000000000e+00 2.631578947379012e-01 0.000000000000000e+00 1.000000000000000e+00 2.105263157903502e-01 0.000000000000000e+00 1.000000000000000e+00 1.578947368427626e-01 0.000000000000000e+00 1.000000000000000e+00 1.052631578951750e-01 0.000000000000000e+00 1.000000000000000e+00 5.263157894758752e-02 0.000000000000000e+00 9.473684210527046e-01 0.000000000000000e+00 0.000000000000000e+00 8.947368421054093e-01 0.000000000000000e+00 0.000000000000000e+00 8.421052631581138e-01 0.000000000000000e+00 0.000000000000000e+00 7.894736842108185e-01 0.000000000000000e+00 0.000000000000000e+00 7.368421052635596e-01 0.000000000000000e+00 0.000000000000000e+00 6.842105263164103e-01 0.000000000000000e+00 0.000000000000000e+00 6.315789473692610e-01 0.000000000000000e+00 0.000000000000000e+00 5.789473684221118e-01 0.000000000000000e+00 0.000000000000000e+00 5.263157894749624e-01 0.000000000000000e+00 0.000000000000000e+00 4.736842105276671e-01 0.000000000000000e+00 0.000000000000000e+00 4.210526315802255e-01 0.000000000000000e+00 0.000000000000000e+00 3.684210526327841e-01 0.000000000000000e+00 0.000000000000000e+00 3.157894736853426e-01 0.000000000000000e+00 0.000000000000000e+00 2.631578947379012e-01 0.000000000000000e+00 0.000000000000000e+00 2.105263157903502e-01 0.000000000000000e+00 0.000000000000000e+00 1.578947368427626e-01 0.000000000000000e+00 0.000000000000000e+00 1.052631578951750e-01 0.000000000000000e+00 0.000000000000000e+00 5.263157894758752e-02 0.000000000000000e+00 0.000000000000000e+00 5.031605205316716e-01 4.972204671541604e-01 0.000000000000000e+00 7.018426345490237e-01 2.903961232561490e-01 0.000000000000000e+00 7.124371303406183e-01 7.090403108987684e-01 0.000000000000000e+00 2.959265031394954e-01 2.966663041294382e-01 0.000000000000000e+00 2.938186736531156e-01 7.067766661704963e-01 0.000000000000000e+00 7.801937928777617e-01 4.904391120978470e-01 0.000000000000000e+00 4.931688450815972e-01 2.090043942654225e-01 0.000000000000000e+00 5.076595809067114e-01 7.864384670220363e-01 0.000000000000000e+00 2.135556561893741e-01 5.065362727025884e-01 0.000000000000000e+00 1.650664472902759e-01 8.338016493463405e-01 0.000000000000000e+00 8.342573608178855e-01 8.350202932814157e-01 0.000000000000000e+00 1.662185978925142e-01 1.650759962470238e-01 0.000000000000000e+00 8.355533113566691e-01 1.666700417113507e-01 0.000000000000000e+00 6.519512560047181e-01 4.312189365808246e-01 0.000000000000000e+00 5.621362444622332e-01 6.475298679778593e-01 0.000000000000000e+00 4.294822249996804e-01 3.549700593229496e-01 0.000000000000000e+00 3.536320720593975e-01 5.735590631903335e-01 0.000000000000000e+00 8.479412021123137e-01 6.441783643631318e-01 0.000000000000000e+00 6.465300124854763e-01 1.543069656979213e-01 0.000000000000000e+00 3.538793194897916e-01 8.442389788902098e-01 0.000000000000000e+00 1.557822789109310e-01 3.538322345572719e-01 0.000000000000000e+00 8.460132357852174e-01 3.583090328733871e-01 0.000000000000000e+00 6.409161858563438e-01 8.499201512288731e-01 0.000000000000000e+00 3.582865798996975e-01 1.537687516567927e-01 0.000000000000000e+00 1.541020176305262e-01 6.424933554336261e-01 0.000000000000000e+00 6.771662389406350e-01 5.788258972593741e-01 0.000000000000000e+00 5.826653097442865e-01 3.227153096450745e-01 0.000000000000000e+00 4.405851692511507e-01 6.717155615406296e-01 0.000000000000000e+00 3.108661768679045e-01 4.401587694435696e-01 0.000000000000000e+00 8.903374935751628e-01 5.298317609647162e-01 0.000000000000000e+00 5.337636846781881e-01 1.119457793706089e-01 0.000000000000000e+00 4.638071633258602e-01 8.894176464235550e-01 0.000000000000000e+00 1.103440217916095e-01 4.632948884003149e-01 0.000000000000000e+00 8.824677636795267e-01 7.368504859991440e-01 0.000000000000000e+00 7.370212440244595e-01 1.097964253678729e-01 0.000000000000000e+00 2.631396110533883e-01 8.809959638333399e-01 0.000000000000000e+00 1.190164503433553e-01 2.631521887657299e-01 0.000000000000000e+00 7.443262711786142e-01 8.870417634529453e-01 0.000000000000000e+00 8.868891732995268e-01 2.560221101450181e-01 0.000000000000000e+00 1.133218330296390e-01 7.441525939691115e-01 0.000000000000000e+00 2.559203017974330e-01 1.133295436221165e-01 0.000000000000000e+00 7.424808716016663e-01 3.986138223761216e-01 0.000000000000000e+00 6.054188573345922e-01 7.456941782159050e-01 0.000000000000000e+00 3.975872913300728e-01 2.526241588284512e-01 0.000000000000000e+00 2.580577183819916e-01 6.036739595749223e-01 0.000000000000000e+00 6.142080896929100e-01 5.220348583106467e-01 0.000000000000000e+00 5.208873425879845e-01 3.990422995790012e-01 0.000000000000000e+00 8.801665666670318e-02 9.102492524341748e-01 0.000000000000000e+00 9.102746851557741e-01 9.119861045675308e-01 0.000000000000000e+00 8.975126566524898e-02 8.801675238434796e-02 0.000000000000000e+00 9.121416801897935e-01 8.974623443180933e-02 0.000000000000000e+00 2.567236372031509e-01 3.821817147517051e-01 0.000000000000000e+00 3.836391856424191e-01 7.416011822662060e-01 0.000000000000000e+00 9.061229917788641e-01 4.397661165780427e-01 0.000000000000000e+00 4.396213509955152e-01 9.333436263400724e-02 0.000000000000000e+00 5.637395784657693e-01 9.050557920462406e-01 0.000000000000000e+00 9.425593221899588e-02 5.600143706998297e-01 0.000000000000000e+00 8.002282847878114e-01 7.413173225210187e-01 0.000000000000000e+00 7.475917500378439e-01 2.096060652455219e-01 0.000000000000000e+00 2.599332046268639e-01 7.969400291049720e-01 0.000000000000000e+00 2.032842424601615e-01 2.601622424388323e-01 0.000000000000000e+00 7.069255671821791e-01 7.923707150543984e-01 0.000000000000000e+00 7.919804277156113e-01 2.945639063861095e-01 0.000000000000000e+00 2.091144006854190e-01 7.060131151561713e-01 0.000000000000000e+00 2.951311216040563e-01 2.095654819556469e-01 0.000000000000000e+00 4.976508486218936e-01 5.864607765828778e-01 0.000000000000000e+00 4.255382448089687e-01 4.475656033583242e-01 0.000000000000000e+00 7.732905559451674e-01 5.845670180351498e-01 0.000000000000000e+00 6.327830359598302e-01 2.420497192047414e-01 0.000000000000000e+00 7.020317895612186e-01 4.994170690152414e-01 0.000000000000000e+00 4.982282759495711e-01 3.074262406441871e-01 0.000000000000000e+00 3.400347475592928e-01 3.571757225350826e-01 0.00000000000000
[...]
<PointData Scalars="pressure_p1," Vectors="" Tensors="">
<DataArray type="Float64" Name="pressure_p1" format="ascii">
1.721106299943477e-02 1.716988347313404e-02 1.721019446138356e-02 1.716688095156882e-02 1.880579387071589e-02 1.994222180302551e-02 2.006178080897206e-02 2.148774417050124e-02 2.192610888407796e-02 2.322747845966002e-02 1.503658852280384e-02 1.890462787957361e-02 2.458783258211443e-02 2.205153480274312e-02 2.059234642476558e-02 1.978106614206112e-02 2.041308484195062e-02 2.384463463854846e-02 1.975842320023451e-02 1.900974291938431e-02 1.929362739731340e-02 1.856141548716945e-02 6.302637483561177e-02 1.260378227303879e-01 1.825020810355097e-01 2.340785174583989e-01 2.799927611697769e-01 3.213983517383782e-01 3.504195080264341e-01 3.688103564912407e-01 3.794914528888294e-01 3.794011256267626e-01 3.687580503399024e-01 3.483518532022019e-01 3.194812739395707e-01 2.799697514094760e-01 2.328170670704258e-01 1.825353177761907e-01 1.263614491560424e-01 6.322980078461574e-02 1.880238478906772e-02 1.992904750440770e-02 2.002537383481853e-02 2.136674128470884e-02 2.168049474167318e-02 2.244216278781496e-02 1.440814289087397e-02 1.917414415706159e-02 2.515064773093439e-02 2.208872694048601e-02 2.057647514383222e-02 1.976661976497443e-02 2.040402522518165e-02 2.382978354597329e-02 1.974317545488109e-02 1.899314342142945e-02 1.927367796671814e-02 1.854722964053716e-02 6.299498759394885e-02 1.258791945873741e-01 1.819762206218701e-01 2.323269504879479e-01 2.781614661982518e-01 3.202546767092421e-01 3.504091775997578e-01 3.689454707876921e-01 3.795063628857434e-01 3.793741240898598e-01 3.688660894485842e-01 3.485274033885598e-01 3.195922936719558e-01 2.800292968588638e-01 2.328412156170854e-01 1.825494841679747e-01 1.263711263701602e-01 6.323397987798994e-02 3.809268669944870e-01 3.069816064934808e-01 2.994855684720388e-01 3.055096426376695e-01 3.039835722654978e-01 2.423126792529513e-01 3.807037217745659e-01 3.811450217637833e-01 2.368309422715490e-01 1.884361772250443e-01 1.888461650104833e-01 1.894453570244577e-01 1.876543543336992e-01 3.382546995797520e-01 3.737870989212927e-01 3.716932404391113e-01 3.410395995882798e-01 1.751190574000832e-01 3.413213188150842e-01 3.410521430515932e-01 1.790745994945028e-01 1.771553538276059e-01 3.442693755829706e-01 3.441253007213522e-01 1.773802518963799e-01 3.237843916806209e-01 3.680099760461397e-01 3.741080932748712e-01 3.151147861595161e-01 1.284868803255846e-01 3.786461488277011e-01 3.782460372533872e-01 1.294531095995092e-01 1.373645980659625e-01 2.802187888140462e-01 2.801385443934498e-01 1.391470575477176e-01 2.737406887088917e-01 1.323487116401874e-01 1.326584118334235e-01 2.740413710675126e-01 2.753420508999360e-01 3.598629856751380e-01 3.611485354827002e-01 2.755394000324085e-01 3.564228877312776e-01 3.801379594277177e-01 1.034541445533151e-01 1.053847934962924e-01 1.054364025496350e-01 1.032014918968925e-01 2.749333986397588e-01 3.558747706593218e-01 1.107271450207372e-01 3.737761257928357e-01 3.728849671021198e-01 1.113316609289575e-01 2.235581220652774e-01 2.711432026774686e-01 2.772108742338891e-01 2.268317368497468e-01 3.032955563215990e-01 2.315203045495806e-01 2.326577304970886e-01 3.050102703108531e-01 3.809724089698089e-01 3.703008732736189e-01 2.490881366065048e-01 3.483671760367468e-01 3.062821095946743e-01 3.810111533381511e-01 3.335863308754181e-01 3.372930725132804e-01 2.093580764952155e-01 9.743582303332843e-02 9.775206712538759e-02 2.069750777658748e-01 9.069524533493777e-02 2.108319658439508e-01 2.109141813103701e-01 9.057329948199293e-02 8.001455470904521e-02 3.613358035385288e-01 3.577217734427580e-01 8.796059046179108e-02 3.422475305982480e-01 3.329462091737469e-01 3.802762657321574e-01 3.039398527652566e-01 3.351621300464847e-01 9.486500476853611e-02 9.479799332869683e-02 3.359482109023575e-01 1.956363745712173e-01 3.710378324097983e-01 3.710096021518484e-01 1.976013643490822e-01 3.719433345613424e-01 3.702339266654083e-01 3.687560881011351e-01 2.088512373326320e-01 2.549476790990716e-01 3.712053897299823e-01 7.404559586273220e-02 3.236573850552373e-01 3.281863190426714e-01 7.703100323056633e-02 3.478124781881008e-01 3.776275351012404e-01 2.792557742732213e-01 3.585390254223561e-01 3.630590954683459e-01 3.233307741791975e-01 2.258830646854419e-01 3.642088983197040e-01 3.751252336001221e-01 2.541612888320384e-01 3.369247574849901e-01 3.122729323202802e-01 3.348781549931667e-01 2.547618343919710e-01 1.991974739635303e-01 7.020944729897394e-02 3.804773497724198e-01 3.804277715887977e-01 7.005693646803628e-02 3.771430243836913e-01 3.206163726590064e-01 1.832282303691146e-01 3.810866064336662e-01 3.809518703612165e-01 1.872667649670261e-01 1.791003255427409e-01 3.054686079537707e-01 1.822966032497748e-01 2.429622283496639e-01 1.875737172663623e-01 1.865105978473871e-01 2.437316139202128e-01 3.393872938751215e-01 6.548514796783345e-02 3.742836922619275e-01 3.737493804008596e-01 6.281449565349539e-02 3.589129986231793e-01 6.916026339996864e-02 2.509163252628706e-01 2.584370261299726e-01 6.976480054584236e-02 6.334644515355760e-02 2.521708382523943e-01 2.522568219070034e-01 6.328123903919532e-02 2.726494140606865e-01 2.812994566836644e-01 3.773443180175566e-01 3.211890291235513e-01 3.583487759507563e-01 6.204282655724397e-02 6.195986845214026e-02 3.589660089872361e-01 3.801682394837305e-01 5.779835601407055e-02 5.842592326401297e-02 5.843507322934873e-02 5.773950401420861e-02 5.898555170082247e-02 1.591373512426232e-01 1.591027123168562e-01 5.890609362950424e-02 6.143968206675512e-02 1.580830514714424e-01 1.573204924728333e-01 6.151465968326782e-02 1.757772109846862e-01 2.452629625933274e-01 2.456060861316436e-01 1.772706368414716e-01 3.156048582606709e-01 3.770993282628217e-01 2.667377087270781e-01 3.136213490374032e-01 1.736657568159827e-01 1.740533234937643e-01 3.140941861906509e-01 3.806039880793661e-01 3.176411837587589e-01 3.718904440288879e-01 3.431868701452552e-01 3.646213480771405e-01 3.646072988539573e-01 1.533470679010402e-01 3.326539827027701e-01 3.788749246636369e-01 3.038457534441467e-01 6.565115307292642e-02 6.560134750058944e-02 3.040893120320156e-01 3.561296466822978e-01 2.206206420675086e-01 3.582676363744817e-01 3.095424819665241e-01 3.666227798810784e-01 2.204129998337228e-01 3.564448490097151e-01 3.335754681175370e-01 2.710268602977499e-01 2.782155057081184e-01 2.820878152173144e-01 2.739320390889750e-01 2.996561243386820e-01 1.322846941117781e-01 3.560930721266264e-01 3.537765956082672e-01 1.325453069480871e-01 1.677464290909985e-01 1.298020537931827e-01 1.300341160016261e-01 1.668967214474187e-01 3.005529573559266e-01 3.803023023533512e-01 3.412478190460102e-01 2.979974579783707e-01 3.339156714229332e-01 2.199313302443961e-01 2.260591355642164e-01 2.282127409756027e-01 2.214594163282404e-01 3.528112541574449e-01 2.294094849650287e-01 3.741613396188223e-01 4.893556497614614e-02 3.747875766363560e-01 3.749705628061062e-01 4.889522149754068e-02 3.769773968922898e-01 3.760850303477400e-01 2.233027744587337e-01 1.398933729398309e-01 1.395205700520112e-01 2.235656107865192e-01 3.322721712970825e-01 2.131236860357801e-01 2.126793740053423e-01 3.329482970271935e-01 3.160039226559148e-01 3.256419467125458e-01 3.095899134173017e-01 2.218919875791495e-01 1.326649441672948e-01 3.805660381667838e-01 3.805015650223847e-01 1.340876497799108e-01 1.308460462879848e-01 3.185866412329983e-01 1.340792992078576e-01 3.801144013435127e-01 3.397141898062985e-01 2.296177230154132e-01 3.544399634091702e-01 1.362788675810155e-01 2.388272883269023e-01 3.733898414701930e-01 2.986530977022342e-01 4.770652989649832e-02 4.861522362822891e-02 2.960631596031118e-01 3.779994352752305e-01 3.775769276280896e-01 3.788770341295289e-01 3.760546622052730e-01 3.653993550089678e-01 2.909799287343375e-01 3.694041385836946e-01 2.538753547683748e-01 3.483471887572573e-01 3.901133084326905e-02 3.441405391254651e-01 3.448087013312615e-01 4.125449027598884e-02 2.682573726755559e-01 3.103313536076442e-01 1.261968714302112e-01 1.712553309657998e-01 1.714196605565115e-01 1.258582355011901e-01 1.261021257163251e-01 2.400799095992324e-01 2.423271204556877e-01 1.269423709019231e-01 1.219080051248405e-01 3.143842349937174e-01 3.139409706762030e-01 1.220433217595565e-01 3.624955467730606e-01 4.606082534008438e-02 2.073846689690402e-01 2.095400219488478e-01 4.621606463471625e-02 4.299493800824028e-02 2.087512805837765e-01 2.087830181953709e-01 4.295956579503258e-02 3.621666328584134e-01 3.474433231487721e-01 2.620004792330006e-01 3.769507665103078e-01 3.804447963084901e-01 3.331027384131384e-01 3.270778042549606e-01 3.807233776498786e-01 3.565414949368793e-01 3.785413346073225e-01 3.670124457961142e-01 1.573253989043665e-01 3.694883786982575e-01 3.647078487456875e-01 1.583589416747237e-01 3.704696643293319e-01 2.370659780156010e-01 3.768831700415424e-01 2.717791205315763e-01 3.810810644709946e-01 3.797239329870166e-01 2.721138642056666e-01 3.423278968795886e-01 3.465755258480228e-01 3.564825047525108e-01 3.070041570365115e-01 3.613435276413421e-01 3.744506089512130e-02 3.879436850878978e-02 3.607137601336050e-01 2.217571086737946e-01 3.559130237764956e-01 3.351079972696928e-01 4.460609198994110e-02 4.458285596429342e-02 3.354518838889464e-01 3.355059377859329e-01 3.765299168442632e-01 1.835175622374183e-01 3.768259370728211e-01 2.413042317481774e-01 1.073553433850326e-01 1.071927921399029e-01 2.414383106641057e-01 3.163909446223824e-01 2.773196914843100e-01 3.206726211161182e-01 1.204497279899846e-01 3.444582649634446e-01 1.272651508135473e-01 3.205243847238145e-01 3.585913681195472e-01 1.751049234697409e-01 3.125222073622003e-01 3.772702394819614e-01 2.872077900027852e-01 3.715778778068785e-01 3.706874176548668e-01 1.091028540098471e-01 3.337040545920211e-01 1.404565109511159e-01 1.406034708065388e-01 3.344532558363339e-01 3.785702975164334e-01 2.332651956333638e-01 3.785040611256313e-01 1.020045175160144e-01 4.562822685566641e-02 4.561037333722302e-02 1.018242728802937e-01 4.459477623704974e-02 1.027238879651309e-01 1.027374374244521e-01 4.454076532179372e-02 1.654433509909909e-01 3.774270127434383e-01 1.684690406706186e-01 3.642216106265506e-01 3.726371680323290e-01 2.885023741740685e-01 3.007079677193524e-01 2.064952972491345e-01 3.785065213779958e-01 3.780867562210239e-01 2.170182976293002e-01 3.705036535278900e-01 3.223026958789298e-01 2.743409115760032e-01 3.152093414935941e-01 3.598524236718724e-01 3.560397133448128e-01 3.113966305027636e-01 2.748445615852806e-01 2.607504541852718e-01 3.371555145256362e-01 2.992203666228371e-01 1.448616968584225e-01 2.119305416688668e-01 2.107007600414124e-01 1.454681520932722e-01 1.781429355444062e-01 3.659548261003752e-01 1.775693313089378e-01 3.609155149797948e-01 3.039864445612427e-02 3.054993890004423e-02 3.055212480744646e-02 3.038767625516995e-02 3.808896162192632e-01 3.012947432369756e-01 3.711812335884591e-01 2.881996964113849e-01 3.482353634214268e-01 3.720161149127015e-01 2.313172698236183e-01 2.598228262614590e-01 2.617291692779208e-01 2.337279201944188e-01 3.624391461714940e-01 1.924253101000913e-01 2.804632475741407e-01 2.813435397117714e-01 1.934164093344864e-01 3.586973382008910e-01 1.935368822584436e-01 1.799137807502245e-01 2.786747042037289e-01 1.823511045966083e-01 9.259935329744032e-02 2.987367982443559e-01 9.431817977236306e-02 
</DataArray>
</PointData>
<CellData Scalars="pressure_p0," Vectors="velocity_p0," Tensors="">
<DataArray type="Float64" Name="pressure_p0" format="ascii">