<?xml version="1.0"?>
<VTKFile type="UnstructuredGrid" version="0.1" byte_order="LittleEndian">
<UnstructuredGrid>
<Piece NumberOfPoints="1896" NumberOfCells="677">
<Points>
<DataArray type="Float64" NumberOfComponents="3" format="ascii">
0.000000000000000e+00 3.750000000000000e+00 0.000000000000000e+00 5.624999999964863e-01 3.999999999998438e+00 0.000000000000000e+00 5.624999999964863e-01 3.999999999998438e+00 0.000000000000000e+00 1.124999999995812e+00 4.249999999998138e+00 0.000000000000000e+00 1.124999999995812e+00 4.249999999998138e+00 0.000000000000000e+00 1.687499999998485e+00 4.499999999999327e+00 0.000000000000000e+00 1.687499999998485e+00 4.499999999999327e+00 0.000000000000000e+00 2.250000000000000e+00 4.750000000000000e+00 0.000000000000000e+00 2.250000000000000e+00 4.750000000000000e+00 0.000000000000000e+00 1.750000000000000e+00 5.000000000000000e+00 0.000000000000000e+00 2.250000000000000e+00 4.750000000000000e+00 0.000000000000000e+00 2.875000000000000e+00 4.375000000000000e+00 0.000000000000000e+00 2.875000000000000e+00 4.375000000000000e+00 0.000000000000000e+00 3.500000000000000e+00 4.000000000000000e+00 0.000000000000000e+00 3.500000000000000e+00 4.000000000000000e+00 0.000000000000000e+00 2.750000000000000e+00 4.000000000000000e+00 0.000000000000000e+00 2.250000000000000e+00 4.750000000000000e+00 0.000000000000000e+00 2.687500000002093e+00 5.000000000001196e+00 0.000000000000000e+00 2.687500000002093e+00 5.000000000001196e+00 0.000000000000000e+00 3.125000000002093e+00 5.250000000001196e+00 0.000000000000000e+00 3.125000000002093e+00 5.250000000001196e+00 0.000000000000000e+00 3.562500000002093e+00 5.500000000001196e+00 0.000000000000000e+00 3.562500000002093e+00 5.500000000001196e+00 0.000000000000000e+00 4.000000000000000e+00 5.750000000000000e+00 0.000000000000000e+00 4.000000000000000e+00 5.750000000000000e+00 0.000000000000000e+00 3.500000000000000e+00 5.000000000000000e+00 0.000000000000000e+00 4.000000000000000e+00 5.750000000000000e+00 0.000000000000000e+00 3.250000000000000e+00 6.250000000000000e+00 0.000000000000000e+00 4.000000000000000e+00 5.750000000000000e+00 0.000000000000000e+00 4.500000000000000e+00 6.000000000000000e+00 0.000000000000000e+00 4.500000000000000e+00 6.000000000000000e+00 0.000000000000000e+00 5.000000000000000e+00 6.250000000000000e+00 0.000000000000000e+00 4.750000000000000e+00 7.250000000000000e+00 0.000000000000000e+00 4.500000000005181e+00 6.750000000010362e+00 0.000000000000000e+00 4.500000000005181e+00 6.750000000010362e+00 0.000000000000000e+00 4.250000000005181e+00 6.250000000010362e+00 0.000000000000000e+00 4.250000000005181e+00 6.250000000010362e+00 0.000000000000000e+00 4.000000000000000e+00 5.750000000000000e+00 0.000000000000000e+00 4.000000000000000e+00 5.750000000000000e+00 0.000000000000000e+00 4.625000000000000e+00 5.375000000000000e+00 0.000000000000000e+00 4.625000000000000e+00 5.375000000000000e+00 0.000000000000000e+00 5.250000000000000e+00 5.000000000000000e+00 0.000000000000000e+00 5.250000000000000e+00 5.000000000000000e+00 0.000000000000000e+00 4.750000000000000e+00 4.750000000000000e+00 0.000000000000000e+00 3.500000000000000e+00 4.000000000000000e+00 0.000000000000000e+00 4.250000000000000e+00 3.500000000000000e+00 0.000000000000000e+00 4.250000000000000e+00 4.750000000000000e+00 0.000000000000000e+00 4.750000000000000e+00 4.375000000000000e+00 0.000000000000000e+00 4.750000000000000e+00 4.375000000000000e+00 0.000000000000000e+00 5.250000000000000e+00 4.000000000000000e+00 0.000000000000000e+00 4.250000000000000e+00 1.500000000000000e+00 0.000000000000000e+00 4.624999999997918e+00 1.874999999997918e+00 0.000000000000000e+00 4.624999999997918e+00 1.874999999997918e+00 0.000000000000000e+00 5.000000000000000e+00 2.250000000000000e+00 0.000000000000000e+00 5.000000000000000e+00 2.250000000000000e+00 0.000000000000000e+00 5.250000000000000e+00 1.750000000000000e+00 0.000000000000000e+00 5.250000000000000e+00 1.750000000000000e+00 0.000000000000000e+00 5.500000000000000e+00 1.250000000000000e+00 0.000000000000000e+00 5.500000000000000e+00 1.250000000000000e+00 0.000000000000000e+00 5.750000000000000e+00 7.500000000000000e-01 0.000000000000000e+00 5.000000000000000e+00 2.250000000000000e+00 0.000000000000000e+00 4.750000000000000e+00 2.750000000000000e+00 0.000000000000000e+00 5.000000000000000e+00 2.250000000000000e+00 0.000000000000000e+00 5.500000000000000e+00 2.750000000000000e+00 0.000000000000000e+00 5.500000000000000e+00 2.750000000000000e+00 0.000000000000000e+00 5.750000000000000e+00 2.500000000000000e+00 0.000000000000000e+00 3.500000000000000e+00 4.000000000000000e+00 0.000000000000000e+00 4.125000000008327e+00 4.000000000000000e+00 0.000000000000000e+00 4.125000000008327e+00 4.000000000000000e+00 0.000000000000000e+00 4.750000000000000e+00 4.000000000000000e+00 0.000000000000000e+00 4.750000000000000e+00 4.000000000000000e+00 0.000000000000000e+00 5.250000000000000e+00 4.000000000000000e+00 0.000000000000000e+00 5.500000000000000e+00 2.750000000000000e+00 0.000000000000000e+00 5.125000000000000e+00 3.375000000000000e+00 0.000000000000000e+00 5.125000000000000e+00 3.375000000000000e+00 0.000000000000000e+00 4.750000000000000e+00 4.000000000000000e+00 0.000000000000000e+00 6.000000000000000e+00 3.750000000000000e+00 0.000000000000000e+00 6.750000000000000e+00 4.000000000000000e+00 0.000000000000000e+00 5.250000000000000e+00 5.000000000000000e+00 0.000000000000000e+00 5.749999999991033e+00 4.666666666672645e+00 0.000000000000000e+00 5.749999999991033e+00 4.666666666672645e+00 0.000000000000000e+00 6.249999999991033e+00 4.333333333339311e+00 0.000000000000000e+00 6.249999999991033e+00 4.333333333339311e+00 0.000000000000000e+00 6.750000000000000e+00 4.000000000000000e+00 0.000000000000000e+00 5.500000000000000e+00 2.750000000000000e+00 0.000000000000000e+00 5.916666666666667e+00 3.166666666666667e+00 0.000000000000000e+00 5.916666666666667e+00 3.166666666666667e+00 0.000000000000000e+00 6.333333333333333e+00 3.583333333333333e+00 0.000000000000000e+00 6.333333333333333e+00 3.583333333333333e+00 0.000000000000000e+00 6.750000000000000e+00 4.000000000000000e+00 0.000000000000000e+00 5.250000000000000e+00 5.000000000000000e+00 0.000000000000000e+00 5.750000000000000e+00 5.250000000000000e+00 0.000000000000000e+00 5.750000000000000e+00 5.250000000000000e+00 0.000000000000000e+00 6.250000000000000e+00 5.500000000000000e+00 0.000000000000000e+00 6.250000000000000e+00 5.500000000000000e+00 0.000000000000000e+00 6.750000000000000e+00 5.750000000000000e+00 0.000000000000000e+00 6.750000000000000e+00 5.750000000000000e+00 0.000000000000000e+00 7.250000000000000e+00 6.000000000000000e+00 0.000000000000000e+00 7.250000000000000e+00 6.000000000000000e+00 0.000000000000000e+00 6.875000000000000e+00 5.625000000000000e+00 0.000000000000000e+00 6.875000000000000e+00 5.625000000000000e+00 0.000000000000000e+00 6.500000000000000e+00 5.250000000000000e+00 0.000000000000000e+00 7.250000000000000e+00 6.000000000000000e+00 0.000000000000000e+00 7.600000000000000e+00 6.400000000000000e+00 0.000000000000000e+00 7.600000000000000e+00 6.400000000000000e+00 0.000000000000000e+00 7.950000000000000e+00 6.800000000000000e+00 0.000000000000000e+00 7.950000000000000e+00 6.800000000000000e+00 0.000000000000000e+00 8.300000000000001e+00 7.200000000000000e+00 0.000000000000000e+00 8.300000000000001e+00 7.200000000000000e+00 0.000000000000000e+00 8.650000000000000e+00 7.600000000000000e+00 0.000000000000000e+00 8.650000000000000e+00 7.600000000000000e+00 0.000000000000000e+00 9.000000000000000e+00 8.000000000000000e+00 0.000000000000000e+00 7.250000000000000e+00 6.000000000000000e+00 0.000000000000000e+00 7.750000000000000e+00 6.250000000000000e+00 0.000000000000000e+00 6.750000000000000e+00 4.000000000000000e+00 0.000000000000000e+00 7.249999999991033e+00 4.333333333327355e+00 0.000000000000000e+00 7.249999999991033e+00 4.333333333327355e+00 0.000000000000000e+00 7.749999999991033e+00 4.666666666660689e+00 0.000000000000000e+00 7.749999999991033e+00 4.666666666660689e+00 0.000000000000000e+00 8.250000000000000e+00 5.000000000000000e+00 0.000000000000000e+00 8.250000000000000e+00 5.000000000000000e+00 0.000000000000000e+00 7.500000000000000e+00 4.750000000000000e+00 0.000000000000000e+00 7.750000000000000e+00 5.500000000000000e+00 0.000000000000000e+00 8.250000000000000e+00 5.000000000000000e+00 0.000000000000000e+00 8.250000000000000e+00 5.000000000000000e+00 0.000000000000000e+00 9.000000000000000e+00 5.500000000000000e+00 0.000000000000000e+00 8.250000000000000e+00 5.000000000000000e+00 0.000000000000000e+00 8.750000000000000e+00 5.166666666666667e+00 0.000000000000000e+00 8.750000000000000e+00 5.166666666666667e+00 0.000000000000000e+00 9.250000000000000e+00 5.333333333333333e+00 0.000000000000000e+00 9.250000000000000e+00 5.333333333333333e+00 0.000000000000000e+00 9.750000000000000e+00 5.500000000000000e+00 0.000000000000000e+00 8.250000000000000e+00 5.000000000000000e+00 0.000000000000000e+00 8.750000000000000e+00 4.666666666666667e+00 0.000000000000000e+00 8.750000000000000e+00 4.666666666666667e+00 0.000000000000000e+00 9.250000000000000e+00 4.333333333333333e+00 0.000000000000000e+00 9.250000000000000e+00 4.333333333333333e+00 0.000000000000000e+00 9.750000000000000e+00 4.000000000000000e+00 0.000000000000000e+00 8.250000000000000e+00 3.750000000000000e+00 0.000000000000000e+00 8.750000000000000e+00 3.833333333333334e+00 0.000000000000000e+00 8.750000000000000e+00 3.833333333333334e+00 0.000000000000000e+00 9.250000000000000e+00 3.916666666666667e+00 0.000000000000000e+00 9.250000000000000e+00 3.916666666666667e+00 0.000000000000000e+00 9.750000000000000e+00 4.000000000000000e+00 0.000000000000000e+00 9.750000000000000e+00 4.000000000000000e+00 0.000000000000000e+00 1.025000000000000e+01 4.083333333333333e+00 0.000000000000000e+00 1.025000000000000e+01 4.083333333333333e+00 0.000000000000000e+00 1.075000000000000e+01 4.166666666666667e+00 0.0000000000000
[...]
<PointData Scalars="A_conc," Vectors="" Tensors="">
<DataArray type="Float64" Name="A_conc" format="ascii">
9.741051684548565e-01 9.747985827154084e-01 9.747929002358812e-01 9.754492618951125e-01 9.754417528441757e-01 9.758384580476048e-01 9.758322799949286e-01 9.761125135514641e-01 9.828714570051766e-01 9.509326760695397e-01 9.911455081558560e-01 9.924841224241669e-01 9.922279399899389e-01 9.925787020344522e-01 1.037052780389621e+00 8.775445634167214e-01 9.659306088386311e-01 9.666115201495565e-01 9.665766144983300e-01 9.672525024352313e-01 9.679792673286909e-01 9.740364904013921e-01 9.742803987418814e-01 9.761407823988437e-01 6.412159400446434e-01 7.956997077914275e-01 1.002065657855939e+00 8.954218993814811e-01 9.593880989338717e-01 9.672692593177127e-01 9.678299996248284e-01 9.768646842739542e-01 3.616793926666332e-01 5.148174322447954e-01 5.789720864068348e-01 9.139604611466718e-01 8.848343548437014e-01 9.924509913242122e-01 9.903864542133695e-01 9.950220563534504e-01 9.947174438153608e-01 9.950505874824382e-01 9.168819909044891e-01 6.094558503609210e-01 9.473317293221223e-01 9.562700500488583e-01 9.745119017080676e-01 1.005211118322917e+00 9.970461421319275e-01 9.988962752239896e-01 9.054318055572725e-01 9.828473272502410e-01 9.649764609229314e-01 9.748482487797198e-01 7.826388203192199e-01 7.469842650756182e-01 7.478377936849804e-01 7.275265882123886e-01 7.493225226302066e-01 8.446208797218721e-01 1.030702663693484e+00 8.134266927464038e-01 9.968172615352692e-01 9.972732524840446e-01 9.985225906700979e-01 9.985672827317578e-01 9.946540297376383e-01 9.948437989427890e-01 9.948413539993488e-01 9.950115982603008e-01 9.960016371463369e-01 9.989102316841071e-01 9.969883465689765e-01 9.966901898780355e-01 9.969197606024096e-01 9.942221789915457e-01 9.993651679445229e-01 9.994944304178466e-01 9.990735790021977e-01 9.994001602188959e-01 9.993459177356127e-01 9.994390504959484e-01 9.994300920135502e-01 9.994849078076877e-01 9.846561925168211e-01 9.860640342014422e-01 9.861099619889914e-01 9.877820019001420e-01 9.884745113365266e-01 9.985992795110300e-01 9.663452642625026e-01 9.729499317816903e-01 9.728019016797230e-01 9.779079018132576e-01 9.774318051436560e-01 9.828545005254823e-01 9.826690194783846e-01 9.879772918111059e-01 9.791811080079167e-01 9.937512882145935e-01 9.886749920592475e-01 9.889738232294606e-01 9.991076573250836e-01 9.994488444791342e-01 9.994280799271874e-01 9.998545682785382e-01 9.998134881868264e-01 1.000007993687172e+00 9.999437013781681e-01 9.999445286086176e-01 9.999393977840736e-01 9.999154809822864e-01 9.637964043079971e-01 9.648262422011105e-01 9.994805356613502e-01 9.996538887532330e-01 9.996253902689530e-01 9.996583584659557e-01 9.996419808253829e-01 9.996564239607832e-01 1.000868517606432e+00 9.964342574849527e-01 9.960309861182817e-01 1.001040853140061e+00 1.084664042267553e+00 7.390363252041843e-01 9.971975482301645e-01 9.978038763918209e-01 9.978177064805765e-01 9.982894197415155e-01 9.983047045070116e-01 9.984247374775554e-01 9.999933790318603e-01 9.999986036068367e-01 9.999969467216409e-01 9.999966347927634e-01 9.999962543593500e-01 9.999950015741812e-01 9.987497141015079e-01 1.000526807735791e+00 9.999746776425809e-01 9.999939580341354e-01 9.999902593370648e-01 9.999956660038853e-01 9.999949474346276e-01 9.999954386025079e-01 9.999953784611580e-01 9.999955963700254e-01 9.999955943551432e-01 9.999957997619224e-01 1.000077600684190e+00 9.998170253880447e-01 9.999868632299860e-01 9.999872628389312e-01 1.000000000004958e+00 1.000000000014034e+00 1.000000000000188e+00 9.999999999996760e-01 9.999999999999581e-01 1.000000000000040e+00 9.998664632036124e-01 9.999411879468223e-01 9.999312032060154e-01 9.999725385775358e-01 9.999669793755028e-01 9.999904181099381e-01 9.999877151070353e-01 9.999964267579163e-01 9.817709997135023e-01 1.002003513411865e+00 9.967516327410501e-01 9.989213975486099e-01 9.986476467762260e-01 9.986783549821598e-01 9.986781665598946e-01 9.987076822284605e-01 1.002669324560067e+00 9.887894881647135e-01 9.998888916892651e-01 1.000013645297062e+00 9.999810489748210e-01 9.999925268336863e-01 9.169772709656092e-01 9.387081670916441e-01 9.487368601651522e-01 9.759887961370062e-01 9.755516477310386e-01 9.850455989475594e-01 9.986264731412399e-01 9.995611119367505e-01 9.431757226182919e-01 9.504824865809404e-01 9.512070255171859e-01 9.599247034870468e-01 9.602449107715898e-01 9.687794033017436e-01 9.687714783110654e-01 9.708831202275936e-01 9.707899027568773e-01 9.717802722246889e-01 9.717565487795187e-01 9.723307857825462e-01 9.723281802151424e-01 9.728669024801323e-01 9.728648850711294e-01 9.733909631200964e-01 9.733886847168347e-01 9.738992968588389e-01 9.693074311343264e-01 9.634985129150825e-01 9.648746916738454e-01 9.519785315810557e-01 9.560737744318940e-01 9.240631022474703e-01 9.356027438593436e-01 8.457078721369539e-01 9.075670316361462e-01 5.272040872543025e-01 9.761165105928646e-01 9.750600032450544e-01 9.750831975604479e-01 9.739049804909463e-01 9.739449569104993e-01 9.725588560674490e-01 9.726381835560812e-01 9.708480861375679e-01 9.710724524515241e-01 9.682002419530644e-01 9.706235825078161e-01 9.575893648569967e-01 9.999876879229832e-01 9.999915442822527e-01 9.999908840228310e-01 9.999921626775371e-01 9.999946254346429e-01 9.999948837310410e-01 9.999948798408929e-01 9.999951339928931e-01 9.999951305288822e-01 9.999954262326795e-01 9.999954216401720e-01 9.999958036747708e-01 9.999839355760267e-01 9.999872753833489e-01 9.999872326112292e-01 9.999895692884607e-01 9.999896874257821e-01 9.999899379184877e-01 9.999704615261817e-01 9.999701059947449e-01 9.999698916734612e-01 9.999676371121826e-01 9.999675960688869e-01 9.999635211701056e-01 9.999635591933941e-01 9.999567673628159e-01 9.999570296917111e-01 9.999447543317086e-01 9.768917504735547e-01 9.827675410304137e-01 9.826065364927568e-01 9.859444601043075e-01 9.856695995222103e-01 9.870393242058114e-01 9.869585695688620e-01 9.879404993079968e-01 9.985629388659356e-01 9.986109648324102e-01 9.986084915059052e-01 9.986478847032186e-01 9.771600406778296e-01 9.799452853008611e-01 9.595871464125707e-01 9.813380835461554e-01 9.806624112087782e-01 9.558588748400461e-01 8.820202085232751e-01 9.898019864195411e-01 8.986509368724809e-01 9.675422412519780e-01 9.777121141254249e-01 9.420645348021945e-01 9.711535006300726e-01 1.006969532620029e+00 9.100522761268087e-01 8.898423792036697e-01 1.044968817032558e+00 8.072903400544145e-01 7.832078285340637e-01 6.439498505684206e-01 5.526717732939400e-01 1.000345618875438e+00 1.000309176115171e+00 9.985581712971728e-01 1.005727278836796e+00 9.869043340314467e-01 9.455753355833558e-01 4.543128456114295e-01 5.117692891230761e-01 4.243107495093335e-01 9.497339126892630e-01 9.540128248256186e-01 9.540577373181480e-01 9.333506567717973e-01 9.541684262435300e-01 9.465662515960741e-01 9.815860334308478e-01 9.470906915928483e-01 9.480974420549945e-01 9.682381262527853e-01 9.617692112438837e-01 9.633271828970058e-01 9.634261054651491e-01 9.618181619737027e-01 9.564896170716506e-01 1.558100016705123e-01 1.161063541480217e-01 7.984114121750526e-01 8.477123133813282e-01 1.785066736018470e-01 1.098687386081731e+00 9.553703801776828e-01 9.456672255472393e-01 9.812371234463463e-01 9.804656676590072e-01 9.474117965153255e-01 9.809694513359239e-01 9.807895095499595e-01 9.497219430708974e-01 9.801851834884663e-01 9.806909732434437e-01 9.493427949655164e-01 9.584134485920168e-01 9.475389813178042e-01 9.497922810039859e-01 9.541267139881168e-01 9.582555383105653e-01 9.628458426787336e-01 9.404557297195058e-01 9.472073120264342e-01 9.391520456572066e-01 9.443939465989536e-01 9.494290639359727e-01 9.471675098096672e-01 9.443032357862083e-01 9.162068768527384e-01 9.320737402968516e-01 9.834137096139601e-01 1.972377806793414e-01 1.575069625531177e-01 7.957942794787743e-01 1.991861495874800e-01 7.925446926144890e-01 7.118444052764106e-01 4.050909013684226e-01 7.391959599640535e-01 4.063953978055737e-01 6.044790614215022e-01 5.128254617512162e-01 4.537277731109436e-01 8.694136571046825e-01 6.442952288927869e-01 7.817405550697626e-01 8.449043351139021e-01 7.248085054045733e-01 9.219096488534871e-01 8.523323909164799e-01 7.193685792008829e-01 5.861799556500941e-01 8.335752559948342e-01 8.494902329595870e-01 9.147827387712296e-01 6.194755959712893e-01 8.808939029060642e-01 8.444659780643253e-01 9.483267053564188e-01 9.157587551702759e-01 9.000198750627325e-01 9.692870678401639e-01 9.605181820204903e-01 9.689345003084753e-01 9.171545304597449e-01 9.820426958587128e-01 9.754455731501813e-01 9.221562009009743e-01 9.832141660384026e-01 9.666520703619307e-01 9.495486656190981e-01 8.991158691812023e-01 9.130433228873504e-01 9.817817170387964e-01 9.386587938724679e-01 8.506179066629327e-01 8.442712407845605e-01 9.146592533285025e-01 9.904373493634505e-01 4.180835784121530e-01 3.518538353619303e-01 3.936260195304928e-01 4.609957693332049e-01 2.339741755682953e-01 6.893934692352006e-01 1.016889377115017e+00 9.366642687267626e-01 9.730097013449182e-01 9.265862461746849e-01 7.201346987389052e-01 8.472429987976121e-01 9.046949776608947e-01 8.332073814553115e-01 9.129511259802747e-01 9.171625928052529e-01 9.252896167073486e-01 9.443157165464473e-01 3.519330896865707e-01 9.583139754706577e-01 8.014820423986446e-01 4.296271456011683e-01 4.192744903232865e-01 3.926589735871960e-01 8.560426822849617e-01 8.610103332786304e-01 9.875247915100327e-01 5.649096011428437e-01 7.239497823823468e-01 2.689425878205321e-01 3.538937867590763e-01 4.098337412874943e-01 7.346218116061528e-01 1.000806761525683e+00 1.001630422573717e+00 9.907876224989346e-01 9.821856872958116e-01 9.991534950070127e-01 9.913277847026727e-01 5.520211483810892e-01 6.590133000688717e-01 7.841773046031245e-01 4.467962041835860e-01 6.586637686493655e-01 5.517379260089508e-01 5.967223083675058e-01 7.839914633005217e-01 1.007353796500683e+00 4.888309682586212e-01 9.644706212036099e-01 3.472516065880487e-01 5.989040413722591e-01 1.004908119751735e+00 9.343129362967106e-01 9.979138340310392e-01 1.001057777706192e+00 8.894559804913469e-01 8.970567755000357e-01 9.709687000269331e-01 9.611714713755767e-01 9.651920321728723e-01 9.881696944669537e-01 9.586572872539632e-01 9.676565692631204e-01 9.831247956230590e-01 9.958524686089300e-01 8.830401960185066e-01 8.275498894122119e-01 1.016581563143877e+00 8.897198432308179e-01 8.192443377295293e-01 7.376571246896552e-01 6.930154210346035e-01 7.476713796596061e-01 8.998782279908406e-01 9.945359111953403e-01 1.002168079378868e+00 9.952740172217572e-01 9.665981184544713e-01 9.710735534503258e-01 9.687020904136323e-01 9.847862419080697e-01 9.541586567310436e-01 8.574737499605689e-01 9.697469662314245e-01 9.842237614309252e-01 9.207520619102392e-01 9.843913856189435e-01 9.030295009987931e-01 9.107698128094256e-01 9.768926463637748e-01 9.727267444754472e-01 9.071250888070777e-01 8.852424596488501e-01 1.002424225221417e+00 9.951604899277406e-01 8.944806481981717e-01 8.352689072387729e-01 9.806904963334995e-01 8.813258641177735e-01 9.944048596609923e-01 8.226785554359332e-01 1.003614552033917e+00 9.956244610529181e-01 9.967307685887237e-01 9.999560494782792e-01 1.001663153099329e+00 9.961802995302235e-01 9.995600741723187e-01 9.689080425779357e-01 1.000393368079955e+00 9.977853428235800e-01 9.984844660278579e-01 9.690207919957405e-01 9.724923560024988e-01 1.005784046435751e+00 9.688025739778769e-01 1.000938152471636e+00 1.001258877198326e+00 9.969332469333992e-01 9.995980058096245e-01 9.961791191392483e-01 1.001444814675666e+00 1.001668129385972e+00 9.994829870022173e-01 9.859876590043933e-01 9.852127180207516e-01 9.982684033604723e-01 1.002942144087097e+00 1.000147922292079e+00 9.993711373307602e-01 1.000061827835422e+00 9.978871492510275e-01 9.993619791708533e-01 1.001234098372012e+00 1.001154681594822e+00 9.972614970994336e-01 8.972380545077842e-01 9.917376868400627e-01 9.944748800894986e-01 9.097233610934433e-01 9.958193386727868e-01 9.691276754390311e-01 9.080204048313147e-01 9.804800146865611e-01 9.696682459033769e-01 9.778825946277503e-01 9.703077227667428e-01 9.658794981902376e-01 9.765539740408682e-01 9.726867961745937e-01 9.708463646045754e-01 9.691938818772511e-01 9.710048835819572e-01 9.683564905871855e-01 9.693963878739638e-01 9.710903831235871e-01 9.681916694170828e-01 9.681057142252562e-01 9.701845980410941e-01 9.585646680808940e-01 9.705280148199139e-01 1.005466541908127e+00 8.518455421526587e-01 8.795103190292010e-01 1.007025011557983e+00 9.253765820722771e-01 9.435207858486598e-01 9.316567698915453e-01 4.061628342977134e-01 5.654818582872698e-01 9.255634025092101e-01 9.155938963011611e-01 4.226623112615920e-01 5.125917449474517e-01 3.998708008905692e-01 3.641172362954185e-01 9.671158632367672e-01 9.723946746925043e-01 9.717708643327048e-01 9.644033949571023e-01 9.730715914064931e-01 9.713709425424764e-01 9.715410644544398e-01 9.762934373866873e-01 9.729302633835868e-01 9.685909239385652e-01 9.698144545970594e-01 9.608819999747041e-01 9.487364935993106e-01 9.540869202309116e-01 9.539440663170624e-01 9.736898045878534e-01 9.742389763948056e-01 9.562792150714773e-01 9.438534134818876e-01 9.644968351942516e-01 9.675751411456820e-01 9.650541166493017e-01 9.543719128919699e-01 9.646742454273902e-01 9.450710293525681e-01 9.626259043694689e-01 9.551433618793087e-01 9.688661964286340e-01 9.659360746444475e-01 9.723442909868742e-01 9.747008923929024e-01 9.621711714578183e-01 9.559129310578022e-01 9.640961836707808e-01 9.657265319369855e-01 9.561180700139895e-01 9.592636745129240e-01 9.644441888186038e-01 9.716531898200592e-01 9.584414350242143e-01 9.728738678402792e-01 9.735956778200610e-01 9.742183028763376e-01 9.533283081692376e-01 9.582601385151848e-01 1.009792783057877e+00 8.316321461327120e-01 7.459907077521899e-01 9.756562634190099e-01 9.701198269456226e-01 9.923647946012217e-01 9.239251894596695e-01 8.884716163589244e-01 9.791498438912125e-01 9.366414289527171e-01 9.889815160403187e-01 9.808107210793602e-01 9.688817043175598e-01 9.847809147699180e-01 9.258724490067457e-01 9.322653012955480e-01 7.853034685750863e-01 8.909458528783871e-01 8.968588829024038e-01 7.789696996280571e-01 9.433159186630747e-01 9.042184124125043e-01 7.340211846832089e-01 7.765888062888903e-01 9.836984144242112e-01 9.874394084663572e-01 8.778627826719981e-01 7.465435307373833e-01 8.901758566786606e-01 9.207045343764182e-01 8.808029077217882e-01 9.988371424025695e-01 9.139536144998456e-01 9.852477076634195e-01 8.890145467188336e-01 9.376546715839124e-01 9.380084965256965e-01 9.814954979276392e-01 9.765230961033169e-01 9.709527041191405e-01 9.046793841396831e-01 9.802670454137307e-01 7.441491091332720e-01 7.412039247677735e-01 9.305672464355738e-01 9.958673446090133e-01 7.583199562409536e-01 8.890167594090125e-01 1.072424112351449e+00 7.414987312682134e-01 8.889753566674854e-01 1.082370061817015e+00 7.653232932217777e-01 7.359881275765746e-01 1.094325258399997e+00 9.543256787067920e-01 7.540031558677531e-01 6.015857756868142e-01 7.834122782698117e-01 9.280874769367043e-01 9.938371406194907e-01 9.976203931955809e-01 9.966317533332379e-01 1.000421686286678e+00 9.825777943801725e-01 1.002173702594077e+00 1.000980631460791e+00 9.985832060475265e-01 9.816668119339355e-01 9.969465632661425e-01 9.973878345505650e-01 9.990554098795863e-01 9.898814085772248e-01 9.929895541208816e-01 9.998499936991151e-01 9.913894319843825e-01 9.845911203780428e-01 9.913226293543230e-01 9.862020559563950e-01 9.762392522288900e-01 9.909066317237778e-01 9.879054204635621e-01 9.692124891131304e-01 9.752630219515092e-01 8.008420152179118e-01 6.712915072459207e-01 5.818406813330049e-01 9.738846385775912e-01 1.019163691336988e+00 8.747575300281121e-01 5.831317728217686e-01 6.410656657961606e-01 7.979647711159188e-01 9.988497850878655e-01 9.997033818561071e-01 9.985874152231743e-01 9.987426872741068e-01 9.989070235308443e-01 9.962485800283311e-01 1.000145164004958e+00 9.951323266105945e-01 9.942383449820353e-01 1.000079981322254e+00 9.801187836127496e-01 9.887366008847959e-01 9.876879827855582e-01 9.975577751994223e-01 9.810434830358765e-01 9.840405611286986e-01 9.907935705282557e-01 9.968078269015093e-01 9.945802753734094e-01 9.956543908934619e-01 9.879330644717940e-01 9.902728299855689e-01 9.816878719233517e-01 9.629289464540065e-01 9.923782393620660e-01 9.846620888715788e-01 9.708790223667968e-01 8.464189909709554e-01 8.665595104966872e-01 8.999455664010074e-01 8.942724368275095e-01 9.002048902640761e-01 9.513980479714902e-01 8.954064639212140e-01 8.668917169290762e-01 8.998977442774271e-01 1.041899695197714e+00 8.689020377769762e-01 1.036232695788927e+00 9.015560669460732e-01 8.764813485093983e-01 9.913309336602734e-01 8.719905930994535e-01 9.238134691676074e-01 9.963377768284123e-01 9.385628858459556e-01 9.592070372435609e-01 9.502122177806739e-01 9.558246035980184e-01 9.622605821056436e-01 9.528042542814671e-01 9.468430567071797e-01 9.329002307922527e-01 9.376427993034759e-01 9.509309714490038e-01 9.562335505238335e-01 9.238524674610542e-01 9.552259422424869e-01 9.513514721388431e-01 9.131003083540722e-01 9.476461946551489e-01 9.493242546527547e-01 9.631375784040899e-01 9.431144579493560e-01 9.465790006378217e-01 9.377348256024907e-01 9.629035957890010e-01 9.645364136009852e-01 9.477926796226234e-01 9.642074529568013e-01 9.508448992400352e-01 9.488505752133940e-01 9.542897230283333e-01 9.653173429199510e-01 9.591081618931836e-01 9.630130682517679e-01 9.601645788560204e-01 9.688735984070566e-01 9.511086484426694e-01 9.601658560759131e-01 9.482206117069973e-01 9.490236574158879e-01 9.602150711217495e-01 9.639420459814729e-01 9.645619353653898e-01 9.659945139125464e-01 9.692378648598796e-01 9.645562007750694e-01 9.618900677771668e-01 9.660453677768646e-01 9.543957835490574e-01 9.653749904046931e-01 9.652027866790693e-01 9.442595801800764e-01 9.523356436800661e-01 9.394959370465575e-01 9.521987412200313e-01 9.421457500892697e-01 9.395553721038494e-01 9.648664941728079e-01 9.525868024209915e-01 9.639080285885002e-01 9.525119297950971e-01 9.473045744455082e-01 9.641830438253015e-01 9.278741363686391e-01 9.003952341847129e-01 9.526653647139871e-01 9.001719696601952e-01 9.087600899323185e-01 9.530275052318439e-01 8.455602104601211e-01 8.900009825892204e-01 9.357673199515250e-01 9.075564636135455e-01 5.272135265465752e-01 5.216666370335585e-01 9.409569938736323e-01 9.326687936296161e-01 9.470206886491982e-01 9.602199502994916e-01 9.476034652446081e-01 9.537914608075825e-01 9.325960327153114e-01 9.411509628641681e-01 9.287618747194737e-01 9.510211714803755e-01 9.475155900988176e-01 9.603399258245948e-01 9.439056887349253e-01 9.523705727739060e-01 9.267270107214104e-01 5.706620004797227e-01 9.514534828396509e-01 8.875952199707559e-01 5.931939650717919e-01 9.734236727981861e-01 9.425274032449590e-01 1.016504144205977e+00 8.437697988892020e-01 1.021504103702782e+00 8.745298918242564e-01 8.989129153832551e-01 8.469893096529993e-01 1.000351892271217e+00 9.675165811438071e-01 9.421287054460012e-01 9.202583497086947e-01 9.493603525015150e-01 8.951586972150244e-01 8.981637605346695e-01 8.739578999713308e-01 9.301521203340104e-01 9.847490986874721e-01 9.490587814113551e-01 9.193468089071818e-01 9.687576714972322e-01 9.174636180491801e-01 9.429624319373879e-01 9.286504786083610e-01 8.748485473399062e-01 8.956358945039335e-01 9.460795597188123e-01 9.276645937182082e-01 8.955279855828927e-01 8.963479506285126e-01 9.149864556103261e-01 9.449931722621241e-01 9.162861574667170e-01 9.250488204167651e-01 9.956764373218497e-01 9.971707748976677e-01 9.242227468547511e-01 9.322984762890332e-01 9.973821348713168e-01 9.439580860536120e-01 9.150004777163732e-01 9.314130611566426e-01 9.284600727027414e-01 9.988272745207544e-01 -7.989066784967389e-02 2.504715130399896e-01 -5.234879266915863e-02 7.235265695373290e-01 6.568078061558988e-01 8.549286351490172e-01 7.248658849140727e-01 5.799985088419165e-01 6.566349960961145e-01 5.650564879452342e-01 5.223632745119582e-01 6.349095954149343e-01 9.640373353961303e-01 9.