<?xml version="1.0"?>
<VTKFile type="UnstructuredGrid" version="0.1" byte_order="LittleEndian">
<UnstructuredGrid>
<Piece NumberOfPoints="1896" NumberOfCells="677">
<Points>
<DataArray type="Float64" NumberOfComponents="3" format="ascii">
0.000000000000000e+00 3.750000000000000e+00 0.000000000000000e+00 5.624999999964863e-01 3.999999999998438e+00 0.000000000000000e+00 5.624999999964863e-01 3.999999999998438e+00 0.000000000000000e+00 1.124999999995812e+00 4.249999999998138e+00 0.000000000000000e+00 1.124999999995812e+00 4.249999999998138e+00 0.000000000000000e+00 1.687499999998485e+00 4.499999999999327e+00 0.000000000000000e+00 1.687499999998485e+00 4.499999999999327e+00 0.000000000000000e+00 2.250000000000000e+00 4.750000000000000e+00 0.000000000000000e+00 2.250000000000000e+00 4.750000000000000e+00 0.000000000000000e+00 1.750000000000000e+00 5.000000000000000e+00 0.000000000000000e+00 2.250000000000000e+00 4.750000000000000e+00 0.000000000000000e+00 2.875000000000000e+00 4.375000000000000e+00 0.000000000000000e+00 2.875000000000000e+00 4.375000000000000e+00 0.000000000000000e+00 3.500000000000000e+00 4.000000000000000e+00 0.000000000000000e+00 3.500000000000000e+00 4.000000000000000e+00 0.000000000000000e+00 2.750000000000000e+00 4.000000000000000e+00 0.000000000000000e+00 2.250000000000000e+00 4.750000000000000e+00 0.000000000000000e+00 2.687500000002093e+00 5.000000000001196e+00 0.000000000000000e+00 2.687500000002093e+00 5.000000000001196e+00 0.000000000000000e+00 3.125000000002093e+00 5.250000000001196e+00 0.000000000000000e+00 3.125000000002093e+00 5.250000000001196e+00 0.000000000000000e+00 3.562500000002093e+00 5.500000000001196e+00 0.000000000000000e+00 3.562500000002093e+00 5.500000000001196e+00 0.000000000000000e+00 4.000000000000000e+00 5.750000000000000e+00 0.000000000000000e+00 4.000000000000000e+00 5.750000000000000e+00 0.000000000000000e+00 3.500000000000000e+00 5.000000000000000e+00 0.000000000000000e+00 4.000000000000000e+00 5.750000000000000e+00 0.000000000000000e+00 3.250000000000000e+00 6.250000000000000e+00 0.000000000000000e+00 4.000000000000000e+00 5.750000000000000e+00 0.000000000000000e+00 4.500000000000000e+00 6.000000000000000e+00 0.000000000000000e+00 4.500000000000000e+00 6.000000000000000e+00 0.000000000000000e+00 5.000000000000000e+00 6.250000000000000e+00 0.000000000000000e+00 4.750000000000000e+00 7.250000000000000e+00 0.000000000000000e+00 4.500000000005181e+00 6.750000000010362e+00 0.000000000000000e+00 4.500000000005181e+00 6.750000000010362e+00 0.000000000000000e+00 4.250000000005181e+00 6.250000000010362e+00 0.000000000000000e+00 4.250000000005181e+00 6.250000000010362e+00 0.000000000000000e+00 4.000000000000000e+00 5.750000000000000e+00 0.000000000000000e+00 4.000000000000000e+00 5.750000000000000e+00 0.000000000000000e+00 4.625000000000000e+00 5.375000000000000e+00 0.000000000000000e+00 4.625000000000000e+00 5.375000000000000e+00 0.000000000000000e+00 5.250000000000000e+00 5.000000000000000e+00 0.000000000000000e+00 5.250000000000000e+00 5.000000000000000e+00 0.000000000000000e+00 4.750000000000000e+00 4.750000000000000e+00 0.000000000000000e+00 3.500000000000000e+00 4.000000000000000e+00 0.000000000000000e+00 4.250000000000000e+00 3.500000000000000e+00 0.000000000000000e+00 4.250000000000000e+00 4.750000000000000e+00 0.000000000000000e+00 4.750000000000000e+00 4.375000000000000e+00 0.000000000000000e+00 4.750000000000000e+00 4.375000000000000e+00 0.000000000000000e+00 5.250000000000000e+00 4.000000000000000e+00 0.000000000000000e+00 4.250000000000000e+00 1.500000000000000e+00 0.000000000000000e+00 4.624999999997918e+00 1.874999999997918e+00 0.000000000000000e+00 4.624999999997918e+00 1.874999999997918e+00 0.000000000000000e+00 5.000000000000000e+00 2.250000000000000e+00 0.000000000000000e+00 5.000000000000000e+00 2.250000000000000e+00 0.000000000000000e+00 5.250000000000000e+00 1.750000000000000e+00 0.000000000000000e+00 5.250000000000000e+00 1.750000000000000e+00 0.000000000000000e+00 5.500000000000000e+00 1.250000000000000e+00 0.000000000000000e+00 5.500000000000000e+00 1.250000000000000e+00 0.000000000000000e+00 5.750000000000000e+00 7.500000000000000e-01 0.000000000000000e+00 5.000000000000000e+00 2.250000000000000e+00 0.000000000000000e+00 4.750000000000000e+00 2.750000000000000e+00 0.000000000000000e+00 5.000000000000000e+00 2.250000000000000e+00 0.000000000000000e+00 5.500000000000000e+00 2.750000000000000e+00 0.000000000000000e+00 5.500000000000000e+00 2.750000000000000e+00 0.000000000000000e+00 5.750000000000000e+00 2.500000000000000e+00 0.000000000000000e+00 3.500000000000000e+00 4.000000000000000e+00 0.000000000000000e+00 4.125000000008327e+00 4.000000000000000e+00 0.000000000000000e+00 4.125000000008327e+00 4.000000000000000e+00 0.000000000000000e+00 4.750000000000000e+00 4.000000000000000e+00 0.000000000000000e+00 4.750000000000000e+00 4.000000000000000e+00 0.000000000000000e+00 5.250000000000000e+00 4.000000000000000e+00 0.000000000000000e+00 5.500000000000000e+00 2.750000000000000e+00 0.000000000000000e+00 5.125000000000000e+00 3.375000000000000e+00 0.000000000000000e+00 5.125000000000000e+00 3.375000000000000e+00 0.000000000000000e+00 4.750000000000000e+00 4.000000000000000e+00 0.000000000000000e+00 6.000000000000000e+00 3.750000000000000e+00 0.000000000000000e+00 6.750000000000000e+00 4.000000000000000e+00 0.000000000000000e+00 5.250000000000000e+00 5.000000000000000e+00 0.000000000000000e+00 5.749999999991033e+00 4.666666666672645e+00 0.000000000000000e+00 5.749999999991033e+00 4.666666666672645e+00 0.000000000000000e+00 6.249999999991033e+00 4.333333333339311e+00 0.000000000000000e+00 6.249999999991033e+00 4.333333333339311e+00 0.000000000000000e+00 6.750000000000000e+00 4.000000000000000e+00 0.000000000000000e+00 5.500000000000000e+00 2.750000000000000e+00 0.000000000000000e+00 5.916666666666667e+00 3.166666666666667e+00 0.000000000000000e+00 5.916666666666667e+00 3.166666666666667e+00 0.000000000000000e+00 6.333333333333333e+00 3.583333333333333e+00 0.000000000000000e+00 6.333333333333333e+00 3.583333333333333e+00 0.000000000000000e+00 6.750000000000000e+00 4.000000000000000e+00 0.000000000000000e+00 5.250000000000000e+00 5.000000000000000e+00 0.000000000000000e+00 5.750000000000000e+00 5.250000000000000e+00 0.000000000000000e+00 5.750000000000000e+00 5.250000000000000e+00 0.000000000000000e+00 6.250000000000000e+00 5.500000000000000e+00 0.000000000000000e+00 6.250000000000000e+00 5.500000000000000e+00 0.000000000000000e+00 6.750000000000000e+00 5.750000000000000e+00 0.000000000000000e+00 6.750000000000000e+00 5.750000000000000e+00 0.000000000000000e+00 7.250000000000000e+00 6.000000000000000e+00 0.000000000000000e+00 7.250000000000000e+00 6.000000000000000e+00 0.000000000000000e+00 6.875000000000000e+00 5.625000000000000e+00 0.000000000000000e+00 6.875000000000000e+00 5.625000000000000e+00 0.000000000000000e+00 6.500000000000000e+00 5.250000000000000e+00 0.000000000000000e+00 7.250000000000000e+00 6.000000000000000e+00 0.000000000000000e+00 7.600000000000000e+00 6.400000000000000e+00 0.000000000000000e+00 7.600000000000000e+00 6.400000000000000e+00 0.000000000000000e+00 7.950000000000000e+00 6.800000000000000e+00 0.000000000000000e+00 7.950000000000000e+00 6.800000000000000e+00 0.000000000000000e+00 8.300000000000001e+00 7.200000000000000e+00 0.000000000000000e+00 8.300000000000001e+00 7.200000000000000e+00 0.000000000000000e+00 8.650000000000000e+00 7.600000000000000e+00 0.000000000000000e+00 8.650000000000000e+00 7.600000000000000e+00 0.000000000000000e+00 9.000000000000000e+00 8.000000000000000e+00 0.000000000000000e+00 7.250000000000000e+00 6.000000000000000e+00 0.000000000000000e+00 7.750000000000000e+00 6.250000000000000e+00 0.000000000000000e+00 6.750000000000000e+00 4.000000000000000e+00 0.000000000000000e+00 7.249999999991033e+00 4.333333333327355e+00 0.000000000000000e+00 7.249999999991033e+00 4.333333333327355e+00 0.000000000000000e+00 7.749999999991033e+00 4.666666666660689e+00 0.000000000000000e+00 7.749999999991033e+00 4.666666666660689e+00 0.000000000000000e+00 8.250000000000000e+00 5.000000000000000e+00 0.000000000000000e+00 8.250000000000000e+00 5.000000000000000e+00 0.000000000000000e+00 7.500000000000000e+00 4.750000000000000e+00 0.000000000000000e+00 7.750000000000000e+00 5.500000000000000e+00 0.000000000000000e+00 8.250000000000000e+00 5.000000000000000e+00 0.000000000000000e+00 8.250000000000000e+00 5.000000000000000e+00 0.000000000000000e+00 9.000000000000000e+00 5.500000000000000e+00 0.000000000000000e+00 8.250000000000000e+00 5.000000000000000e+00 0.000000000000000e+00 8.750000000000000e+00 5.166666666666667e+00 0.000000000000000e+00 8.750000000000000e+00 5.166666666666667e+00 0.000000000000000e+00 9.250000000000000e+00 5.333333333333333e+00 0.000000000000000e+00 9.250000000000000e+00 5.333333333333333e+00 0.000000000000000e+00 9.750000000000000e+00 5.500000000000000e+00 0.000000000000000e+00 8.250000000000000e+00 5.000000000000000e+00 0.000000000000000e+00 8.750000000000000e+00 4.666666666666667e+00 0.000000000000000e+00 8.750000000000000e+00 4.666666666666667e+00 0.000000000000000e+00 9.250000000000000e+00 4.333333333333333e+00 0.000000000000000e+00 9.250000000000000e+00 4.333333333333333e+00 0.000000000000000e+00 9.750000000000000e+00 4.000000000000000e+00 0.000000000000000e+00 8.250000000000000e+00 3.750000000000000e+00 0.000000000000000e+00 8.750000000000000e+00 3.833333333333334e+00 0.000000000000000e+00 8.750000000000000e+00 3.833333333333334e+00 0.000000000000000e+00 9.250000000000000e+00 3.916666666666667e+00 0.000000000000000e+00 9.250000000000000e+00 3.916666666666667e+00 0.000000000000000e+00 9.750000000000000e+00 4.000000000000000e+00 0.000000000000000e+00 9.750000000000000e+00 4.000000000000000e+00 0.000000000000000e+00 1.025000000000000e+01 4.083333333333333e+00 0.000000000000000e+00 1.025000000000000e+01 4.083333333333333e+00 0.000000000000000e+00 1.075000000000000e+01 4.166666666666667e+00 0.0000000000000
[...]
<PointData Scalars="A_conc," Vectors="" Tensors="">
<DataArray type="Float64" Name="A_conc" format="ascii">
8.056560771922531e-01 8.092826750977113e-01 8.092613233312707e-01 8.127521139698290e-01 8.127227117520424e-01 8.152286797827912e-01 8.152004441890253e-01 8.172217724950367e-01 8.554169954822113e-01 6.591552400872875e-01 8.885003106095689e-01 9.022497274477717e-01 9.008319350816433e-01 9.055614529343846e-01 1.038895996280731e+00 3.849788400884679e-01 7.522637083989762e-01 7.639233469033604e-01 7.640880437587098e-01 7.769908005325969e-01 7.782294940632392e-01 7.936290213026999e-01 7.937556033399498e-01 8.009218242695956e-01 1.772765309279521e-01 2.895795385831009e-01 8.796909315756478e-01 4.593297499191452e-01 6.576115262827819e-01 6.891065249236813e-01 6.915164084662829e-01 7.255324103032424e-01 4.346160429016439e-02 4.509542771970003e-02 6.015426276978550e-02 3.767088892052044e-01 4.203283268458936e-01 8.226838587335359e-01 8.847055451102872e-01 9.021130712848298e-01 9.014443275597421e-01 9.056454615268040e-01 5.074834623945096e-01 1.036065803232265e-01 5.820279779995325e-01 6.038732964315693e-01 6.529767785477537e-01 9.788761745974283e-01 9.102896520454055e-01 9.557063915864558e-01 4.938089309804728e-01 8.847561817617827e-01 8.092821808287615e-01 8.724397081352269e-01 2.938392854610091e-01 1.930880186174109e-01 1.945576139772267e-01 9.453180997954747e-02 1.222162868842609e-01 2.305692451125758e-01 1.001136648850059e+00 3.147365712603253e-01 9.331001380120675e-01 9.428704198231681e-01 9.674895093362409e-01 9.697497836627457e-01 9.201681838382764e-01 9.229215048547644e-01 9.228815938697791e-01 9.253821110175056e-01 9.329987565348062e-01 9.507942860556140e-01 9.413006556207688e-01 9.362084247071684e-01 9.367112543152526e-01 9.192905048184549e-01 9.605574160638298e-01 9.650819935641289e-01 9.519385773365298e-01 9.597711647770653e-01 9.590735709509282e-01 9.626484969423262e-01 9.624544630440325e-01 9.650452545316148e-01 7.324378486301961e-01 7.546228641568302e-01 7.564931336017847e-01 7.854556924213044e-01 7.923507644658521e-01 9.225784089430457e-01 5.758336206841492e-01 6.231457242599227e-01 6.238093151877540e-01 6.712960724858974e-01 6.673664503391258e-01 7.290634105254277e-01 7.314396531785624e-01 8.095585807474501e-01 7.705767362454732e-01 8.138139032670555e-01 7.905133145749987e-01 7.905260547828167e-01 8.785758983174529e-01 9.026022219278319e-01 9.021942909159135e-01 9.373526385572180e-01 9.367018137330079e-01 9.626781165777617e-01 9.584452194477221e-01 9.668930493396251e-01 9.661966461594036e-01 9.670991042420625e-01 6.460622775184841e-01 6.042472131250769e-01 9.649022162080606e-01 9.735088677387291e-01 9.726966637776867e-01 9.763916383604453e-01 9.757468557921724e-01 9.776841463771428e-01 1.005622018076067e+00 8.919416029842746e-01 8.848610554771097e-01 1.008199168617863e+00 1.038157874975224e+00 1.690090626945907e-01 8.364886107416845e-01 8.550897220356936e-01 8.559846255330148e-01 8.718274200831175e-01 8.718565794610007e-01 8.718328274809186e-01 9.968418251517743e-01 9.980659887734948e-01 9.978944992196483e-01 9.982697841803690e-01 9.982064800924675e-01 9.983008462299928e-01 8.961815261411711e-01 1.024193762856666e+00 9.915328147220048e-01 9.980117257352683e-01 9.967555643435138e-01 9.985009142172626e-01 9.982724893774535e-01 9.984380839165670e-01 9.984173577222423e-01 9.984906188094055e-01 9.984900167894086e-01 9.985594958418863e-01 1.008981413884045e+00 9.729100982926192e-01 9.937477719857122e-01 9.952798303147933e-01 9.999926932667296e-01 1.000002537202006e+00 9.999997332761154e-01 1.000000176339223e+00 1.000000003430542e+00 1.000000002156695e+00 9.784023310666204e-01 9.854885370207342e-01 9.850714589698006e-01 9.915452504559339e-01 9.910933258691496e-01 9.963348017932857e-01 9.959710347602124e-01 9.986532882353383e-01 7.147701951904412e-01 9.891693541015231e-01 9.294954581166776e-01 9.802862685092532e-01 9.723466890631047e-01 9.732483895463007e-01 9.732405714765384e-01 9.740940786853832e-01 1.036241229081241e+00 7.851782217026755e-01 9.846249705684744e-01 9.909977972840509e-01 9.903743931217748e-01 9.924510722545756e-01 3.912073318701150e-01 3.780981064096554e-01 4.417969909498669e-01 5.835908142024345e-01 5.942443530750077e-01 6.877823586150831e-01 9.501851026327441e-01 9.613195954307645e-01 7.052771776156346e-01 7.462020727537019e-01 7.493052409402364e-01 7.985970611047053e-01 7.990071352980519e-01 8.382440112204615e-01 8.373893145235559e-01 8.478839926516961e-01 8.474862985041292e-01 8.527634567534580e-01 8.526397990789728e-01 8.559301275360471e-01 8.559085295291496e-01 8.589807320783538e-01 8.589609409959934e-01 8.619128217435159e-01 8.618921700847392e-01 8.647118632897244e-01 8.395514062127191e-01 8.083756466353762e-01 8.110288834683488e-01 7.605516724931802e-01 7.643917475112328e-01 6.890670034353804e-01 6.969160735973290e-01 5.808599997115227e-01 6.238255762886437e-01 3.104950645205971e-01 8.009512018120803e-01 7.928684103546074e-01 7.930107088822964e-01 7.841890878550953e-01 7.844421019603729e-01 7.743081570856165e-01 7.748151116249583e-01 7.620906357294527e-01 7.635115715904014e-01 7.438708842448509e-01 7.578126319628207e-01 6.783545502965190e-01 9.922130263628008e-01 9.938697908650793e-01 9.937482750026020e-01 9.946583032462808e-01 9.968326959925886e-01 9.974958301059662e-01 9.974693427100554e-01 9.979933545447365e-01 9.979413289229755e-01 9.982809034320734e-01 9.982855391637003e-01 9.985878171084480e-01 9.874421475770161e-01 9.910595984527252e-01 9.909372740102986e-01 9.932758938257404e-01 9.932533384710117e-01 9.943714795933206e-01 9.920564796122837e-01 9.915548848353417e-01 9.914399087723779e-01 9.904516987181409e-01 9.904130891139363e-01 9.887568084141782e-01 9.887462294338811e-01 9.864115606720252e-01 9.864145211888327e-01 9.828409711835395e-01 7.258949856061780e-01 7.523931679395890e-01 7.523671741752639e-01 7.745355149081889e-01 7.741733523420858e-01 7.935430614224341e-01 7.932398769294258e-01 8.101630396286009e-01 9.696136491565234e-01 9.712642910020258e-01 9.711800338085511e-01 9.723574854785297e-01 8.132756022212657e-01 8.310546277422224e-01 7.097783081119686e-01 8.466946771982201e-01 8.425667829801595e-01 6.882045803731868e-01 3.432905919717682e-01 6.646047119255518e-01 2.904379939580931e-01 7.060001493944690e-01 7.571340923599744e-01 6.167514559621157e-01 6.813017186536712e-01 7.115201375155895e-01 2.819240037020513e-01 3.121128341394394e-01 7.029442160778644e-01 2.223141869277375e-01 1.231465489580060e-01 7.476000729180421e-02 4.423688986067589e-02 9.774711168784708e-01 9.796741196692403e-01 8.185661572874943e-01 7.333182039463847e-01 5.666944140833275e-01 3.302946779884666e-01 1.653780485456546e-02 4.375555941768446e-02 3.007775002278682e-02 6.613409939782756e-01 6.895555370824600e-01 6.538080539017938e-01 5.695680351881363e-01 6.845605685094496e-01 6.442032295312098e-01 8.414269191255035e-01 6.432200648755986e-01 6.490749247402393e-01 7.416105090320837e-01 7.040853572062292e-01 7.111253036869561e-01 7.113543189738537e-01 7.042310186208715e-01 6.719637291725742e-01 -8.380994128437148e-02 -8.688739662371360e-02 2.933848485766021e-01 3.889321399169690e-01 -1.142651979914101e-01 6.612272550915931e-01 6.879764068478132e-01 6.347043178541563e-01 8.416086110175237e-01 8.374155157933350e-01 6.442076341215197e-01 8.395234278123171e-01 8.373047843137243e-01 6.572539313894461e-01 8.328691227246097e-01 8.344145293853115e-01 6.561703218416916e-01 7.054759497690339e-01 6.213205628299409e-01 6.616194456165738e-01 6.538296543057915e-01 6.823110296514936e-01 7.023804105061008e-01 5.958697421358072e-01 6.216083944176189e-01 5.947780230965506e-01 6.352170725346401e-01 6.587449168715240e-01 6.215121049513074e-01 6.351376081142154e-01 5.306428036920811e-01 5.818303008996962e-01 7.779114397591204e-01 -8.494402462263748e-02 -8.850686965147653e-02 3.030149487988765e-01 -8.934641489774232e-02 3.120812756571330e-01 2.605862071477280e-01 1.560678036529676e-02 2.316937592852728e-01 -1.910209422854372e-02 5.161979573095273e-02 4.476280706099717e-02 1.596268985584651e-02 1.771042019871896e-01 7.408587615434066e-02 1.273895070659907e-01 1.846382174564883e-01 8.720614150249247e-02 2.737423251870680e-01 1.797654463948705e-01 9.603830645632370e-02 4.019645277250304e-02 1.842377246987153e-01 1.851538532257034e-01 2.714958359321616e-01 5.639203154279850e-02 1.958269042701737e-01 1.798601517154114e-01 6.507761261702611e-01 5.331801485886954e-01 4.737470437265955e-01 7.421201520051184e-01 6.994246252189528e-01 7.506422079247744e-01 5.310258610368968e-01 7.771036283050567e-01 7.377934064868816e-01 5.408829241967982e-01 7.968462092394512e-01 7.164280466546294e-01 6.514188818364272e-01 4.732677083187725e-01 5.219453868632279e-01 4.497374277250963e-01 3.386618085885664e-01 1.723115147739586e-01 1.855889606025196e-01 2.841598645787696e-01 4.376540199841263e-01 2.740458714097002e-02 2.038668282826546e-02 2.992789238893208e-03 6.085534685512446e-02 -7.455384092474718e-02 2.492683147800762e-01 7.219215226989510e-01 3.415171504068200e-01 4.611287406129806e-01 2.665288174859357e-01 9.523152598685172e-02 1.890604670844745e-01 2.659573970336012e-01 1.731577932189881e-01 2.801224194831107e-01 5.324658958193803e-01 5.674814452886219e-01 6.326075569308034e-01 -8.093051340220793e-02 5.468924324977763e-01 3.474596507180459e-01 -3.556305826723022e-03 2.750871890088988e-02 3.449384617613617e-03 3.630641831218258e-01 3.765970441338490e-01 7.280847308224936e-01 7.796938376994905e-02 8.785245371638510e-02 1.125688032258789e-02 -7.043260152732733e-04 -2.565112204529215e-02 2.428472741917130e-01 8.855978929472417e-01 9.138011084704956e-01 6.323014686199181e-01 7.204678777616229e-01 8.652852586047667e-01 6.073076395407149e-01 4.728458698740925e-02 7.545265620532536e-02 1.197240895513599e-01 2.552415802844967e-02 7.251287603486710e-02 4.746585763281746e-02 1.763701048078148e-01 3.377385713176064e-01 5.737546553010255e-01 8.211053472529707e-02 5.356244710083630e-01 -7.280417664541579e-02 1.719871008557243e-01 5.782770776510779e-01 5.040120965207453e-01 7.519498712410764e-01 7.694418318158446e-01 2.727116980900718e-01 1.971103317667320e-01 5.842022800422866e-01 3.661898505995831e-01 5.975012427588203e-01 6.887882623030542e-01 3.662178145383928e-01 4.141319860205275e-01 6.732740149081379e-01 6.384048781743905e-01 2.768507022358642e-01 1.971653750731965e-01 7.351962935357373e-01 3.068917079795662e-01 1.362032856630168e-01 1.322892446748573e-01 1.241427924475684e-01 1.335059616931663e-01 2.761950187617743e-01 7.077274625081851e-01 9.172340165332400e-01 6.977703551347790e-01 7.407781005436217e-01 7.571603045783230e-01 7.301197573155146e-01 7.281541404489438e-01 5.521357136865140e-01 3.630948863537747e-01 7.250848178502832e-01 7.980843147769642e-01 5.395838997315399e-01 4.556261880034498e-01 2.681721998946957e-01 2.831016548589813e-01 4.653429823430782e-01 4.560273255730168e-01 2.628287864819466e-01 2.448385145743222e-01 7.804498134112205e-01 6.751951355339807e-01 1.988227469280123e-01 1.185980074316641e-01 5.744908665588334e-01 3.177989933561380e-01 5.589053180158148e-01 1.329568763953548e-01 9.684881301473039e-01 7.329094485320654e-01 7.169590418019298e-01 9.072276837955623e-01 9.534208301693201e-01 7.003743321178214e-01 7.316511787195660e-01 4.419381062927031e-01 7.156804983459218e-01 7.073416114713772e-01 6.953124095587689e-01 4.422636379157940e-01 4.708861195815575e-01 7.051745060838464e-01 4.610971682432130e-01 9.526513101138194e-01 9.808153801113626e-01 7.404360049231641e-01 8.551425443487524e-01 7.243954931620559e-01 9.827006791084104e-01 8.418625628532285e-01 8.118873571093156e-01 5.666358960856640e-01 5.695074100624549e-01 7.382138216851719e-01 8.511797889903671e-01 9.758836288761087e-01 8.580427893303805e-01 9.641586407618504e-01 8.094132569170497e-01 8.369309769246666e-01 9.931644500467319e-01 8.735833599348477e-01 8.415420328555562e-01 4.700234233281253e-01 8.283628771631538e-01 8.440204113350240e-01 5.059760886576711e-01 8.455279309564127e-01 7.283150241398906e-01 5.044114635870257e-01 8.026610339273087e-01 7.698348418566635e-01 7.587817228658402e-01 7.713573536531507e-01 7.440978525044306e-01 7.556064626602456e-01 7.749936158647288e-01 7.620837763622456e-01 7.505649795376743e-01 7.629950452986901e-01 7.449465286842856e-01 7.519447802614645e-01 7.635744823621174e-01 7.438408012638835e-01 7.432571077712026e-01 7.552370712129446e-01 6.841385678281818e-01 7.574144243322969e-01 8.247031633859119e-01 3.661110683161038e-01 4.194392468069042e-01 8.686028230956280e-01 5.675446466956492e-01 6.319718065761667e-01 3.583038971546444e-01 -2.021580502913223e-02 5.986653008441530e-02 3.608270991646903e-01 3.548275436523447e-01 -1.505915623918093e-02 4.372810268757940e-02 2.660068562282494e-02 4.387150135184571e-02 7.605955663360376e-01 7.786904689776208e-01 7.604322995062960e-01 7.356109950252294e-01 7.721560842871920e-01 7.593532086927596e-01 7.715745548246323e-01 8.015674344068415e-01 7.755308164642164e-01 7.441479282964928e-01 7.533086741980529e-01 6.985867965340714e-01 6.341984154306304e-01 6.540324048504851e-01 6.893017977911273e-01 7.777769398433519e-01 7.811188775332965e-01 6.713353504994028e-01 6.092308050066424e-01 7.504388133272486e-01 7.705784741643559e-01 7.589773023005586e-01 6.693524469250908e-01 7.556767336109832e-01 6.093676372461670e-01 7.441033574887351e-01 6.719222649541153e-01 7.483000541733347e-01 7.275868739305217e-01 7.699178023337724e-01 7.823726523944518e-01 7.058640383684255e-01 6.703885460607069e-01 7.557932243507874e-01 7.521980071169686e-01 6.718782126283546e-01 6.949647810240253e-01 7.358795519309731e-01 7.600504755782693e-01 6.846947015969413e-01 7.715256735363775e-01 7.774850691698155e-01 7.792388303338104e-01 6.552113221448600e-01 6.841236882012807e-01 7.410366160930705e-01 3.419468856505898e-01 1.269755647197832e-02 6.549039064672015e-01 6.146927590293949e-01 8.159240276340018e-01 3.804696150672049e-01 3.091071575308154e-01 5.778560764265427e-01 4.099681017325300e-01 7.282907051043362e-01 6.661725782721538e-01 5.881368084977306e-01 6.668631483813940e-01 3.797530741211038e-01 3.687136655032373e-01 1.575235996248864e-01 3.057056570812826e-01 2.967222708512083e-01 1.554207459967722e-01 3.853195140569601e-01 2.853764969387926e-01 1.264614238154534e-01 1.590225911257661e-01 6.677007992825122e-01 8.250699042930716e-01 1.746664541900717e-01 1.220433908027439e-01 2.930198951341649e-01 3.422056550963577e-01 3.015300728902882e-01 6.095876863867966e-01 3.513962384914763e-01 6.249568063485624e-01 2.895068728367962e-01 4.221492120758585e-01 4.232349286664846e-01 6.686689065328913e-01 6.323924522004067e-01 5.715063848810066e-01 3.245836307859930e-01 6.174892521562353e-01 1.444643762347866e-01 1.300680859856355e-01 3.271952342768408e-01 7.461779871092336e-01 9.242210003372048e-03 2.037005900157846e-01 9.235770214478979e-01 2.343139699194232e-01 5.273852706560741e-01 9.167619588261730e-01 2.786820796052485e-01 2.386300979880797e-01 9.085466746080924e-01 5.406052312591229e-01 2.916984548721553e-01 1.180325818122640e-01 2.883619934205525e-01 4.917655452378246e-01 9.021177275537116e-01 9.021962003702332e-01 9.328516938268639e-01 9.467728881696461e-01 7.211627403856986e-01 9.451033459602625e-01 9.506279068542106e-01 9.035574157603030e-01 7.155843125934180e-01 9.319708768473310e-01 9.082459475479775e-01 9.566662391027694e-01 8.923598126738069e-01 5.982033615907947e-01 7.452324256040848e-01 8.974384713846686e-01 7.592524202094622e-01 5.932321878918865e-01 7.617585662283746e-01 5.449062314515725e-01 5.917340800975999e-01 7.631254411608669e-01 5.656716184342512e-01 5.439508276827563e-01 2.744014507612582e-01 1.617561260823533e-01 1.270049351478549e-01 5.601110730489528e-01 5.920563346185933e-01 3.584563788243542e-01 1.207853815659997e-01 1.788860014509085e-01 2.824850367701356e-01 9.419364498716051e-01 9.696914853209027e-01 9.327960253164697e-01 9.354011462590222e-01 9.392494240123435e-01 8.709307477382130e-01 9.528748568502819e-01 8.448933006487186e-01 8.341584536323937e-01 9.082555415012020e-01 6.575470125126597e-01 8.140284221430721e-01 7.309678536833264e-01 8.531709946013372e-01 6.536353292938513e-01 6.741357190103472e-01 8.120102303550780e-01 8.658469699700736e-01 8.370086449852441e-01 8.469921194765861e-01 7.319262770443812e-01 7.330953756314175e-01 6.524856913454790e-01 5.265294672676689e-01 8.167692070486449e-01 6.762503312930815e-01 5.553191126971042e-01 3.619325255142862e-01 3.582828281730873e-01 4.375119897779931e-01 3.850245445171924e-01 4.036894755652811e-01 5.716890528798485e-01 3.896352991529973e-01 3.268432912484449e-01 3.944365219516031e-01 1.046130848411464e+00 3.790585136527956e-01 9.516750360570139e-01 4.565814509107537e-01 3.136285832044444e-01 8.139545805593713e-01 3.135862753929647e-01 5.245705007558255e-01 8.144467656214357e-01 7.038961686735732e-01 7.468448951871745e-01 7.293736975804787e-01 7.557224347796291e-01 7.906315218061853e-01 7.485222225920111e-01 7.386383203524126e-01 6.490683315069928e-01 6.678574529590158e-01 7.413660050470776e-01 7.646433199211448e-01 6.892633258492630e-01 7.420717449160158e-01 7.407426640757151e-01 6.496690832378369e-01 7.381961817731708e-01 7.353269606886499e-01 7.938136106927542e-01 7.225936597701897e-01 7.380096448706273e-01 6.679720480321478e-01 7.936447704102001e-01 8.068767717871776e-01 7.379457199384764e-01 8.145242198529884e-01 7.478204262085832e-01 7.425615219471728e-01 7.644208466633825e-01 8.137759517373047e-01 7.795041554041582e-01 8.085517971592482e-01 7.989152560861120e-01 8.386145105982095e-01 7.492856836131331e-01 7.993871262882853e-01 7.370214538705504e-01 7.427893937699321e-01 7.995085452128159e-01 8.136566685519632e-01 8.132852637898319e-01 8.225794602750447e-01 8.395176648851171e-01 8.135316646095330e-01 7.978221709145638e-01 8.226720212434048e-01 7.647084295278669e-01 8.197868239773194e-01 8.132041957260078e-01 6.874424117884932e-01 7.223968050290870e-01 7.095500311362106e-01 7.221707218014515e-01 7.174013929523467e-01 7.091934415308583e-01 8.118995246793244e-01 7.621599725470736e-01 8.044596426005695e-01 7.624999559750059e-01 7.362913521939080e-01 8.046531809521441e-01 6.920644432541783e-01 6.359573374095252e-01 7.415109171027764e-01 6.361006560401699e-01 6.448397937289143e-01 7.415717791394034e-01 5.809581777077374e-01 6.304284395244506e-01 6.969316129922010e-01 6.231745846710514e-01 3.108635516307555e-01 2.995723561585302e-01 7.069677844759907e-01 6.485896056072531e-01 7.391559798457441e-01 7.832569063203433e-01 7.308591918351905e-01 7.628959096991381e-01 6.485523466625275e-01 7.073021485508841e-01 6.335237418377760e-01 7.381425329294561e-01 7.307000580393701e-01 7.836781587669595e-01 7.174057433123948e-01 7.484524587044902e-01 6.307506502696925e-01 3.324204602095386e-01 6.693378075386419e-01 6.094363156466841e-01 3.481286411835637e-01 6.872814017828635e-01 6.632912366790316e-01 9.644441815630098e-01 3.968189944515149e-01 9.843411921754102e-01 4.532267686309007e-01 4.389459455452853e-01 3.607797947867251e-01 8.252376340475908e-01 6.199892945008023e-01 6.441050324306605e-01 4.718945735022384e-01 5.720490711652497e-01 3.857518704383582e-01 4.407224848402235e-01 4.529144334003223e-01 5.468847699813068e-01 6.984813582288644e-01 5.800271721247191e-01 4.679225483452359e-01 6.168802277363883e-01 5.056444527021983e-01 6.464240169907799e-01 5.484821504715978e-01 4.509093390727245e-01 5.310219784055757e-01 6.396295378824517e-01 5.505321988713660e-01 5.298682615835164e-01 5.272545573794682e-01 6.046120715829590e-01 6.400117219106316e-01 6.018069500372825e-01 6.459223215773576e-01 8.232240438946085e-01 8.394345282647389e-01 6.379951727731205e-01 6.812220404633379e-01 8.230034978156503e-01 6.417376004803494e-01 6.031697745243054e-01 6.731275525106796e-01 6.471691061968950e-01 8.558353258387110e-01 -3.120635577898162e-02 2.860936329387291e-02 -3.848589267538451e-02 1.259391836251576e-01 8.837716804604195e-02 2.128717104697759e-01 1.216261804600562e-01 6.413618726709271e-02 8.854637945032168e-02 5.166993665795743e-02 5.515396015945279e-02 6.432619719039405e-02 8.0322439