<?xml version="1.0"?>
<VTKFile type="UnstructuredGrid" version="0.1" byte_order="LittleEndian">
<UnstructuredGrid>
<Piece NumberOfPoints="1896" NumberOfCells="677">
<Points>
<DataArray type="Float64" NumberOfComponents="3" format="ascii">
0.000000000000000e+00 3.750000000000000e+00 0.000000000000000e+00 5.624999999964863e-01 3.999999999998438e+00 0.000000000000000e+00 5.624999999964863e-01 3.999999999998438e+00 0.000000000000000e+00 1.124999999995812e+00 4.249999999998138e+00 0.000000000000000e+00 1.124999999995812e+00 4.249999999998138e+00 0.000000000000000e+00 1.687499999998485e+00 4.499999999999327e+00 0.000000000000000e+00 1.687499999998485e+00 4.499999999999327e+00 0.000000000000000e+00 2.250000000000000e+00 4.750000000000000e+00 0.000000000000000e+00 2.250000000000000e+00 4.750000000000000e+00 0.000000000000000e+00 1.750000000000000e+00 5.000000000000000e+00 0.000000000000000e+00 2.250000000000000e+00 4.750000000000000e+00 0.000000000000000e+00 2.875000000000000e+00 4.375000000000000e+00 0.000000000000000e+00 2.875000000000000e+00 4.375000000000000e+00 0.000000000000000e+00 3.500000000000000e+00 4.000000000000000e+00 0.000000000000000e+00 3.500000000000000e+00 4.000000000000000e+00 0.000000000000000e+00 2.750000000000000e+00 4.000000000000000e+00 0.000000000000000e+00 2.250000000000000e+00 4.750000000000000e+00 0.000000000000000e+00 2.687500000002093e+00 5.000000000001196e+00 0.000000000000000e+00 2.687500000002093e+00 5.000000000001196e+00 0.000000000000000e+00 3.125000000002093e+00 5.250000000001196e+00 0.000000000000000e+00 3.125000000002093e+00 5.250000000001196e+00 0.000000000000000e+00 3.562500000002093e+00 5.500000000001196e+00 0.000000000000000e+00 3.562500000002093e+00 5.500000000001196e+00 0.000000000000000e+00 4.000000000000000e+00 5.750000000000000e+00 0.000000000000000e+00 4.000000000000000e+00 5.750000000000000e+00 0.000000000000000e+00 3.500000000000000e+00 5.000000000000000e+00 0.000000000000000e+00 4.000000000000000e+00 5.750000000000000e+00 0.000000000000000e+00 3.250000000000000e+00 6.250000000000000e+00 0.000000000000000e+00 4.000000000000000e+00 5.750000000000000e+00 0.000000000000000e+00 4.500000000000000e+00 6.000000000000000e+00 0.000000000000000e+00 4.500000000000000e+00 6.000000000000000e+00 0.000000000000000e+00 5.000000000000000e+00 6.250000000000000e+00 0.000000000000000e+00 4.750000000000000e+00 7.250000000000000e+00 0.000000000000000e+00 4.500000000005181e+00 6.750000000010362e+00 0.000000000000000e+00 4.500000000005181e+00 6.750000000010362e+00 0.000000000000000e+00 4.250000000005181e+00 6.250000000010362e+00 0.000000000000000e+00 4.250000000005181e+00 6.250000000010362e+00 0.000000000000000e+00 4.000000000000000e+00 5.750000000000000e+00 0.000000000000000e+00 4.000000000000000e+00 5.750000000000000e+00 0.000000000000000e+00 4.625000000000000e+00 5.375000000000000e+00 0.000000000000000e+00 4.625000000000000e+00 5.375000000000000e+00 0.000000000000000e+00 5.250000000000000e+00 5.000000000000000e+00 0.000000000000000e+00 5.250000000000000e+00 5.000000000000000e+00 0.000000000000000e+00 4.750000000000000e+00 4.750000000000000e+00 0.000000000000000e+00 3.500000000000000e+00 4.000000000000000e+00 0.000000000000000e+00 4.250000000000000e+00 3.500000000000000e+00 0.000000000000000e+00 4.250000000000000e+00 4.750000000000000e+00 0.000000000000000e+00 4.750000000000000e+00 4.375000000000000e+00 0.000000000000000e+00 4.750000000000000e+00 4.375000000000000e+00 0.000000000000000e+00 5.250000000000000e+00 4.000000000000000e+00 0.000000000000000e+00 4.250000000000000e+00 1.500000000000000e+00 0.000000000000000e+00 4.624999999997918e+00 1.874999999997918e+00 0.000000000000000e+00 4.624999999997918e+00 1.874999999997918e+00 0.000000000000000e+00 5.000000000000000e+00 2.250000000000000e+00 0.000000000000000e+00 5.000000000000000e+00 2.250000000000000e+00 0.000000000000000e+00 5.250000000000000e+00 1.750000000000000e+00 0.000000000000000e+00 5.250000000000000e+00 1.750000000000000e+00 0.000000000000000e+00 5.500000000000000e+00 1.250000000000000e+00 0.000000000000000e+00 5.500000000000000e+00 1.250000000000000e+00 0.000000000000000e+00 5.750000000000000e+00 7.500000000000000e-01 0.000000000000000e+00 5.000000000000000e+00 2.250000000000000e+00 0.000000000000000e+00 4.750000000000000e+00 2.750000000000000e+00 0.000000000000000e+00 5.000000000000000e+00 2.250000000000000e+00 0.000000000000000e+00 5.500000000000000e+00 2.750000000000000e+00 0.000000000000000e+00 5.500000000000000e+00 2.750000000000000e+00 0.000000000000000e+00 5.750000000000000e+00 2.500000000000000e+00 0.000000000000000e+00 3.500000000000000e+00 4.000000000000000e+00 0.000000000000000e+00 4.125000000008327e+00 4.000000000000000e+00 0.000000000000000e+00 4.125000000008327e+00 4.000000000000000e+00 0.000000000000000e+00 4.750000000000000e+00 4.000000000000000e+00 0.000000000000000e+00 4.750000000000000e+00 4.000000000000000e+00 0.000000000000000e+00 5.250000000000000e+00 4.000000000000000e+00 0.000000000000000e+00 5.500000000000000e+00 2.750000000000000e+00 0.000000000000000e+00 5.125000000000000e+00 3.375000000000000e+00 0.000000000000000e+00 5.125000000000000e+00 3.375000000000000e+00 0.000000000000000e+00 4.750000000000000e+00 4.000000000000000e+00 0.000000000000000e+00 6.000000000000000e+00 3.750000000000000e+00 0.000000000000000e+00 6.750000000000000e+00 4.000000000000000e+00 0.000000000000000e+00 5.250000000000000e+00 5.000000000000000e+00 0.000000000000000e+00 5.749999999991033e+00 4.666666666672645e+00 0.000000000000000e+00 5.749999999991033e+00 4.666666666672645e+00 0.000000000000000e+00 6.249999999991033e+00 4.333333333339311e+00 0.000000000000000e+00 6.249999999991033e+00 4.333333333339311e+00 0.000000000000000e+00 6.750000000000000e+00 4.000000000000000e+00 0.000000000000000e+00 5.500000000000000e+00 2.750000000000000e+00 0.000000000000000e+00 5.916666666666667e+00 3.166666666666667e+00 0.000000000000000e+00 5.916666666666667e+00 3.166666666666667e+00 0.000000000000000e+00 6.333333333333333e+00 3.583333333333333e+00 0.000000000000000e+00 6.333333333333333e+00 3.583333333333333e+00 0.000000000000000e+00 6.750000000000000e+00 4.000000000000000e+00 0.000000000000000e+00 5.250000000000000e+00 5.000000000000000e+00 0.000000000000000e+00 5.750000000000000e+00 5.250000000000000e+00 0.000000000000000e+00 5.750000000000000e+00 5.250000000000000e+00 0.000000000000000e+00 6.250000000000000e+00 5.500000000000000e+00 0.000000000000000e+00 6.250000000000000e+00 5.500000000000000e+00 0.000000000000000e+00 6.750000000000000e+00 5.750000000000000e+00 0.000000000000000e+00 6.750000000000000e+00 5.750000000000000e+00 0.000000000000000e+00 7.250000000000000e+00 6.000000000000000e+00 0.000000000000000e+00 7.250000000000000e+00 6.000000000000000e+00 0.000000000000000e+00 6.875000000000000e+00 5.625000000000000e+00 0.000000000000000e+00 6.875000000000000e+00 5.625000000000000e+00 0.000000000000000e+00 6.500000000000000e+00 5.250000000000000e+00 0.000000000000000e+00 7.250000000000000e+00 6.000000000000000e+00 0.000000000000000e+00 7.600000000000000e+00 6.400000000000000e+00 0.000000000000000e+00 7.600000000000000e+00 6.400000000000000e+00 0.000000000000000e+00 7.950000000000000e+00 6.800000000000000e+00 0.000000000000000e+00 7.950000000000000e+00 6.800000000000000e+00 0.000000000000000e+00 8.300000000000001e+00 7.200000000000000e+00 0.000000000000000e+00 8.300000000000001e+00 7.200000000000000e+00 0.000000000000000e+00 8.650000000000000e+00 7.600000000000000e+00 0.000000000000000e+00 8.650000000000000e+00 7.600000000000000e+00 0.000000000000000e+00 9.000000000000000e+00 8.000000000000000e+00 0.000000000000000e+00 7.250000000000000e+00 6.000000000000000e+00 0.000000000000000e+00 7.750000000000000e+00 6.250000000000000e+00 0.000000000000000e+00 6.750000000000000e+00 4.000000000000000e+00 0.000000000000000e+00 7.249999999991033e+00 4.333333333327355e+00 0.000000000000000e+00 7.249999999991033e+00 4.333333333327355e+00 0.000000000000000e+00 7.749999999991033e+00 4.666666666660689e+00 0.000000000000000e+00 7.749999999991033e+00 4.666666666660689e+00 0.000000000000000e+00 8.250000000000000e+00 5.000000000000000e+00 0.000000000000000e+00 8.250000000000000e+00 5.000000000000000e+00 0.000000000000000e+00 7.500000000000000e+00 4.750000000000000e+00 0.000000000000000e+00 7.750000000000000e+00 5.500000000000000e+00 0.000000000000000e+00 8.250000000000000e+00 5.000000000000000e+00 0.000000000000000e+00 8.250000000000000e+00 5.000000000000000e+00 0.000000000000000e+00 9.000000000000000e+00 5.500000000000000e+00 0.000000000000000e+00 8.250000000000000e+00 5.000000000000000e+00 0.000000000000000e+00 8.750000000000000e+00 5.166666666666667e+00 0.000000000000000e+00 8.750000000000000e+00 5.166666666666667e+00 0.000000000000000e+00 9.250000000000000e+00 5.333333333333333e+00 0.000000000000000e+00 9.250000000000000e+00 5.333333333333333e+00 0.000000000000000e+00 9.750000000000000e+00 5.500000000000000e+00 0.000000000000000e+00 8.250000000000000e+00 5.000000000000000e+00 0.000000000000000e+00 8.750000000000000e+00 4.666666666666667e+00 0.000000000000000e+00 8.750000000000000e+00 4.666666666666667e+00 0.000000000000000e+00 9.250000000000000e+00 4.333333333333333e+00 0.000000000000000e+00 9.250000000000000e+00 4.333333333333333e+00 0.000000000000000e+00 9.750000000000000e+00 4.000000000000000e+00 0.000000000000000e+00 8.250000000000000e+00 3.750000000000000e+00 0.000000000000000e+00 8.750000000000000e+00 3.833333333333334e+00 0.000000000000000e+00 8.750000000000000e+00 3.833333333333334e+00 0.000000000000000e+00 9.250000000000000e+00 3.916666666666667e+00 0.000000000000000e+00 9.250000000000000e+00 3.916666666666667e+00 0.000000000000000e+00 9.750000000000000e+00 4.000000000000000e+00 0.000000000000000e+00 9.750000000000000e+00 4.000000000000000e+00 0.000000000000000e+00 1.025000000000000e+01 4.083333333333333e+00 0.000000000000000e+00 1.025000000000000e+01 4.083333333333333e+00 0.000000000000000e+00 1.075000000000000e+01 4.166666666666667e+00 0.0000000000000
[...]
<PointData Scalars="A_conc," Vectors="">
<DataArray type="Float64" Name="A_conc" format="ascii">
7.141769150982661e-01 7.190751476915421e-01 7.190471062388112e-01 7.237716736146130e-01 7.237322964341885e-01 7.272436969535697e-01 7.272063349051938e-01 7.301094012494882e-01 7.770249045665497e-01 5.211351332268981e-01 8.175966530365103e-01 8.370589701495763e-01 8.356421485967287e-01 8.437244735719045e-01 9.673767777315792e-01 2.243338588945424e-01 6.470685347371148e-01 6.622762383896427e-01 6.624951506810265e-01 6.791056321129462e-01 6.801243099348813e-01 6.966072463388460e-01 6.966996285531666e-01 7.052956322717605e-01 1.018885582202931e-01 1.766307908217980e-01 7.842805549814277e-01 3.161425125510450e-01 5.014083867937054e-01 5.334811218516388e-01 5.359581934075841e-01 5.709294827368864e-01 2.186466066335636e-02 1.190603473050378e-02 1.384196096783930e-02 2.378646341209714e-01 2.878762906005797e-01 7.153797794288514e-01 8.196619500791869e-01 8.402405679208687e-01 8.396305857280325e-01 8.458529277342853e-01 3.787631421311933e-01 2.521574237321348e-02 4.310742813528636e-01 4.465665599294004e-01 4.836688850179087e-01 9.152773255038840e-01 8.357309971924896e-01 9.166009643310304e-01 3.326302575749004e-01 7.897793902804230e-01 7.147824238414396e-01 8.162860845275476e-01 1.909666143745419e-01 1.071765717364131e-01 1.111528358683039e-01 3.214942831192523e-02 4.988650110984617e-02 1.222866816540557e-01 9.258133172011697e-01 1.681869742248826e-01 8.783718945191979e-01 8.946369661393861e-01 9.317303736780528e-01 9.361696405607448e-01 8.623599186057314e-01 8.672360037862596e-01 8.671706230335937e-01 8.716155324194887e-01 8.851256485401523e-01 9.075747658594605e-01 8.929324946714789e-01 8.836790083231604e-01 8.841237654794997e-01 8.608086707975382e-01 9.226259704807415e-01 9.304438348163554e-01 9.078312600729622e-01 9.204873808611441e-01 9.196229796388399e-01 9.260398164346930e-01 9.257298905967972e-01 9.304370801344271e-01 5.835080246767240e-01 6.160188108519553e-01 6.193059948687997e-01 6.662753038725679e-01 6.754926820736109e-01 8.630237893960391e-01 4.042290338776713e-01 4.522963969797100e-01 4.533883512991151e-01 5.038094682924423e-01 4.985029798412308e-01 5.674244095292594e-01 5.719809312137005e-01 6.725218886616060e-01 6.470557197306309e-01 6.890483465462971e-01 6.616278662536201e-01 6.588546986578621e-01 7.475880782016631e-01 7.850567529343552e-01 7.848424462542637e-01 8.421846001107703e-01 8.422791363511776e-01 8.903187622270341e-01 8.842639486083569e-01 9.043654983866745e-01 9.033513285888968e-01 9.075710737697580e-01 4.838747292860440e-01 4.097968894833320e-01 9.301630927300909e-01 9.452412191611458e-01 9.441631746874258e-01 9.520422422532949e-01 9.510719375768357e-01 9.556538930492708e-01 1.003875277802295e+00 8.017399946980748e-01 7.907213340696184e-01 1.007530442428906e+00 9.544852466936848e-01 2.856357169546931e-02 6.989692890122911e-01 7.263674267025612e-01 7.278613274996673e-01 7.518635698434076e-01 7.514299028509729e-01 7.492454797192923e-01 9.904281123553053e-01 9.935571570659136e-01 9.932196767001853e-01 9.944254867141747e-01 9.942793334814241e-01 9.947497877381749e-01 7.814945063962077e-01 1.028892505617803e+00 9.727391073015258e-01 9.937614865177551e-01 9.899312206039483e-01 9.954805824028742e-01 9.946654798219222e-01 9.951726907847401e-01 9.951125423610022e-01 9.953273452260553e-01 9.953256394210859e-01 9.955298893180144e-01 1.020362481939883e+00 9.310874432188623e-01 9.783323251467000e-01 9.849700078481927e-01 9.999433626109939e-01 1.000014449336754e+00 9.999974871670669e-01 1.000001854400973e+00 1.000000150144488e+00 1.000000056268166e+00 9.512145219145828e-01 9.644643528202117e-01 9.639117722707442e-01 9.773621390802087e-01 9.766707798556197e-01 9.888210797511489e-01 9.881992700662969e-01 9.955470355150883e-01 5.515802128002119e-01 9.405387020583182e-01 8.660017812773744e-01 9.568221760278464e-01 9.421361739372341e-01 9.441885733827797e-01 9.441711844382077e-01 9.461158843165484e-01 1.033661994295108e+00 6.395354129282664e-01 9.588144825024567e-01 9.700297300013673e-01 9.693042096061248e-01 9.741289436282373e-01 2.449695972601157e-01 2.110821294611030e-01 2.727315161235043e-01 4.033062961442326e-01 4.151591177430791e-01 5.138050172659180e-01 9.070848578518763e-01 9.233982529599393e-01 6.014763522451866e-01 6.523933919673915e-01 6.555902313305605e-01 7.157480733392714e-01 7.161143637764134e-01 7.645217505311708e-01 7.634850455243045e-01 7.774945510555580e-01 7.771231386475739e-01 7.850382342495416e-01 7.848980521664436e-01 7.903041977147666e-01 7.902714631465704e-01 7.953649069897837e-01 7.953316496484646e-01 8.002211622603322e-01 8.001859157297184e-01 8.048488346070229e-01 7.655872523632391e-01 7.266524097239462e-01 7.289227720858287e-01 6.714022291151585e-01 6.746271899612946e-01 5.956773621601535e-01 6.024806998777671e-01 4.884553132504050e-01 5.256004626271394e-01 2.399234921050564e-01 7.053515960068325e-01 6.948242432176617e-01 6.950048433458990e-01 6.835426916179917e-01 6.838651090924343e-01 6.707308029877623e-01 6.713760420658493e-01 6.549391721372635e-01 6.567369456936596e-01 6.315205005096582e-01 6.485201783953944e-01 5.497086100962130e-01 9.737777717607818e-01 9.782997058386018e-01 9.780617672473998e-01 9.808928458310257e-01 9.882901143720124e-01 9.910019956245906e-01 9.909127018600278e-01 9.931298532562879e-01 9.929344897889577e-01 9.943968457820601e-01 9.944236724367144e-01 9.956466293339958e-01 9.564198413020322e-01 9.681312152743436e-01 9.679145161697256e-01 9.760518624565520e-01 9.759826994110750e-01 9.805121519482894e-01 9.770039431779689e-01 9.750934848315829e-01 9.747677284267895e-01 9.711906934286174e-01 9.709709276961130e-01 9.658416394744891e-01 9.658089531823155e-01 9.589859928414433e-01 9.589026517124762e-01 9.494217029971062e-01 5.713902482273959e-01 6.001157737483642e-01 6.002274099179014e-01 6.259984665633131e-01 6.258327225601846e-01 6.513661472083746e-01 6.511855038092558e-01 6.747041649781406e-01 9.359717531062630e-01 9.396295923531146e-01 9.394841793194632e-01 9.421598120292241e-01 7.166607213309806e-01 7.404447118669716e-01 5.849529993936982e-01 7.662304875022886e-01 7.608915876133112e-01 5.579671767063429e-01 2.057781820508530e-01 4.789207846057101e-01 1.535486214300379e-01 5.755337295787746e-01 6.359843709810092e-01 4.835347946851783e-01 5.122549618574971e-01 5.301802132302414e-01 1.334802285323299e-01 1.761007527539827e-01 4.953919726720509e-01 1.191353827087933e-01 5.166156185582462e-02 3.083832239414882e-02 1.651882216920930e-02 9.113969805574236e-01 9.174275437834957e-01 6.500876124067132e-01 5.329294761611435e-01 3.725891179610523e-01 1.680777330569497e-01 -9.235993951869062e-05 1.824167709889808e-02 1.266470007470474e-02 5.326777288364802e-01 5.672581743141858e-01 5.207329957386014e-01 4.241382857371893e-01 5.544268689742536e-01 5.080992313180770e-01 7.543455237232836e-01 5.055610095948142e-01 5.126728614378570e-01 6.278477758057263e-01 5.816218506566698e-01 5.899336910673481e-01 5.900622424247380e-01 5.817297285051043e-01 5.418972080069248e-01 -5.726481572990899e-02 -5.801248256579608e-02 1.787397258604416e-01 2.665656564961505e-01 -1.017551010230927e-01 4.894558922747553e-01 5.594026128425100e-01 4.948173153827213e-01 7.561965093594489e-01 7.512216123294518e-01 5.061531797595094e-01 7.531987495273043e-01 7.495729176771229e-01 5.220049126656854e-01 7.431378486725579e-01 7.440455952406848e-01 5.214317386706429e-01 5.812333456021829e-01 4.829486656294866e-01 5.327566155110186e-01 5.207255363069503e-01 5.558793179025839e-01 5.770279492311068e-01 4.553894833051049e-01 4.849932004683252e-01 4.535546531498960e-01 4.983538460551433e-01 5.282348139409532e-01 4.848361999810896e-01 4.985570242307816e-01 3.963140038988306e-01 4.469822611050029e-01 6.582537628270996e-01 -6.046100020257816e-02 -6.129117227381314e-02 1.868741507623190e-01 -6.435887365093373e-02 1.947668698957780e-01 1.649442244735222e-01 1.693949565952936e-04 1.345795395843185e-01 -2.447584791307688e-02 1.623550510048395e-02 1.900713816465311e-02 -9.414455706581054e-04 7.929231211148775e-02 3.049442353493331e-02 5.401109814152711e-02 8.627804574728185e-02 3.189246434915315e-02 1.422787268526190e-01 8.473418537593308e-02 3.884871670992981e-02 1.176904132979723e-02 8.945307135994643e-02 8.515431701567348e-02 1.402665102875127e-01 2.083560761860397e-02 9.144589071988374e-02 8.556920558807354e-02 5.231237370136781e-01 3.963264893501245e-01 3.327428156525912e-01 6.270438485813364e-01 5.766801751461633e-01 6.404130395706484e-01 3.955279201854003e-01 6.591041031378450e-01 6.157282777279579e-01 4.000130123972734e-01 6.876667103303538e-01 5.939265190392555e-01 5.222951381313748e-01 3.333249005157553e-01 3.850496753549855e-01 2.693079541433646e-01 1.854924927567063e-01 7.369904314854107e-02 8.651245911875446e-02 1.509468430285210e-01 2.567403094771584e-01 1.357605712383894e-02 1.115807570547621e-02 -1.327376959666790e-02 2.822555142535048e-02 -5.678517257646687e-02 1.591030873239998e-01 5.096163382329171e-01 1.875844381589463e-01 2.826628056431562e-01 1.366629700859733e-01 3.799371528566631e-02 9.108594419564271e-02 1.373040285875995e-01 8.012140711273429e-02 1.477570593916570e-01 3.949251425815823e-01 4.335692045549487e-01 5.036533875356415e-01 -8.725217020377730e-02 4.014786569468732e-01 2.409513021709772e-01 -1.723542717874351e-02 1.389819887230721e-02 -1.365905863125561e-02 2.276766294697408e-01 2.426060873348416e-01 5.922607821310623e-01 3.364062063788451e-02 3.484119393248387e-02 3.287180022565758e-03 -1.260427278917896e-02 -3.050337575530555e-02 1.443442568481678e-01 7.455832006411035e-01 7.839162081299631e-01 4.311133260441317e-01 5.597444941669186e-01 7.151213606503081e-01 4.061089860469936e-01 1.813680093980520e-02 2.943742276624061e-02 4.976680364448303e-02 8.849923816313644e-03 2.799417071881734e-02 1.820770457560164e-02 1.102436207909824e-01 2.253409830081696e-01 4.105160143130986e-01 4.056276215087663e-02 3.884309182582951e-01 -7.781304730532988e-02 1.053386778763078e-01 4.158877283629653e-01 3.599092017879881e-01 5.749214306881950e-01 5.972365850020664e-01 1.316435775784249e-01 7.086263574812585e-02 4.111076477172559e-01 1.926177743295301e-01 4.341620186085893e-01 5.101114155923159e-01 1.892128870380444e-01 2.316747762832413e-01 4.974746045296758e-01 4.385614545459063e-01 1.430954411454197e-01 8.734531151420288e-02 5.425829571828915e-01 1.769633797618130e-01 5.215007614273101e-02 6.257257473963354e-02 6.399215033376279e-02 5.346759343862022e-02 1.483718930816447e-01 5.242332720903844e-01 7.802940613158817e-01 5.069427139784141e-01 6.293030805069985e-01 6.470281874869362e-01 6.100383645172837e-01 5.954764917136770e-01 4.038094218481607e-01 2.260578800556763e-01 6.013659458480162e-01 6.877739489356934e-01 4.003874211477961e-01 2.725632184672219e-01 1.391340057572139e-01 1.505458407468692e-01 2.836699887502506e-01 2.759418092148794e-01 1.329112847886452e-01 1.054763543022834e-01 6.088921684245179e-01 5.054438634351202e-01 7.624882106416091e-02 2.748269342471701e-02 3.948595582272353e-01 1.883853435914367e-01 3.742776310212362e-01 4.666291757619220e-02 8.513742330812003e-01 5.490570126922225e-01 5.307864697361379e-01 7.828288664353603e-01 8.456132813787921e-01 5.021898098809729e-01 5.386796704530175e-01 2.586516960302246e-01 5.225742185451403e-01 5.166943583899394e-01 4.987036338938374e-01 2.608553833957813e-01 2.908875302679952e-01 5.023241387512147e-01 2.823063052314439e-01 8.521635044815445e-01 8.972542793796560e-01 5.495367110768085e-01 7.031829911295783e-01 5.337985833211177e-01 8.955793698680409e-01 6.781538027998860e-01 6.407868160586000e-01 3.654788438818162e-01 3.755876758269483e-01 5.503179905611594e-01 6.837972220377856e-01 9.117832669619635e-01 7.069724465943913e-01 8.886238437909618e-01 6.454122873151791e-01 6.823769800111291e-01 9.194320256344222e-01 7.765037021701672e-01 7.348384214798802e-01 3.293177571866198e-01 7.232940867453836e-01 7.425155208595645e-01 3.646198787362097e-01 7.427415912519837e-01 6.081217730482559e-01 3.647642090371176e-01 7.013883178992159e-01 6.679973532814589e-01 6.403987188464375e-01 6.693116588577168e-01 6.349146202422965e-01 6.376439906947762e-01 6.715748913778472e-01 6.549308909380477e-01 6.400926732907215e-01 6.560604458283398e-01 6.329024204363953e-01 6.418600387121000e-01 6.568032851550776e-01 6.314887699812211e-01 6.307403553890927e-01 6.453576627278620e-01 5.568360597864538e-01 6.480990742092226e-01 7.055342436010470e-01 2.380889171890383e-01 2.920759289013861e-01 7.629937319137227e-01 4.333402754402094e-01 5.041708736428588e-01 2.193525493824383e-01 -3.042804310182642e-02 1.642879635322601e-02 2.242862627672738e-01 2.197166597539760e-01 -2.949650627395652e-02 1.163940970612476e-02 7.161442078359797e-03 2.145300755975800e-02 6.558890057734418e-01 6.769747456847025e-01 6.518594629118105e-01 6.230239353381208e-01 6.672454296300527e-01 6.507975561894431e-01 6.677055731314677e-01 7.060519379869005e-01 6.721558604646537e-01 6.310738955784995e-01 6.430728091689225e-01 5.749033031182369e-01 4.980037686873849e-01 5.208261284862925e-01 5.671447744929901e-01 6.741217044750376e-01 6.780935182582432e-01 5.414067641565121e-01 4.681945946212159e-01 6.410970792423014e-01 6.703263662386630e-01 6.561339185585963e-01 5.388858909675887e-01 6.527686296611744e-01 4.654285369850065e-01 6.376920248081176e-01 5.418414904886051e-01 6.371315603644288e-01 6.103835029388806e-01 6.642291210629014e-01 6.790314339150169e-01 5.838748273872170e-01 5.407572790691906e-01 6.524167768212669e-01 6.450900156212882e-01 5.409864959374874e-01 5.708533064658863e-01 6.232553669558306e-01 6.514186063468222e-01 5.573352209666813e-01 6.664422404379389e-01 6.741447827880064e-01 6.755621621989011e-01 5.216556715203308e-01 5.567896973849631e-01 6.162948416453234e-01 2.448100130384417e-01 -7.734113242374774e-02 4.840676546550909e-01 4.443278121392279e-01 6.664544062331811e-01 2.255921349985663e-01 1.758739778336511e-01 3.960934192731194e-01 2.426665478454813e-01 5.549058928834760e-01 4.918047788087864e-01 4.144309848062341e-01 4.866675515691005e-01 2.213812031347444e-01 2.138289525978678e-01 7.215080466412750e-02 1.723918910642281e-01 1.614058527356733e-01 7.205130290606931e-02 2.255069136561184e-01 1.518867546233863e-01 5.645995789204698e-02 7.522780968523424e-02 5.234404346485247e-01 7.391379241080875e-01 6.931126556152157e-03 5.028255067105064e-02 1.622684675025414e-01 1.975151464407678e-01 1.712637241555934e-01 4.185721232696053e-01 2.063519773351805e-01 4.424034653414858e-01 1.550083640873220e-01 2.586577701676520e-01 2.573748220399929e-01 4.943376707480385e-01 4.587393754715625e-01 3.955922590047400e-01 1.802939403416408e-01 4.386136915537663e-01 6.897357437239131e-02 5.774134040644358e-02 1.841169007553119e-01 6.310375986290228e-01 -9.183053389604232e-02 4.771802940854002e-02 7.701401236194909e-01 1.256595063142155e-01 3.894847895484805e-01 7.530243649561669e-01 1.656013179130714e-01 1.354342006933204e-01 7.319773485685669e-01 3.756169223658135e-01 1.871662787095804e-01 4.531750094534752e-02 1.887555294885156e-01 3.573357669643407e-01 8.298607375173419e-01 8.185197220919462e-01 8.802976943632679e-01 8.766605171744409e-01 5.666710623635196e-01 8.706462602660762e-01 8.794356117127526e-01 8.052067028149973e-01 5.621470763490030e-01 8.782286039919636e-01 8.302090542785164e-01 9.179159133836620e-01 7.866337725046275e-01 4.107806368042762e-01 5.879328236245176e-01 7.868398778211090e-01 6.117751965349998e-01 4.111760002479886e-01 6.098660930528581e-01 3.678782026625010e-01 4.112002733870160e-01 6.072122756438432e-01 3.954224809527341e-01 3.693201052621342e-01 1.624577881773911e-01 8.564999001285843e-02 6.658947748509945e-02 3.844186808512230e-01 4.002534852705917e-01 2.169219850624638e-01 6.127757306843801e-02 1.030674775937757e-01 1.700357568623509e-01 8.886568044197398e-01 9.386263705669234e-01 8.718108043496648e-01 8.750843753409739e-01 8.813538393846525e-01 7.668402650113437e-01 8.945631854597149e-01 7.255973196472406e-01 7.166324887135596e-01 8.182874985331825e-01 4.978998296744659e-01 6.911019721448139e-01 5.744975449584283e-01 7.249048352949244e-01 4.803227817868156e-01 4.970068879390115e-01 7.000914529229907e-01 7.595697276277884e-01 7.191198384476037e-01 7.252886500951581e-01 5.744744098475272e-01 5.702404473547169e-01 4.782881323831083e-01 3.529274659021370e-01 6.986512169670730e-01 4.998234316660602e-01 3.660765085254029e-01 2.305540585043540e-01 2.199773140784574e-01 2.855760503242490e-01 2.286635390757454e-01 2.592040097845121e-01 4.177579791853781e-01 2.336695034918710e-01 1.862763032505014e-01 2.486010959515804e-01 9.675223446477114e-01 2.309949090040599e-01 8.296971846765797e-01 3.073119515763568e-01 1.628239812289171e-01 6.818030024988444e-01 1.701747268649239e-01 3.787762660734191e-01 6.742332018526734e-01 6.017946180987541e-01 6.417430778456292e-01 6.292463364762944e-01 6.390597406243627e-01 6.880763789561589e-01 6.382747751637887e-01 6.300781756148091e-01 5.211303298133790e-01 5.466858925053507e-01 6.412188983659013e-01 6.748136843629866e-01 5.961523190364414e-01 6.297870933794565e-01 6.398925384956965e-01 5.432539530201986e-01 6.378172898172462e-01 6.233902666948767e-01 6.920331370406746e-01 6.177885898141779e-01 6.300406200077090e-01 5.465564939984930e-01 6.921880449609684e-01 7.164673430147067e-01 6.373187787574068e-01 7.290172920435153e-01 6.406231700836359e-01 6.412882887647293e-01 6.605412719438822e-01 7.251332563819193e-01 6.756870005331247e-01 7.221353728003607e-01 7.161522357372399e-01 7.649002522813720e-01 6.558080184774948e-01 7.163752857757218e-01 6.338366425493580e-01 6.412750446523293e-01 7.167129622305790e-01 7.283787643985683e-01 7.326756262084979e-01 7.393190174464709e-01 7.656429758365264e-01 7.330911497081367e-01 7.062621739517086e-01 7.393088500175137e-01 6.607304469187071e-01 7.355455545401557e-01 7.246187189545733e-01 5.679456630975398e-01 6.137890568797697e-01 6.027266493759627e-01 6.134805914048859e-01 6.177879679802302e-01 6.026705369913352e-01 7.302244420467512e-01 6.732428577398579e-01 7.140639856972660e-01 6.738352137887821e-01 6.351361212518467e-01 7.138996420791492e-01 5.985240187122867e-01 5.365734697380783e-01 6.408825610393076e-01 5.369109348449649e-01 5.382698652772794e-01 6.406537014395050e-01 4.886873017702874e-01 5.322229922404091e-01 6.023721384333449e-01 5.244567651443758e-01 2.405070779955042e-01 2.268152495901324e-01 5.877101746650876e-01 5.211681823647999e-01 6.302170228279187e-01 6.798403293142616e-01 6.145764215765726e-01 6.586773615866539e-01 5.212973392971303e-01 5.876057471109721e-01 5.009943048640491e-01 6.197406275117289e-01 6.145293024116495e-01 6.800913144991303e-01 5.990952660115677e-01 6.310079940523975e-01 4.980361203965366e-01 2.553002946218982e-01 5.648850149754145e-01 5.126118038849118e-01 2.696443548318104e-01 5.754960432923181e-01 5.595002615953313e-01 8.906189497778088e-01 2.501322510006483e-01 9.140761554953210e-01 3.147961710946530e-01 2.875557754176871e-01 2.294882221462846e-01 6.783976399664260e-01 4.453285597378767e-01 4.977891973717131e-01 3.034792570162991e-01 4.211669784023778e-01 2.273404972908984e-01 2.890331924614736e-01 3.158456185812200e-01 3.879949450510340e-01 5.400660392055864e-01 4.328614495195315e-01 2.985896019535325e-01 4.423081242346617e-01 3.488238485365495e-01 4.965783944682082e-01 3.910438222675204e-01 3.139414299614864e-01 3.958527064396666e-01 4.889147800585451e-01 3.933727847360479e-01 3.956036398978893e-01 3.923590690289787e-01 4.778806646354176e-01 4.909903063888744e-01 4.735265207333360e-01 5.257894179116335e-01 6.862930456752317e-01 7.096471756962497e-01 5.148789505789023e-01 5.687917771082798e-01 6.830204855169053e-01 4.937841006549391e-01 4.768281507957705e-01 5.576438641033959e-01 5.159855209120646e-01 7.333649705478839e-01 -1.471556881975362e-02 1.281454791396249e-02 -1.917296678894796e-02 5.864556922014064e-02 3.735914780709594e-02 1.083132628636008e-01 5.580001738935859e-02 2.653753244071268e-02 3.767760468182826e-02 1.909645088720266e-02 2.335373467386728e-02 2.285605725566064e-02 7.049829747219