<?xml version="1.0"?>
<VTKFile type="UnstructuredGrid" version="0.1" byte_order="LittleEndian">
<UnstructuredGrid>
<Piece NumberOfPoints="2028" NumberOfCells="724">
<Points>
<DataArray type="Float64" NumberOfComponents="3" format="ascii">
0 0.69999999999999996 0 0 1.6319639930219929 0 0.59999999999999998 0.69999999999999996 0 0.59999999999999998 0.69999999999999996 0 0 1.6319639930219929 0 0.94999999999923723 1.2749999999987469 0 0.59999999999999998 0.69999999999999996 0 0.94999999999923723 1.2749999999987469 0 0 1.6319639930219929 0 0.68142292217753131 2.106313194182027 0 0.94999999999923723 1.2749999999987469 0 0 2.430303940964651 0 0.68142292217753131 2.106313194182027 0 0 1.6319639930219929 0 0.94999999999923723 1.2749999999987469 0 1.299999999998378 1.8499999999973351 0 0.68142292217753131 2.106313194182027 0 1.299999999998378 1.8499999999973351 0 0.94999999999923723 1.2749999999987469 0 1.299999999998378 1.8499999999973351 0 0.68142292217753131 2.106313194182027 0 1.186467289461244 2.488259157846338 0 1.299999999998378 1.8499999999973351 0 1.649999999999066 2.4249999999984651 0 1.299999999998378 1.8499999999973351 0 1.186467289461244 2.488259157846338 0 1.649999999999066 2.4249999999984651 0 1.299999999998378 1.8499999999973351 0 1.626949751997165 1.3978044304614949 0 0.94999999999923723 1.2749999999987469 0 0.94999999999923723 1.2749999999987469 0 1.626949751997165 1.3978044304614949 0 1.243750000001385 0.69999999999999996 0 1.626949751997165 1.3978044304614949 0 1.887500000003292 0.69999999999999996 0 1.243750000001385 0.69999999999999996 0 1.243750000001385 0.69999999999999996 0 0.59999999999999998 0.69999999999999996 0 0.94999999999923723 1.2749999999987469 0 0.45714634023723411 3.4614941897304652 0 0.56249999999824107 3.9749999999991399 0 1.013301616169622 3.6128741719811099 0 0 3.7000000000000002 0 0.56249999999824107 3.9749999999991399 0 0.45714634023723411 3.4614941897304652 0 0 3.7000000000000002 0 0.56249999999824107 3.9749999999991399 0 0.45714634023723411 3.4614941897304652 0 0.70993008501830757 2.9054181396964478 0 0 3.1141786369756268 0 0 3.7000000000000002 0 0.45714634023723411 3.4614941897304652 0 0 3.1141786369756268 0 0.70993008501830757 2.9054181396964478 0 0.45714634023723411 3.4614941897304652 0 1.013301616169622 3.6128741719811099 0 0.68142292217753131 2.106313194182027 0 0 2.430303940964651 0 0.70993008501830757 2.9054181396964478 0 0 3.1141786369756268 0 0.70993008501830757 2.9054181396964478 0 0 2.430303940964651 0 0.70993008501830757 2.9054181396964478 0 1.186467289461244 2.488259157846338 0 0.68142292217753131 2.106313194182027 0 1.649999999999066 2.4249999999984651 0 1.186467289461244 2.488259157846338 0 1.451787781083937 3.11022608666643 0 1.186467289461244 2.488259157846338 0 0.70993008501830757 2.9054181396964478 0 1.451787781083937 3.11022608666643 0 1.013301616169622 3.6128741719811099 0 1.451787781083937 3.11022608666643 0 0.70993008501830757 2.9054181396964478 0 1.451787781083937 3.11022608666643 0 1.013301616169622 3.6128741719811099 0 1.593428957229921 3.8897035774451321 0 2.4236693135559251 3.5256579194055688 0 2.1666666666662731 4.1999999999971616 0 2.08333333333292 3.599999999997022 0 1.593428957229921 3.8897035774451321 0 2.08333333333292 3.599999999997022 0 1.451787781083937 3.11022608666643 0 1.451787781083937 3.11022608666643 0 2.08333333333292 3.599999999997022 0 2 3 0 2.4236693135559251 3.5256579194055688 0 2 3 0 2.6000000000000818 2.8399999999999781 0 2 3 0 2.08333333333292 3.599999999997022 0 2.08333333333292 3.599999999997022 0 2 3 0 2.4236693135559251 3.5256579194055688 0 2.6000000000000818 2.8399999999999781 0 2.2687831884271348 2.397628317379688 0 2 3 0 2.6000000000000818 2.8399999999999781 0 2 3 0 1.649999999999066 2.4249999999984651 0 2 3 0 1.649999999999066 2.4249999999984651 0 1.451787781083937 3.11022608666643 0 2 3 0 2.2687831884271348 2.397628317379688 0 1.649999999999066 2.4249999999984651 0 2 3 0 2.2687831884271348 2.397628317379688 0 2.6000000000000818 2.8399999999999781 0 2.8857059848027808 2.304389417342541 0 2.8857059848027808 2.304389417342541 0 2.6000000000000818 2.8399999999999781 0 3.2000000000001432 2.679999999999962 0 3.2848100522576571 3.06994577157805 0 2.6000000000000818 2.8399999999999781 0 3.2000000000001432 2.679999999999962 0 3.2000000000001432 2.679999999999962 0 2.6000000000000818 2.8399999999999781 0 2.6000000000000818 2.8399999999999781 0 2.9420158813362729 3.5139475164392531 0 2.4236693135559251 3.5256579194055688 0 2.6000000000000818 2.8399999999999781 0 3.2848100522576571 3.06994577157805 0 2.9420158813362729 3.5139475164392531 0 2.9420158813362729 3.5139475164392531 0 3.412636880282601 3.6134558579332841 0 3.1249999999889848 4 0 3.1249999999889848 4 0 2.75 4 0 2.9420158813362729 3.5139475164392531 0 2.4236693135559251 3.5256579194055688 0 2.9420158813362729 3.5139475164392531 0 2.75 4 0 1.887500000003292 0.69999999999999996 0 2.23284951060374 1.369095413116082 0 2.5312500000049418 0.69999999999999996 0 2.23284951060374 1.369095413116082 0 1.887500000003292 0.69999999999999996 0 1.626949751997165 1.3978044304614949 0 1.942890303101708 1.90249985684108 0 1.626949751997165 1.3978044304614949 0 1.299999999998378 1.8499999999973351 0 2.23284951060374 1.369095413116082 0 1.626949751997165 1.3978044304614949 0 1.942890303101708 1.90249985684108 0 1.942890303101708 1.90249985684108 0 1.649999999999066 2.4249999999984651 0 2.2687831884271348 2.397628317379688 0 1.649999999999066 2.4249999999984651 0 1.942890303101708 1.90249985684108 0 1.299999999998378 1.8499999999973351 0 2.5341028426591712 1.9138806300960609 0 1.942890303101708 1.90249985684108 0 2.2687831884271348 2.397628317379688 0 2.23284951060374 1.369095413116082 0 1.942890303101708 1.90249985684108 0 2.5341028426591712 1.9138806300960609 0 2.730231246675086 1.4599417336750831 0 2.23284951060374 1.369095413116082 0 2.5341028426591712 1.9138806300960609 0 2.5341028426591712 1.9138806300960609 0 2.2687831884271348 2.397628317379688 0 2.8857059848027808 2.304389417342541 0 3.5028943452390711 2.1825773809523441 0 3.16379900756549 1.750659825629856 0 2.8857059848027808 2.304389417342541 0 2.8857059848027808 2.304389417342541 0 3.16379900756549 1.750659825629856 0 2.5341028426591712 1.9138806300960609 0 2.5341028426591712 1.9138806300960609 0 3.16379900756549 1.750659825629856 0 2.730231246675086 1.4599417336750831 0 3.047698899035677 1.175177397439602 0 2.730231246675086 1.4599417336750831 0 3.16379900756549 1.750659825629856 0 2.5312500000049418 0.69999999999999996 0 2.730231246675086 1.4599417336750831 0 3.047698899035677 1.175177397439602 0 2.23284951060374 1.369095413116082 0 2.730231246675086 1.4599417336750831 0 2.5312500000049418 0.69999999999999996 0 2.5312500000049418 0.69999999999999996 0 3.047698899035677 1.175177397439602 0 3.1750000000065048 0.69999999999999996 0 3.047698899035677 1.175177397439602 0 3.638214240926366 1.265285427893069 0 3.1750000000065048 0.69999999999999996 0 3.1750000000065048 0.69999999999999996 0 3.638214240926366 1.265285427893069 0 3.8187500000045098 0.69999999999999996 0 3.638214240926366 1.265285427893069 0 3.047698899035677 1.175177397439602 0 3.16379900756549 1.750659825629856 0 3.8187500000045098 0.69999999999999996 0 3.638214240926366 1.265285427893069 0 4.2198317920941601 1.108273596938623 0 3.8187500000045098 0.69999999999999996 0 4.2198317920941601 1.108273596938623 0 4.4625000000026009 0.69999999999999996 0 4.25 1.5 0 4.2198317920941601 1.108273596938623 0 3.638214240926366 1.265285427893069 0 4.2198317920941601 1.108273596938623 0 4.25 1.5 0 4.7733688274428578 1.2511819424194319 0 4.4625000000026009 0.69999999999999996 0 4.2198317920941601 1.108273596938623 0 4.7733688274428578 1.2511819424194319 0 5.1062500000012143 0.69999999999999996 0 4.4625000000026009 0.69999999999999996 0 4.7733688274428578 1.2511819424194319 0 5 2.2000000000000002 0 4.4000000000001336 2.3599999999999639 0 4.6250000000004974 1.8500000000004651 0 4.4000000000001336 2.3599999999999639 0 5 2.2000000000000002 0 4.7733688274428578 1.2511819424194319 0 4.25 1.5 0 4.6250000000004974 1.8500000000004651 0 4.6250000000004974 1.8500000000004651 0 4.25 1.5 0 4.0559490150232032 2.028653202947901 0 4.6250000000004974 1.8500000000004651 0 4.25 1.5 0 3.757799744899315 1.759341836734688 0 4.0559490150232032 2.028653202947901 0 4.25 1.5 0 4.6250000000004974 1.8500000000004651 0 4.0559490150232032 2.028653202947901 0 4.4000000000001336 2.3599999999999639 0 3.757799744899315 1.759341836734688 0 3.5028943452390711 2.1825773809523441 0 4.0559490150232032 2.028653202947901 0 4.0559490150232032 2.028653202947901 0 3.5028943452390711 2.1825773809523441 0 3.8000000000002032 2.5199999999999458 0 3.757799744899315 1.759341836734688 0 4.25 1.5 0 3.638214240926366 1.265285427893069 0 3.638214240926366 1.265285427893069 0 3.16379900756549 1.750659825629856 0 3.757799744899315 1.759341836734688 0 3.757799744899315 1.759341836734688 0 3.16379900756549 1.750659825629856 0 3.5028943452390711 2.1825773809523441 0 2.8857059848027808 2.304389417342541 0 3.2000000000001432 2.679999999999962 0 3.5028943452390711 2.1825773809523441 0 3.8000000000002032 2.5199999999999458 0 3.2000000000001432 2.679999999999962 0 3.5028943452390711 2.1825773809523441 0 3.2000000000001432 2.679999999999962 0 3.8000000000002032 2.5199999999999458 0 3.2848100522576571 3.06994577157805 0 3.2000000000001432 2.679999999999962 0 3.8000000000002032 2.5199999999999458 0 3.8190056356267248 3.2454749759848052 0 3.2848100522576571 3.06994577157805 0 3.8000000000002032 2.5199999999999458 0 3.412636880282601 3.6134558579332841 0 3.5 4 0 3.1249999999889848 4 0 3.2848100522576571 3.06994577157805 0 3.8190056356267248 3.2454749759848052 0 3.412636880282601 3.6134558579332841 0 3.2848100522576571 3.06994577157805 0 3.412636880282601 3.6134558579332841 0 2.9420158813362729 3.5139475164392531 0 3.874999999992375 3.7500000000050839 0 3.5 4 0 3.412636880282601 3.6134558579332841 0 3.8190056356267248 3.2454749759848052 0 3.87499999999
[...]
<PointData Scalars="A_conc,B_conc," Vectors="" Tensors="">
<DataArray type="Float64" Name="A_conc" format="ascii">
0.57682688591873843 0.68591472682783383 0.57250955654683022 0.57113803730317481 0.68892875804236597 0.66653922137449217 0.56340546495095523 0.66842358149087866 0.68057403477136169 0.7437669060128943 0.66690710950795629 0.74862896759929987 0.74417877345171479 0.68402996505438074 0.66306257464719309 0.74467507402169586 0.74559661014386491 0.74387327531788006 0.66584566255155797 0.74334617158825933 0.74081889143281565 0.7922368431532637 0.74249132645794447 0.80773843544958723 0.7429535027096712 0.79282925128638115 0.80754761318260493 0.35831913964071621 0.30956064548192902 0.37536823415959508 0.38041640801640758 0.31449388870443323 0.34832058966933183 0.3213299066484554 0.31597603782199807 0.34837842078973791 0.34280411271843286 0.43076325656610132 0.38289521111650343 0.77002788709191472 0.71882648755634748 0.78802009245760252 0.7731497584719732 0.77576398470214913 0.77064683987616833 0.70473791956593801 0.71858321040250039 0.76390885879734882 0.79873239836398802 0.76264974620413861 0.71441603802863507 0.76748441124834799 0.770415821481232 0.79833886992167424 0.76429583013772073 0.78299216978096309 0.74651457021443113 0.7438409815796142 0.79233258079447011 0.77358403648926044 0.79405162099354287 0.74773907981171039 0.79309176994603647 0.79069515119509781 0.74601987905278477 0.80561015267576297 0.78878560141720977 0.82596008764443796 0.78909116217566244 0.78968006007012748 0.82584710225575086 0.78312232467463139 0.82305668699010015 0.79794478343873709 0.82129245329091805 0.78122532224555641 0.80026988715353442 0.70216847456345521 0.61483502989534089 0.69953206527206357 0.80029441020671499 0.83445297341482849 0.82088851279089814 0.81829182079706908 0.83373652324063618 0.84384101353555008 0.70410890040357776 0.79227887820285159 0.85447439399234015 0.84351611272639881 0.83365113218438847 0.70112955363356522 0.79242981241239085 0.70358273063628285 0.71033099848210346 0.52822021126572827 0.5872523725468386 0.84926789472819375 0.84290814442869755 0.80470028406662442 0.84541091744418917 0.80539496739537186 0.82622753781235769 0.84547526097968584 0.51922966993970288 0.44544274805535583 0.57877182558254603 0.52985968816104256 0.71255529611135937 0.62420527397887049 0.62264929411248637 0.71783683716666791 0.80451722493398736 0.74209829755976942 0.85280603751205952 0.85790583055331471 0.8529601205639239 0.84901492155862435 0.85455074636433048 0.66729503477969765 0.71178199068900605 0.85289421982661096 0.74167435938919568 0.66907044648760683 0.68572798347068398 0.6309036795808084 0.59350519310050354 0.59407864619633455 0.60574563710216556 0.68426648425617109 0.70256794875791617 0.6716060804765821 0.599166545285303 0.3195322228102373 0.33633148597695761 0.34174730123295738 0.32778042957386622 0.32220495105733538 0.32282347728101463 0.35879875405509959 0.31714204202805568 0.3644040301657927 0.32953179499670904 0.31553099478101948 0.36797096857934508 0.35796781607660649 0.45751913985056147 0.52672506474085612 0.44450402096880942 0.35165774631840829 0.34998958925735763 0.43528374865470587 0.35397461460963231 0.53619672390115136 0.33684511625771352 0.37051668060777382 0.42923032470424555 0.40595280240968273 0.33563360380675794 0.43576576947340773 0.44261351542897021 0.54337597869277687 0.65660841690236893 0.75784006514670588 0.50840779047172635 0.66274267999742242 0.66122740464573893 0.50668433042353711 0.44089437707887341 0.43406924673067943 0.51288041946771912 0.41456346447700204 0.42157565270695102 0.41281329945050504 0.51903610429443792 0.34253167973568016 0.39508876604305876 0.40635863116564302 0.34063955374230837 0.38968057311622517 0.34577730466473283 0.35219328599579625 0.40286484888191165 0.40940656834346884 0.40891286888477912 0.49220060342673672 0.40965869805923566 0.40503441318199285 0.49672056478407722 0.47706653624778006 0.54363909182303893 0.42156329396028064 0.52042060633851717 0.47504245927191735 0.50317917211447094 0.54516368632157919 0.49083462228895691 0.53951940873066007 0.56290675088057152 0.70094089189575304 0.56551604453632887 0.53883479353351882 0.56541313921159098 0.7003266843498438 0.61400997097913323 0.55984396196976294 0.54500040277823936 0.62609556999309079 0.65021876518413102 0.55586503799172582 0.62835998430836026 0.86252456270063205 0.85946064057066396 0.8088035965845769 0.84840689648278411 0.86794904842006193 0.61327907119777758 0.70039521537273031 0.82190276517692562 0.87778643345821905 0.56471588155493235 0.82435866329795504 0.86814452813188225 0.58642612963258811 0.62907127596935664 0.82659061832945335 0.58518438702157549 0.80867284271360618 0.76792059029617832 0.85110407328374582 0.6486952507664846 0.7457021333543099 0.81492169308241114 0.75589671673111269 0.71396995217592885 0.83808613386734787 0.59125082988435784 0.65297989850172899 0.56010089415358821 0.56002326993286977 0.5026682652498522 0.59087316423314362 0.63850674385926376 0.50860454272840827 0.75791907795357305 0.62645520846329683 0.8024506697271272 0.70376156405576717 0.85628066341250186 0.85288348819495019 0.70480581768141348 0.79940035873183724 0.84221030034047228 0.7421454845592288 0.85810051395233067 0.84880666752025613 0.64709243529380656 0.75097896939024011 0.83923632381323754 0.61666981015967015 0.63501989662537794 0.57009537915984954 0.75106226389254505 0.64685921457803652 0.63105339271323002 0.75072312179910328 0.63128959250443695 0.68640371184975757 0.76513512182838495 0.64413922648516464 0.61465626838185017 0.68953048845978848 0.76490158264927055 0.6150419614310606 0.70402542629969633 0.85715733237205838 0.75527160524333803 0.7504373994452147 0.7679922634409645 0.74578672567291115 0.82034072562270699 0.82397634723887236 0.81952291902361363 0.74632062749315364 0.7578947904623663 0.77263427289885944 0.81050931077245136 0.78637136531839835 0.85646565191526736 0.7046521609321772 0.86090912721879365 0.83425707652305503 0.81131998355347701 0.83444216650040548 0.82032617173804534 0.81104613729832453 0.83976531913230668 0.79255937711805013 0.82214315092390233 0.7457467374578447 0.8235198950211996 0.77805910416387269 0.85948783317413791 0.85625378469030489 0.65648360014742613 0.83676117589359655 0.82694401765863057 0.8551708830311201 0.75700217872370712 0.83445790492146876 0.83819356752358898 0.65572514822196093 0.64790977889275381 0.81931898498767508 0.62929122938443993 0.66921088076230251 0.7868833969809248 0.78157010956864947 0.85738598467404437 0.92011745378623067 0.56750872275130015 0.92887613146340675 0.94333026442171797 0.51586806817241138 0.90426710353892825 0.62110334712239501 0.89670453292309782 0.87449328324411857 0.8778847689299929 0.88632833743473904 0.78274398133613932 0.8785594965580138 0.8564502781102461 0.78211015519160654 0.88682290663645746 0.88109096493294348 0.86382218344123862 0.88110025369976996 0.86055014597595436 0.87284372985164549 0.80804230721026304 0.821633091663306 0.87080223630331155 0.88158880683066077 0.79061269611764606 0.84062029773400859 0.87776570124877218 0.88031011596342723 0.57770640798921524 0.728872930155541 0.63968302204156169 0.84048233540561634 0.79103906538051416 0.81645631499597326 0.86257686894187913 0.83359959961879926 0.86236166221564581 0.87003528001417818 0.83358278344531245 0.86536791092092635 0.83668509509890487 0.51599265037599817 0.46595848068317952 0.55703199140345372 0.51738850952469106 0.57047642210135852 0.48614712394255838 0.60716466484105958 0.53288826403415879 0.50973709562332248 0.6350095672841396 0.4922721345874948 0.58408769599871768 0.52787608961513699 0.52758849253141593 0.48444488392157764 0.91287959912515926 0.90189224923690026 0.62309608532883398 0.61070522306911856 0.48497647159500257 0.53579634011593347 0.49080802792678058 0.61002453192469164 0.67086065417590524 0.67741162415368239 0.72543970951013692 0.76743827433020506 0.83050328957892972 0.47639953556756254 0.63476729712679458 0.64043176972322213 0.9126070603976788 0.92056801459325233 0.62071680022875886 0.51148139039120299 0.66101411102227947 0.90521941582201271 0.90868731596563779 0.80143570878891002 0.76233214300322949 0.76464729077262561 0.66813000128056099 0.66989052672434257 0.80160648789609124 0.81259857131631097 0.76214660673163515 0.8642253804145219 0.80656003060847337 0.81013091862787823 0.90860682372725021 0.91182088053786037 0.8836670747410158 0.78756267003982316 0.78711060507064334 0.88526435897689826 0.78360090811865835 0.87459999221319151 0.80581171642085914 0.87187015084019881 0.78634440771197345 0.75084428856270913 0.69569160881996672 0.78892852961992765 0.64713406116268934 0.67517663479155754 0.70807777692177254 0.6720613936190365 0.71565119002886324 0.67193842427929362 0.74285336627320042 0.7111898366924192 0.78089547198986509 0.70141277878671138 0.73096579387084371 0.71943011052602168 0.73367732966575949 0.61584623838066288 0.72515690153519741 0.6846686064373062 0.63522809159786375 0.74840815230109103 0.64276799566066811 0.74465378246450109 0.60801342107852741 0.74428226887007853 0.6953465279465959 0.55811641884022811 0.77815048173906542 0.73529888328512882 0.72929917844298708 0.86815652068677296 0.81611637781237789 0.67501238219071091 0.79789371906691886 0.79297016061395942 0.80045590478867967 0.76916739815784618 0.78104982778286025 0.81987014465484331 0.80996185361411577 0.77966706117440865 0.77844570453512718 0.73682362303520998 0.77536309469002729 0.76653488227326283 0.80017460132154106 0.78636138123530197 0.48707450600457974 0.46290405416084968 0.48382431460393621 0.52723632906048645 0.48179823844543801 0.48300539724522851 0.47924669606050085 0.54265890947891171 0.52863899759737487 0.53819407064626823 0.63422054166223474 0.52655926059580782 0.47201603061286002 0.54093409635996403 0.52347963016026 0.58461340957143004 0.62068099437883772 0.56424542914804421 0.69724734712728587 0.71051674600363179 0.53450682170151731 0.63775972577605111 0.63900193507219949 0.71071442359264592 0.7231562410063016 0.63038581828159101 0.57480491290899116 0.62297214495726783 0.59745039652542453 0.58858136952638618 0.60867847733123548 0.72312597268327994 0.73619953062661192 0.49274305979693495 0.60730479794098169 0.51941366435942693 0.48741964304244062 0.48473744978491962 0.46611901868612526 0.48744121792204981 0.51644955403246628 0.4740991859141051 0.55231728620919929 0.4977930523899522 0.48477689988296663 0.63096234390151229 0.49986006390316345 0.58160549807665629 0.49884145146849918 0.56552359142900011 0.57987251682634389 0.75753463362757112 0.79653007291484412 0.74050671401947632 0.68729923979723695 0.77083163142495714 0.7035961651815017 0.57084558118645046 0.58511821470743208 0.73835048362861877 0.83666958087273469 0.81083993417372446 0.83691559092030321 0.73559864218522364 0.72304112487226413 0.903112822109716 0.87105919188963443 0.91341835341619804 0.85076393620925395 0.86981920848319594 0.90581423946820128 0.81205633801824095 0.83432739634462616 0.90491052897682123 0.92002153966690492 0.92334759349768425 0.85169018109834638 0.78324708155119649 0.86979339419225488 0.85236909960282092 0.81432820400094863 0.77975672198229329 0.90557304860891119 0.85166824258981222 0.91395410422090673 0.85598619357285977 0.90474566684798552 0.8924044243747703 0.89401982143670977 0.81359783669737051 0.85455595290558506 0.90205220907173234 0.88788705884452912 0.82665587771354831 0.88031664537319831 0.85289172388681778 0.85302653226034542 0.81447378378594226 0.8261830902367473 0.85245881821933078 0.87429469493616518 0.81015771343719856 0.74041213953605312 0.88184921843312103 0.78824759963822533 0.71942937389844375 0.5720176440801884 0.56806151859430287 0.5531194828454663 0.48413559647850107 0.5690033518857186 0.91297291342243159 0.92030904175419848 0.81416881096441263 0.75356584191379472 0.77664653442244247 0.77603748662565353 0.80726002805428998 0.81901965275775068 0.81550494674235063 0.75172190618805956 0.80123925610950197 0.80761170187658038 0.77237623953808854 0.52574066656811902 0.55657541276840983 0.4848893812432859 0.43063089821646661 0.92874456767806002 0.69502560757619314 0.88788229426835663 0.88957409095157525 0.44490798534543941 0.86593716197081638 0.92006697417651317 0.80727502371228232 0.80530947119756946 0.81776493308962839 0.88543568261091787 0.88791436532570478 0.8359030505196271 0.80985065708638715 0.81660431514773479 0.7886148950183095 0.80735167362024929 0.80337081727483228 0.86806411494425373 0.82235902169524711 0.81322101870554531 0.82178520808535505 0.79873896891403773 0.81329801830507809 0.74106422419463924 0.77451199377371593 0.88080460815074557 0.79334569638107055 0.8622877513718713 0.85988535089405915 0.8041524936083807 0.84244221109795558 0.73765388531993503 0.78555542966360925 0.81375983055275802 0.79920930036062299 0.82111914696766353 0.79739605765193178 0.78340240140711193 0.77322248182713138 0.80040713224001137 0.78289659696648706 0.78416845345039277 0.79913042333444262 0.79683713251072263 0.78283678876405782 0.79904476390746493 0.50019248080001633 0.43383368574430575 0.44627033599639682 0.7148392244725339 0.71608519542551652 0.51075745870447498 0.53037608130952751 0.74983443496702351 0.77887307383696713 0.79859396469946942 0.77449434634341419 0.79042982323499833 0.77251387608906952 0.80512201053777033 0.80125530966867808 0.74731707316639906 0.78237170780457133 0.75273984695788065 0.75235840320215208 0.78152132494233673 0.77859242759734737 0.78342660941949227 0.79718789359951148 0.80231640362555634 0.80723284401370632 0.66506950961504729 0.7768776042352753 0.78905100471962575 0.64509950662786186 0.60002859506772066 0.62677790378461129 0.80130204677132055 0.6228653400451617 0.80208801243632988 0.81065383059627649 0.81661232741169565 0.79849117754339827 0.76237288798237668 0.80823889962920725 0.8145238006360952 0.8111743161299062 0.81443832787650272 0.77754819988090784 0.77596846671817454 0.78241885072063522 0.79286606392548609 0.79657111549329629 0.81488012838937174 0.81766101645862643 0.76872601096008275 0.77727286780747895 0.78214031995064248 0.6692557772860992 0.6798247711040003 0.75970076282624976 0.47924402546022077 0.67865043743496722 0.88121093082748869 0.88557359316078144 0.79086553542503457 0.80647127106673933 0.7876306141633852 0.57741181156442434 0.54577938810427173 0.62835458508748954 0.58957662473857375 0.79349748346779314 0.68148674748256255 0.69659450648147869 0.46979351911593087 0.76861127144212316 0.48057606274911896 0.36270290690510132 0.33005561121076804 0.40296719508111567 0.30088663859876064 0.4182570746921111 0.64331491851111844 0.49563653634522298 0.64922200849850487 0.64086192345693405 0.55209322615441692 0.49648120208400265 0.57978579969506427 0.39758596736640106 0.60316158129491948 0.40218755696393155 0.60055218619462414 0.36159787173654212 0.51253694580308184 0.30421841199693361 0.51764435735565595 0.43329530850993031 0.29702492894699439 0.76631661891703329 0.52521880385849307 0.64109123830485126 0.72290066151625154 0.66709831043046286 0.79408821090911019 0.49563933430022045 0.7665048981666005 0.34263152301005512 0.75607625190440997 0.72212253238769031 0.54365633972112304 0.80714552802922057 0.81630221574752226 0.67250470202657286 0.65479159099845996 0.67332666633932514 0.81427265019251904 0.80122799895791996 0.80840582383339865 0.74683259364064203 0.79896122863651631 0.79627700408206459 0.67656709790442748 0.80891135124834679 0.81648756126655775 0.79269135793368484 0.80155588701257596 0.7993395773172477 0.74665627467072915 0.76911089646689346 0.77263705461788701 0.78032873527817814 0.79374350357633539 0.78130706058578381 0.76660938572577753 0.79934563419622418 0.78035286733760112 0.7935817731754915 0.74871945555721131 0.67834666129368437 0.815362680669242 0.55161844470524801 0.71611213206901925 0.7674268192599295 0.59948763212736411 0.56091579654129498 0.6352040926036101 0.59985550761510908 0.63606903643020918 0.70111972874503858 0.51687959927598159 0.51645232394106722 0.59530081248399702 0.49758291424151208 0.5581006080376878 0.42638126510191066 0.47905424536107283 0.5367107809381837 0.78248323654113006 0.76994634087275815 0.78352065601331811 0.71562406299451797 0.7105712605840564 0.71054673391093393 0.70363345816565026 0.76597573868985491 0.7870700852236534 0.78719941845772423 0.76625971423611128 0.74611438114865669 0.78707989998751482 0.76902376365800595 0.75817894234004013 0.76166037704721845 0.80269788191867797 0.80702430599563701 0.78305561494049558 0.75973090917136832 0.77228978057073361 0.76964828761065962 0.76104790310123549 0.78167768961502349 0.807041064322921 0.81127717257259924 0.76569134016667573 0.73082069032220431 0.7736741425358058 0.74425323475461402 0.71182904431862193 0.76260249939542402 0.81944674364172165 0.64238348511801791 0.81236269996034705 0.72223343853858313 0.74119130875749928 0.77483904094401412 0.82809315656109472 0.60603145700073946 0.63351094646744888 0.56222739018089773 0.53397301547545595 0.81893698082780042 0.75320023834070238 0.80147501555247125 0.82055912462781377 0.80387383256335199 0.78031540412356337 0.78212206284677743 0.80067247511048956 0.75654047942097336 0.81976183779764045 0.83481117812014671 0.79449923704554026 0.82012166659790775 0.83432288632558105 0.8199183742277576 0.77573948771875922 0.77825661687270431 0.78849986273279882 0.71750037941805689 0.73398219668797671 0.80107639478623571 0.78787958969880134 0.73407301640698575 0.80089536550021256 0.73106288962853982 0.75694219288310594 0.77822372802702111 0.78034906087765443 0.77443107805261402 0.7782228942825915 0.64961356875738763 0.77945325077317706 0.69022755266881375 0.64872744357204715 0.77190910591183381 0.70801595637368309 0.76753743952603426 0.66483508536249747 0.77233072034174177 0.65262799304370744 0.76313136836354845 0.71170500985655527 0.7041290718580806 0.69781522444646016 0.76848052298169101 0.70771200668530221 0.65055056258835997 0.68498149289999311 0.67636901104080582 0.67259398843673945 0.65619495439509956 0.64464945672177787 0.78062754692928527 0.68621874234880942 0.68949290039635414 0.77092892284232284 0.68467664370951187 0.78072077102853987 0.77981839316426227 0.77926127027127257 0.69011863259738293 0.77548287574588692 0.70160773667438026 0.77298591361107705 0.76428349788562711 0.63903335986082632 0.55406747525236555 0.74966930341310278 0.77648764412052862 0.78569119917555275 0.78160012726015504 0.74746815671957489 0.78567879238168548 0.73854099546021668 0.78898024199201178 0.78170453068175672 0.75157108745287438 0.74742001124242397 0.74747766084327694 0.75159688848901718 0.73120131493270035 0.7652341619446994 0.70518190628511301 0.74762964749386362 0.77433885611086839 0.70283215123177367 0.70231829705342641 0.76707859856844574 0.73844182897337884 0.71330821054222471 0.29803856282099817 0.64473296001846803 0.75778147499151516 0.62190265957009416 0.29222930258436908 0.29410369570678041 0.29673040941922774 0.45555200682034119 0.62261294441539894 0.55911686130015537 0.36263588367117672 0.46384243330152847 0.56996034157525122 0.34030756198600742 0.3485375642304 0.39465239387445716 0.36886193498192599 0.4079942343122665 0.34428688415445263 0.7629602590988912 0.4762623002316313 0.35822010105247898 0.38461780153971664 0.41713603887197032 0.73540721130060871 0.53919538564648339 0.49969934703121283 0.74558466604260365 0.83664623429875895 0.53089616777266857 0.33153450145784791 0.5844191783122662 0.44578380520775873 0.73064721573166835 0.5145158078335933 0.58196434284889254 0.83634927039953899 0.53811363442145443 0.51932387822453252 0.53461772327000578 0.84062849280691432 0.65205444103161869 0.88278971230267689 0.66756323013458507 0.83977388069954328 0.87306603864592758 0.73734759898402047 0.65900592882623987 0.72462051319699661 0.60980969181196754 0.64910068265673915 0.81025985924178734 0.73620093146311472 0.86171114758294787 0.61394417734104234 0.71612110705547349 0.68891581940438618 0.73701021233410735 0.79907966150463428 0.6704178023480315 0.708702986122136 0.77707519426755634 0.67540687724438819 0.67496396947520876 0.79010929105430217 0.69575176083420198 0.69238343857870033 0.68693034130010722 0.68913908417302228 0.89870104267023776 0.929939769