<?xml version="1.0"?>
<VTKFile type="UnstructuredGrid" version="0.1" byte_order="LittleEndian">
<UnstructuredGrid>
<Piece NumberOfPoints="2028" NumberOfCells="724">
<Points>
<DataArray type="Float64" NumberOfComponents="3" format="ascii">
6.000000000000000e-01 7.000000000000000e-01 0.000000000000000e+00 9.499999999992372e-01 1.274999999998747e+00 0.000000000000000e+00 9.499999999992372e-01 1.274999999998747e+00 0.000000000000000e+00 1.299999999998378e+00 1.849999999997335e+00 0.000000000000000e+00 1.299999999998378e+00 1.849999999997335e+00 0.000000000000000e+00 1.649999999999066e+00 2.424999999998465e+00 0.000000000000000e+00 1.649999999999066e+00 2.424999999998465e+00 0.000000000000000e+00 2.000000000000000e+00 3.000000000000000e+00 0.000000000000000e+00 5.750000000000000e+00 7.000000000000000e-01 0.000000000000000e+00 5.500000000000827e+00 1.199999999998346e+00 0.000000000000000e+00 5.500000000000827e+00 1.199999999998346e+00 0.000000000000000e+00 5.250000000000705e+00 1.699999999998589e+00 0.000000000000000e+00 5.250000000000705e+00 1.699999999998589e+00 0.000000000000000e+00 5.000000000000000e+00 2.200000000000000e+00 0.000000000000000e+00 5.000000000000000e+00 2.200000000000000e+00 0.000000000000000e+00 4.400000000000134e+00 2.359999999999964e+00 0.000000000000000e+00 4.400000000000134e+00 2.359999999999964e+00 0.000000000000000e+00 3.800000000000203e+00 2.519999999999946e+00 0.000000000000000e+00 3.800000000000203e+00 2.519999999999946e+00 0.000000000000000e+00 3.200000000000143e+00 2.679999999999962e+00 0.000000000000000e+00 3.200000000000143e+00 2.679999999999962e+00 0.000000000000000e+00 2.600000000000082e+00 2.839999999999978e+00 0.000000000000000e+00 2.600000000000082e+00 2.839999999999978e+00 0.000000000000000e+00 2.000000000000000e+00 3.000000000000000e+00 0.000000000000000e+00 2.000000000000000e+00 3.000000000000000e+00 0.000000000000000e+00 2.083333333332920e+00 3.599999999997022e+00 0.000000000000000e+00 2.083333333332920e+00 3.599999999997022e+00 0.000000000000000e+00 2.166666666666273e+00 4.199999999997162e+00 0.000000000000000e+00 2.166666666666273e+00 4.199999999997162e+00 0.000000000000000e+00 2.250000000000000e+00 4.800000000000000e+00 0.000000000000000e+00 2.250000000000000e+00 4.800000000000000e+00 0.000000000000000e+00 1.750000000000000e+00 5.000000000000000e+00 0.000000000000000e+00 2.250000000000000e+00 4.800000000000000e+00 0.000000000000000e+00 2.833333333333118e+00 5.099999999999890e+00 0.000000000000000e+00 2.833333333333118e+00 5.099999999999890e+00 0.000000000000000e+00 3.416666666667265e+00 5.400000000000308e+00 0.000000000000000e+00 3.416666666667265e+00 5.400000000000308e+00 0.000000000000000e+00 4.000000000000000e+00 5.700000000000000e+00 0.000000000000000e+00 4.000000000000000e+00 5.700000000000000e+00 0.000000000000000e+00 3.625000000007225e+00 5.999999999994220e+00 0.000000000000000e+00 3.625000000007225e+00 5.999999999994220e+00 0.000000000000000e+00 3.250000000000000e+00 6.300000000000000e+00 0.000000000000000e+00 4.000000000000000e+00 5.700000000000000e+00 0.000000000000000e+00 4.499999999999542e+00 5.999999999999726e+00 0.000000000000000e+00 4.499999999999542e+00 5.999999999999726e+00 0.000000000000000e+00 5.000000000000000e+00 6.300000000000000e+00 0.000000000000000e+00 6.000000000000000e+00 3.800000000000000e+00 0.000000000000000e+00 6.374999999999935e+00 3.899999999999983e+00 0.000000000000000e+00 6.374999999999935e+00 3.899999999999983e+00 0.000000000000000e+00 6.750000000000000e+00 4.000000000000000e+00 0.000000000000000e+00 6.000000000000000e+00 3.800000000000000e+00 0.000000000000000e+00 5.625000000000065e+00 3.899999999999983e+00 0.000000000000000e+00 5.625000000000065e+00 3.899999999999983e+00 0.000000000000000e+00 5.250000000000000e+00 4.000000000000000e+00 0.000000000000000e+00 4.250000000000000e+00 4.800000000000000e+00 0.000000000000000e+00 4.750000000000338e+00 4.399999999999729e+00 0.000000000000000e+00 4.750000000000338e+00 4.399999999999729e+00 0.000000000000000e+00 5.250000000000000e+00 4.000000000000000e+00 0.000000000000000e+00 4.750000000000000e+00 4.000000000000000e+00 0.000000000000000e+00 5.250000000000000e+00 4.000000000000000e+00 0.000000000000000e+00 3.500000000000000e+00 4.000000000000000e+00 0.000000000000000e+00 3.083333333334594e+00 4.266666666665859e+00 0.000000000000000e+00 3.083333333334594e+00 4.266666666665859e+00 0.000000000000000e+00 2.666666666668059e+00 4.533333333332442e+00 0.000000000000000e+00 2.666666666668059e+00 4.533333333332442e+00 0.000000000000000e+00 2.250000000000000e+00 4.800000000000000e+00 0.000000000000000e+00 3.500000000000000e+00 4.000000000000000e+00 0.000000000000000e+00 3.874999999992375e+00 3.750000000005084e+00 0.000000000000000e+00 3.874999999992375e+00 3.750000000005084e+00 0.000000000000000e+00 4.250000000000000e+00 3.500000000000000e+00 0.000000000000000e+00 1.000000000000000e+00 6.200000000000000e+00 0.000000000000000e+00 1.599999999997112e+00 6.100000000000482e+00 0.000000000000000e+00 1.599999999997112e+00 6.100000000000482e+00 0.000000000000000e+00 2.199999999995692e+00 6.000000000000719e+00 0.000000000000000e+00 2.199999999995692e+00 6.000000000000719e+00 0.000000000000000e+00 2.799999999997127e+00 5.900000000000479e+00 0.000000000000000e+00 2.799999999997127e+00 5.900000000000479e+00 0.000000000000000e+00 3.399999999998564e+00 5.800000000000240e+00 0.000000000000000e+00 3.399999999998564e+00 5.800000000000240e+00 0.000000000000000e+00 4.000000000000000e+00 5.700000000000000e+00 0.000000000000000e+00 4.750000000000000e+00 7.200000000000000e+00 0.000000000000000e+00 4.500000000000000e+00 6.699999999999999e+00 0.000000000000000e+00 4.500000000000000e+00 6.699999999999999e+00 0.000000000000000e+00 4.250000000000000e+00 6.200000000000001e+00 0.000000000000000e+00 4.250000000000000e+00 6.200000000000001e+00 0.000000000000000e+00 4.000000000000000e+00 5.700000000000000e+00 0.000000000000000e+00 2.750000000000000e+00 4.000000000000000e+00 0.000000000000000e+00 3.124999999988985e+00 4.000000000000000e+00 0.000000000000000e+00 3.124999999988985e+00 4.000000000000000e+00 0.000000000000000e+00 3.500000000000000e+00 4.000000000000000e+00 0.000000000000000e+00 5.000000000000000e+00 2.200000000000000e+00 0.000000000000000e+00 4.750000000000000e+00 2.800000000000000e+00 0.000000000000000e+00 5.000000000000000e+00 2.200000000000000e+00 0.000000000000000e+00 5.249999999999616e+00 2.499999999999539e+00 0.000000000000000e+00 5.249999999999616e+00 2.499999999999539e+00 0.000000000000000e+00 5.500000000000000e+00 2.800000000000000e+00 0.000000000000000e+00 5.500000000000000e+00 2.800000000000000e+00 0.000000000000000e+00 5.250000000000325e+00 3.199999999999480e+00 0.000000000000000e+00 5.250000000000325e+00 3.199999999999480e+00 0.000000000000000e+00 5.000000000000298e+00 3.599999999999522e+00 0.000000000000000e+00 5.000000000000298e+00 3.599999999999522e+00 0.000000000000000e+00 4.750000000000000e+00 4.000000000000000e+00 0.000000000000000e+00 5.500000000000000e+00 2.800000000000000e+00 0.000000000000000e+00 5.916666666666305e+00 3.199999999999653e+00 0.000000000000000e+00 5.916666666666305e+00 3.199999999999653e+00 0.000000000000000e+00 6.333333333333001e+00 3.599999999999680e+00 0.000000000000000e+00 6.333333333333001e+00 3.599999999999680e+00 0.000000000000000e+00 6.750000000000000e+00 4.000000000000000e+00 0.000000000000000e+00 5.500000000000000e+00 2.800000000000000e+00 0.000000000000000e+00 5.750000000000000e+00 2.500000000000000e+00 0.000000000000000e+00 5.750000000000000e+00 2.500000000000000e+00 0.000000000000000e+00 6.374999999999980e+00 2.350000000000005e+00 0.000000000000000e+00 6.374999999999980e+00 2.350000000000005e+00 0.000000000000000e+00 7.000000000000000e+00 2.200000000000000e+00 0.000000000000000e+00 7.000000000000000e+00 2.200000000000000e+00 0.000000000000000e+00 7.499999999999977e+00 2.349999999999993e+00 0.000000000000000e+00 7.499999999999977e+00 2.349999999999993e+00 0.000000000000000e+00 8.000000000000000e+00 2.500000000000000e+00 0.000000000000000e+00 7.500000000000000e+00 2.000000000000000e+00 0.000000000000000e+00 7.750000000000000e+00 2.250000000000000e+00 0.000000000000000e+00 7.750000000000000e+00 2.250000000000000e+00 0.000000000000000e+00 8.000000000000000e+00 2.500000000000000e+00 0.000000000000000e+00 8.000000000000000e+00 2.500000000000000e+00 0.000000000000000e+00 8.166666666666181e+00 1.900000000001745e+00 0.000000000000000e+00 8.166666666666181e+00 1.900000000001745e+00 0.000000000000000e+00 8.333333333332911e+00 1.300000000001518e+00 0.000000000000000e+00 8.333333333332911e+00 1.300000000001518e+00 0.000000000000000e+00 8.500000000000000e+00 7.000000000000000e-01 0.000000000000000e+00 8.000000000000000e+00 2.500000000000000e+00 0.000000000000000e+00 8.499999999999950e+00 2.599999999999990e+00 0.000000000000000e+00 8.499999999999950e+00 2.599999999999990e+00 0.000000000000000e+00 9.000000000000000e+00 2.700000000000000e+00 0.000000000000000e+00 9.000000000000000e+00 2.700000000000000e+00 0.000000000000000e+00 9.466666666664466e+00 2.566666666667295e+00 0.000000000000000e+00 9.466666666664466e+00 2.566666666667295e+00 0.000000000000000e+00 9.933333333329530e+00 2.433333333334420e+00 0.000000000000000e+00 9.933333333329530e+00 2.433333333334420e+00 0.000000000000000e+00 1.040000000000000e+01 2.300000000000000e+00 0.000000000000000e+00 1.040000000000000e+01 2.300000000000000e+00 0.000000000000000e+00 1.078333333333231e+01 1.900000000001070e+00 0.000000000000000e+00 1.078333333333231e+01 1.900000000001070e+00 0.000000000000000e+00 1.116666666666699e+01 1.499999999999660e+00 0.000000000000000e+00 1.116666666666699e+01 1.499999999999660e+00 0.000000000000000e+00 1.155000000000000e+01 1.100000000000000e+00 0.000000000000000e+00 8.000000000000000e+00 2.500000000000000e+00 0.000000000000000e+00 8.437500000000002e+00 2.875000000000001e+00 0.000000000000000e+00 8.437500000000002e+00 2.875000000000001e+00 0.000000000000000e+00 8.875000000000004e+00 3.250000000000002e+00 0.0000000000000
[...]
<PointData Scalars="A_conc,B_conc," Vectors="" Tensors="">
<DataArray type="Float64" Name="A_conc" format="ascii">
5.883562131329421e-01 6.268480205054552e-01 6.134796368214069e-01 5.887901120953197e-01 5.859876595031999e-01 5.470669211343332e-01 5.457015257805109e-01 5.047744859270213e-01 7.084817523573547e-01 6.591671939540587e-01 6.382910882123912e-01 6.737290222942861e-01 6.851026183585921e-01 7.069284245172872e-01 4.651748983715907e-01 4.724362154157128e-01 4.724191552654923e-01 4.798033783734428e-01 4.797895790498000e-01 4.872645350718627e-01 4.872217307209569e-01 4.952952265279362e-01 4.952250931980909e-01 5.053246920912039e-01 5.047513169956248e-01 5.220419405673118e-01 5.216733910085929e-01 5.424003619312813e-01 5.423577016790767e-01 5.628055061272113e-01 5.659450267135404e-01 7.245564652209053e-01 5.443700823049559e-01 5.326705609117012e-01 5.326264125407352e-01 5.204882601287991e-01 5.203643823869125e-01 5.126364405099705e-01 5.101254416391310e-01 5.998187171931972e-01 5.896746431276333e-01 7.419578534184459e-01 6.975376295663102e-01 6.913797075473245e-01 6.908909144823880e-01 6.838176159257316e-01 3.830656343000386e-01 3.556588137475562e-01 3.558333010310787e-01 3.305873092464028e-01 3.830795097691956e-01 4.115157816942818e-01 4.115451462770989e-01 4.408047894999551e-01 6.320296079640416e-01 4.898351658576034e-01 5.109050837011133e-01 4.624828637275010e-01 5.934988266090752e-01 7.072187571244513e-01 6.619114573771995e-01 6.685927148218198e-01 6.684952184084419e-01 6.804474034386664e-01 6.804941711997980e-01 6.929310878803775e-01 6.538108930675112e-01 6.379628894143011e-01 6.299844042759356e-01 5.865353827229824e-01 6.412128387153696e-01 5.682643383745217e-01 5.793032620824586e-01 5.558842361322250e-01 5.571889051185828e-01 5.402123968086012e-01 5.406748545310370e-01 5.260187298775583e-01 5.262187033079503e-01 5.125539735224132e-01 5.291176197927264e-01 6.112898680398079e-01 5.844445983361291e-01 7.367992635220328e-01 7.413948361274048e-01 5.839094577379079e-01 7.076312863130204e-01 7.068464533452152e-01 7.092729022541785e-01 7.082541721916447e-01 4.558545607723486e-01 7.564806857954750e-01 4.434258566990961e-01 4.347109309575844e-01 4.350402406814893e-01 4.286489556291931e-01 4.278900567139102e-01 4.685334580635261e-01 4.667924862114938e-01 5.180223579690554e-01 5.123231553557145e-01 5.926119195643597e-01 7.363825713950276e-01 7.281078156344919e-01 7.259962847206090e-01 7.105827155162836e-01 7.055145233282957e-01 5.527440165983362e-01 3.925510982765999e-01 3.835667301888645e-01 3.836703190708169e-01 3.737422730621063e-01 3.738554592300009e-01 3.654333293300170e-01 3.654443634534759e-01 3.586703025246562e-01 3.586849450272009e-01 3.520188350368868e-01 7.182514963682216e-01 4.287158240795971e-01 4.631068493844711e-01 3.460487223779098e-01 6.947012331297803e-01 7.290033795958105e-01 7.340982124477493e-01 7.530560983857522e-01 7.476918794777901e-01 7.429168449893092e-01 3.548878271489109e-01 3.373684948140298e-01 3.374017841278826e-01 3.246336467562929e-01 3.248174982964327e-01 3.141515994282194e-01 3.142078006491185e-01 3.048016436677326e-01 3.048554891675911e-01 2.959053553844386e-01 4.024759399890405e-01 3.671540107099945e-01 3.663825365568802e-01 3.310417098325394e-01 3.270700757294813e-01 2.988005849577491e-01 3.344593752454054e-01 3.031141857951368e-01 3.030558798956406e-01 2.657863062117442e-01 2.657438312493934e-01 2.237562151199287e-01 2.237450881282416e-01 1.806593881288535e-01 1.784767680808829e-01 2.497420851850123e-01 2.427168458517092e-01 3.493245654262646e-01 3.038854944340377e-01 6.278892503492434e-01 7.287127027101888e-01 4.489321857078350e-01 4.794170537469828e-01 3.432451718010420e-01 3.307520803024205e-01 3.050519175563871e-01 3.051598958804208e-01 2.834830868282362e-01 2.842158165566276e-01 2.679577759372513e-01 5.575163650195367e-01 3.043210198980107e-01 3.428564352131563e-01 2.635045423743134e-01 6.474568331963048e-01 6.227086099468014e-01 6.215327827473638e-01 5.974603512320081e-01 5.965791139461804e-01 5.856463523463775e-01 2.576815412955683e-01 7.035481310940964e-01 7.852491003891792e-01 6.000327957127146e-01 5.585663425160841e-01 3.026842076108571e-01 3.415982817940899e-01 2.631336972753431e-01 1.809144626212630e-01 1.911851756192320e-01 1.910299427232159e-01 2.025963645363638e-01 2.022999720873029e-01 2.175466432512994e-01 1.811170807778721e-01 1.742901032378616e-01 1.744533818604252e-01 1.694999654860039e-01 1.695085545014035e-01 1.646279355469780e-01 1.598860960450860e-01 2.315617460904228e-01 1.905142354009897e-01 4.443613878112344e-01 1.364786294920428e-01 1.299521781662544e-01 1.301347303860816e-01 1.254925415264569e-01 1.255643227070010e-01 1.215711280227047e-01 4.078748005093209e-01 3.789428523963280e-01 3.776435550957613e-01 3.545175699176811e-01 3.534223475389746e-01 3.302522293297744e-01 3.291700324053418e-01 3.262668797337197e-01 2.607907610415583e-01 2.370645797491932e-01 2.368184899197937e-01 2.119658495822390e-01 2.120217025795793e-01 1.874189097887149e-01 1.871567265968620e-01 1.651485770544536e-01 2.689998825385131e-01 2.918546317339069e-01 2.933566234312063e-01 3.319666159763209e-01 4.263663182059033e-01 4.152902002829236e-01 4.153245527485983e-01 4.065759710840415e-01 4.065824473823221e-01 4.002781106866580e-01 3.721349758760198e-01 3.532189341578619e-01 3.533992516057440e-01 3.404939510032909e-01 3.407347964801633e-01 3.306754266146008e-01 7.521277151162881e-01 7.076829917994083e-01 7.628859592513015e-01 7.617671155679959e-01 7.566329119590335e-01 7.713178614883817e-01 6.835999283522047e-01 6.759058454722856e-01 6.756340636349402e-01 6.662464776404636e-01 6.659626856255431e-01 6.530674475051246e-01 6.529069910256945e-01 6.399284138768901e-01 6.439609189655912e-01 6.076468920339739e-01 6.060396225686102e-01 5.416279667663371e-01 5.402960968175624e-01 4.886980760824407e-01 4.959906639348073e-01 4.725731229852001e-01 5.972715815655590e-01 5.866870501392717e-01 5.905833000058878e-01 6.041529588137828e-01 7.257540253705606e-01 7.269282213448267e-01 7.289501320200119e-01 7.389820033435583e-01 7.421352216729669e-01 7.347040484422495e-01 7.281379354443281e-01 6.490262998667194e-01 7.688283759400069e-01 6.864284730518526e-01 4.607418651415885e-01 5.539637211321323e-01 5.358673290639426e-01 7.326316288863558e-01 5.950468029325556e-01 5.910088461454170e-01 5.910181891516354e-01 5.869566918392922e-01 5.869760763855882e-01 5.833258721453811e-01 5.833552851439814e-01 5.801296784240471e-01 5.944306682503694e-01 6.441565787378845e-01 5.913179216645483e-01 5.924604737637301e-01 6.417072225069238e-01 6.237572563023672e-01 5.494160711543919e-01 6.280442374886787e-01 5.657427562092272e-01 5.989005239286780e-01 6.660789536681069e-01 6.496617659057804e-01 6.200702642449203e-01 5.873669788598761e-01 6.253378166664194e-01 6.054142009907652e-01 5.886629633200604e-01 6.125482070465241e-01 6.332072507306096e-01 6.073483328975106e-01 6.114621341139578e-01 5.776377512840739e-01 6.245126941060216e-01 5.480053074303408e-01 5.224346073042294e-01 5.846104016457873e-01 5.425311141914849e-01 5.793586502697019e-01 6.536409847721424e-01 6.241108319928119e-01 5.791111691273738e-01 5.975486278772875e-01 6.501262444158075e-01 6.274413994269471e-01 6.069430925454622e-01 6.324446473156498e-01 6.042893576324843e-01 6.275282408141301e-01 5.886488670121479e-01 5.875597558125745e-01 5.719255458952546e-01 6.047624285241657e-01 5.472912622213211e-01 6.034705886757268e-01 5.760037245212145e-01 5.504737399175862e-01 5.220880930708004e-01 5.051373999487480e-01 5.760323932571548e-01 5.226779513860713e-01 5.466595131391546e-01 5.851629326270815e-01 5.705973076781389e-01 5.476390712237729e-01 5.847485483805301e-01 6.064404071239695e-01 5.715520402118272e-01 5.445698401184766e-01 5.406056303918031e-01 5.053193198503459e-01 5.445537466589422e-01 5.720675584946013e-01 5.410704161457408e-01 6.012485726937062e-01 5.462670522861034e-01 5.809437445339728e-01 5.716419329961958e-01 5.882187037758443e-01 5.418647345218427e-01 6.212961886786935e-01 6.637867338904763e-01 6.000746821888296e-01 5.813400806385440e-01 6.251853725148258e-01 6.012851888810740e-01 6.223094002028108e-01 6.765815406806858e-01 6.634379655457525e-01 6.700553068471019e-01 6.238556766489930e-01 6.228273053551453e-01 6.248973765052689e-01 5.819931702755636e-01 6.274979706463889e-01 6.801390549825705e-01 6.600107765505777e-01 7.044727972494120e-01 5.417631324599709e-01 4.852259385837304e-01 5.741164079898141e-01 7.496907651173981e-01 5.551738056779556e-01 6.059478813881047e-01 5.665203221717593e-01 4.990566638546288e-01 4.638250617720410e-01 5.762697515124875e-01 6.594780490309650e-01 5.411871099422048e-01 6.595594818630084e-01 5.878863819315926e-01 5.399072841178666e-01 6.758730126466179e-01 6.643370499557888e-01 5.774679074642199e-01 6.525382905901406e-01 6.859065206368747e-01 6.542190291333773e-01 7.271928470234175e-01 7.369761870694589e-01 6.063976285848452e-01 6.743671374412856e-01 5.797948971330535e-01 5.294303924176136e-01 6.457183378239288e-01 7.179393131356123e-01 6.921009904731390e-01 6.932739749830871e-01 7.420697989971350e-01 6.653476832470471e-01 4.975917710395488e-01 6.321886432059820e-01 5.260149108458365e-01 7.289090873009731e-01 5.851847067349905e-01 6.740413088475418e-01 6.315728163041451e-01 6.694203259621483e-01 5.291650663118248e-01 6.874043485281182e-01 6.639696474383336e-01 6.102958724187881e-01 7.009761465480439e-01 6.583079520611259e-01 5.843026806770075e-01 7.091213877728983e-01 6.649965769482105e-01 6.976935770418178e-01 7.262353878882895e-01 7.338625247931485e-01 7.498267290082186e-01 6.716728739035710e-01 7.349832688449729e-01 7.195722978719256e-01 5.664971816946345e-01 6.187016441258959e-01 5.011335991368411e-01 7.176550422076345e-01 6.910269791459211e-01 7.107503712305866e-01 6.722138088789301e-01 7.047169872163116e-01 7.150352508834261e-01 5.961337240702917e-01 5.464368694240473e-01 7.134753944404605e-01 6.982310728499779e-01 6.010913692936781e-01 7.102732063987178e-01 7.238076544110461e-01 6.637458048447523e-01 5.905440208059857e-01 7.521336214078234e-01 7.482601353343343e-01 7.283848933090333e-01 6.384707997023281e-01 7.208963707302445e-01 6.451513077762258e-01 7.107805500206139e-01 7.399890509896629e-01 7.198593255056933e-01 6.546453182665406e-01 6.841805627739039e-01 6.649428765356825e-01 6.665886316983388e-01 6.650580154414117e-01 6.589114575022698e-01 7.156703060820679e-01 7.136041891789655e-01 7.437203960444021e-01 7.006595179230407e-01 7.231491880592507e-01 6.367306514600354e-01 7.124964397388183e-01 7.281083421431064e-01 7.461371560733526e-01 7.318236091371411e-01 7.084245594686487e-01 7.543886518991531e-01 6.202236893565781e-01 7.022672092282989e-01 6.372127105820329e-01 6.187567971198625e-01 7.364141576954987e-01 7.068700901651296e-01 7.532137605710191e-01 7.296081135180758e-01 6.706694036537011e-01 7.344940326993725e-01 6.652039532007827e-01 6.732877254724757e-01 7.067414456757271e-01 7.295371958687156e-01 7.579646046075208e-01 7.038516069644956e-01 5.861959268546125e-01 6.606904194211067e-01 7.083070422519422e-01 6.662676141479965e-01 7.315727684119906e-01 7.015213609601558e-01 7.383446788016298e-01 6.178428195697878e-01 5.860035903050294e-01 7.020672602098499e-01 6.191878107782836e-01 6.781695826280283e-01 7.660876733470431e-01 7.388625551529518e-01 7.706605086486207e-01 6.710115888098591e-01 7.258983575507247e-01 7.441872862676530e-01 7.568570332591895e-01 7.329087867402511e-01 7.479511206922250e-01 7.324954593743332e-01 7.618466584151832e-01 7.699758281156200e-01 7.648107407435519e-01 7.502203268704113e-01 7.270402721114986e-01 7.498802481967785e-01 7.686953086219644e-01 6.555375070520130e-01 6.450877222292619e-01 6.685715269490409e-01 6.318438031646836e-01 6.777283049580300e-01 6.750569581336768e-01 7.463792401750904e-01 6.422289002892665e-01 5.567109761152434e-01 7.519286332543129e-01 7.216374026515843e-01 6.674189272638085e-01 5.181567237943541e-01 5.812285260163012e-01 5.760686409668411e-01 6.437416049866603e-01 7.902953775035342e-01 6.418735425403524e-01 7.806008199873674e-01 7.665260278336482e-01 6.602730852625928e-01 7.269739438926048e-01 7.474379089835472e-01 7.531028253589063e-01 7.093242584085919e-01 7.111263138363239e-01 7.816397319516911e-01 7.113020030368165e-01 6.020143495541662e-01 7.089123993022440e-01 6.287917007887878e-01 6.277303587894802e-01 5.121468420950418e-01 5.876558853546237e-01 6.368840631202879e-01 5.247718378653244e-01 5.541942395706786e-01 5.974510633601062e-01 6.997461500878950e-01 7.367701798433279e-01 6.832600970282161e-01 6.841091133015806e-01 6.827910421925146e-01 6.813276685059325e-01 6.164112284238502e-01 6.139767258098294e-01 6.822981537052485e-01 6.173637607792539e-01 2.115569033285847e-01 2.158286089247918e-01 1.646828277914627e-01 2.367993419893540e-01 3.314406783187601e-01 2.118856688150980e-01 2.987886146157580e-01 3.079136591999522e-01 2.155510080014205e-01 2.114284915502532e-01 2.980218045084446e-01 2.157688483923949e-01 5.000014000415461e-01 3.798766432659139e-01 5.022982589584867e-01 2.108183998188567e-01 3.125150622886873e-01 1.906653484715015e-01 3.119761783329429e-01 3.081269038728058e-01 2.109800941742431e-01 3.124394619355594e-01 4.332125273930700e-01 3.087536768924624e-01 3.046728014932805e-01 4.241054461557398e-01 4.206535563114391e-01 3.038171410231339e-01 3.013774375452092e-01 4.245396918705915e-01 4.252429150214201e-01 5.381596821605048e-01 4.218315010401424e-01 5.304918594152411e-01 5.458824332869431e-01 4.310646023629622e-01 4.281944149867956e-01 3.196915340927410e-01 4.182389256810152e-01 4.192966655918782e-01 5.285268131795828e-01 4.290981666055960e-01 5.320714912525001e-01 6.269792075235883e-01 5.470349343365004e-01 6.159511015146316e-01 5.342978480662683e-01 6.128725667007575e-01 4.655319134785305e-01 5.392621671928791e-01 5.304762825549553e-01 5.318739936623791e-01 5.401260586197658e-01 6.173705745866207e-01 2.813413304007048e-01 3.777525420490746e-01 5.007319246819706e-01 4.974277333050486e-01 2.399934893084318e-01 2.779102271309392e-01 3.317570465064069e-01 2.377367664685338e-01 4.149239815724742e-01 6.328194160075781e-01 6.987979332746330e-01 6.616352082312675e-01 7.471137409373708e-01 6.673814811236413e-01 7.341879401606244e-01 7.947318041344351e-01 5.257881827764816e-01 4.264353755323472e-01 7.154718917826395e-01 6.181688059365622e-01 7.630909205107211e-01 7.556406750419020e-01 7.658869363618541e-01 7.439746615378340e-01 7.569731781266346e-01 7.507912010696730e-01 7.635424742724695e-01 7.477927166437819e-01 7.625268461429827e-01 7.466215640405700e-01 7.579431968024204e-01 7.476184149398666e-01 6.880813776607336e-01 7.327385359377383e-01 7.606283740734587e-01 6.850352384919470e-01 7.602612941906586e-01 7.335136349465105e-01 7.452268535459649e-01 7.462622030513099e-01 7.558984336825807e-01 7.301263883757132e-01 7.380060108539346e-01 7.380858233254698e-01 7.330916483701745e-01 7.357775123962643e-01 6.834130279517289e-01 6.495153749924470e-01 8.255161399122556e-01 4.075182864273730e-01 5.997517628576252e-01 6.518778480321260e-01 6.558843169863393e-01 7.315987878877083e-01 7.293424400218590e-01 7.359170448887977e-01 6.538318962880503e-01 7.215266223526671e-01 7.434409999873386e-01 7.332663137545729e-01 6.128140031332165e-01 6.860782876451733e-01 6.005773401157968e-01 5.666115799732139e-01 7.050740850865922e-01 5.727797080357995e-01 6.036411776384658e-01 5.670299004760805e-01 5.676380663885452e-01 5.566810714059908e-01 5.493604651149661e-01 5.135282274127658e-01 5.742650015542559e-01 5.482962524227868e-01 5.385191460302096e-01 7.498159533422090e-01 7.358761680978564e-01 7.584272270959145e-01 5.132818461766839e-01 5.465233653749264e-01 6.111489402371629e-01 5.518074766560789e-01 7.303852457887631e-01 6.005707317017881e-01 5.467517880479661e-01 5.319492135386048e-01 7.269385312314236e-01 7.328141404865046e-01 7.448035202312078e-01 7.366982378707133e-01 7.411832858176903e-01 7.394464116993398e-01 7.380752667569019e-01 5.076476492894660e-01 7.185045522740586e-01 4.866313033866269e-01 7.721220385084294e-01 7.694599427114923e-01 7.765509128624848e-01 6.826992853217659e-01 6.075492468475371e-01 6.742959437747263e-01 6.117999741026640e-01 6.738773241516537e-01 6.340492223818568e-01 5.924363951177808e-01 5.792243002573925e-01 5.563482853754904e-01 7.037369025617438e-01 6.930348301424785e-01 6.961903347225902e-01 7.005837329176119e-01 7.001081363236991e-01 7.040078058899828e-01 5.985440645896043e-01 6.770892928593788e-01 7.147982444950050e-01 6.035165051007273e-01 6.331581131283474e-01 5.685835765554086e-01 6.326773815494660e-01 5.482242913002776e-01 5.517654475695761e-01 5.983245783626512e-01 5.964582055971588e-01 7.164420054645213e-01 6.924515437995836e-01 5.999092058206920e-01 7.145490150438503e-01 7.187544996792173e-01 8.013654732237292e-01 7.178325331982092e-01 5.967427100809145e-01 5.989601438902361e-01 6.801480614898039e-01 6.009191843322322e-01 6.830335332291069e-01 6.792194898516748e-01 6.029900787343332e-01 6.558681986076680e-01 5.925006756390351e-01 6.477435078678381e-01 6.486705296256859e-01 5.991433030260294e-01 5.499079870356848e-01 6.311067715034466e-01 5.984440734417231e-01 6.396492522791045e-01 6.701830734377056e-01 6.123446815835016e-01 6.137541371059633e-01 6.695893299015162e-01 6.771551965351122e-01 5.797952203566721e-01 6.284527289917692e-01 5.727479400936276e-01 5.803730712844750e-01 6.233653182968322e-01 6.281058602176760e-01 5.995902567291128e-01 6.751263816131314e-01 6.055252130819577e-01 7.263041693547381e-01 5.586191058776060e-01 5.709017502023471e-01 7.843797427663801e-01 6.863651603121610e-01 6.762033637769692e-01 5.693998291882407e-01 5.414870847507620e-01 5.953023556580452e-01 7.739861722061291e-01 5.708328773333218e-01 6.204907756890005e-01 7.836332682663527e-01 7.182526129881710e-01 7.985347620407643e-01 7.393926892160526e-01 7.601267522215975e-01 6.394304782571602e-01 7.634003458092350e-01 7.471666416089751e-01 7.772251104833126e-01 7.185598080989051e-01 5.437488492209461e-01 5.330674071688627e-01 5.760803912008270e-01 6.078897435714482e-01 5.523660526497072e-01 8.215358374004040e-01 5.537524141571454e-01 8.072268040918401e-01 6.295763398085480e-01 7.120325823941768e-01 5.391787594444182e-01 7.413574781446596e-01 7.230519566947579e-01 5.416830641217678e-01 4.982087457446170e-01 7.525001035262220e-01 7.735264633850427e-01 6.641975137492268e-01 7.013765798059610e-01 7.847602580754403e-01 6.250883712635843e-01 6.544011157669524e-01 7.755954821100252e-01 7.208077052112751e-01 7.571069266644748e-01 6.302489713369702e-01 5.977004591268513e-01 7.856967546316737e-01 5.193004047386712e-01 7.768386933715739e-01 7.132489902087398e-01 7.589673247499823e-01 7.097451061162207e-01 7.886389723581919e-01 7.178185973398236e-01 6.906702255983184e-01 5.740080925266853e-01 7.683747054256440e-01 7.384797142808359e-01 7.181598670083634e-01 5.932225463004138e-01 6.637543743601267e-01 6.181022111702786e-01 6.400781497171234e-01 6.073638694763730e-01 6.737257222439024e-01 7.054387563633076e-01 6.799610613862034e-01 6.877766936198860e-01 5.973874691369994e-01 7.136664139135035e-01 6.388070164139108e-01 6.772715179235907e-01 6.918527795189083e-01 5.816662166933936e-01 7.387958365792195e-01 5.594417136265869e-01 6.364577389998795e-01 5.279666753640975e-01 6.375752445075444e-01 5.737246793514535e-01 5.262500902515530e-01 4.995753735102657e-01 5.447077204710948e-01 6.904925441844384e-01 7.069416846004505e-01 5.290572316422735e-01 6.966522953719798e-01 5.403532359403419e-01 4.984209078371952e-01 7.724545142123255e-01 7.039912539450719e-01 7.502326008011307e-01 6.839814585852967e-01 5.126071435454783e-01 7.946739168913083e-01 6.070171608369301e-01 8.180721693402557e-01 5.051063340890865e-01 5.573939646885724e-01 5.081810211878670e-01 8.132365368794382e-01 6.192229318673179e-01 7.906425999644869e-01 6.669240758936450e-01 7.917847989795744e-01 6.238608861082408e-01 5.909437274342779e-01 5.720045117552337e-01 6.782345034879208e-01 7.337158197851749e-01 7.361527946347699e-01 7.342520749853764e-01 7.430318720625492e-01 7.324255929516172e-01 7.431687937895849e-