<?xml version="1.0"?>
<VTKFile type="UnstructuredGrid" version="0.1" byte_order="LittleEndian">
<UnstructuredGrid>
<Piece NumberOfPoints="2028" NumberOfCells="724">
<Points>
<DataArray type="Float64" NumberOfComponents="3" format="ascii">
0 0.69999999999999996 0 0 1.6319639930219929 0 0.59999999999999998 0.69999999999999996 0 0.59999999999999998 0.69999999999999996 0 0 1.6319639930219929 0 0.94999999999923723 1.2749999999987469 0 0.59999999999999998 0.69999999999999996 0 0.94999999999923723 1.2749999999987469 0 0 1.6319639930219929 0 0.68142292217753131 2.106313194182027 0 0.94999999999923723 1.2749999999987469 0 0 2.430303940964651 0 0.68142292217753131 2.106313194182027 0 0 1.6319639930219929 0 0.94999999999923723 1.2749999999987469 0 1.299999999998378 1.8499999999973351 0 0.68142292217753131 2.106313194182027 0 1.299999999998378 1.8499999999973351 0 0.94999999999923723 1.2749999999987469 0 1.299999999998378 1.8499999999973351 0 0.68142292217753131 2.106313194182027 0 1.186467289461244 2.488259157846338 0 1.299999999998378 1.8499999999973351 0 1.649999999999066 2.4249999999984651 0 1.299999999998378 1.8499999999973351 0 1.186467289461244 2.488259157846338 0 1.649999999999066 2.4249999999984651 0 1.299999999998378 1.8499999999973351 0 1.626949751997165 1.3978044304614949 0 0.94999999999923723 1.2749999999987469 0 0.94999999999923723 1.2749999999987469 0 1.626949751997165 1.3978044304614949 0 1.243750000001385 0.69999999999999996 0 1.626949751997165 1.3978044304614949 0 1.887500000003292 0.69999999999999996 0 1.243750000001385 0.69999999999999996 0 1.243750000001385 0.69999999999999996 0 0.59999999999999998 0.69999999999999996 0 0.94999999999923723 1.2749999999987469 0 0.45714634023723411 3.4614941897304652 0 0.56249999999824107 3.9749999999991399 0 1.013301616169622 3.6128741719811099 0 0 3.7000000000000002 0 0.56249999999824107 3.9749999999991399 0 0.45714634023723411 3.4614941897304652 0 0 3.7000000000000002 0 0.56249999999824107 3.9749999999991399 0 0.45714634023723411 3.4614941897304652 0 0.70993008501830757 2.9054181396964478 0 0 3.1141786369756268 0 0 3.7000000000000002 0 0.45714634023723411 3.4614941897304652 0 0 3.1141786369756268 0 0.70993008501830757 2.9054181396964478 0 0.45714634023723411 3.4614941897304652 0 1.013301616169622 3.6128741719811099 0 0.68142292217753131 2.106313194182027 0 0 2.430303940964651 0 0.70993008501830757 2.9054181396964478 0 0 3.1141786369756268 0 0.70993008501830757 2.9054181396964478 0 0 2.430303940964651 0 0.70993008501830757 2.9054181396964478 0 1.186467289461244 2.488259157846338 0 0.68142292217753131 2.106313194182027 0 1.649999999999066 2.4249999999984651 0 1.186467289461244 2.488259157846338 0 1.451787781083937 3.11022608666643 0 1.186467289461244 2.488259157846338 0 0.70993008501830757 2.9054181396964478 0 1.451787781083937 3.11022608666643 0 1.013301616169622 3.6128741719811099 0 1.451787781083937 3.11022608666643 0 0.70993008501830757 2.9054181396964478 0 1.451787781083937 3.11022608666643 0 1.013301616169622 3.6128741719811099 0 1.593428957229921 3.8897035774451321 0 2.4236693135559251 3.5256579194055688 0 2.1666666666662731 4.1999999999971616 0 2.08333333333292 3.599999999997022 0 1.593428957229921 3.8897035774451321 0 2.08333333333292 3.599999999997022 0 1.451787781083937 3.11022608666643 0 1.451787781083937 3.11022608666643 0 2.08333333333292 3.599999999997022 0 2 3 0 2.4236693135559251 3.5256579194055688 0 2 3 0 2.6000000000000818 2.8399999999999781 0 2 3 0 2.08333333333292 3.599999999997022 0 2.08333333333292 3.599999999997022 0 2 3 0 2.4236693135559251 3.5256579194055688 0 2.6000000000000818 2.8399999999999781 0 2.2687831884271348 2.397628317379688 0 2 3 0 2.6000000000000818 2.8399999999999781 0 2 3 0 1.649999999999066 2.4249999999984651 0 2 3 0 1.649999999999066 2.4249999999984651 0 1.451787781083937 3.11022608666643 0 2 3 0 2.2687831884271348 2.397628317379688 0 1.649999999999066 2.4249999999984651 0 2 3 0 2.2687831884271348 2.397628317379688 0 2.6000000000000818 2.8399999999999781 0 2.8857059848027808 2.304389417342541 0 2.8857059848027808 2.304389417342541 0 2.6000000000000818 2.8399999999999781 0 3.2000000000001432 2.679999999999962 0 3.2848100522576571 3.06994577157805 0 2.6000000000000818 2.8399999999999781 0 3.2000000000001432 2.679999999999962 0 3.2000000000001432 2.679999999999962 0 2.6000000000000818 2.8399999999999781 0 2.6000000000000818 2.8399999999999781 0 2.9420158813362729 3.5139475164392531 0 2.4236693135559251 3.5256579194055688 0 2.6000000000000818 2.8399999999999781 0 3.2848100522576571 3.06994577157805 0 2.9420158813362729 3.5139475164392531 0 2.9420158813362729 3.5139475164392531 0 3.412636880282601 3.6134558579332841 0 3.1249999999889848 4 0 3.1249999999889848 4 0 2.75 4 0 2.9420158813362729 3.5139475164392531 0 2.4236693135559251 3.5256579194055688 0 2.9420158813362729 3.5139475164392531 0 2.75 4 0 1.887500000003292 0.69999999999999996 0 2.23284951060374 1.369095413116082 0 2.5312500000049418 0.69999999999999996 0 2.23284951060374 1.369095413116082 0 1.887500000003292 0.69999999999999996 0 1.626949751997165 1.3978044304614949 0 1.942890303101708 1.90249985684108 0 1.626949751997165 1.3978044304614949 0 1.299999999998378 1.8499999999973351 0 2.23284951060374 1.369095413116082 0 1.626949751997165 1.3978044304614949 0 1.942890303101708 1.90249985684108 0 1.942890303101708 1.90249985684108 0 1.649999999999066 2.4249999999984651 0 2.2687831884271348 2.397628317379688 0 1.649999999999066 2.4249999999984651 0 1.942890303101708 1.90249985684108 0 1.299999999998378 1.8499999999973351 0 2.5341028426591712 1.9138806300960609 0 1.942890303101708 1.90249985684108 0 2.2687831884271348 2.397628317379688 0 2.23284951060374 1.369095413116082 0 1.942890303101708 1.90249985684108 0 2.5341028426591712 1.9138806300960609 0 2.730231246675086 1.4599417336750831 0 2.23284951060374 1.369095413116082 0 2.5341028426591712 1.9138806300960609 0 2.5341028426591712 1.9138806300960609 0 2.2687831884271348 2.397628317379688 0 2.8857059848027808 2.304389417342541 0 3.5028943452390711 2.1825773809523441 0 3.16379900756549 1.750659825629856 0 2.8857059848027808 2.304389417342541 0 2.8857059848027808 2.304389417342541 0 3.16379900756549 1.750659825629856 0 2.5341028426591712 1.9138806300960609 0 2.5341028426591712 1.9138806300960609 0 3.16379900756549 1.750659825629856 0 2.730231246675086 1.4599417336750831 0 3.047698899035677 1.175177397439602 0 2.730231246675086 1.4599417336750831 0 3.16379900756549 1.750659825629856 0 2.5312500000049418 0.69999999999999996 0 2.730231246675086 1.4599417336750831 0 3.047698899035677 1.175177397439602 0 2.23284951060374 1.369095413116082 0 2.730231246675086 1.4599417336750831 0 2.5312500000049418 0.69999999999999996 0 2.5312500000049418 0.69999999999999996 0 3.047698899035677 1.175177397439602 0 3.1750000000065048 0.69999999999999996 0 3.047698899035677 1.175177397439602 0 3.638214240926366 1.265285427893069 0 3.1750000000065048 0.69999999999999996 0 3.1750000000065048 0.69999999999999996 0 3.638214240926366 1.265285427893069 0 3.8187500000045098 0.69999999999999996 0 3.638214240926366 1.265285427893069 0 3.047698899035677 1.175177397439602 0 3.16379900756549 1.750659825629856 0 3.8187500000045098 0.69999999999999996 0 3.638214240926366 1.265285427893069 0 4.2198317920941601 1.108273596938623 0 3.8187500000045098 0.69999999999999996 0 4.2198317920941601 1.108273596938623 0 4.4625000000026009 0.69999999999999996 0 4.25 1.5 0 4.2198317920941601 1.108273596938623 0 3.638214240926366 1.265285427893069 0 4.2198317920941601 1.108273596938623 0 4.25 1.5 0 4.7733688274428578 1.2511819424194319 0 4.4625000000026009 0.69999999999999996 0 4.2198317920941601 1.108273596938623 0 4.7733688274428578 1.2511819424194319 0 5.1062500000012143 0.69999999999999996 0 4.4625000000026009 0.69999999999999996 0 4.7733688274428578 1.2511819424194319 0 5 2.2000000000000002 0 4.4000000000001336 2.3599999999999639 0 4.6250000000004974 1.8500000000004651 0 4.4000000000001336 2.3599999999999639 0 5 2.2000000000000002 0 4.7733688274428578 1.2511819424194319 0 4.25 1.5 0 4.6250000000004974 1.8500000000004651 0 4.6250000000004974 1.8500000000004651 0 4.25 1.5 0 4.0559490150232032 2.028653202947901 0 4.6250000000004974 1.8500000000004651 0 4.25 1.5 0 3.757799744899315 1.759341836734688 0 4.0559490150232032 2.028653202947901 0 4.25 1.5 0 4.6250000000004974 1.8500000000004651 0 4.0559490150232032 2.028653202947901 0 4.4000000000001336 2.3599999999999639 0 3.757799744899315 1.759341836734688 0 3.5028943452390711 2.1825773809523441 0 4.0559490150232032 2.028653202947901 0 4.0559490150232032 2.028653202947901 0 3.5028943452390711 2.1825773809523441 0 3.8000000000002032 2.5199999999999458 0 3.757799744899315 1.759341836734688 0 4.25 1.5 0 3.638214240926366 1.265285427893069 0 3.638214240926366 1.265285427893069 0 3.16379900756549 1.750659825629856 0 3.757799744899315 1.759341836734688 0 3.757799744899315 1.759341836734688 0 3.16379900756549 1.750659825629856 0 3.5028943452390711 2.1825773809523441 0 2.8857059848027808 2.304389417342541 0 3.2000000000001432 2.679999999999962 0 3.5028943452390711 2.1825773809523441 0 3.8000000000002032 2.5199999999999458 0 3.2000000000001432 2.679999999999962 0 3.5028943452390711 2.1825773809523441 0 3.2000000000001432 2.679999999999962 0 3.8000000000002032 2.5199999999999458 0 3.2848100522576571 3.06994577157805 0 3.2000000000001432 2.679999999999962 0 3.8000000000002032 2.5199999999999458 0 3.8190056356267248 3.2454749759848052 0 3.2848100522576571 3.06994577157805 0 3.8000000000002032 2.5199999999999458 0 3.412636880282601 3.6134558579332841 0 3.5 4 0 3.1249999999889848 4 0 3.2848100522576571 3.06994577157805 0 3.8190056356267248 3.2454749759848052 0 3.412636880282601 3.6134558579332841 0 3.2848100522576571 3.06994577157805 0 3.412636880282601 3.6134558579332841 0 2.9420158813362729 3.5139475164392531 0 3.874999999992375 3.7500000000050839 0 3.5 4 0 3.412636880282601 3.6134558579332841 0 3.8190056356267248 3.2454749759848052 0 3.87499999999
[...]
<PointData Scalars="A_conc,B_conc," Vectors="" Tensors="">
<DataArray type="Float64" Name="A_conc" format="ascii">
0.70868977709066061 0.6336621028061773 0.69911532572105128 0.698578031768609 0.63289954074959487 0.62562122683024346 0.70549862467725322 0.62164684338011655 0.64271493511270816 0.60808496926088096 0.62966959880089202 0.61245479637360301 0.61227187872233024 0.64139923530382248 0.62827256763798667 0.59892134218692417 0.60932495511304063 0.59934880856396688 0.62757251138302717 0.60708777959750082 0.61264907980107242 0.60401441883269036 0.60477427655982474 0.61187412929042806 0.60669126478448787 0.60615637089401198 0.60982916151725408 0.60105411807001319 0.50806543973893614 0.68198952777578492 0.67161597764698422 0.51235597756792928 0.56170219093847717 0.50067372697950929 0.41500781009370286 0.56863514740197862 0.56880246671255952 0.67516444434871525 0.6795736678290909 0.538733432623687 0.43832346679272061 0.55531837942743356 0.61436450306888746 0.61962359657586852 0.53944770231767547 0.43116012010807586 0.43641258196812172 0.53235899677742016 0.60969496196249273 0.56393666793781749 0.44284606541419236 0.53534823926372843 0.57460637770486689 0.60817459938523177 0.53470963579131425 0.54900419876105311 0.61684398685283315 0.61227638429430165 0.59694894775119667 0.5753026076666693 0.60053412570326625 0.61648483490302342 0.59972579786828328 0.60692432056511858 0.61412771525662524 0.61783914968723708 0.60883578706160002 0.61312528510919473 0.61139564549511494 0.59839046704399435 0.60994050668279287 0.55124784023596451 0.61521892406331324 0.6051883421870401 0.6174916331375131 0.55079470539880471 0.57388529336230587 0.52245334594533399 0.43755399327640332 0.52877643182387557 0.57628399174449718 0.62891525035597362 0.61440437615270005 0.60832485440003392 0.6275273760447182 0.64095220366700456 0.51659697855991815 0.6008301576573476 0.63623306369364774 0.64104434468499039 0.62869991750995025 0.52872123610683208 0.60215683514766416 0.51680780559495609 0.48647526299203203 0.38680528804648601 0.49216178187228132 0.64841727163725427 0.64054351665241116 0.61577388116975906 0.63920171910823309 0.61793251557081996 0.61506513213845071 0.63722286105801706 0.39095319166598569 0.51521468401794346 0.47584104208137395 0.37519407853546977 0.4980153755602198 0.34666418646265601 0.35028231988663161 0.51428128837540898 0.55623246649092373 0.49110088706604671 0.65579730060615815 0.6538698738765536 0.65546171825322375 0.64854120374806445 0.63963538036493228 0.45469985208392755 0.52121006224667621 0.64470243396309213 0.49181447156397468 0.45036654858117314 0.47511356969696655 0.4391886405224979 0.44628557271896013 0.44938142285386956 0.4595308921348043 0.47309199914481592 0.50512887959712693 0.46215632605952178 0.44413270195949922 0.42403708435328691 0.32341464274995591 0.29049597903169244 0.32463099895298853 0.4174150112663475 0.49028022050327735 0.41160315877548792 0.49528350602888049 0.5972775501251455 0.31644012570565211 0.49271987442502646 0.4114390786468905 0.41387228942985044 0.51188497705492086 0.38339349195028821 0.50472408252144108 0.41874080351333209 0.59880795596352865 0.28193213517685334 0.40448227103932727 0.39131021538946287 0.31798722632452181 0.41300125733610366 0.27849772955910257 0.22848694648257628 0.31518847347267687 0.28594354731972282 0.28662462937164884 0.40165462152368192 0.35105945909144781 0.39798392519185899 0.22527324351307523 0.37216448698423915 0.36440163974290313 0.21916871356618567 0.27874232031829943 0.28486605370030316 0.21346535957429796 0.23861014264087968 0.19042001101698786 0.23334826769754241 0.22791015419120952 0.30198182754953429 0.21744890631747577 0.18493509649968962 0.31652994516692073 0.21455952748724372 0.29849472982567782 0.30956985725866243 0.18879569149653305 0.24786651025654755 0.19046138991315534 0.15506903600282665 0.25475557101145979 0.25189386036311773 0.16355503974079855 0.25378715368820448 0.20490353887411161 0.19025982870781069 0.23333440915642736 0.25815646509875195 0.16905824130807778 0.19952352859205741 0.27958749674605221 0.19711251102129485 0.32970297515149816 0.35623011187704406 0.22765124333725864 0.21134261031762896 0.22726169290651391 0.3635559923716411 0.28309875427266623 0.33248830351182118 0.20124455783105599 0.29494860109951337 0.45462558180061841 0.32884147666290225 0.30465370799209535 0.67453083695697202 0.66856544938556184 0.55029646650902964 0.64407946051285458 0.68861750495923735 0.2839077383190497 0.36606068988728202 0.52811873994022718 0.61979985842829766 0.20944647983207276 0.51500345766775835 0.59993391234520221 0.24428219793077857 0.29071497938093277 0.50867792261016731 0.24671646449462964 0.54702908216855939 0.464274613463176 0.64817447051714672 0.31126634613897247 0.41169740422288431 0.48782107488301785 0.43998441985851683 0.39336595883118625 0.61903378501534922 0.25454576944731439 0.30340362893553191 0.235113516831885 0.23225447121954776 0.21848091164893893 0.24781761490372681 0.29453898806387691 0.21715311005767199 0.41307852857483035 0.34335310421735121 0.56689674518966804 0.37986997802334299 0.6621414003720042 0.65549507918762839 0.386074859229454 0.57241843308312534 0.61636750290884257 0.48416804764875848 0.65724514744094886 0.62079565625803612 0.4239599009982864 0.51167225029542851 0.59035620488097884 0.41977259698863534 0.46402620351646073 0.4353423839494982 0.50727208876843843 0.42440230732170442 0.43378691804864145 0.50235016088268503 0.43809930533764135 0.4785157304024874 0.56093400458458509 0.47038574609174205 0.41695769957821105 0.4583479112848432 0.5628880107157771 0.41650564147456032 0.472597870557107 0.68352744011679112 0.55826533956197177 0.63308462025089574 0.63646218447565472 0.6915590131225321 0.61916516393575494 0.61795745718277506 0.6172184549834121 0.69304252802514188 0.67753208763925699 0.63455440431665255 0.63920498144219839 0.56109909071075903 0.68353207082517042 0.47335859679486891 0.66394496219098265 0.65694792718253614 0.59214440969253668 0.65777841727258823 0.64410320696620593 0.59033515381554535 0.63733762084636691 0.64388448661390796 0.63058449052264365 0.69473759461449991 0.6156919180694308 0.65474098628855637 0.6686240060737938 0.6621439595349784 0.41333194576961285 0.60510452809001747 0.59137165223893007 0.65204981007080343 0.44488205386129104 0.6180805974885164 0.59824606316794515 0.415306070647811 0.41750733874464524 0.57996892837515746 0.38622412080330837 0.43379033291613467 0.55977317995784515 0.54141444468416045 0.66281602030501774 0.69364604851952194 0.32042976690627312 0.70200832710616257 0.70907658061285272 0.28291970370892866 0.69504415087122207 0.33486243542009064 0.67650194696032695 0.68920410117996844 0.69424315238438228 0.70713376306846054 0.543888317296916 0.68482438181165739 0.66198173080893252 0.54301979476980289 0.7075572634363485 0.69886981679145332 0.67343437291739117 0.69894787585460194 0.66831138016853686 0.6847438068863837 0.66679566687124614 0.60446348435220543 0.65973721635941651 0.67659364539043598 0.55524128937279016 0.62163035237771069 0.69414530952794595 0.69834083056418328 0.64375361587558366 0.81135212463595818 0.7354317795830505 0.63942879678283304 0.64114878650609219 0.63131499839255256 0.66680835345715439 0.64281417313453093 0.66928001459955333 0.67874177202649244 0.64236468472177588 0.67241178636911381 0.64618859730858169 0.54287216093883628 0.46454918324364963 0.62941498553921937 0.55025133806702919 0.44276592098959883 0.4694393427328814 0.70483354403803578 0.6115880666483009 0.52755377926586799 0.7280170685516959 0.52309388158848413 0.64830459969800969 0.53860314669980347 0.60893799885991762 0.51106613537177847 0.72173674579933522 0.69877795645433771 0.51106732559155621 0.47753104797305107 0.53144352563344377 0.54506931897666555 0.50975901675503765 0.48350956674087531 0.50992162846323774 0.47844013884281161 0.54004236188205135 0.62435729192298706 0.68837605540470825 0.49637526215188738 0.45446734160818197 0.4975231765813235 0.7226036236897202 0.74923559968738052 0.44933510294149137 0.49601757080762565 0.48170514454386187 0.71808425512460627 0.72233009908646639 0.64856302987657066 0.63014836840407518 0.61306099202726583 0.52954636940408195 0.51419975762941561 0.64991704324987776 0.67406202083627575 0.62770235322794887 0.70720670438078004 0.66387229896776423 0.66047035525796827 0.72225022843342557 0.72726041618814263 0.68287381960339988 0.81492490815249574 0.76788648376171342 0.69289143698730493 0.75194309980798579 0.65569167722016353 0.66869199767866272 0.65653799847777938 0.75393713198797097 0.81760365339386565 0.85117726614923639 0.76782244404248734 0.75299536837616143 0.71281986723946356 0.86287544977187669 0.62149012419306271 0.640283585750683 0.71649046672923866 0.80330485333269708 0.86679726358985865 0.77194766630927902 0.85635206311809775 0.78269463607642653 0.6419712302221684 0.58232647445466157 0.39839208007456356 0.61989473672859763 0.63065913983114652 0.3141795503662429 0.61864837376099691 0.45542107723919356 0.63839241704657201 0.25038612155381096 0.57016627766990691 0.45838363440681956 0.2315813295291734 0.4728582825412499 0.57932117261884164 0.5103229242947227 0.68943006120359462 0.5678438302466251 0.44858578495937301 0.49967954710231033 0.59012207910053105 0.66649567445168489 0.68505234140808691 0.58292027121416101 0.60668245604368409 0.66736588663344953 0.58104872317361222 0.78030526066429429 0.77936208312111399 0.69564698857590435 0.68778351932391124 0.66278562090235127 0.76776487076124711 0.55992860841241743 0.47049845856840117 0.53748251946015679 0.67181084901968913 0.55391739538449736 0.53879518744427857 0.5314157046334399 0.65085988140820084 0.68416968827665359 0.43032402334105085 0.5115605302556625 0.41408918132573558 0.31547928876157838 0.42966734399216033 0.41626815021918046 0.56264015278081048 0.4902484605272297 0.4651124210196122 0.51578631382120155 0.5184214048904463 0.44080080810352579 0.50259950001854203 0.49977739544032196 0.51871738729168482 0.522168927915721 0.47775579279620251 0.56765190921840269 0.49264053049449219 0.59093243390842909 0.59014204710223839 0.48075898957622354 0.52225670790051393 0.5267459891889954 0.43725240455987602 0.46697719769487184 0.47798993838008802 0.54686316357924247 0.43482744859525718 0.47601500824729054 0.44495242489755582 0.4733479817799735 0.48803223257956785 0.4362569079123797 0.43034695333397505 0.53947050437786015 0.43963691514183462 0.44194674560506286 0.42090388929534445 0.44276873583873472 0.42960675970256412 0.39742591688316703 0.36951038117960555 0.4150314071730003 0.36909854936603587 0.43621042098115265 0.37888205666996949 0.32973840991861658 0.42746700171968588 0.3984985749232246 0.45848899180916963 0.56497336152718658 0.45286668562709198 0.55489639508525679 0.4570153521054407 0.55560962584357165 0.70090257622501295 0.62839600756152414 0.71546944100501864 0.63445347878637492 0.62551923731188108 0.69500285255740157 0.463668597647308 0.56387167523976434 0.63184934861922959 0.75338280591227957 0.76584598493470046 0.63564051600157823 0.59318879173806904 0.61099530249369449 0.62849163994528201 0.67795409983243815 0.5974059379961012 0.69784233824869923 0.63443221993218446 0.70735285393482528 0.64266870144157262 0.69372228888364662 0.68501668997960308 0.67531603948437913 0.66557712748552256 0.63747907388564051 0.69750540135613448 0.68086212780872646 0.67423304627276481 0.67111666040812756 0.67924051560010523 0.67617584702157463 0.69674444059888496 0.67434578913043797 0.67554921208390417 0.68231253793435243 0.70104016338563335 0.67768287626543899 0.68418295370394777 0.63086620934995685 0.73081532172006247 0.51671123122030216 0.42107504337892143 0.42006029816382612 0.54370097604752798 0.5239888825723118 0.74013624731390226 0.75261399856520772 0.6786857451362116 0.69315289436237437 0.5911391327433021 0.82701358465554342 0.8423759893759416 0.67198812647598172 0.71120469579444745 0.7218522472965152 0.85266981749515236 0.90574460298783421 0.82755685798303913 0.66135938013215401 0.53490932687776527 0.53707881233272026 0.62263545089476013 0.72592471664052771 0.61631525243331065 0.72311783044456612 0.72757419640529886 0.64199719549341061 0.73883182668457437 0.71125478662127561 0.68147916835087097 0.79427859540185985 0.78448454364094022 0.71976255668196165 0.72299723900122626 0.69567842137243141 0.68021226385817279 0.7851365193527613 0.78350872310365849 0.7934560339835357 0.68482156749461476 0.66221121210406753 0.67654769783347968 0.72161730140664915 0.6745618429057606 0.72649192864224954 0.72356504055596516 0.67978618102492105 0.69325443263412356 0.68033564842440164 0.7353431826392175 0.65636258583874629 0.65928009148744982 0.72493166012415888 0.67060851694942136 0.68552153323986798 0.68410761306853718 0.70118060679792316 0.72757738035579711 0.67447838656508197 0.70454529913045227 0.74868205328221604 0.76378300496141538 0.72944177266304455 0.73709291176210889 0.74957847403977895 0.73342273449935425 0.70452627246762378 0.73527430503576674 0.73001672643663318 0.53484936146328521 0.43751550936965899 0.43545817267399439 0.6071715039110458 0.62553072528663689 0.44144735918625705 0.4702131078784661 0.73256203644456541 0.77462841034023511 0.6921406078054404 0.78330378935856182 0.78153828888722809 0.76416079886748034 0.71330826472872788 0.72788886205998249 0.69864596358548969 0.76845752545363866 0.74809316554367278 0.73977019099464314 0.76616482509705708 0.77819486503762303 0.63652896655904001 0.63993590423297919 0.64670995373693974 0.65270409399074125 0.57352158552933685 0.63958066920049783 0.64710885978036214 0.55817370128916011 0.58337362857952324 0.61212627081717508 0.64671055227030672 0.60725989593039431 0.65984548188146697 0.64628955039557001 0.65513674315877846 0.64371712870441511 0.62900068543325383 0.65077838731756976 0.65657946399650502 0.65377750530762135 0.65660098547763168 0.78081558398995077 0.7493434324837156 0.77693282692848931 0.64254571103094504 0.64259162397126557 0.65565486627936742 0.65555373756037738 0.63102541160674175 0.77651992744850939 0.77542479497443928 0.52279710107950361 0.51539025323832433 0.74425199751647564 0.67156934179587524 0.74241586002226279 0.71739705979201451 0.71966490638148461 0.81152310889663493 0.79754206929277804 0.78445717384110325 0.61113036675904564 0.47983158523200659 0.53650550447246503 0.58580015147265152 0.6628387526703301 0.51606588249407204 0.51486866233580253 0.67295366594468131 0.73944403352165278 0.66665575398960353 0.22782313819888919 0.27490165806169159 0.22931709382996363 0.17530748772866542 0.34405231673166936 0.53369118660041959 0.40398305692643349 0.51170317550487299 0.53859342809463873 0.48658533976025187 0.39585081931589383 0.54623204662210245 0.33761688237683918 0.58870366325694512 0.33459656083163208 0.58483409810867715 0.30603450354967127 0.49967869039166329 0.16015198693787655 0.49686305567068451 0.39037598075113372 0.15963001986258346 0.63606087090401042 0.48549647108625826 0.5872329935821704 0.59443765688145678 0.60849049705872926 0.64815599358569931 0.43989086058972321 0.65235924127177447 0.32103570563531197 0.62976251090527469 0.60513685515029325 0.49397404993419147 0.65258235697883837 0.65068960686405997 0.57912023359955522 0.56483514138483459 0.58097778490511287 0.64669316346622285 0.64465304262760503 0.6509873557631547 0.58597480881298236 0.64294772373121523 0.64343181480509681 0.57331836940934555 0.64530864924746911 0.64195567557197419 0.63634120531364202 0.64518222245806789 0.64683315394993246 0.58424512292125697 0.60072614722288786 0.61104224508403038 0.62295577525629786 0.63873151201806688 0.6239132416034856 0.60336627110245011 0.63647164045860194 0.62239722504744488 0.6375733025493947 0.59550715327639414 0.57692469738839913 0.6363166211322564 0.53975596586293118 0.59748974264252552 0.60594424518639911 0.45663530509021594 0.41839146113934311 0.45686144671296597 0.44985676831880794 0.46279231429636764 0.50674761484315223 0.41809475882907299 0.44409223604601467 0.45729644724610519 0.41240816564531813 0.40647841127991874 0.43979815017689944 0.42483697339970494 0.40929966833816589 0.7386315395302615 0.74428580347819517 0.75471398222701702 0.62640015884848343 0.63091083640507983 0.63236318849399931 0.62507941739677375 0.62331973302873911 0.63176591433428864 0.64193300835681044 0.62509463704063584 0.58711596060631432 0.63443723628097004 0.7415267919036056 0.70032245323855236 0.7599637588188356 0.6511875751446029 0.65288896713210098 0.75437559512009089 0.75750792461100613 0.76775650457417466 0.73957461497253019 0.75529949046722167 0.76143946439825172 0.65249268254432347 0.65405371268069101 0.6061941814659435 0.57113688873160584 0.63495344217849181 0.58924931224206711 0.51277582567040259 0.60160103793540265 0.69424908323955725 0.37039589182649013 0.68042392829982401 0.51143488148985483 0.59228091045792486 0.62111714349291669 0.70574061619046358 0.30938019329535432 0.45403004077370579 0.42458917957576714 0.36040118080721761 0.59544919801830543 0.53583844227147814 0.59961769409521282 0.61323214665646519 0.59196253658465436 0.62873647880956818 0.63138140845417912 0.56667954632271922 0.5258590598497026 0.60374224787739561 0.63195774488862944 0.56825067005184149 0.61252571587569937 0.62960579664401051 0.61235737076966323 0.61963282860018976 0.62493503287773366 0.55700777794651468 0.43787093531626636 0.46194836729303873 0.57062905994452262 0.55516919358097128 0.46427196513894725 0.56874852589446534 0.46712797210492568 0.52492159853591758 0.62487438907346582 0.6288500199903897 0.60861919914588802 0.61241228449817475 0.38668529332782309 0.61335900533839005 0.45185776583887588 0.385354700600537 0.61265275872626868 0.49562507659224381 0.6095905704856005 0.41678173804631335 0.6030076402501775 0.39628948631402944 0.60446276079323047 0.51152126818060817 0.49010095552995436 0.47824688964182854 0.61300834759436162 0.49132640105312403 0.38108579474721793 0.45762885968787764 0.43083686357515516 0.43730977662405635 0.38803840128983796 0.3763634979689901 0.61874148958156217 0.44449111975681904 0.44435672600556503 0.60872107557472699 0.44320904832952018 0.61670137066128328 0.61599392696116295 0.61829986140299575 0.44640885143776132 0.59094924653241243 0.60031850480536142 0.61001615923185526 0.59681450632162525 0.59267384113090604 0.54545046042600898 0.58829063482112187 0.61608756351042715 0.62754100894296416 0.62106768939785484 0.58604118456725252 0.628115174301623 0.57574940772440308 0.63117382001004108 0.6202457612786193 0.58638483818853371 0.5871683685990966 0.58799302806105969 0.58525821651918519 0.56537879247245459 0.60680118897873569 0.48939051511937059 0.5907964930784555 0.58413215345713887 0.59615963800287319 0.60511181802029601 0.58252425494524129 0.55569016958918172 0.59718872355742691 0.51093917481550455 0.61197930540305456 0.64453163163175098 0.61459419509424884 0.47364071072143743 0.37453248689631397 0.36333068165348698 0.48090602828861434 0.62756129406802563 0.18721467421236801 0.30101953944125009 0.25733961803758648 0.20672845808873808 0.2876818631323993 0.29684332378880884 0.44539030648887135 0.36542366104724511 0.23919759609087232 0.32696381492683219 0.635216779802381 0.47765897715583666 0.30415510011438773 0.45270652124640276 0.24129987308655082 0.35895069079947173 0.41047944657145657 0.30456198994364164 0.36850907856716558 0.55400767746899304 0.40891607977243866 0.2905725042734072 0.21619286548371081 0.24835036595949736 0.3357907115583324 0.30548481738547412 0.22261709026412815 0.56457130060362692 0.46676955182952473 0.39423486240339811 0.45958668618526111 0.57590974030549591 0.63093893891926356 0.82502889310244343 0.64414115314203713 0.58115259584180901 0.82321615562030848 0.80764714257765147 0.62244132509812145 0.78234376132634931 0.61527382764893923 0.60092644463465128 0.94660472791693717 0.80455304583078491 0.81560931380009316 0.60099017351163875 0.78294470573956887 0.78620215909152813 0.79590404372312895 0.92801328651863058 0.80918949575482102 0.6914754269193597 0.53887189328486129 0.76595124069679332 0.78079392995514874 0.93638887500668588 0.88098836871506425 0.86356571307650454 0.70875835555289213 0.76963355732877048 0.58780900322986052 0.62163925498830863 0.5