<?xml version="1.0"?>
<VTKFile type="UnstructuredGrid" version="0.1" byte_order="LittleEndian">
<UnstructuredGrid>
<Piece NumberOfPoints="2028" NumberOfCells="724">
<Points>
<DataArray type="Float64" NumberOfComponents="3" format="ascii">
0 3.7000000000000002 0 0.56249999999824107 3.9749999999991399 0 0 0.69999999999999996 0 0 1.6319639930219929 0 0.59999999999999998 0.69999999999999996 0 0.59999999999999998 0.69999999999999996 0 0 1.6319639930219929 0 0.94999999999923723 1.2749999999987469 0 1.243750000001385 0.69999999999999996 0 0.59999999999999998 0.69999999999999996 0 0.94999999999923723 1.2749999999987469 0 1.626949751997165 1.3978044304614949 0 1.887500000003292 0.69999999999999996 0 1.243750000001385 0.69999999999999996 0 0.94999999999923723 1.2749999999987469 0 1.626949751997165 1.3978044304614949 0 1.243750000001385 0.69999999999999996 0 0.68142292217753131 2.106313194182027 0 1.299999999998378 1.8499999999973351 0 0.94999999999923723 1.2749999999987469 0 1.299999999998378 1.8499999999973351 0 1.626949751997165 1.3978044304614949 0 0.94999999999923723 1.2749999999987469 0 1.299999999998378 1.8499999999973351 0 1.186467289461244 2.488259157846338 0 1.649999999999066 2.4249999999984651 0 1.299999999998378 1.8499999999973351 0 0.68142292217753131 2.106313194182027 0 1.186467289461244 2.488259157846338 0 0 1.6319639930219929 0 0.68142292217753131 2.106313194182027 0 0.94999999999923723 1.2749999999987469 0 0 2.430303940964651 0 0.68142292217753131 2.106313194182027 0 0 1.6319639930219929 0 0.68142292217753131 2.106313194182027 0 0 2.430303940964651 0 0.70993008501830757 2.9054181396964478 0 0 3.1141786369756268 0 0.70993008501830757 2.9054181396964478 0 0 2.430303940964651 0 0.45714634023723411 3.4614941897304652 0 0.70993008501830757 2.9054181396964478 0 0 3.1141786369756268 0 0 3.7000000000000002 0 0.45714634023723411 3.4614941897304652 0 0 3.1141786369756268 0 0.45714634023723411 3.4614941897304652 0 0 3.7000000000000002 0 0.56249999999824107 3.9749999999991399 0 0.45714634023723411 3.4614941897304652 0 0.56249999999824107 3.9749999999991399 0 1.013301616169622 3.6128741719811099 0 0.70993008501830757 2.9054181396964478 0 0.45714634023723411 3.4614941897304652 0 1.013301616169622 3.6128741719811099 0 1.013301616169622 3.6128741719811099 0 1.451787781083937 3.11022608666643 0 0.70993008501830757 2.9054181396964478 0 1.451787781083937 3.11022608666643 0 1.013301616169622 3.6128741719811099 0 1.593428957229921 3.8897035774451321 0 1.186467289461244 2.488259157846338 0 0.70993008501830757 2.9054181396964478 0 1.451787781083937 3.11022608666643 0 0.70993008501830757 2.9054181396964478 0 1.186467289461244 2.488259157846338 0 0.68142292217753131 2.106313194182027 0 1.649999999999066 2.4249999999984651 0 1.186467289461244 2.488259157846338 0 1.451787781083937 3.11022608666643 0 0.59999999999999998 0.69999999999999996 0 0.94999999999923723 1.2749999999987469 0 2.2687831884271348 2.397628317379688 0 1.649999999999066 2.4249999999984651 0 2 3 0 2.6000000000000818 2.8399999999999781 0 2.2687831884271348 2.397628317379688 0 2 3 0 1.649999999999066 2.4249999999984651 0 1.451787781083937 3.11022608666643 0 2 3 0 1.451787781083937 3.11022608666643 0 2.08333333333292 3.599999999997022 0 2 3 0 1.593428957229921 3.8897035774451321 0 2.08333333333292 3.599999999997022 0 1.451787781083937 3.11022608666643 0 2.4236693135559251 3.5256579194055688 0 2.1666666666662731 4.1999999999971616 0 2.08333333333292 3.599999999997022 0 2.4236693135559251 3.5256579194055688 0 2 3 0 2.6000000000000818 2.8399999999999781 0 2.08333333333292 3.599999999997022 0 2 3 0 2.4236693135559251 3.5256579194055688 0 2.6000000000000818 2.8399999999999781 0 2.9420158813362729 3.5139475164392531 0 2.4236693135559251 3.5256579194055688 0 2.4236693135559251 3.5256579194055688 0 2.9420158813362729 3.5139475164392531 0 2.75 4 0 2.9420158813362729 3.5139475164392531 0 3.412636880282601 3.6134558579332841 0 3.1249999999889848 4 0 3.1249999999889848 4 0 2.75 4 0 2.9420158813362729 3.5139475164392531 0 2.6000000000000818 2.8399999999999781 0 3.2848100522576571 3.06994577157805 0 2.9420158813362729 3.5139475164392531 0 3.2848100522576571 3.06994577157805 0 2.6000000000000818 2.8399999999999781 0 3.2000000000001432 2.679999999999962 0 2.2687831884271348 2.397628317379688 0 2.6000000000000818 2.8399999999999781 0 2.8857059848027808 2.304389417342541 0 2.8857059848027808 2.304389417342541 0 2.6000000000000818 2.8399999999999781 0 3.2000000000001432 2.679999999999962 0 3.5028943452390711 2.1825773809523441 0 3.16379900756549 1.750659825629856 0 2.8857059848027808 2.304389417342541 0 2.8857059848027808 2.304389417342541 0 3.16379900756549 1.750659825629856 0 2.5341028426591712 1.9138806300960609 0 2.5341028426591712 1.9138806300960609 0 3.16379900756549 1.750659825629856 0 2.730231246675086 1.4599417336750831 0 2.730231246675086 1.4599417336750831 0 2.23284951060374 1.369095413116082 0 2.5341028426591712 1.9138806300960609 0 2.5341028426591712 1.9138806300960609 0 2.2687831884271348 2.397628317379688 0 2.8857059848027808 2.304389417342541 0 2.5341028426591712 1.9138806300960609 0 1.942890303101708 1.90249985684108 0 2.2687831884271348 2.397628317379688 0 1.942890303101708 1.90249985684108 0 1.649999999999066 2.4249999999984651 0 2.2687831884271348 2.397628317379688 0 1.649999999999066 2.4249999999984651 0 1.942890303101708 1.90249985684108 0 1.299999999998378 1.8499999999973351 0 1.942890303101708 1.90249985684108 0 1.626949751997165 1.3978044304614949 0 1.299999999998378 1.8499999999973351 0 2.23284951060374 1.369095413116082 0 1.626949751997165 1.3978044304614949 0 1.942890303101708 1.90249985684108 0 2.23284951060374 1.369095413116082 0 1.942890303101708 1.90249985684108 0 2.5341028426591712 1.9138806300960609 0 2.23284951060374 1.369095413116082 0 1.887500000003292 0.69999999999999996 0 1.626949751997165 1.3978044304614949 0 1.887500000003292 0.69999999999999996 0 2.23284951060374 1.369095413116082 0 2.5312500000049418 0.69999999999999996 0 2.5312500000049418 0.69999999999999996 0 2.730231246675086 1.4599417336750831 0 3.047698899035677 1.175177397439602 0 2.23284951060374 1.369095413116082 0 2.730231246675086 1.4599417336750831 0 2.5312500000049418 0.69999999999999996 0 3.047698899035677 1.175177397439602 0 2.730231246675086 1.4599417336750831 0 3.16379900756549 1.750659825629856 0 2.5312500000049418 0.69999999999999996 0 3.047698899035677 1.175177397439602 0 3.1750000000065048 0.69999999999999996 0 0.94999999999923723 1.2749999999987469 0 1.299999999998378 1.8499999999973351 0 3.047698899035677 1.175177397439602 0 3.638214240926366 1.265285427893069 0 3.1750000000065048 0.69999999999999996 0 3.1750000000065048 0.69999999999999996 0 3.638214240926366 1.265285427893069 0 3.8187500000045098 0.69999999999999996 0 0.56249999999824107 3.9749999999991399 0 1.1249999999964171 4.2499999999982494 0 3.8187500000045098 0.69999999999999996 0 3.638214240926366 1.265285427893069 0 4.2198317920941601 1.108273596938623 0 3.638214240926366 1.265285427893069 0 3.047698899035677 1.175177397439602 0 3.16379900756549 1.750659825629856 0 3.638214240926366 1.265285427893069 0 3.16379900756549 1.750659825629856 0 3.757799744899315 1.759341836734688 0 3.757799744899315 1.759341836734688 0 3.16379900756549 1.750659825629856 0 3.5028943452390711 2.1825773809523441 0 4.0559490150232032 2.028653202947901 0 3.5028943452390711 2.1825773809523441 0 3.8000000000002032 2.5199999999999458 0 3.757799744899315 1.759341836734688 0 3.5028943452390711 2.1825773809523441 0 4.0559490150232032 2.028653202947901 0 3.757799744899315 1.759341836734688 0 4.25 1.5 0 3.638214240926366 1.265285427893069 0 4.0559490150232032 2.028653202947901 0 4.6250000000004974 1.8500000000004651 0 4.25 1.5 0 3.757799744899315 1.759341836734688 0 4.0559490150232032 2.028653202947901 0 4.25 1.5 0 4.6250000000004974 1.8500000000004651 0 4.0559490150232032 2.028653202947901 0 4.4000000000001336 2.3599999999999639 0 4.6250000000004974 1.8500000000004651 0 4.4000000000001336 2.3599999999999639 0 5 2.2000000000000002 0 4.7733688274428578 1.2511819424194319 0 4.25 1.5 0 4.6250000000004974 1.8500000000004651 0 4.2198317920941601 1.108273596938623 0 4.25 1.5 0 4.7733688274428578 1.2511819424194319 0 4.25 1.5 0 4.2198317920941601 1.108273596938623 0 3.638214240926366 1.265285427893069 0 3.8187500000045098 0.69999999999999996 0 4.2198317920941601 1.108273596938623 0 4.4625000000026009 0.69999999999999996 0 5.1062500000012143 0.69999999999999996 0 4.4625000000026009 0.69999999999999996 0 4.7733688274428578 1.2511819424194319 0 4.4625000000026009 0.69999999999999996 0 4.2198317920941601 1.108273596938623 0 4.7733688274428578 1.2511819424194319 0 4.7733688274428578 1.2511819424194319 0 5.5000000000008269 1.1999999999983459 0 5.1062500000012143 0.69999999999999996 0 5.5000000000008269 1.1999999999983459 0 4.7733688274428578 1.2511819424194319 0 5.2500000000007052 1.6999999999985891 0 5.1062500000012143 0.69999999999999996 0 5.5000000000008269 1.1999999999983459 0 5.75 0.69999999999999996 0 5.75 0.69999999999999996 0 5.5000000000008269 1.1999999999983459 0 6.1230253171455891 1.2440604005832661 0 6.4375000000000027 0.69999999999999996 0 5.75 0.69999999999999996 0 6.1230253171455891 1.2440604005832661 0 5.8758020027701336 1.829281458631685 0 6.1230253171455891 1.2440604005832661 0 5.5000000000008269 1.1999999999983459 0 6.6325887022434813 1.7109098098422979 0 6.1230253171455891 1.2440604005832661 0 5.8758020027701336 1.829281458631685 0 6.3749999999999796 2.350000000000005 0 6.6325887022434813 1.7109098098422979 0 5.8758020027701336 1.829281458631685 0 6.3749999999999796 2.350000000000005 0 5.8758020027701336 1.829281458631685 0 5.75 2.5 0 5.4251604005540912 2.1458562917259631 0 5.75 2.5 0 5.8758020027701336 1.829281458631685 0 5.4251604005540912 2.1458562917259631 0 5.2500000000007052 1.6999999999985891 0 5 2.2000000000000002 0 5.2499999999996163 2.499999999999539 0 5.4251604005540912 2.1458562917259631 0 5 2.2000000000000002 0 5.875802002770
[...]
<PointData Scalars="A_conc,B_conc," Vectors="" Tensors="">
<DataArray type="Float64" Name="A_conc" format="ascii">
0.59504680292729939 0.59100884614010529 0.59443066824041912 0.64415657872901788 0.59131792165446762 0.59246047375363775 0.64170722249808343 0.62375725629298384 0.54176313245434671 0.48522593858006063 0.57411640797826979 0.65955948184765834 0.58788638192540699 0.53990728411271338 0.57626975150081494 0.65947804901651508 0.54118710993659669 0.60541420098498511 0.58866296331323975 0.61254820703683299 0.67587301261243393 0.66433704994837628 0.57746790746047816 0.58516293262042951 0.57059730767748662 0.54763907122326561 0.58474854837387757 0.60644040711884528 0.57155204021106598 0.63320725072208051 0.60734833289110135 0.61146213410446737 0.62744139942418142 0.60694309253982381 0.632444647306315 0.60428935762826541 0.62752824081147507 0.58864886701248764 0.62007026424424294 0.58736697886000144 0.62533781666474719 0.62489737650271471 0.58199317027500141 0.62749797064446833 0.67005530685053571 0.62385567664780261 0.62282730535146758 0.62230940020297099 0.67658154068437548 0.66343796554982415 0.62129618867932823 0.66378673389485865 0.60007468219112903 0.58134008063821796 0.62518537251297146 0.60128518888128446 0.60124857269470755 0.54626705228509209 0.58094374453254793 0.54729126222007052 0.60347058867719816 0.57600372452439164 0.57164193299571198 0.58821870377468721 0.54186473452160944 0.58755975581285524 0.57192554589470357 0.60476242851997897 0.54455374665815437 0.57206755849380397 0.54107041614576978 0.58835621312288433 0.62684802049613497 0.76997582810622434 0.76481074072399569 0.75022032686681461 0.67816958261920768 0.76608767334048367 0.73886255514443133 0.54456984011779663 0.54060563039170029 0.50531931984952805 0.55047373991658799 0.52208809307128212 0.50513739994780327 0.57603239326044831 0.52267795138739603 0.5466595131376395 0.68032253744593396 0.74113293285213888 0.69565951403295256 0.67584412959040541 0.60795014721138263 0.52761533346576972 0.69234865173948867 0.61159276653681671 0.67443775949713813 0.52304656144130723 0.70437327801762917 0.66653013791069882 0.68406470256914276 0.69662355364194906 0.72823233144315724 0.67396914737468805 0.69698256299372208 0.71999662123322472 0.71829868769023708 0.71802857121374364 0.67704407469149452 0.51698887087680256 0.64072571901396536 0.70845471435408458 0.6437240760595565 0.50371746758692837 0.4931540869819937 0.77066050864197477 0.67101158880120382 0.72589835755053911 0.72380765440439698 0.66374580483861489 0.59054402080065893 0.67167287390381891 0.73498326878811415 0.71957229787397492 0.72623538788986586 0.73386252473562219 0.74982672895647218 0.75213362136392825 0.74826013529390634 0.72838489328829259 0.73182360911949551 0.70842455946178173 0.75438865185314408 0.74418728621338859 0.75685703325371678 0.73290878674195381 0.74795112063663649 0.73249545931669047 0.76184665840144439 0.72704027205111876 0.74988024816766796 0.76869530860395241 0.75321376053077183 0.72960811345880994 0.67066940360344596 0.7344940326549485 0.66520395319698333 0.67328772543081006 0.70830704224522123 0.66626761413811586 0.73157276837079477 0.70674144566691344 0.72953719582809917 0.75796460455890025 0.70385160695058224 0.58619592684800081 0.66069041940596218 0.58600359029768867 0.7020672601957908 0.61918781078269036 0.61875679711598841 0.73641415768895679 0.70687009017411784 0.70152136095108286 0.73834467879350363 0.61784281956564502 0.71249643973567645 0.72810834212240438 0.74613715603386177 0.62022368933767136 0.70226720924424457 0.63721271056458528 0.61347963681190587 0.58879011208846554 0.70065951793500236 0.72314918805141148 0.63673065143634544 0.63847079969242948 0.72089637071291546 0.64515130776323371 0.59101818914632376 0.58695669183393506 0.64571833781002819 0.71793931312007964 0.69210099045002038 0.71567030607536875 0.71360418917458157 0.74372039600137674 0.71078054999961493 0.73998905094821443 0.71985932546009779 0.69327397494267073 0.7420697989405528 0.66534768324853133 0.6315728163046872 0.66942032596212586 0.5291650663108719 0.68740434849238341 0.66396964743501063 0.61029587241249694 0.71765504216342058 0.69102697910406707 0.71075037120866247 0.59613372405832354 0.54643686940271829 0.71347539439571317 0.69823107281886831 0.6010913692821287 0.71027320635334457 0.56649718169644592 0.61870164412663509 0.50113359913550903 0.56652032217353998 0.49905666385313235 0.46382506177072358 0.70097614655374585 0.65830795202404946 0.58430268066883406 0.70912138777416289 0.66499657691074532 0.69769357704791979 0.67221380884002613 0.7047169872213449 0.71503525086787556 0.65253829058692192 0.68590652060277602 0.65421902912939689 0.66658863170710336 0.66505801545007792 0.65891145744803115 0.65464531826249583 0.68418056273995498 0.66494287648969508 0.65553750699862368 0.64508772220837518 0.66857152695667676 0.6318438031285174 0.67772830490830716 0.67505695817638534 0.68013905498113958 0.66001077654095885 0.70447279724236778 0.72897949827729236 0.63855162165222668 0.65651519808605618 0.74524567962305588 0.72777044998109763 0.65783333792760579 0.7579753821773777 0.62437516005780513 0.62258020823532823 0.68496586755347377 0.62949431630774444 0.74866695093620728 0.42042111520358211 0.7466785020916118 0.74292407579611364 0.41926125296327688 0.74777587146577118 0.43994795487861138 0.65268288650803663 0.44510876840643337 0.7438218760437586 0.66999803116703127 0.79600093498671887 0.68951155289616584 0.56683420274353236 0.64791648557464365 0.68531599669874044 0.76279462920003538 0.61604729899299771 0.75484634500693137 0.79813704921751139 0.66925562590666521 0.74884593179023318 0.72719284702193354 0.73697618706057777 0.60639762858889823 0.7496907651095237 0.55517380568144004 0.60594788138136391 0.58598765949653631 0.54706692113383393 0.58697607638023486 0.58332587214007858 0.64121283869689694 0.56826433836197832 0.45691914500806813 0.74061514575381582 0.46301811128701442 0.44982366055389927 0.58419358412766231 0.45123299897788444 0.49711231507892062 0.58327656855850585 0.45051592375189031 0.42842693524598996 0.47681817485105293 0.4486264580951575 0.44037156777708608 0.60878940532047343 0.51310299331242826 0.64877332301312851 0.56346420454119361 0.44901787806382537 0.50770934288927205 0.60851637600383279 0.61271191094051336 0.62184061939730861 0.61096209199705842 0.70163128973992817 0.6235625798100608 0.7006920815155917 0.68599505558358753 0.7806008199661334 0.76652602781990375 0.66027308524643924 0.70932425838610591 0.71112631382780656 0.78163973192743985 0.69462158509296323 0.68427833710275221 0.60753422861171258 0.72697394388166259 0.74743790896421436 0.75310282533855444 0.75192863323465897 0.72163740265184506 0.66741892727539731 0.71130200301242152 0.60201434954775956 0.70891239929134975 0.58765588540779801 0.6368840631234356 0.52477183784506698 0.55419423961489434 0.59745106335353915 0.69974615010951302 0.64374160497169819 0.79029537748826073 0.64187354253169016 0.62879170078240831 0.62773035878775263 0.51214684209539196 0.48987599848480257 0.46373457238624938 0.51897202385364383 0.55408170855599004 0.49061621249534604 0.51885669419768032 0.51815672377500732 0.58122852602547781 0.57606864101951594 0.51362399995637342 0.59013024836253836 0.54488335726160075 0.67060573830551151 0.5409596864491415 0.61217435561613676 0.55165578544949556 0.66809706109344735 0.65090582709965528 0.66882188789636099 0.55052061857619539 0.54124233057048221 0.58146699627694376 0.53451151749238279 0.65304921340513566 0.49438872135564221 0.53589108135385322 0.56197319004653434 0.53608249567305299 0.55947495335614439 0.56183435446907892 0.54236939205527956 0.68707511122287823 0.67058732112988806 0.58673731652571415 0.58249302214883081 0.49855476354858924 0.46461126789879126 0.7332144344429401 0.46048937871552337 0.6872142983935754 0.52489514817070548 0.53231721682754196 0.49759177103912899 0.63218864320620238 0.52601491084451824 0.52931808744020448 0.68521295934958193 0.69206602939823958 0.68788042028036167 0.61629762933451038 0.5333143465814405 0.67436713744095367 0.57979489713352372 0.5294303924169339 0.72890908729399451 0.58518470672955947 0.67404130884244784 0.6423439776845663 0.49318573380234376 0.50839307407809387 0.62230765680841305 0.69710588923644512 0.67149095246127499 0.61927730268436576 0.68679219984238615 0.69990265679764974 0.65177608960301481 0.53614284510968468 0.62237970644870833 0.66050303280649236 0.62091246657667021 0.71064170297955298 0.62342023907532873 0.69731054339066278 0.70904054268993189 0.70747833604746191 0.70374691988348725 0.72859315799209845 0.5793032620689178 0.55588423612003157 0.61195912764600946 0.65422670446533371 0.62012507683787521 0.58335528513868162 0.58012967841938223 0.54570152577929809 0.50477448592702756 0.60638245288222881 0.61175603567755188 0.63049778839443726 0.61975237337670086 0.55794844832136936 0.61159921335913514 0.67848691362611613 0.61028104162240637 0.58648286702446495 0.65582385902131035 0.67757110157791545 0.61419555729575881 0.65545119448743117 0.65448303476574587 0.61680459666785081 0.77700789650717816 0.78346463556212054 0.76241289402833967 0.76069588992881332 0.78321526895686278 0.76206558190686102 0.67826937791246267 0.58900260703595875 0.61335225223340972 0.57389676576394222 0.70297308267562997 0.68067544665921964 0.68269053359813259 0.67806762577733526 0.56878368304730675 0.56452240556489053 0.68041240391648383 0.66230871828586546 0.79473180412454336 0.52578818278243111 0.42643537553863908 0.55660494732134114 0.56166369136480943 0.66358259754446525 0.4948213701046007 0.61034334764537945 0.52863809894313374 0.5572414654581801 0.62009596641037834 0.59806447841649946 0.4846171636131284 0.55674664274216679 0.59795935749899176 0.6686864857596313 0.63101071973259548 0.47096096568395973 0.56447563422086899 0.67083201199104403 0.46778045286167153 0.56604214699861533 0.45706482223708117 0.50880156505218876 0.50953049038998144 0.58557732797153161 0.56610860468139068 0.4374717205634856 0.58953203838998802 0.51937300540048592 0.51901603490604431 0.4107494067665366 0.43422876549663847 0.40870188922128148 0.52788795307489633 0.3898006474459848 0.5230636465051256 0.48803398416463117 0.41273492513617671 0.41102491772846789 0.48824826160789264 0.38594446469284471 0.54994910159698296 0.55917038287509868 0.46673153573247556 0.52485385461303757 0.59182655272117224 0.62831923615263008 0.52449703680570969 0.62519844123931134 0.49136826583104887 0.63353920376304051 0.56069749961120685 0.55115479481218843 0.5649644127371658 0.63261991986409594 0.67151229751757713 0.66463236454195118 0.59989927291077894 0.65142346770729398 0.61296872123240098 0.57024601873600822 0.62323985934190684 0.73800601085436723 0.73808582332273509 0.73309164837353236 0.59456781262903713 0.6822440932873477 0.62894140873854454 0.57928223663513412 0.58825946915795668 0.69726379405680072 0.7190750793215599 0.80461136784790743 0.75434730654775517 0.72152662233827214 0.74344099999031732 0.73326631375443607 0.8255161399023061 0.40751828643355625 0.59975176286332055 0.56594502670947999 0.72455646521201533 0.54235770168236408 0.56280550613147762 0.52167339101159593 0.54240036193444263 0.49522509319772584 0.50532469209084774 0.50475131699468967 0.5220419405677843 0.7293424400056101 0.73591704489803278 0.65383189629500038 0.65187784804051474 0.65588431697730987 0.7315987878709117 0.73577751240977318 0.68341302795998116 0.64951537500178025 0.74626220305906965 0.75589843370656651 0.73012638838095389 0.74779271667328995 0.76252684616320021 0.74662156406445457 0.76026129421711763 0.73351363495100919 0.74522685357070484 0.75564067507262167 0.76588693632515958 0.74397466151280267 0.75794319683245248 0.74761841491540848 0.68808137766255772 0.73273853595281579 0.76062837409807849 0.68503523850154491 0.72254849618501071 0.76859591133191196 0.73848823639586958 0.7625781044487393 0.79164043602434009 0.7452780654781469 0.75688684188223776 0.737929259898356 0.73339530770717032 0.74316879379505929 0.73138514123739773 0.72826491621100664 0.73425207500568823 0.74303187205208376 0.73242559295158205 0.67823450351772185 0.73371581980890033 0.73615279463155803 0.56939982923141741 0.5414870847435449 0.59530235571185008 0.55944171364333151 0.63645773899731062 0.52796667540516096 0.69185277950367052 0.5816662167409925 0.73879583655905379 0.73281414046281612 0.74480352023555707 0.73669823785679001 0.74118328579220993 0.7394464116830004 0.7380752667633641 0.71547189175574155 0.61816880594217116 0.76309092049344063 0.63281941600674874 0.69879793324199968 0.66163520821813782 0.72440377281007817 0.6789059432718848 0.68394246056351948 0.74981595331861361 0.73587616808190004 0.75842722706943144 0.73847971425537007 0.71815986697469592 0.59322254628795101 0.72630416932095343 0.55861910586476193 0.57090175019474843 0.5566810713966025 0.54936046510468195 0.51352822740440573 0.75976736266412814 0.79024864014559948 0.77213638177159982 0.51328184616934158 0.5465233653666125 0.61114894022461064 0.57426500154433691 0.54829625241088897 0.53851914602013384 0.55180747665175067 0.7303852457581177 0.60057073169157948 0.71366641388140617 0.63880701641127302 0.67727151790652407 0.67996106136188283 0.68777669359980254 0.59738746912583929 0.6375752445042645 0.57372467936117011 0.52625009029228209 0.55718890510631591 0.54021239679733823 0.5977004591323466 0.78569675458679022 0.51930040476486594 0.68049417119893429 0.69293108787987578 0.54437008229459838 0.53267056090158593 0.72080770518171333 0.7571069266255156 0.63024897133505353 0.70399125392012041 0.75023260076570675 0.68398145856218584 0.62957633979420402 0.71203258236313216 0.53917875943879845 0.5760803911880531 0.60788974355954395 0.55236605263955618 0.59243639510539559 0.57922430024461502 0.55634828536420511 0.54990798702424759 0.63110677148725181 0.59844407342895167 0.63267738153337094 0.54822429128899119 0.55176544755740886 0.71855980806804121 0.54374884921234889 0.53306740716260181 0.74135747810831865 0.72305195666618072 0.54168306411436073 0.54675178804748215 0.53194921353083213 0.72693853120092322 0.60364117762814573 0.56702990046376689 0.56763806637873571 0.60299007872440824 0.65586819859145506 0.592500675628157 0.60351650508983201 0.63315811311357795 0.56858357654290914 0.69980002146810139 0.74018358207285717 0.72462460712391386 0.65326985378710789 0.72748449804175652 0.68112791137245032 0.69803223380987311 0.72507666333764831 0.65574804854845103 0.65556711469118067 0.69560582657311132 0.65528582637090793 0.73608915577711698 0.74052497814028084 0.74772408472913487 0.59498709893683566 0.71983986309549763 0.76837534775480754 0.72591977436507726 0.74614585735789762 0.73135854001999345 0.72511474805118459 0.72906692262785544 0.68860673805882355 0.73704019678621358 0.74509918503795247 0.75308964582693361 0.54941607115367375 0.62804423748684868 0.56574275620792036 0.52243460730767977 0.58461040164851596 0.54253111419438182 0.57763775128899553 0.62451269410337362 0.54800530743136167 0.56661157996829692 0.70507408507849512 0.57277970803071443 0.64774350785904911 0.64867052960909732 0.59914330301659957 0.63964925226225011 0.67018307342480121 0.61234468156802002 0.70763128631436145 0.70684645334704543 0.53262641253063359 0.52048826011899163 0.48722173072040442 0.49529522652756552 0.61375413709024706 0.66958932988825659 0.67715519652043477 0.59959025671466726 0.67512638159650995 0.60552521306806062 0.66849521840334236 0.68044740343807297 0.54067485451975705 0.52601872986722142 0.69245154378983464 0.59990920581750684 0.71454901502754675 0.59832457835890873 0.59645820559379503 0.71644200544897252 0.57935865027418432 0.65364098477179378 0.62411083199003259 0.57911116913096838 0.59754862787970042 0.65012624441763134 0.59890052393145143 0.66607895367143433 0.64966176590829716 0.59854406458579212 0.67708929284896169 0.71479824447885598 0.59674271007639346 0.59896014388558272 0.6801480614803751 0.61281400312728063 0.68607828763746548 0.60057734011052977 0.60091918432748859 0.68303353322055627 0.67921948984215641 0.7005837328990252 0.70010813631228064 0.70400780588036604 0.68269928530513468 0.6075492468335506 0.67429594375814961 0.70373690254997778 0.69303483012448419 0.69619033470637592 0.61179997408456344 0.67387732413153767 0.63404922237481964 0.6282515688168625 0.62366824035122559 0.64976871833799676 0.57979522034527653 0.62845272897478555 0.57274794008148322 0.58037307127271087 0.62336531828214925 0.62810586020058068 0.59357689889926335 0.69271526222756363 0.61854018158423807 0.62386088609010248 0.59094372742303602 0.57200451174454059 0.69006948333566653 0.70740522103980419 0.69886402385019142 0.59655721968036635 0.68827095567439822 0.69107819379702884 0.60628272302988229 0.6409299914294434 0.6752482657247959 0.47978957904901853 0.48726453507137241 0.70927290224951556 0.70825417220006759 0.66375437433122153 0.61810221118991704 0.6400781497377781 0.58967464311974693 0.7419578533820359 0.66191145737287693 0.66859271481875815 0.60736386948860266 0.67372572221724492 0.70543875633166531 0.64247303043519399 0.57363226839784831 0.65803539302141312 0.49820874575540031 0.75250010353456986 0.77352646339481845 0.54035323596251217 0.49842090784777765 0.77245451422205236 0.51260714357008019 0.79467391685045308 0.60701716082786505 0.81807216934640137 0.50510633411702399 0.5573939647098155 0.82153583740516711 0.55375241417827581 0.80722680409430136 0.52621870329758624 0.51255397351441012 0.75663291188190784 0.77131786146210424 0.76288595923574776 0.76176711550789744 0.52036438237764171 0.51263644050108548 0.51012544163223583 0.59981871717879731 0.65381089306129303 0.63796288940259971 0.5844445983826978 0.73679926350182634 0.69753762954492171 0.69137970752817346 0.42636631820210003 0.415290200280446 0.47241915526475436 0.47980337837278214 0.74139483609139445 0.58390945771625113 0.62998440426643854 0.58653538272043193 0.46517489837088916 0.47243621541506592 0.41532455274561686 0.40657597108138477 0.52911761983274763 0.61128986803058072 0.63202960796005292 0.48983516585677356 0.69089091446260209 0.68381761590613754 0.535867329038623 0.73263162884759903 0.51090508369969068 0.46248286372619957 0.40658244737960864 0.40027811069028441 0.75212771510069443 0.70768299178921124 0.46074186514052345 0.5539637211345636 0.59349882658932573 0.7072187571082198 0.51232315533910433 0.5926119195458649 0.46679248621211622 0.51802235797158136 0.68510261835112862 0.70692842451160864 0.45585456077654946 0.75648068577923866 0.44342585669888451 0.43471093095718222 0.68359992833254957 0.67590584547058663 0.6382910882000824 0.67372902228675846 0.72575402537372846 0.72692822134536506 0.42789005671368824 0.4685334580646851 0.37213497587613065 0.35321893415622269 0.43504024068122649 0.4286489556297623 0.411545146276871 0.44080478949956287 0.70848175235235189 0.65916719394362688 0.39255109827810558 0.38356673019014093 0.67563406362399703 0.66624647763535483 0.73638257138063834 0.72810781561768501 0.38307950976790217 0.41151578169391023 0.72895013202235348 0.73898200336729847 0.38367031907222954 0.37374227306367475 0.72599628470385258 0.71058271550111929 0.35339925160508368 0.34049395100266605 0.66596268561767724 0.65306744749711454 0.79064259996790376 0.66692407593883629 0.79178479898163057 0.50818102121601716 0.81323653688509934 0.61922293191529343 0.78437974276818934 0.6863651603674169 0.67620336382373791 0.77674135655615595 0.77281704592102984 0.69080430164115181 0.38306563429907281 0.35565881374666491 0.76776581860327975 0.71695350243643252 0.70138873538607083 0.72001949805238996 0.76192363870033164 0.74995130686072542 0.75297149649612349 0.77842743805632031 0.76122959740679574 0.75503614645094164 0.75222449713076367 0.75684820081159176 0.77970855456437727 0.77585404043858064 0.75386415551359631 0.77343809223360627 0.77808832163486152 0.77394499017370333 0.3558333010301189 0.33058730924533852 0.37385545923146907 0.36543332933147632 0.70551452331079201 0.55274401660753691 0.74213522169169799 0.73470404847336901 0.5905832999916385 0.60415295879637931 0.34073479647953819 0.33067542661299409 0.77850040042542523 0.76242238065266343 0.7817663613644229 0.76030061798