<?xml version="1.0"?>
<VTKFile type="UnstructuredGrid" version="0.1" byte_order="LittleEndian">
<UnstructuredGrid>
<Piece NumberOfPoints="714" NumberOfCells="1306">
<Points>
<DataArray type="Float64" NumberOfComponents="3" format="ascii">
0.000000000000000e+00 0.000000000000000e+00 0.000000000000000e+00 5.000000000000000e+00 0.000000000000000e+00 0.000000000000000e+00 5.000000000000000e+00 1.000000000000000e+00 0.000000000000000e+00 0.000000000000000e+00 1.000000000000000e+00 0.000000000000000e+00 9.999999999992801e-02 0.000000000000000e+00 0.000000000000000e+00 1.999999999998339e-01 0.000000000000000e+00 0.000000000000000e+00 2.999999999997341e-01 0.000000000000000e+00 0.000000000000000e+00 3.999999999996643e-01 0.000000000000000e+00 0.000000000000000e+00 4.999999999995944e-01 0.000000000000000e+00 0.000000000000000e+00 5.999999999995166e-01 0.000000000000000e+00 0.000000000000000e+00 6.999999999992880e-01 0.000000000000000e+00 0.000000000000000e+00 7.999999999989961e-01 0.000000000000000e+00 0.000000000000000e+00 8.999999999987042e-01 0.000000000000000e+00 0.000000000000000e+00 9.999999999984124e-01 0.000000000000000e+00 0.000000000000000e+00 1.099999999998120e+00 0.000000000000000e+00 0.000000000000000e+00 1.199999999997829e+00 0.000000000000000e+00 0.000000000000000e+00 1.299999999997537e+00 0.000000000000000e+00 0.000000000000000e+00 1.399999999997245e+00 0.000000000000000e+00 0.000000000000000e+00 1.499999999996953e+00 0.000000000000000e+00 0.000000000000000e+00 1.599999999996661e+00 0.000000000000000e+00 0.000000000000000e+00 1.699999999996369e+00 0.000000000000000e+00 0.000000000000000e+00 1.799999999996077e+00 0.000000000000000e+00 0.000000000000000e+00 1.899999999995785e+00 0.000000000000000e+00 0.000000000000000e+00 1.999999999995511e+00 0.000000000000000e+00 0.000000000000000e+00 2.099999999995593e+00 0.000000000000000e+00 0.000000000000000e+00 2.199999999995745e+00 0.000000000000000e+00 0.000000000000000e+00 2.299999999995897e+00 0.000000000000000e+00 0.000000000000000e+00 2.399999999996049e+00 0.000000000000000e+00 0.000000000000000e+00 2.499999999996201e+00 0.000000000000000e+00 0.000000000000000e+00 2.599999999996353e+00 0.000000000000000e+00 0.000000000000000e+00 2.699999999996505e+00 0.000000000000000e+00 0.000000000000000e+00 2.799999999996657e+00 0.000000000000000e+00 0.000000000000000e+00 2.899999999996809e+00 0.000000000000000e+00 0.000000000000000e+00 2.999999999996961e+00 0.000000000000000e+00 0.000000000000000e+00 3.099999999997114e+00 0.000000000000000e+00 0.000000000000000e+00 3.199999999997265e+00 0.000000000000000e+00 0.000000000000000e+00 3.299999999997417e+00 0.000000000000000e+00 0.000000000000000e+00 3.399999999997569e+00 0.000000000000000e+00 0.000000000000000e+00 3.499999999997721e+00 0.000000000000000e+00 0.000000000000000e+00 3.599999999997873e+00 0.000000000000000e+00 0.000000000000000e+00 3.699999999998025e+00 0.000000000000000e+00 0.000000000000000e+00 3.799999999998176e+00 0.000000000000000e+00 0.000000000000000e+00 3.899999999998329e+00 0.000000000000000e+00 0.000000000000000e+00 3.999999999998481e+00 0.000000000000000e+00 0.000000000000000e+00 4.099999999998633e+00 0.000000000000000e+00 0.000000000000000e+00 4.199999999998784e+00 0.000000000000000e+00 0.000000000000000e+00 4.299999999998937e+00 0.000000000000000e+00 0.000000000000000e+00 4.399999999999088e+00 0.000000000000000e+00 0.000000000000000e+00 4.499999999999240e+00 0.000000000000000e+00 0.000000000000000e+00 4.599999999999393e+00 0.000000000000000e+00 0.000000000000000e+00 4.699999999999545e+00 0.000000000000000e+00 0.000000000000000e+00 4.799999999999696e+00 0.000000000000000e+00 0.000000000000000e+00 4.899999999999848e+00 0.000000000000000e+00 0.000000000000000e+00 5.000000000000000e+00 9.999999999981467e-02 0.000000000000000e+00 5.000000000000000e+00 1.999999999995579e-01 0.000000000000000e+00 5.000000000000000e+00 2.999999999992664e-01 0.000000000000000e+00 5.000000000000000e+00 3.999999999989749e-01 0.000000000000000e+00 5.000000000000000e+00 4.999999999986943e-01 0.000000000000000e+00 5.000000000000000e+00 5.999999999989468e-01 0.000000000000000e+00 5.000000000000000e+00 6.999999999992100e-01 0.000000000000000e+00 5.000000000000000e+00 7.999999999994734e-01 0.000000000000000e+00 5.000000000000000e+00 8.999999999997368e-01 0.000000000000000e+00 4.899999999999999e+00 1.000000000000000e+00 0.000000000000000e+00 4.800000000000000e+00 1.000000000000000e+00 0.000000000000000e+00 4.699999999999999e+00 1.000000000000000e+00 0.000000000000000e+00 4.600000000000000e+00 1.000000000000000e+00 0.000000000000000e+00 4.499999999999999e+00 1.000000000000000e+00 0.000000000000000e+00 4.399999999999999e+00 1.000000000000000e+00 0.000000000000000e+00 4.299999999999999e+00 1.000000000000000e+00 0.000000000000000e+00 4.199999999999998e+00 1.000000000000000e+00 0.000000000000000e+00 4.099999999999999e+00 1.000000000000000e+00 0.000000000000000e+00 3.999999999999999e+00 1.000000000000000e+00 0.000000000000000e+00 3.899999999999999e+00 1.000000000000000e+00 0.000000000000000e+00 3.799999999999999e+00 1.000000000000000e+00 0.000000000000000e+00 3.699999999999998e+00 1.000000000000000e+00 0.000000000000000e+00 3.599999999999999e+00 1.000000000000000e+00 0.000000000000000e+00 3.499999999999999e+00 1.000000000000000e+00 0.000000000000000e+00 3.399999999999999e+00 1.000000000000000e+00 0.000000000000000e+00 3.299999999999999e+00 1.000000000000000e+00 0.000000000000000e+00 3.199999999999998e+00 1.000000000000000e+00 0.000000000000000e+00 3.099999999999999e+00 1.000000000000000e+00 0.000000000000000e+00 2.999999999999999e+00 1.000000000000000e+00 0.000000000000000e+00 2.899999999999999e+00 1.000000000000000e+00 0.000000000000000e+00 2.799999999999999e+00 1.000000000000000e+00 0.000000000000000e+00 2.699999999999999e+00 1.000000000000000e+00 0.000000000000000e+00 2.599999999999999e+00 1.000000000000000e+00 0.000000000000000e+00 2.500000000000000e+00 1.000000000000000e+00 0.000000000000000e+00 2.399999999999999e+00 1.000000000000000e+00 0.000000000000000e+00 2.299999999999999e+00 1.000000000000000e+00 0.000000000000000e+00 2.199999999999999e+00 1.000000000000000e+00 0.000000000000000e+00 2.100000000000000e+00 1.000000000000000e+00 0.000000000000000e+00 2.000000000000000e+00 1.000000000000000e+00 0.000000000000000e+00 1.899999999999999e+00 1.000000000000000e+00 0.000000000000000e+00 1.799999999999999e+00 1.000000000000000e+00 0.000000000000000e+00 1.699999999999999e+00 1.000000000000000e+00 0.000000000000000e+00 1.599999999999999e+00 1.000000000000000e+00 0.000000000000000e+00 1.500000000000000e+00 1.000000000000000e+00 0.000000000000000e+00 1.399999999999999e+00 1.000000000000000e+00 0.000000000000000e+00 1.299999999999999e+00 1.000000000000000e+00 0.000000000000000e+00 1.199999999999999e+00 1.000000000000000e+00 0.000000000000000e+00 1.100000000000000e+00 1.000000000000000e+00 0.000000000000000e+00 9.999999999999991e-01 1.000000000000000e+00 0.000000000000000e+00 8.999999999999995e-01 1.000000000000000e+00 0.000000000000000e+00 7.999999999999998e-01 1.000000000000000e+00 0.000000000000000e+00 7.000000000000002e-01 1.000000000000000e+00 0.000000000000000e+00 5.999999999999996e-01 1.000000000000000e+00 0.000000000000000e+00 4.999999999999991e-01 1.000000000000000e+00 0.000000000000000e+00 3.999999999999995e-01 1.000000000000000e+00 0.000000000000000e+00 3.000000000000007e-01 1.000000000000000e+00 0.000000000000000e+00 1.999999999999993e-01 1.000000000000000e+00 0.000000000000000e+00 9.999999999999964e-02 1.000000000000000e+00 0.000000000000000e+00 0.000000000000000e+00 8.999999999995836e-01 0.000000000000000e+00 0.000000000000000e+00 7.999999999999998e-01 0.000000000000000e+00 0.000000000000000e+00 7.000000000006934e-01 0.000000000000000e+00 0.000000000000000e+00 6.000000000013869e-01 0.000000000000000e+00 0.000000000000000e+00 5.000000000020587e-01 0.000000000000000e+00 0.000000000000000e+00 4.000000000016644e-01 0.000000000000000e+00 0.000000000000000e+00 3.000000000012483e-01 0.000000000000000e+00 0.000000000000000e+00 2.000000000008322e-01 0.000000000000000e+00 0.000000000000000e+00 1.000000000004160e-01 0.000000000000000e+00 7.477570327540725e-01 4.905967956478702e-01 0.000000000000000e+00 1.346210646643281e+00 4.806066422083806e-01 0.000000000000000e+00 1.949496869330408e+00 5.032480558805372e-01 0.000000000000000e+00 4.449999999999997e+00 5.000000000000384e-01 0.000000000000000e+00 3.859142349610828e+00 5.103468031113156e-01 0.000000000000000e+00 3.246530027037640e+00 5.183101712757180e-01 0.000000000000000e+00 2.657531292711257e+00 5.037429884868682e-01 0.000000000000000e+00 3.824015840967434e-01 6.064457502813875e-01 0.000000000000000e+00 2.306343155343502e+00 6.315316747431162e-01 0.000000000000000e+00 1.049999999998266e+00 3.374999999994497e-01 0.000000000000000e+00 1.641930697057102e+00 3.436055112169133e-01 0.000000000000000e+00 4.150000000000006e+00 6.625000000000185e-01 0.000000000000000e+00 3.552784161359181e+00 6.642488388863971e-01 0.000000000000000e+00 2.940292465243163e+00 6.575992780735344e-01 0.000000000000000e+00 1.641237689750194e+00 6.703960699373966e-01 0.000000000000000e+00 1.050000000000000e+00 6.706367924525535e-01 0.000000000000000e+00 2.960517759676693e+00 3.261740577967960e-01 0.000000000000000e+00 3.551899302943298e+00 3.210887133285832e-01 0.000000000000000e+00 4.150779393876139e+00 3.209867287821391e-01 0.000000000000000e+00 2.213980362532827e+00 3.194901812685164e-01 0.000000000000000e+00 4.927283029162088e-01 3.252862896001115e-01 0.000000000000000e+00 4.696684455724628e+00 3.145438084075651e-01 0.000000000000000e+00 4.690990908683984e+00 6.962960281446974e-01 0.000000000000000e+00 2.487221901830106e+00 2.763334294511438e-01 0.000000000000000e+00 6.215262983536076e-01 7.328515730233995e-01 0.000000000000000e+00 2.065768881873406e+00 7.342557316219342e-01 0.000000000000000e+00 2.543072460766750e+00 7.257064952909391e-01 0.000000000000000e+00 8.105176211436336e-01 2.535517621144286e-01 0.0000000000000
[...]
<CellData Scalars="A_conc,As-lin_conc,B_conc,Bs-lang_conc,C_conc,Cs-freund_conc," Vectors="" Tensors="">
<DataArray type="Float64" Name="A_conc" format="ascii">
1.622492296975718e-07 7.783654745360635e-02 0.000000000000000e+00 2.785830606711682e-07 4.642864099023301e-02 2.774342025414752e-10 1.657146877309510e-09 1.308098619749837e-02 6.969076196245380e-02 2.939468049057131e-07 0.000000000000000e+00 2.189246540808399e-08 2.160079568914867e-08 0.000000000000000e+00 4.487574628063012e-07 1.714682243594330e-07 6.349061591065130e-07 6.764929998872993e-07 2.402729635164142e-13 4.469673455904342e-07 3.597705018634534e-10 2.166276322457989e-08 2.001185773024840e-08 2.172698283577870e-08 1.673240199224241e-07 1.201314924786356e-08 9.536130836736638e-08 3.731709953907079e-02 2.528847889010220e-07 4.210906946916145e-07 8.392796379963157e-09 2.838601119740788e-07 1.642163766801648e-09 0.000000000000000e+00 2.752310628975121e-12 6.114192128499479e-02 7.771752745295170e-09 5.379385878294624e-10 1.352908586232052e-08 4.974529655817036e-02 0.000000000000000e+00 4.449659691326783e-08 0.000000000000000e+00 1.191836586492057e-13 8.472549312321314e-11 1.077961710344996e-10 7.641118481187068e-07 1.351726896157364e-04 2.322635730425871e-14 1.235463563623020e-11 6.891766940413405e-02 9.317114622908103e-08 3.091432204079477e-08 5.661575737184164e-02 6.660688700062770e-02 8.445543911515178e-02 7.754334920793285e-10 1.068364140310213e-02 3.241399219666929e-02 4.816007966439927e-07 0.000000000000000e+00 1.183170174467134e-02 7.865672130154288e-07 1.040055033458530e-11 2.700282723416264e-11 4.899728973028067e-09 7.061039659427999e-05 2.775713879466472e-10 7.472469001282844e-02 2.824550197063407e-02 5.575763946989034e-11 0.000000000000000e+00 1.130545556487835e-08 7.298807400225068e-07 3.182754130952340e-04 4.973758489654524e-13 4.231686208580302e-08 6.995748558239688e-11 1.294911927313983e-03 6.998552923137871e-12 1.084847042898555e-07 1.663597307906282e-12 1.173142664829045e-09 0.000000000000000e+00 7.039284997972790e-06 4.805390429226035e-08 6.448747966128567e-12 6.761150295524542e-04 6.543197085883966e-08 3.117752865620923e-10 1.117291815391069e-16 1.327919608552331e-05 2.109122803703454e-02 2.508941385751602e-06 1.730255251856514e-11 4.244139092650609e-07 2.241628173042253e-06 1.407177628515586e-02 0.000000000000000e+00 3.237441289901788e-02 1.541816135768081e-13 7.587989977171597e-08 8.248924595335078e-08 2.374386642244533e-06 3.138094081635601e-08 5.015389455867685e-04 4.542878780378406e-07 3.934781011000303e-02 2.713366883061648e-08 9.707037304138783e-04 1.201838866793921e-11 6.537711012728538e-08 5.729820804029693e-08 2.644687552785135e-09 2.041278305204138e-07 1.646493367448352e-02 4.624023747291217e-07 7.257797394044913e-10 1.871453515590808e-11 3.705918215622953e-02 2.856355010366536e-11 5.066290878161829e-08 5.663685471256512e-13 1.133590732496203e-07 3.384184484298478e-02 2.660570139187380e-10 0.000000000000000e+00 3.493063473772288e-08 2.000406756062176e-02 3.711564405001816e-03 1.578718651330133e-12 3.008884690850933e-10 1.279940933088098e-03 5.585596900610225e-03 4.356180709355899e-08 1.770380130714867e-11 4.950810512483112e-07 8.160381089085315e-02 7.847365851157675e-05 1.569441647870676e-08 1.341968953904002e-09 3.266321591317230e-02 1.711066747433058e-07 4.178219296944532e-12 8.546795068306860e-23 0.000000000000000e+00 3.379913037154357e-04 1.912352471025749e-09 9.394042251786421e-11 7.047752987419508e-04 1.703007797230855e-09 1.570027996709483e-11 3.190592364544550e-08 2.558738849144883e-05 1.327330459590246e-11 0.000000000000000e+00 5.409637051080647e-09 2.088255999559720e-02 1.196543348446762e-08 0.000000000000000e+00 7.590741611810858e-07 3.069832291166128e-03 5.280524952765859e-13 0.000000000000000e+00 6.665746246251694e-13 1.110551360513584e-07 8.645405919245488e-08 3.600501962040248e-11 1.950885605085126e-11 0.000000000000000e+00 1.469976244755964e-07 1.387617291159475e-08 0.000000000000000e+00 0.000000000000000e+00 1.380481565848526e-10 3.724113550676838e-07 1.001536236175416e-02 0.000000000000000e+00 5.178899560113899e-12 2.503872735141073e-11 1.482273218096611e-06 1.347060596584950e-02 5.283449432303143e-02 1.109298648492543e-10 4.576802725529411e-12 1.008309693634828e-08 5.347133571380748e-08 1.325963560717892e-10 0.000000000000000e+00 3.709011623619319e-10 1.247184422608560e-08 2.067187479092560e-08 5.832945681650907e-07 2.198557380584193e-07 9.611734307500879e-08 5.722461386199109e-10 1.964687694092997e-07 1.087864285056026e-07 0.000000000000000e+00 0.000000000000000e+00 7.848276889766179e-08 2.084900951911922e-12 9.465652895861477e-02 4.006176867968583e-10 2.112446228216944e-07 8.663936049496102e-03 2.033868451221045e-12 2.391321121802223e-09 4.667449694827178e-07 5.952887077144917e-02 2.523706582084470e-10 0.000000000000000e+00 9.237005181229780e-09 1.818185765477898e-07 6.530902507952418e-07 9.543718874776785e-12 1.019206197931938e-07 2.598537154516948e-12 3.065198744275163e-07 1.538151992244933e-13 9.684233250820449e-15 4.261553431702599e-02 4.522147109856856e-10 6.980756382506831e-10 2.751938212935559e-09 8.941396758606253e-02 1.435487161585049e-07 2.220961454214767e-08 0.000000000000000e+00 1.157053830797318e-09 1.521116363067668e-09 8.462464150422190e-08 1.495753125527116e-07 4.436327067020271e-08 2.219535006945352e-07 3.132756599334580e-05 1.994504271970409e-04 3.554061920969336e-09 1.128689979467973e-07 0.000000000000000e+00 3.577413344106967e-04 5.491391732251178e-09 1.260081846522874e-10 1.176974786368145e-12 8.481452286406675e-19 3.784194724585393e-06 1.621466069292130e-02 0.000000000000000e+00 8.248954744319581e-07 0.000000000000000e+00 7.068653615366588e-12 4.239405062744307e-11 0.000000000000000e+00 3.141032622894050e-06 1.577810303222445e-02 1.596499560550805e-02 2.687502684866969e-07 0.000000000000000e+00 6.245678444706049e-07 0.000000000000000e+00 2.298954546806398e-10 1.275260890125342e-09 2.823905935108845e-05 1.077730424247876e-05 6.405182212629398e-09 6.525123763361735e-07 1.115539859770808e-07 2.527184755867395e-07 1.152567472881734e-09 0.000000000000000e+00 2.555643270953892e-12 3.722901777404405e-10 7.936900597067363e-04 1.670835971272456e-11 2.937782317080396e-08 5.090360503276586e-07 6.355877040716317e-08 3.606573087112502e-07 2.377545302671111e-08 2.713860674889610e-08 5.821418068014925e-11 2.288188135109371e-03 8.134473551102612e-12 6.963495370297451e-07 3.856060085755150e-02 8.690774511421790e-09 2.076947450728148e-08 2.900492944954996e-09 2.553218409978030e-08 2.812644025928994e-05 7.789099601045450e-10 1.428812824253511e-12 2.654651746146117e-10 3.041301893372078e-10 1.482093650353675e-14 1.851142059983616e-11 1.193667422511904e-09 5.089104010911799e-07 0.000000000000000e+00 1.047369851131316e-11 4.035726490262116e-18 6.023384918924331e-11 1.285331711437062e-05 1.994608716299933e-02 1.993304187061972e-08 4.876053005910280e-07 4.580109898483824e-07 3.469419241917407e-02 2.406078397965280e-05 1.019007590427180e-17 6.079156262924244e-05 8.289259788949822e-16 0.000000000000000e+00 4.259239161339348e-10 0.000000000000000e+00 3.925916812412410e-08 1.904890949704581e-13 2.084335232710607e-13 6.981974552380850e-02 1.067407095740357e-02 8.134571385467486e-03 1.745740248788109e-09 2.152448960405286e-09 5.476015581152839e-08 5.680364378428133e-11 2.446956763213029e-06 6.138477369232957e-07 2.369421871154447e-08 4.367486661841091e-19 3.380593479509670e-07 8.228473714979312e-02 7.972270970096745e-02 8.021648736389243e-02 8.200991264033693e-02 3.015186559160424e-02 4.788324482200203e-07 2.351425184216490e-07 1.029788679548503e-10 8.156361349364911e-08 8.167485510755226e-11 1.542795254894272e-12 1.526261643571588e-07 0.000000000000000e+00 5.470094265098555e-02 0.000000000000000e+00 3.326498476615136e-07 1.746533486854778e-10 0.000000000000000e+00 7.273424406549142e-08 9.227627022462477e-10 9.112259972092365e-02 0.000000000000000e+00 2.387785636285544e-08 8.338117972688452e-14 8.574775646405556e-07 1.421333782351176e-02 8.959823632549055e-11 2.088184725336324e-10 2.069375100944883e-07 5.720777086901248e-10 6.620413957958722e-07 2.931406107457383e-12 7.054687424628188e-07 4.943035692130772e-03 2.887679799325224e-07 5.725117789446360e-03 9.380658734643733e-10 8.739841110959965e-06 1.293675806469486e-07 7.347508243818192e-02 9.502168955681400e-02 9.502169214448834e-02 4.466005870776029e-02 4.401007026515720e-02 0.000000000000000e+00 2.386080312621054e-10 1.934569603917401e-02 1.356886028326942e-10 9.744042887389889e-03 2.919111055704095e-11 7.277775945104788e-02 6.177423175702016e-07 1.282880101587594e-07 7.079255562300116e-05 8.034890883266594e-16 7.651346474336170e-11 2.431285761015207e-10 0.000000000000000e+00 1.373244734561105e-13 4.297827098635161e-02 7.176097553571499e-02 8.284956306210462e-12 2.107209934235652e-08 1.219185977306186e-10 2.390033249546711e-09 5.959480386332979e-07 3.044051441139868e-07 1.990963536622426e-03 9.926681116514213e-04 5.614634226846976e-09 9.796726363216922e-23 6.592284745945738e-02 1.155590536597100e-10 2.129434261110687e-07 2.187874753458791e-07 2.018922825871968e-07 6.861867686347281e-09 1.934484913889285e-10 5.711151054241363e-02 1.379273859331218e-03 0.000000000000000e+00 9.475743958865358e-02 0.000000000000000e+00 4.534722550404213e-08 6.935728582493907e-03 6.821652119974073e-02 1.158821160004399e-08 2.795851253921919e-08 2.935675957356969e-07 1.910819239208753e-13 4.023893934023475e-09 2.559115192140142e-11 8.464578167503694e-04 3.374743484835316e-02 6.080679027940008e-10 2.348689131861193e-08 3.767256608063577e-10 1.867012544792397e-10 8.291832117504814e-14 9.298510184175912e-05 3.041592317593806e-02 2.008232299668897e-07 2.492977469704695e-10 3.870046086195953e-15 4.329799298439340e-05 2.661293471309819e-02 1.983898404776112e-07 2.097663471345256e-11 8.157596117574274e-06 1.587542745716243e-07 0.000000000000000e+00 9.101495048678784e-07 1.255776313888639e-05 3.680365465524926e-03 4.095392416162661e-09 8.402742807341181e-03 2.100271218069370e-07 0.000000000000000e+00 7.069445810932249e-07 8.696311532792003e-02 0.000000000000000e+00 7.041027351838319e-09 1.396648576661438e-09 8.294901081452630e-02 2.167067099848804e-03 5.567340119581309e-10 0.000000000000000e+00 3.571066496947869e-08 0.000000000000000e+00 1.690100205416295e-11 5.332171682342927e-02 6.913590680391288e-02 6.943879649861982e-07 0.000000000000000e+00 5.754898611569454e-09 2.573910132302898e-07 8.356258463707615e-02 8.015868745936806e-02 3.989152631077057e-08 9.482565202726679e-03 0.000000000000000e+00 0.000000000000000e+00 0.000000000000000e+00 6.701177169962547e-02 6.137438434850846e-02 6.544592618866901e-02 3.716626189197843e-08 4.532260646988457e-08 7.482581502148057e-10 0.000000000000000e+00 3.010307772878031e-02 1.180596054960972e-08 4.472073463093915e-02 4.892240266973348e-07 2.133901665836690e-11 1.819671653926172e-12 1.841887243034973e-02 3.701140003902680e-06 1.027427661341883e-06 1.649442488349471e-07 1.640724839352422e-03 7.980701933041577e-02 4.892471615898288e-02 6.103462270963302e-03 1.240109823684542e-02 1.060184121673563e-06 0.000000000000000e+00 3.846787219104308e-02 7.254985538030266e-17 4.960827644125054e-02 8.211433877524979e-11 1.693329187801100e-07 2.270687656507874e-07 1.178225389168715e-03 3.406722721527754e-11 8.301898126697399e-05 5.171815308684360e-08 2.266304732020875e-08 5.520033953153724e-11 0.000000000000000e+00 3.966838410845772e-02 6.339404552191007e-07 0.000000000000000e+00 4.755573690408738e-07 1.084929856934365e-09 1.094133653758875e-07 4.185316389599606e-03 2.797265582498651e-02 5.057694568630990e-02 5.205100341308319e-02 3.186742708392584e-07 7.566922004132814e-07 2.534327939548619e-10 1.102743231079402e-11 5.823642120821230e-02 4.221795407987285e-02 3.400272913375327e-08 1.215425600761580e-02 0.000000000000000e+00 6.135233655782676e-02 0.000000000000000e+00 8.953384547110059e-08 4.603873542506197e-02 1.928906531816722e-02 0.000000000000000e+00 8.781518904242374e-11 0.000000000000000e+00 2.470443936833007e-07 1.918470085018045e-07 3.930869623340198e-02 3.101044023984761e-11 2.066383261401152e-02 2.679656894417939e-12 1.251855814806695e-05 7.080257060727865e-18 1.255321714249065e-11 2.911410247308150e-12 4.852479812795878e-02 0.000000000000000e+00 3.763485109691761e-07 8.640260597351484e-07 2.363845917123603e-08 2.882796103180543e-09 1.602143767860042e-03 2.392943744831184e-10 4.564915978924556e-07 3.344032447028004e-02 6.342404595612858e-02 3.901449234624247e-07 3.173655271664270e-07 2.284739795140638e-10 3.708362941219374e-08 9.930234034694237e-09 9.049255392820593e-15 1.143191964107782e-04 1.273962567656680e-08 4.607330857613331e-03 9.227735204502327e-07 7.502294010373958e-02 6.268940029680042e-07 1.397656220167984e-08 5.356443403834896e-02 5.085333096511749e-02 1.353413747119390e-10 3.501003185957869e-02 3.794463223323907e-02 2.039210475073037e-10 0.000000000000000e+00 8.971240971114869e-06 1.200074598904825e-07 0.000000000000000e+00 7.349769231119332e-02 6.940160157745025e-02 3.425140047815473e-08 3.779226660284992e-09 5.390343627766092e-07 0.000000000000000e+00 0.000000000000000e+00 1.750613365878489e-09 2.435912984165424e-02 1.053341377330128e-09 7.396840294756173e-10 2.115731269621235e-03 6.238342784440211e-10 3.104999824890060e-03 8.312793344289772e-02 7.897840762206287e-02 1.536332419682775e-08 2.416304985273724e-11 6.981902247160143e-07 5.924693236495926e-11 8.860465920429646e-10 6.547047249438146e-04 9.384368659650204e-07 7.479673158368292e-12 7.267467694297250e-02 6.673661662226980e-12 2.461814287557258e-09 5.089046631325590e-11 0.000000000000000e+00 8.264442318760273e-09 8.009914285593480e-07 2.704912168098616e-11 1.394343278791900e-08 3.816423101337853e-02 1.493113885767888e-08 2.392174628514813e-09 0.000000000000000e+00 4.939071467925827e-18 1.859224518740330e-10 7.971932994343171e-03 0.000000000000000e+00 9.541797374196132e-11 4.389287290797554e-07 2.411954794057557e-02 3.954047531813160e-11 0.000000000000000e+00 1.799934113747384e-09 7.149947449512458e-07 2.609842213434287e-07 1.100327175763876e-02 8.599233331037279e-03 1.820323628113800e-10 0.000000000000000e+00 8.409485245988352e-04 1.086223816074257e-07 1.913285589277664e-10 6.203613015286917e-07 8.886243511601881e-09 1.537418078587756e-13 2.231088330450037e-04 3.286885645640157e-09 4.528199929706306e-09 2.688388660133499e-09 4.104275637353402e-04 6.878967197768610e-10 1.160215405969822e-11 0.000000000000000e+00 4.662414501730378e-10 2.768652115695792e-09 1.592733650109451e-07 4.837423412240945e-02 1.096388700123198e-06 1.221804187249624e-08 1.289988586928030e-03 8.396367080601387e-11 1.790542400559864e-07 2.620334551827341e-02 2.342915250517393e-02 2.064299643676425e-08 8.202237414552024e-09 1.333201008410850e-02 2.727039985527263e-07 3.040172442318770e-09 8.482450569441352e-10 1.419921872556192e-10 0.000000000000000e+00 0.000000000000000e+00 0.000000000000000e+00 3.232442516907142e-09 1.579554484617970e-07 1.621510107523107e-02 1.353479620676257e-02 0.000000000000000e+00 5.953713290179958e-10 7.653627083509133e-10 7.974934180521431e-11 6.757258654026554e-08 3.007051041807717e-16 1.115680988346421e-11 7.291327054014541e-11 9.899734494816774e-12 2.480067265309275e-05 7.812195155418638e-07 0.000000000000000e+00 5.823051955432666e-02 4.801325269538181e-07 9.177054684850119e-02 9.118315970708654e-02 1.494227463003869e-12 7.380519175791768e-07 3.008892411321118e-07 7.656595432533580e-08 0.000000000000000e+00 4.374371943952116e-09 4.162838149595732e-09 2.658535843347524e-12 4.809380276111762e-09 4.740544069700164e-04 0.000000000000000e+00 2.829732083559422e-02 1.265018429778612e-10 8.721990500581507e-02 9.148775997047993e-02 9.160718460877045e-02 8.734370469137204e-02 8.580529736486693e-02 8.640843002960213e-02 3.354441434446369e-08 3.448240873242532e-04 4.465421097281895e-21 4.976502125437443e-21 2.118227263733848e-09 2.003039007727625e-12 3.444217884421511e-07 1.454108591770371e-09 5.340829495832528e-02 2.132804285443720e-12 1.180064225753725e-08 1.217817721663373e-07 1.325137638315522e-07 2.253857466406382e-04 9.658564070834019e-09 9.737390560295135e-07 8.871735702179030e-08 3.617974718234015e-08 0.000000000000000e+00 6.014540179094022e-11 1.704633706758231e-07 1.924646851363667e-10 4.062992830982026e-11 9.295032387130607e-15 3.900689255722464e-03 2.106436373348143e-09 8.685061596587944e-09 2.747786266569899e-07 3.186930854854951e-09 3.579583629663062e-11 2.006813684843810e-08 7.693249558272801e-07 4.942536715794318e-05 2.888935776406412e-08 9.762535273956101e-09 9.946832799753917e-15 3.233116669867131e-16 7.959173533363911e-11 3.792055500781374e-03 6.201965618580862e-09 2.903847099484924e-07 0.000000000000000e+00 9.619259199351213e-02 9.619259293607098e-02 3.702776556126837e-10 2.911465362629699e-02 5.019288963998825e-14 1.668218381725599e-07 1.055653198770163e-07 9.141156416952793e-04 5.717256279579451e-09 1.200044909930100e-11 8.456662296885529e-07 5.417793364280763e-08 9.121428137794227e-02 9.121428420740099e-02 1.791605894422901e-04 5.329596682869367e-02 4.876877827730409e-02 3.679840618380813e-02 2.351573006235411e-07 6.587818722431641e-11 6.189406661605160e-02 5.752790224277442e-02 3.907092178042843e-09 2.516949832364891e-11 1.866726997038802e-07 2.121025295622798e-11 8.513187142282335e-12 5.181270466873736e-02 4.200489754985939e-17 8.653862628602391e-02 8.661844398902548e-02 3.297377171637496e-09 1.345595849166580e-08 5.511606032687947e-03 1.754857906230419e-08 2.397350118198155e-08 1.087463503437936e-09 1.581385707561637e-07 1.533178473068180e-02 2.345140660512643e-02 8.061021680007422e-07 7.007885886384267e-07 1.934196342204014e-11 2.059424606885337e-11 0.000000000000000e+00 1.422930248338635e-09 2.921980071093643e-02 2.116656070461377e-09 3.286122834110408e-10 3.288175570241728e-03 2.059387718540651e-03 4.136639995449405e-16 5.930728411746000e-07 2.486722169699560e-08 1.902680627727504e-08 6.132780558484597e-05 6.983093115161963e-09 1.400697482496333e-23 4.829602349482966e-06 1.702960666036313e-02 7.182805144455060e-03 8.806593038043447e-08 5.063682003537473e-18 5.288221577697036e-09 3.965054278976991e-09 8.651459484207122e-05 6.501685565498332e-07 1.539405890580171e-11 4.764899665125179e-07 1.780545583375072e-07 1.210999419077979e-02 3.704657828669499e-18 6.582876315477970e-02 2.966145773261942e-06 2.318690892357874e-02 9.447622977262294e-13 6.274132616843604e-09 1.885578622565705e-04 8.463077410636711e-10 2.085133752816903e-02 0.000000000000000e+00 0.000000000000000e+00 2.897262856508016e-07 7.185216683275516e-07 1.436808917856946e-09 0.000000000000000e+00 7.170127036154522e-02 7.484132263823784e-02 2.302440549695842e-07 2.136536335506343e-05 9.770787522402448e-18 6.664497020508342e-02 4.839201659617582e-11 2.897432511106928e-07 3.659385573877590e-07 5.611195410503312e-02 6.062154366701181e-02 3.020367347006335e-09 1.349511530989880e-10 1.181339285951065e-12 2.158778708313580e-04 5.322791417069023e-08 4.607299048698814e-08 2.166923823458207e-06 9.520803510398170e-11 2.076480222064865e-12 1.129390114019969e-08 0.000000000000000e+00 6.160692154247141e-02 6.805074311266757e-13 0.000000000000000e+00 7.067517239224270e-07 7.482950959189900e-02 8.681472118365968e-02 9.134293385071564e-02 4.933759352884903e-04 6.371324836111956e-12 0.000000000000000e+00 0.000000000000000e+00 7.261906579445143e-11 1.086754277565572e-02 6.396595223418335e-07 3.463255922799108e-07 1.123532299071087e-06 6.951439485250704e-14 2.597749303037303e-15 4.591171876966504e-07 5.371179284916071e-08 2.244943542524023e-07 6.423268745848923e-11 6.783855542001071e-13 1.795847988014985e-10 0.000000000000000e+00 2.317609655127871e-08 4.804221921025546e-09 3.833597039224254e-03 2.294128858386035e-12 4.722653061903686e-12 6.950557177242622e-09 1.737277584665388e-02 0.000000000000000e+00 5.272870385629631e-04 0.000000000000000e+00 3.705894193511110e-13 4.272050355932686e-13 2.308654492177920e-05 7.167646607480542e-02 0.000000000000000e+00 0.000000000000000e+00 1.186818482394595e-06 5.043051187659221e-02 7.047670127638506