<?xml version="1.0"?>
<VTKFile type="UnstructuredGrid" version="0.1" byte_order="LittleEndian">
<UnstructuredGrid>
<Piece NumberOfPoints="714" NumberOfCells="1306">
<Points>
<DataArray type="Float64" NumberOfComponents="3" format="ascii">
0.000000000000000e+00 0.000000000000000e+00 0.000000000000000e+00 5.000000000000000e+00 0.000000000000000e+00 0.000000000000000e+00 5.000000000000000e+00 1.000000000000000e+00 0.000000000000000e+00 0.000000000000000e+00 1.000000000000000e+00 0.000000000000000e+00 9.999999999992801e-02 0.000000000000000e+00 0.000000000000000e+00 1.999999999998339e-01 0.000000000000000e+00 0.000000000000000e+00 2.999999999997341e-01 0.000000000000000e+00 0.000000000000000e+00 3.999999999996643e-01 0.000000000000000e+00 0.000000000000000e+00 4.999999999995944e-01 0.000000000000000e+00 0.000000000000000e+00 5.999999999995166e-01 0.000000000000000e+00 0.000000000000000e+00 6.999999999992880e-01 0.000000000000000e+00 0.000000000000000e+00 7.999999999989961e-01 0.000000000000000e+00 0.000000000000000e+00 8.999999999987042e-01 0.000000000000000e+00 0.000000000000000e+00 9.999999999984124e-01 0.000000000000000e+00 0.000000000000000e+00 1.099999999998120e+00 0.000000000000000e+00 0.000000000000000e+00 1.199999999997829e+00 0.000000000000000e+00 0.000000000000000e+00 1.299999999997537e+00 0.000000000000000e+00 0.000000000000000e+00 1.399999999997245e+00 0.000000000000000e+00 0.000000000000000e+00 1.499999999996953e+00 0.000000000000000e+00 0.000000000000000e+00 1.599999999996661e+00 0.000000000000000e+00 0.000000000000000e+00 1.699999999996369e+00 0.000000000000000e+00 0.000000000000000e+00 1.799999999996077e+00 0.000000000000000e+00 0.000000000000000e+00 1.899999999995785e+00 0.000000000000000e+00 0.000000000000000e+00 1.999999999995511e+00 0.000000000000000e+00 0.000000000000000e+00 2.099999999995593e+00 0.000000000000000e+00 0.000000000000000e+00 2.199999999995745e+00 0.000000000000000e+00 0.000000000000000e+00 2.299999999995897e+00 0.000000000000000e+00 0.000000000000000e+00 2.399999999996049e+00 0.000000000000000e+00 0.000000000000000e+00 2.499999999996201e+00 0.000000000000000e+00 0.000000000000000e+00 2.599999999996353e+00 0.000000000000000e+00 0.000000000000000e+00 2.699999999996505e+00 0.000000000000000e+00 0.000000000000000e+00 2.799999999996657e+00 0.000000000000000e+00 0.000000000000000e+00 2.899999999996809e+00 0.000000000000000e+00 0.000000000000000e+00 2.999999999996961e+00 0.000000000000000e+00 0.000000000000000e+00 3.099999999997114e+00 0.000000000000000e+00 0.000000000000000e+00 3.199999999997265e+00 0.000000000000000e+00 0.000000000000000e+00 3.299999999997417e+00 0.000000000000000e+00 0.000000000000000e+00 3.399999999997569e+00 0.000000000000000e+00 0.000000000000000e+00 3.499999999997721e+00 0.000000000000000e+00 0.000000000000000e+00 3.599999999997873e+00 0.000000000000000e+00 0.000000000000000e+00 3.699999999998025e+00 0.000000000000000e+00 0.000000000000000e+00 3.799999999998176e+00 0.000000000000000e+00 0.000000000000000e+00 3.899999999998329e+00 0.000000000000000e+00 0.000000000000000e+00 3.999999999998481e+00 0.000000000000000e+00 0.000000000000000e+00 4.099999999998633e+00 0.000000000000000e+00 0.000000000000000e+00 4.199999999998784e+00 0.000000000000000e+00 0.000000000000000e+00 4.299999999998937e+00 0.000000000000000e+00 0.000000000000000e+00 4.399999999999088e+00 0.000000000000000e+00 0.000000000000000e+00 4.499999999999240e+00 0.000000000000000e+00 0.000000000000000e+00 4.599999999999393e+00 0.000000000000000e+00 0.000000000000000e+00 4.699999999999545e+00 0.000000000000000e+00 0.000000000000000e+00 4.799999999999696e+00 0.000000000000000e+00 0.000000000000000e+00 4.899999999999848e+00 0.000000000000000e+00 0.000000000000000e+00 5.000000000000000e+00 9.999999999981467e-02 0.000000000000000e+00 5.000000000000000e+00 1.999999999995579e-01 0.000000000000000e+00 5.000000000000000e+00 2.999999999992664e-01 0.000000000000000e+00 5.000000000000000e+00 3.999999999989749e-01 0.000000000000000e+00 5.000000000000000e+00 4.999999999986943e-01 0.000000000000000e+00 5.000000000000000e+00 5.999999999989468e-01 0.000000000000000e+00 5.000000000000000e+00 6.999999999992100e-01 0.000000000000000e+00 5.000000000000000e+00 7.999999999994734e-01 0.000000000000000e+00 5.000000000000000e+00 8.999999999997368e-01 0.000000000000000e+00 4.899999999999999e+00 1.000000000000000e+00 0.000000000000000e+00 4.800000000000000e+00 1.000000000000000e+00 0.000000000000000e+00 4.699999999999999e+00 1.000000000000000e+00 0.000000000000000e+00 4.600000000000000e+00 1.000000000000000e+00 0.000000000000000e+00 4.499999999999999e+00 1.000000000000000e+00 0.000000000000000e+00 4.399999999999999e+00 1.000000000000000e+00 0.000000000000000e+00 4.299999999999999e+00 1.000000000000000e+00 0.000000000000000e+00 4.199999999999998e+00 1.000000000000000e+00 0.000000000000000e+00 4.099999999999999e+00 1.000000000000000e+00 0.000000000000000e+00 3.999999999999999e+00 1.000000000000000e+00 0.000000000000000e+00 3.899999999999999e+00 1.000000000000000e+00 0.000000000000000e+00 3.799999999999999e+00 1.000000000000000e+00 0.000000000000000e+00 3.699999999999998e+00 1.000000000000000e+00 0.000000000000000e+00 3.599999999999999e+00 1.000000000000000e+00 0.000000000000000e+00 3.499999999999999e+00 1.000000000000000e+00 0.000000000000000e+00 3.399999999999999e+00 1.000000000000000e+00 0.000000000000000e+00 3.299999999999999e+00 1.000000000000000e+00 0.000000000000000e+00 3.199999999999998e+00 1.000000000000000e+00 0.000000000000000e+00 3.099999999999999e+00 1.000000000000000e+00 0.000000000000000e+00 2.999999999999999e+00 1.000000000000000e+00 0.000000000000000e+00 2.899999999999999e+00 1.000000000000000e+00 0.000000000000000e+00 2.799999999999999e+00 1.000000000000000e+00 0.000000000000000e+00 2.699999999999999e+00 1.000000000000000e+00 0.000000000000000e+00 2.599999999999999e+00 1.000000000000000e+00 0.000000000000000e+00 2.500000000000000e+00 1.000000000000000e+00 0.000000000000000e+00 2.399999999999999e+00 1.000000000000000e+00 0.000000000000000e+00 2.299999999999999e+00 1.000000000000000e+00 0.000000000000000e+00 2.199999999999999e+00 1.000000000000000e+00 0.000000000000000e+00 2.100000000000000e+00 1.000000000000000e+00 0.000000000000000e+00 2.000000000000000e+00 1.000000000000000e+00 0.000000000000000e+00 1.899999999999999e+00 1.000000000000000e+00 0.000000000000000e+00 1.799999999999999e+00 1.000000000000000e+00 0.000000000000000e+00 1.699999999999999e+00 1.000000000000000e+00 0.000000000000000e+00 1.599999999999999e+00 1.000000000000000e+00 0.000000000000000e+00 1.500000000000000e+00 1.000000000000000e+00 0.000000000000000e+00 1.399999999999999e+00 1.000000000000000e+00 0.000000000000000e+00 1.299999999999999e+00 1.000000000000000e+00 0.000000000000000e+00 1.199999999999999e+00 1.000000000000000e+00 0.000000000000000e+00 1.100000000000000e+00 1.000000000000000e+00 0.000000000000000e+00 9.999999999999991e-01 1.000000000000000e+00 0.000000000000000e+00 8.999999999999995e-01 1.000000000000000e+00 0.000000000000000e+00 7.999999999999998e-01 1.000000000000000e+00 0.000000000000000e+00 7.000000000000002e-01 1.000000000000000e+00 0.000000000000000e+00 5.999999999999996e-01 1.000000000000000e+00 0.000000000000000e+00 4.999999999999991e-01 1.000000000000000e+00 0.000000000000000e+00 3.999999999999995e-01 1.000000000000000e+00 0.000000000000000e+00 3.000000000000007e-01 1.000000000000000e+00 0.000000000000000e+00 1.999999999999993e-01 1.000000000000000e+00 0.000000000000000e+00 9.999999999999964e-02 1.000000000000000e+00 0.000000000000000e+00 0.000000000000000e+00 8.999999999995836e-01 0.000000000000000e+00 0.000000000000000e+00 7.999999999999998e-01 0.000000000000000e+00 0.000000000000000e+00 7.000000000006934e-01 0.000000000000000e+00 0.000000000000000e+00 6.000000000013869e-01 0.000000000000000e+00 0.000000000000000e+00 5.000000000020587e-01 0.000000000000000e+00 0.000000000000000e+00 4.000000000016644e-01 0.000000000000000e+00 0.000000000000000e+00 3.000000000012483e-01 0.000000000000000e+00 0.000000000000000e+00 2.000000000008322e-01 0.000000000000000e+00 0.000000000000000e+00 1.000000000004160e-01 0.000000000000000e+00 7.477570327540725e-01 4.905967956478702e-01 0.000000000000000e+00 1.346210646643281e+00 4.806066422083806e-01 0.000000000000000e+00 1.949496869330408e+00 5.032480558805372e-01 0.000000000000000e+00 4.449999999999997e+00 5.000000000000384e-01 0.000000000000000e+00 3.859142349610828e+00 5.103468031113156e-01 0.000000000000000e+00 3.246530027037640e+00 5.183101712757180e-01 0.000000000000000e+00 2.657531292711257e+00 5.037429884868682e-01 0.000000000000000e+00 3.824015840967434e-01 6.064457502813875e-01 0.000000000000000e+00 2.306343155343502e+00 6.315316747431162e-01 0.000000000000000e+00 1.049999999998266e+00 3.374999999994497e-01 0.000000000000000e+00 1.641930697057102e+00 3.436055112169133e-01 0.000000000000000e+00 4.150000000000006e+00 6.625000000000185e-01 0.000000000000000e+00 3.552784161359181e+00 6.642488388863971e-01 0.000000000000000e+00 2.940292465243163e+00 6.575992780735344e-01 0.000000000000000e+00 1.641237689750194e+00 6.703960699373966e-01 0.000000000000000e+00 1.050000000000000e+00 6.706367924525535e-01 0.000000000000000e+00 2.960517759676693e+00 3.261740577967960e-01 0.000000000000000e+00 3.551899302943298e+00 3.210887133285832e-01 0.000000000000000e+00 4.150779393876139e+00 3.209867287821391e-01 0.000000000000000e+00 2.213980362532827e+00 3.194901812685164e-01 0.000000000000000e+00 4.927283029162088e-01 3.252862896001115e-01 0.000000000000000e+00 4.696684455724628e+00 3.145438084075651e-01 0.000000000000000e+00 4.690990908683984e+00 6.962960281446974e-01 0.000000000000000e+00 2.487221901830106e+00 2.763334294511438e-01 0.000000000000000e+00 6.215262983536076e-01 7.328515730233995e-01 0.000000000000000e+00 2.065768881873406e+00 7.342557316219342e-01 0.000000000000000e+00 2.543072460766750e+00 7.257064952909391e-01 0.000000000000000e+00 8.105176211436336e-01 2.535517621144286e-01 0.0000000000000
[...]
<CellData Scalars="A_conc,As-lin_conc,B_conc,Bs-lang_conc,C_conc,Cs-freund_conc," Vectors="" Tensors="">
<DataArray type="Float64" Name="A_conc" format="ascii">
5.023666233476174e-05 2.028365463276216e-01 2.851820458337874e-03 1.683347048081482e-06 1.714238841581850e-01 4.969005733450579e-02 5.356172067473162e-02 1.361014369537513e-01 1.946907594422709e-01 2.631738396427357e-06 4.872508545001764e-03 9.303409097437696e-05 3.705360287671874e-07 6.570628824829992e-03 2.364908500914798e-06 9.287654652117137e-05 2.094868707918931e-06 2.139459899794073e-06 3.712216486848187e-02 1.384041995735080e-06 9.743078656077866e-09 3.608244439886811e-07 2.136317706653679e-06 3.375591235910241e-06 9.392491280714140e-07 1.560496074003112e-06 1.710634758835943e-04 1.622847184189152e-01 1.368189299206289e-06 2.324288032102712e-06 1.685621109757021e-07 1.346751756392114e-06 1.047800997973382e-08 3.977844574399967e-05 3.996794708761352e-02 1.861418356223682e-01 5.622822398637664e-05 4.808582060478115e-08 7.800538496557999e-07 1.747435185031520e-01 8.782226418976070e-03 3.620255101937102e-07 2.008214149068059e-05 1.906915447947425e-07 5.248147680603774e-09 5.088344263689296e-02 2.262420733961450e-06 9.654066319669363e-02 3.713964031626389e-02 4.657346006186786e-02 1.939176495108174e-01 7.271173401417552e-07 7.764858499938940e-03 1.816154395542868e-01 1.916068814307817e-01 2.094554390804655e-01 1.533329965183546e-08 1.329242803928337e-01 1.573481052882622e-01 2.437691218756137e-06 1.772955350401680e-02 1.345618785720290e-01 7.475605711598940e-02 8.955852801321325e-10 2.402695753427779e-09 6.000073068736944e-02 9.543531720969418e-02 3.832247344974370e-09 1.997246895448825e-01 1.531022450828372e-01 1.212352062844905e-08 6.359981939813620e-04 1.080848251675258e-05 2.226936803370340e-06 1.015406404002439e-01 4.193607443248860e-02 2.369901755390326e-07 5.119698201133428e-02 1.107724095790528e-01 5.394726720120459e-09 3.343437429552378e-04 4.027925756886075e-02 3.962280909212174e-04 1.139287246014353e-02 8.356778128508505e-02 2.441931377012638e-07 4.655461827991555e-02 1.059860449724066e-01 2.534452213842810e-07 3.037203171105294e-09 2.691344954300838e-02 8.452649953719830e-02 1.454731102619494e-01 7.896342621844164e-02 4.435368290857140e-02 1.359832121230084e-06 7.814800143944473e-02 1.372850531290557e-01 1.946212239294122e-03 1.572847179585945e-01 6.062742689402049e-06 2.901258981086026e-07 2.973949289547255e-07 7.960189702879585e-02 1.800529520701724e-07 1.037542231673011e-01 1.905415906219358e-06 1.643249695690515e-01 1.742152552271393e-07 1.083732920377576e-01 5.896329706957744e-09 6.339661717326769e-07 6.098525819720652e-07 1.635455244151868e-08 1.321086927421699e-06 1.402636487925294e-01 2.339947450045793e-06 5.101066768751059e-08 1.146133232917763e-09 1.620210206454444e-01 1.193665019055739e-09 2.758977481868940e-07 8.694628076405342e-04 9.721295588645858e-07 1.587758683551492e-01 1.516329233380995e-08 4.094046735574721e-03 3.193089489937841e-07 1.442677216417671e-01 1.195441572897272e-01 4.337848265650181e-02 4.984861267908878e-09 1.117998379571883e-01 1.238851347966096e-01 6.359938720398486e-02 6.857658926790335e-09 2.448906309127786e-06 2.066038108558896e-01 9.220078487229678e-02 6.117151647335978e-02 4.249968754370760e-08 1.575884261242597e-01 5.966482483569772e-07 8.023452560352986e-09 2.242523003333699e-02 1.946910620963049e-02 1.037709031215798e-01 1.668774150660869e-08 5.077683595164770e-02 1.082253240016823e-01 1.630595457794237e-08 4.790604082367921e-02 6.514692101720522e-02 8.979676381665200e-02 8.959448855934203e-10 1.770159073408350e-02 8.749148597214403e-08 1.452483840245495e-01 3.328461411174407e-07 1.453598376465354e-02 2.422411005923157e-06 1.178096266778164e-01 6.005158748437104e-04 1.433931073542514e-03 3.103976542397010e-06 8.489215872424175e-07 7.369953183052836e-07 1.968918252240115e-07 2.390471033585437e-07 1.526333821175191e-02 8.995266503018783e-07 2.229916641301284e-07 1.968836438571628e-02 1.648989022261944e-02 1.171312658118969e-08 7.193832591973910e-02 1.318394382052725e-01 1.362233484908350e-03 5.104033017441516e-05 1.374884900835581e-09 7.672212535725521e-02 1.365837739445476e-01 1.778339319229335e-01 3.752172948954746e-08 2.744188325239389e-05 1.134683610625041e-07 3.770627593466127e-07 8.617591285343591e-08 3.204001156763498e-03 4.473066997961832e-08 2.221117599788690e-05 3.916034691268451e-07 1.901964644018213e-06 1.297134632051088e-06 6.885177936068333e-07 4.215705799540136e-08 8.797468083348205e-07 7.596552603248072e-07 1.382201795045599e-04 2.132976918997212e-04 7.165005484986109e-07 2.881624912643161e-09 2.196565289584750e-01 3.416474845506287e-07 6.950205015117024e-02 1.298177768907252e-01 2.233163173849071e-08 1.740846495302809e-08 1.610809998575218e-06 1.845287611193575e-01 9.287130869197145e-09 2.049887524301497e-03 5.985265651001236e-02 4.225254624919378e-05 2.749694669381669e-06 1.867404039179197e-07 9.410494035070116e-07 6.744745527604436e-08 1.727730894122514e-06 4.049474633223194e-02 3.700116989934100e-02 1.676050746455489e-01 4.045132552574122e-08 2.134447555503581e-06 3.319470550349717e-06 2.144139675824966e-01 9.021824181783601e-07 5.025451010494055e-06 9.840810660705610e-03 6.150471468049916e-08 6.480167620941954e-08 6.675968925222908e-07 1.149540540116267e-06 3.962889915353873e-07 6.740114208864879e-02 8.717305701971929e-02 9.762860496947189e-02 5.767310661371323e-02 8.783040525104142e-07 1.252689077450219e-02 1.028565056086597e-01 3.911399974619083e-08 5.271613079131023e-02 2.276388279639606e-10 2.243642837180278e-02 7.938166542229663e-02 1.399414157454446e-01 1.255083645920159e-02 2.729152062974736e-06 1.024068311335330e-02 4.676561192675689e-10 2.549078220157347e-09 2.143591142561407e-02 8.010801533601355e-02 1.395627208405904e-01 1.396389388624696e-01 1.453075224375862e-06 6.680069352672070e-05 1.946786881554475e-06 7.507488513236553e-03 5.759766846235436e-09 2.966829980087441e-05 8.730797829418017e-02 8.307894216761608e-02 2.201071475772342e-07 1.895992360364594e-06 8.334524707631716e-07 1.570657732456946e-06 1.504355479220782e-05 1.180263914115388e-02 4.167732107722253e-10 5.184007795849060e-09 1.086657997885824e-01 4.768856679650927e-02 5.816437916027051e-03 1.448133132510114e-06 2.822831098025486e-03 1.798763786130528e-06 3.558497368074928e-07 3.695099209760346e-07 1.745872958097967e-09 1.155811440437125e-01 7.473395740799191e-08 2.812837266599656e-06 1.635424936173296e-01 1.104776831090113e-07 2.747023606745503e-07 9.278603962221744e-08 6.510518595663298e-02 9.064158287868089e-02 8.100699832226152e-09 3.957679799160926e-10 5.185797539965341e-06 1.123161213978119e-05 3.361541849130499e-02 1.605319652409485e-08 9.325782535846676e-09 2.418697613241451e-06 1.007942425981715e-02 9.584795537298970e-05 2.655535366395070e-02 6.919182763300094e-07 8.426399892770169e-02 1.441824225472893e-01 4.629068109538580e-05 2.425338997060444e-06 2.406210065291631e-06 1.596571009691232e-01 8.813357621199966e-02 3.006093176004320e-02 9.264051776180932e-02 3.345120665640160e-02 1.473468643131225e-02 6.093348795392792e-08 1.826554449231818e-02 3.385382944256070e-05 2.277716474067103e-04 3.585069159770153e-04 1.948197422744112e-01 1.330840877827598e-01 1.293358985758720e-01 3.157617200427224e-08 3.261838726498120e-08 5.638542431885560e-07 1.805054430059205e-09 8.048928684939635e-02 7.556194552984054e-02 1.739777731887063e-07 2.774140903976191e-02 1.235562837145905e-06 2.072847371406167e-01 2.047227095486914e-01 2.052164872358476e-01 2.070099126226110e-01 1.550405358829329e-01 1.436277588687716e-06 1.502084808068259e-06 1.120823667773490e-08 6.776716337163866e-02 3.129655879641526e-06 7.995708663985946e-06 1.176349762398433e-06 3.264331883244571e-03 1.797004974400928e-01 5.401304089455780e-03 1.833752561798127e-06 3.201122079858965e-05 6.990126128917367e-03 6.440829363314607e-07 5.230172326945320e-04 2.161225997205169e-01 2.266978178954397e-03 3.871015298660558e-07 2.797417173709652e-06 2.844291872773409e-06 1.375687374667835e-01 1.478868030136934e-08 2.182442353793991e-08 7.179600651896103e-07 3.303597518720101e-08 2.512813231343533e-06 2.215329589640893e-09 2.361578488706923e-06 1.228096258365923e-01 1.192027523493787e-06 1.244097234711426e-01 8.441513659843138e-09 8.558167507847965e-02 6.997375399574134e-02 1.984750817157986e-01 2.200216895568262e-01 2.200216921444750e-01 1.696570996400223e-01 1.690032439632958e-01 2.481643428692493e-02 9.763170573758331e-09 1.436901451445476e-01 4.852901140808881e-09 1.317792003861351e-01 1.970981315909956e-09 1.977777590539168e-01 1.861869049345414e-06 4.923681357048384e-07 9.330300449134617e-02 3.471950094843339e-02 8.730635826091832e-04 2.798836552438564e-08 1.156871284390248e-04 1.080951375466518e-04 1.679717216730535e-01 1.967609742550449e-01 7.995393987556454e-08 1.698082539211745e-07 3.921678390663855e-03 1.401143319282413e-06 1.985970740691711e-06 1.196653567314280e-06 1.139810957714706e-01 1.082227093715713e-01 1.523562752328497e-07 2.039132621690547e-02 1.909228377860290e-01 2.881742167385654e-03 1.480556092244325e-06 9.064827908111913e-07 1.264336961885962e-06 1.562575322223367e-07 5.113162084906081e-02 1.821113388908982e-01 1.111809180471933e-01 1.428925556748060e-02 2.197574395886034e-01 1.478258130277931e-02 3.097931381133410e-07 1.268790234305537e-01 1.932165177015492e-01 2.399781579054312e-07 3.157904301927270e-07 7.144168705923483e-02 1.304070239521655e-05 3.230625104740339e-08 4.730807612400104e-02 1.070959824268902e-01 1.586919762415212e-01 9.670695016975401e-07 1.628784955635010e-04 1.076217886185248e-08 2.783922946746237e-09 3.518841187565223e-02 9.386829390496579e-02 1.552997710880710e-01 1.331500425642340e-05 2.919028219075894e-09 3.147233567576133e-02 9.038966503796139e-02 1.513916056562088e-01 6.375804627582746e-07 9.676201320079422e-10 8.489568093917126e-02 7.010230412389859e-02 1.837934770076315e-02 7.239460282776920e-02 8.324593383624493e-02 1.200844922536635e-01 5.959512938856596e-02 1.291788525362043e-01 6.867271399548411e-02 1.815117999957232e-03 2.571307821301853e-06 2.119631153260897e-01 2.680396638127908e-03 1.612115811097028e-07 5.582184194971135e-02 2.079490108092045e-01 1.150844985254853e-01 5.462379155707572e-02 1.363654544330170e-02 2.181203523980664e-07 9.431094065743676e-05 1.301688185490808e-09 1.783211145977994e-01 1.941359055995364e-01 2.355661346120168e-06 1.079161217769966e-03 2.659186217863949e-03 1.117965834624005e-06 2.085625846355147e-01 2.051586874478495e-01 3.011978556808517e-07 1.310574464741424e-01 8.330613638704413e-03 8.854104466559987e-03 1.672111070550570e-02 1.920117694155728e-01 1.863743342755725e-01 1.904459092500586e-01 5.682398997940687e-07 2.033280203026187e-07 3.457694839934126e-08 1.283840835642213e-03 1.549798364266310e-01 2.366851623237066e-07 1.697147834877836e-01 7.280276828652005e-02 5.918783961069293e-09 7.518232224642799e-10 1.425687358064587e-01 7.839747309370494e-02 7.337952899060143e-02 7.576305338350433e-07 1.122490015896457e-01 2.048070193244197e-01 1.739232326496661e-01 1.253244084066631e-01 1.351416886823867e-01 7.456253536846336e-02 4.376361521568969e-03 1.634406293633757e-01 3.084785576859191e-02 1.746070137876014e-01 1.983255129632092e-08 9.385960015859449e-07 8.896120318051796e-07 1.104761001077531e-01 5.126318306952123e-02 9.217278215945464e-02 6.290570490091991e-02 1.023816358400451e-07 1.956163238442041e-08 4.571069423877395e-05 1.646571013795933e-01 1.818648588151756e-06 1.376691830544574e-03 2.014060713840837e-06 2.102221832424697e-04 6.103160090288219e-07 1.209246811331838e-01 1.527889101404221e-01 1.755747345622790e-01 1.770498158009962e-01 1.392184134088868e-06 2.651850769650446e-06 5.948231656573777e-05 1.091310755139585e-09 1.832362632048600e-01 1.672089766745688e-01 2.911418316597210e-07 1.348048123274816e-01 1.843355641409323e-02 1.863522508407450e-01 2.231288897653922e-02 9.051672721538337e-07 1.710353734567830e-01 1.434958802053849e-01 5.697814967939136e-03 4.938672138730651e-02 1.087305233607434e-02 1.199070644341109e-06 7.517560735994895e-06 1.642892046705371e-01 4.479420110087804e-02 1.451116763112208e-01 2.115850122517009e-10 8.495030787815748e-02 2.645698526441633e-02 9.377591546804007e-09 9.277625814090299e-09 1.735222733464139e-01 9.310528613752022e-03 1.279305244197734e-06 3.037379612569891e-06 7.854115698273497e-06 2.712913150670336e-08 1.120997520639724e-01 5.225189830865899e-02 1.363608111967180e-06 1.583699906601360e-01 1.884240047312743e-01 2.268860530132162e-06 2.043212270986294e-06 4.282143717368470e-08 1.795158247399570e-05 5.538529078723203e-08 3.582897656745301e-02 9.557338263580721e-02 1.213808358291957e-07 1.222231095546296e-01 2.489574866762803e-06 2.000229391791211e-01 1.784245441590915e-06 2.479441262597435e-07 1.785638321615713e-01 1.758521598894925e-01 3.028545025438563e-08 1.599628407318590e-01 1.629155037221405e-01 6.847587355047829e-05 1.534897458153449e-02 8.414166708549442e-02 2.891038325964907e-06 5.950209636730882e-03 1.984976882302963e-01 1.944015889294483e-01 5.491015240772046e-04 9.793114468752814e-08 7.280816254671423e-02 9.224975780827741e-04 5.842742652169463e-03 4.132614220829655e-08 1.490112512046300e-01 1.607284621011497e-08 1.005170407258499e-08 1.161001266277653e-01 9.762960980175525e-09 1.192421065181637e-01 2.081279334364502e-01 2.039784074726744e-01 4.785150987397111e-04 4.688134237609230e-02 3.000245375353938e-06 6.306619464082829e-09 4.998450240849633e-08 1.059078925017850e-01 2.782270589101441e-06 4.617664497373267e-02 1.976746749639149e-01 2.726102535676607e-08 3.481183572080019e-08 2.078794265832627e-08 3.875793740546963e-03 2.321605946295696e-07 2.776099876435428e-06 1.797107540868620e-08 2.530329323641836e-07 1.631365652173389e-01 2.533929354531700e-07 1.204406259745762e-07 3.416441176940513e-04 2.869080677299611e-02 5.076345037586648e-09 1.291503168173269e-01 7.548034069527186e-03 1.199243926712913e-04 5.815632412740353e-06 1.487723829626745e-01 4.883054323525887e-09 9.873600377766905e-04 4.905603075233302e-08 2.448921502877049e-06 1.155950765163366e-06 1.333694552176162e-01 1.296830181254553e-01 3.988847280014217e-09 2.501235139564876e-05 1.067722809327280e-01 5.234113269544676e-07 9.498558452311007e-09 7.471953899826533e-02 5.409719360528234e-08 3.949302646706418e-02 9.898682619886938e-02 1.272416666931845e-07 1.411978676767686e-07 9.596390398811280e-08 1.020082521456366e-01 5.411276066242079e-02 1.690119940675764e-04 6.758545734750730e-03 5.895496618216822e-08 1.381016393935692e-07 1.337562875117596e-06 1.733729807927488e-01 3.790895990243120e-06 1.176946775773732e-07 1.109078868066493e-01 5.109818154060056e-02 8.582324923902763e-07 1.509636376299665e-01 1.480982899410903e-01 9.986535743068011e-08 9.467140984815218e-08 1.364346011931101e-01 1.236860235093262e-06 2.298270108039104e-08 3.239202266492326e-08 3.098919775141640e-08 3.781551144551276e-04 9.927349169811181e-03 5.788410113437619e-04 1.350841152631349e-07 8.309579552308698e-07 1.401631751726475e-01 1.369798710010475e-01 2.156106965100772e-02 1.706317222735870e-08 1.767391912858572e-08 2.148291023853539e-09 4.168133107935608e-03 2.986808940157475e-02 4.792836285130727e-07 2.233586755852421e-08 9.072069061823334e-09 8.889064481901809e-02 2.499581319279577e-06 1.161195017061088e-02 1.832303559134620e-01 1.357052965663259e-06 2.167705468484798e-01 2.161831597070532e-01 1.678933102617699e-03 2.996811878508741e-06 6.964165228856312e-02 6.594545415854880e-02 2.447694467866813e-02 1.733004744969658e-03 1.247106224183446e-03 4.334550339689070e-02 3.344352281649812e-08 1.032808655347413e-01 4.747559776810547e-03 1.531185906767340e-01 3.717591166323493e-06 2.122199050055212e-01 2.164877599704360e-01 2.166071846087351e-01 2.123437046911654e-01 2.108052973611524e-01 2.114084300288230e-01 1.653474268321869e-07 1.017966243554064e-01 2.590384038004563e-02 2.445700788200826e-02 9.122069718463236e-08 9.575004844568815e-04 1.795193631411004e-06 4.726912385698059e-08 1.784077721695651e-01 1.365503346590413e-03 1.906252117858236e-03 5.392585932290457e-07 5.518003748788839e-07 9.822243375088736e-02 5.792946306906382e-02 3.247026677812932e-06 1.894953491908134e-03 1.450137780801051e-07 6.160282541626323e-03 1.390005432040891e-08 1.215042784717256e-06 3.270442619395361e-08 6.053040112361213e-09 3.359314413120254e-02 1.200865739765375e-01 2.572066882435759e-08 5.995039175594051e-02 2.560308021514284e-05 1.090101855787961e-07 1.812417854450654e-08 2.820326062056236e-07 2.912396416076503e-06 9.151491838736217e-02 3.057099683440014e-07 5.796355104708877e-08 3.446780646462869e-02 3.206534355423349e-02 1.841820119998853e-09 1.203683736353998e-01 3.582125485645094e-08 1.115092536192135e-06 2.483271858849952e-02 2.211925919935307e-01 2.211925929360533e-01 1.597297326373879e-08 1.539580636488736e-01 3.652432697086681e-02 2.959160559872413e-04 1.042567438675724e-06 1.090126983658895e-01 4.530591187970880e-08 4.730860416596961e-02 3.289269562819915e-06 6.563332527463496e-02 2.162142813779295e-01 2.162142842073601e-01 9.817688247057069e-02 1.782953433267703e-01 1.737667154263703e-01 1.617590106822022e-01 1.534705952108412e-06 1.380975799129399e-08 1.868940302126282e-01 1.825277667128685e-01 8.230313522449448e-04 1.003229591463193e-08 6.170479005047131e-07 1.023401049765075e-08 8.549024075507073e-09 1.768118028469694e-01 2.855118639944967e-02 2.115386262843976e-01 2.116184439884168e-01 1.828687028859347e-07 6.830377433409533e-08 1.241367724396494e-01 1.365967530215720e-07 6.433860914869419e-02 4.492681905824112e-08 8.505019363432215e-07 1.388830449901882e-01 1.481022464544198e-01 2.301690106036576e-06 1.885599142229535e-06 4.276774242087311e-04 6.286860768128621e-04 1.248285687371644e-02 9.764157666925105e-09 1.540704432500570e-01 5.959681942555144e-02 5.586405237825666e-02 1.190594037489378e-01 1.148979983360528e-01 2.908297702501565e-02 1.749662738297957e-06 6.497047658135222e-02 9.781635953252865e-08 9.297756634233430e-02 3.959136928983770e-08 2.352841516884972e-02 8.099834410563045e-02 1.409127268866181e-01 1.272384165057142e-01 6.743645426430435e-02 2.517721476122544e-02 6.119405684996767e-02 2.539738940647736e-08 9.556048193684570e-02 2.843765518833037e-06 9.326572562401826e-09 2.120120326525440e-06 8.797355154076198e-07 1.347978475815328e-01 2.625679157291785e-02 1.908287508925903e-01 7.794360294446659e-02 1.477696398285781e-01 4.148231923645708e-02 4.029617592410520e-08 9.943393563129629e-02 5.669950234583777e-02 1.452562532425234e-01 1.219280438833148e-02 9.502679400531152e-03 2.146869275794797e-05 2.846302032603753e-06 2.648766770180775e-08 1.603731352956563e-02 1.967012694693083e-01 1.998413222456794e-01 9.219707577130480e-05 8.764065053902195e-02 2.889880062097420e-02 1.916449663501917e-01 1.300847346392235e-08 1.939211122439807e-06 2.205951919884709e-06 1.811117282555116e-01 1.856214858790527e-01 8.365492160366037e-08 2.677236283913670e-09 3.963483949376829e-02 9.852418875262474e-02 6.071381660351336e-07 5.829327468555323e-07 7.849496618567142e-02 1.834079385760172e-08 8.176881003899546e-05 1.328349051584062e-03 6.491019825604442e-06 1.866068828353256e-01 3.710871776151839e-10 6.075766222006769e-04 3.096324687713357e-06 1.998295090690015e-01 2.118147211824540e-01 2.163429338505388e-01 1.032224042146227e-01 2.855483220758022e-08 2.314116071422232e-03 3.091206398105443e-03 1.062683209589576e-08 1.330319149895081e-01 7.392144967466484e-02 1.691755931021076e-06 4.009789532210629e-06 3.859211365286956e-02 3.453444440338781e-02 2.056471022280655e-06 5.543062830166612e-07 7.362660061560925e-07 5.082707615037891e-09 1.471616089442556e-10 8.640677719360039e-09 6.121513834863137e-04 1.623810105682044e-07 6.049033314148874e-02 1.202877009524526e-01 1.371937471872688e-04 2.366974215540869e-04 9.174423545003012e-08 1.413563591960354e-01 1.360907954952125e-05 1.038025144151335e-01 7.411967230808060e-03 3.321804370172179e-05 6.176525116912710e-05 8.789691406839410e-02 1.966764657638886e-01 2.672461503940365e-04 4.041931666731272e-04 3.979101168492299e-06 1.754294066670908e-01 1.954766989059799