<?xml version="1.0"?>
<VTKFile type="UnstructuredGrid" version="0.1" byte_order="LittleEndian">
<UnstructuredGrid>
<Piece NumberOfPoints="714" NumberOfCells="1306">
<Points>
<DataArray type="Float64" NumberOfComponents="3" format="ascii">
0.000000000000000e+00 0.000000000000000e+00 0.000000000000000e+00 5.000000000000000e+00 0.000000000000000e+00 0.000000000000000e+00 5.000000000000000e+00 1.000000000000000e+00 0.000000000000000e+00 0.000000000000000e+00 1.000000000000000e+00 0.000000000000000e+00 9.999999999992801e-02 0.000000000000000e+00 0.000000000000000e+00 1.999999999998339e-01 0.000000000000000e+00 0.000000000000000e+00 2.999999999997341e-01 0.000000000000000e+00 0.000000000000000e+00 3.999999999996643e-01 0.000000000000000e+00 0.000000000000000e+00 4.999999999995944e-01 0.000000000000000e+00 0.000000000000000e+00 5.999999999995166e-01 0.000000000000000e+00 0.000000000000000e+00 6.999999999992880e-01 0.000000000000000e+00 0.000000000000000e+00 7.999999999989961e-01 0.000000000000000e+00 0.000000000000000e+00 8.999999999987042e-01 0.000000000000000e+00 0.000000000000000e+00 9.999999999984124e-01 0.000000000000000e+00 0.000000000000000e+00 1.099999999998120e+00 0.000000000000000e+00 0.000000000000000e+00 1.199999999997829e+00 0.000000000000000e+00 0.000000000000000e+00 1.299999999997537e+00 0.000000000000000e+00 0.000000000000000e+00 1.399999999997245e+00 0.000000000000000e+00 0.000000000000000e+00 1.499999999996953e+00 0.000000000000000e+00 0.000000000000000e+00 1.599999999996661e+00 0.000000000000000e+00 0.000000000000000e+00 1.699999999996369e+00 0.000000000000000e+00 0.000000000000000e+00 1.799999999996077e+00 0.000000000000000e+00 0.000000000000000e+00 1.899999999995785e+00 0.000000000000000e+00 0.000000000000000e+00 1.999999999995511e+00 0.000000000000000e+00 0.000000000000000e+00 2.099999999995593e+00 0.000000000000000e+00 0.000000000000000e+00 2.199999999995745e+00 0.000000000000000e+00 0.000000000000000e+00 2.299999999995897e+00 0.000000000000000e+00 0.000000000000000e+00 2.399999999996049e+00 0.000000000000000e+00 0.000000000000000e+00 2.499999999996201e+00 0.000000000000000e+00 0.000000000000000e+00 2.599999999996353e+00 0.000000000000000e+00 0.000000000000000e+00 2.699999999996505e+00 0.000000000000000e+00 0.000000000000000e+00 2.799999999996657e+00 0.000000000000000e+00 0.000000000000000e+00 2.899999999996809e+00 0.000000000000000e+00 0.000000000000000e+00 2.999999999996961e+00 0.000000000000000e+00 0.000000000000000e+00 3.099999999997114e+00 0.000000000000000e+00 0.000000000000000e+00 3.199999999997265e+00 0.000000000000000e+00 0.000000000000000e+00 3.299999999997417e+00 0.000000000000000e+00 0.000000000000000e+00 3.399999999997569e+00 0.000000000000000e+00 0.000000000000000e+00 3.499999999997721e+00 0.000000000000000e+00 0.000000000000000e+00 3.599999999997873e+00 0.000000000000000e+00 0.000000000000000e+00 3.699999999998025e+00 0.000000000000000e+00 0.000000000000000e+00 3.799999999998176e+00 0.000000000000000e+00 0.000000000000000e+00 3.899999999998329e+00 0.000000000000000e+00 0.000000000000000e+00 3.999999999998481e+00 0.000000000000000e+00 0.000000000000000e+00 4.099999999998633e+00 0.000000000000000e+00 0.000000000000000e+00 4.199999999998784e+00 0.000000000000000e+00 0.000000000000000e+00 4.299999999998937e+00 0.000000000000000e+00 0.000000000000000e+00 4.399999999999088e+00 0.000000000000000e+00 0.000000000000000e+00 4.499999999999240e+00 0.000000000000000e+00 0.000000000000000e+00 4.599999999999393e+00 0.000000000000000e+00 0.000000000000000e+00 4.699999999999545e+00 0.000000000000000e+00 0.000000000000000e+00 4.799999999999696e+00 0.000000000000000e+00 0.000000000000000e+00 4.899999999999848e+00 0.000000000000000e+00 0.000000000000000e+00 5.000000000000000e+00 9.999999999981467e-02 0.000000000000000e+00 5.000000000000000e+00 1.999999999995579e-01 0.000000000000000e+00 5.000000000000000e+00 2.999999999992664e-01 0.000000000000000e+00 5.000000000000000e+00 3.999999999989749e-01 0.000000000000000e+00 5.000000000000000e+00 4.999999999986943e-01 0.000000000000000e+00 5.000000000000000e+00 5.999999999989468e-01 0.000000000000000e+00 5.000000000000000e+00 6.999999999992100e-01 0.000000000000000e+00 5.000000000000000e+00 7.999999999994734e-01 0.000000000000000e+00 5.000000000000000e+00 8.999999999997368e-01 0.000000000000000e+00 4.899999999999999e+00 1.000000000000000e+00 0.000000000000000e+00 4.800000000000000e+00 1.000000000000000e+00 0.000000000000000e+00 4.699999999999999e+00 1.000000000000000e+00 0.000000000000000e+00 4.600000000000000e+00 1.000000000000000e+00 0.000000000000000e+00 4.499999999999999e+00 1.000000000000000e+00 0.000000000000000e+00 4.399999999999999e+00 1.000000000000000e+00 0.000000000000000e+00 4.299999999999999e+00 1.000000000000000e+00 0.000000000000000e+00 4.199999999999998e+00 1.000000000000000e+00 0.000000000000000e+00 4.099999999999999e+00 1.000000000000000e+00 0.000000000000000e+00 3.999999999999999e+00 1.000000000000000e+00 0.000000000000000e+00 3.899999999999999e+00 1.000000000000000e+00 0.000000000000000e+00 3.799999999999999e+00 1.000000000000000e+00 0.000000000000000e+00 3.699999999999998e+00 1.000000000000000e+00 0.000000000000000e+00 3.599999999999999e+00 1.000000000000000e+00 0.000000000000000e+00 3.499999999999999e+00 1.000000000000000e+00 0.000000000000000e+00 3.399999999999999e+00 1.000000000000000e+00 0.000000000000000e+00 3.299999999999999e+00 1.000000000000000e+00 0.000000000000000e+00 3.199999999999998e+00 1.000000000000000e+00 0.000000000000000e+00 3.099999999999999e+00 1.000000000000000e+00 0.000000000000000e+00 2.999999999999999e+00 1.000000000000000e+00 0.000000000000000e+00 2.899999999999999e+00 1.000000000000000e+00 0.000000000000000e+00 2.799999999999999e+00 1.000000000000000e+00 0.000000000000000e+00 2.699999999999999e+00 1.000000000000000e+00 0.000000000000000e+00 2.599999999999999e+00 1.000000000000000e+00 0.000000000000000e+00 2.500000000000000e+00 1.000000000000000e+00 0.000000000000000e+00 2.399999999999999e+00 1.000000000000000e+00 0.000000000000000e+00 2.299999999999999e+00 1.000000000000000e+00 0.000000000000000e+00 2.199999999999999e+00 1.000000000000000e+00 0.000000000000000e+00 2.100000000000000e+00 1.000000000000000e+00 0.000000000000000e+00 2.000000000000000e+00 1.000000000000000e+00 0.000000000000000e+00 1.899999999999999e+00 1.000000000000000e+00 0.000000000000000e+00 1.799999999999999e+00 1.000000000000000e+00 0.000000000000000e+00 1.699999999999999e+00 1.000000000000000e+00 0.000000000000000e+00 1.599999999999999e+00 1.000000000000000e+00 0.000000000000000e+00 1.500000000000000e+00 1.000000000000000e+00 0.000000000000000e+00 1.399999999999999e+00 1.000000000000000e+00 0.000000000000000e+00 1.299999999999999e+00 1.000000000000000e+00 0.000000000000000e+00 1.199999999999999e+00 1.000000000000000e+00 0.000000000000000e+00 1.100000000000000e+00 1.000000000000000e+00 0.000000000000000e+00 9.999999999999991e-01 1.000000000000000e+00 0.000000000000000e+00 8.999999999999995e-01 1.000000000000000e+00 0.000000000000000e+00 7.999999999999998e-01 1.000000000000000e+00 0.000000000000000e+00 7.000000000000002e-01 1.000000000000000e+00 0.000000000000000e+00 5.999999999999996e-01 1.000000000000000e+00 0.000000000000000e+00 4.999999999999991e-01 1.000000000000000e+00 0.000000000000000e+00 3.999999999999995e-01 1.000000000000000e+00 0.000000000000000e+00 3.000000000000007e-01 1.000000000000000e+00 0.000000000000000e+00 1.999999999999993e-01 1.000000000000000e+00 0.000000000000000e+00 9.999999999999964e-02 1.000000000000000e+00 0.000000000000000e+00 0.000000000000000e+00 8.999999999995836e-01 0.000000000000000e+00 0.000000000000000e+00 7.999999999999998e-01 0.000000000000000e+00 0.000000000000000e+00 7.000000000006934e-01 0.000000000000000e+00 0.000000000000000e+00 6.000000000013869e-01 0.000000000000000e+00 0.000000000000000e+00 5.000000000020587e-01 0.000000000000000e+00 0.000000000000000e+00 4.000000000016644e-01 0.000000000000000e+00 0.000000000000000e+00 3.000000000012483e-01 0.000000000000000e+00 0.000000000000000e+00 2.000000000008322e-01 0.000000000000000e+00 0.000000000000000e+00 1.000000000004160e-01 0.000000000000000e+00 7.477570327540725e-01 4.905967956478702e-01 0.000000000000000e+00 1.346210646643281e+00 4.806066422083806e-01 0.000000000000000e+00 1.949496869330408e+00 5.032480558805372e-01 0.000000000000000e+00 4.449999999999997e+00 5.000000000000384e-01 0.000000000000000e+00 3.859142349610828e+00 5.103468031113156e-01 0.000000000000000e+00 3.246530027037640e+00 5.183101712757180e-01 0.000000000000000e+00 2.657531292711257e+00 5.037429884868682e-01 0.000000000000000e+00 3.824015840967434e-01 6.064457502813875e-01 0.000000000000000e+00 2.306343155343502e+00 6.315316747431162e-01 0.000000000000000e+00 1.049999999998266e+00 3.374999999994497e-01 0.000000000000000e+00 1.641930697057102e+00 3.436055112169133e-01 0.000000000000000e+00 4.150000000000006e+00 6.625000000000185e-01 0.000000000000000e+00 3.552784161359181e+00 6.642488388863971e-01 0.000000000000000e+00 2.940292465243163e+00 6.575992780735344e-01 0.000000000000000e+00 1.641237689750194e+00 6.703960699373966e-01 0.000000000000000e+00 1.050000000000000e+00 6.706367924525535e-01 0.000000000000000e+00 2.960517759676693e+00 3.261740577967960e-01 0.000000000000000e+00 3.551899302943298e+00 3.210887133285832e-01 0.000000000000000e+00 4.150779393876139e+00 3.209867287821391e-01 0.000000000000000e+00 2.213980362532827e+00 3.194901812685164e-01 0.000000000000000e+00 4.927283029162088e-01 3.252862896001115e-01 0.000000000000000e+00 4.696684455724628e+00 3.145438084075651e-01 0.000000000000000e+00 4.690990908683984e+00 6.962960281446974e-01 0.000000000000000e+00 2.487221901830106e+00 2.763334294511438e-01 0.000000000000000e+00 6.215262983536076e-01 7.328515730233995e-01 0.000000000000000e+00 2.065768881873406e+00 7.342557316219342e-01 0.000000000000000e+00 2.543072460766750e+00 7.257064952909391e-01 0.000000000000000e+00 8.105176211436336e-01 2.535517621144286e-01 0.0000000000000
[...]
<CellData Scalars="A_conc,As-lin_conc,B_conc,Bs-lang_conc,C_conc,Cs-freund_conc," Vectors="" Tensors="">
<DataArray type="Float64" Name="A_conc" format="ascii">
3.442886021860230e-01 6.028365463278331e-01 3.831182830516309e-01 3.190891090137905e-01 5.714238841582457e-01 4.495664012272489e-01 4.534847267141555e-01 5.361014369519809e-01 5.946907594424266e-01 3.228467847953224e-01 3.906650914865576e-01 3.498437961934828e-01 1.770524440506263e-01 3.951964791460265e-01 1.515260654733937e-01 3.489393436451376e-01 2.534439574070553e-01 2.572266669153079e-01 4.365947228774851e-01 2.864024630003248e-01 2.306591519350388e-01 1.826114337975647e-01 3.252701931463569e-01 3.270211204007077e-01 2.161387829918354e-01 3.229818295485537e-01 3.539391065866379e-01 5.622847184190313e-01 1.903546405626757e-01 1.346682983576633e-01 1.487205818153411e-01 2.228560735919302e-01 2.901890943507369e-01 3.453987693914836e-01 4.395664022343027e-01 5.861418356223802e-01 3.468410722497633e-01 1.574175483870557e-01 3.196300779485715e-01 5.747435185031364e-01 3.999125920477468e-01 2.206256210961547e-01 3.408575676580162e-01 3.133807234402717e-01 2.198119156089622e-01 4.507959279830450e-01 2.690624441413973e-01 4.965406323540009e-01 4.366725470582999e-01 4.464223773899016e-01 5.939176495107432e-01 1.942873610710992e-01 3.974189178965655e-01 5.816154395544474e-01 5.916068814309386e-01 6.094554390806095e-01 2.361405592759956e-01 5.329242803889660e-01 5.573481052884934e-01 1.406907007496810e-01 4.141546295346097e-01 5.345618785703145e-01 4.747536985287456e-01 2.885514299588358e-01 2.246580844558420e-01 4.599759073150000e-01 4.954352941653866e-01 2.695741805522163e-01 5.997246895448924e-01 5.531022450830185e-01 1.698868687608643e-01 3.665288641704286e-01 3.354259164786292e-01 2.661114673849581e-01 5.015406310576332e-01 4.416725462447174e-01 2.540307344168241e-01 4.511138281604364e-01 5.107724083007084e-01 1.751004095601402e-01 3.600426315348740e-01 4.398979422988074e-01 3.619569915113330e-01 4.047098014013282e-01 4.835674332761029e-01 2.585191410874271e-01 4.464022050988526e-01 5.059860408099650e-01 2.863926082633489e-01 2.786251367724033e-01 4.254044361190157e-01 4.845259612066948e-01 5.454731102616011e-01 4.789623173659867e-01 4.441149464965160e-01 2.832428889588146e-01 4.781465554780449e-01 5.372850531270010e-01 3.784297515633754e-01 5.572847179587818e-01 3.319352465662673e-01 2.844113127059840e-01 2.883968667508416e-01 4.796011860075635e-01 2.604498836442661e-01 5.037542149135256e-01 2.189696641305452e-01 5.643249695692301e-01 2.557822574162900e-01 5.083732891705635e-01 1.804865180056296e-01 1.407368345386062e-01 1.368928759251079e-01 2.964147809575585e-01 1.788541284623289e-01 5.402636487920233e-01 1.506894921940588e-01 1.614625242502971e-01 2.520211268777984e-01 5.620210206456044e-01 2.564006025123295e-01 3.087164793628489e-01 3.692864944906499e-01 1.460524883360700e-01 5.587758683553693e-01 2.076664926134283e-01 3.879717015957885e-01 2.192349681347724e-01 5.442677216416266e-01 5.195441569529520e-01 4.431549384722269e-01 2.526707144768501e-01 5.117998373758597e-01 5.238851346586478e-01 4.635805689733088e-01 1.854186420332051e-01 1.560712492465499e-01 6.066038108561831e-01 4.922006582233531e-01 4.611493350026004e-01 2.060602891597426e-01 5.575884261243020e-01 2.905741774774843e-01 3.007918975937137e-01 4.202536197790929e-01 4.165712856850284e-01 5.037709001172734e-01 2.603049787756687e-01 4.506926071605477e-01 5.082253229657183e-01 2.574069287672007e-01 4.477876966927524e-01 4.651355971188466e-01 4.897966589361419e-01 2.744120484775288e-01 4.143053839813706e-01 2.190006532564327e-01 5.452483840241583e-01 3.145887805813287e-01 4.094487986214497e-01 2.485918854662368e-01 5.178096262513789e-01 3.657734895527580e-01 3.749516454231113e-01 3.281112023857202e-01 1.561288004970399e-01 1.517622369369235e-01 3.131603609452106e-01 3.144530960610302e-01 4.104925352523752e-01 2.044772786966386e-01 1.542797933720232e-01 4.167204940615969e-01 4.125239168495528e-01 2.021439716791847e-01 4.719338902169155e-01 5.318394381954976e-01 3.736682257634706e-01 3.466958186787937e-01 2.401747682958598e-01 4.767201669000343e-01 5.365837739420055e-01 5.778339319229518e-01 3.064265424747901e-01 3.425385223948517e-01 2.259728956592462e-01 2.260129856360119e-01 3.099921751021105e-01 3.847925856255659e-01 1.526906824500939e-01 3.401045235031959e-01 1.246940983259112e-01 2.644464728488289e-01 1.811209267691752e-01 2.074117766769801e-01 1.737608614590577e-01 2.423376324494569e-01 1.996194581716439e-01 3.537704645993801e-01 3.568275376975913e-01 1.487903642896337e-01 2.947014014362742e-01 6.196565289585545e-01 3.167942039462316e-01 4.694954564753349e-01 5.298177768777050e-01 3.037560372255554e-01 2.844677441480370e-01 3.140897797580689e-01 5.845287611192975e-01 2.256492387535285e-01 3.790776817286441e-01 4.598220080324873e-01 3.426554772619131e-01 1.719844855710708e-01 3.155153626796574e-01 1.426560431158706e-01 3.090050708629482e-01 1.582820501531464e-01 4.401981339473011e-01 4.365635661820597e-01 5.676050746455688e-01 1.707335400721912e-01 3.266743453657489e-01 3.294731922812543e-01 6.144139675826435e-01 2.105521844124156e-01 3.305310813344376e-01 4.019072260089411e-01 1.781199341098305e-01 1.823687837420007e-01 2.034493845895894e-01 1.500786776872048e-01 3.131863154373665e-01 4.673892872007290e-01 4.871726203233814e-01 4.976285688067022e-01 4.576377172842095e-01 1.703983706354105e-01 4.065781102979794e-01 5.028565001173506e-01 2.622369106864034e-01 4.526566316141686e-01 2.846773256030323e-01 4.200771889537351e-01 4.793803457236654e-01 5.399414157442503e-01 4.063090697080377e-01 2.384208714049265e-01 4.024188440417586e-01 2.837905097742773e-01 2.296772159570454e-01 4.189755018957852e-01 4.801071849297812e-01 5.395627208402861e-01 5.396389388619329e-01 1.858602178126873e-01 3.488150129047347e-01 2.686346325669196e-01 3.968011904674211e-01 2.968164357200128e-01 3.430409035258364e-01 4.873076975634313e-01 4.830783371741776e-01 1.634444014310922e-01 2.898222791308474e-01 3.162343790926097e-01 1.610541501494530e-01 3.386742297720187e-01 4.056276441104819e-01 2.660151469572219e-01 2.570062298558929e-01 5.086657986977153e-01 4.475568214125902e-01 3.926972424656011e-01 3.086574394143805e-01 3.823067088578184e-01 1.670437835991217e-01 1.490666102015353e-01 1.525183277393750e-01 2.449464949096924e-01 5.155811436466552e-01 3.085110430126615e-01 1.753154753532647e-01 5.635424936173946e-01 2.227565488858917e-01 1.865934679273143e-01 1.866922810966870e-01 4.650946957255773e-01 4.906415122512334e-01 2.750076089142101e-01 2.613342948722623e-01 3.317841159724211e-01 3.365002299526170e-01 4.328577887510504e-01 1.300627786397111e-01 2.822425870996368e-01 1.550839782448356e-01 4.020211540613692e-01 3.515630251826407e-01 4.250292465608769e-01 3.205467736415690e-01 4.842633790254338e-01 5.441824225468990e-01 3.444941227307944e-01 1.456900876891356e-01 1.465265406732482e-01 5.596571009693371e-01 4.881333886231873e-01 4.290693713685949e-01 4.926404514232374e-01 4.327567588957167e-01 4.101996091660051e-01 1.465184985417604e-01 4.151545733551232e-01 3.419791633966279e-01 3.573676827281192e-01 3.611467680216215e-01 5.948197422745543e-01 5.330840877789284e-01 5.293358985666883e-01 2.334636337687151e-01 2.370762964624451e-01 1.602464054396435e-01 2.847198223829417e-01 4.804886395548459e-01 4.755602825546027e-01 2.385493707838935e-01 4.265641207208009e-01 2.599348752549574e-01 6.072847371407841e-01 6.047227095486969e-01 6.052164872359178e-01 6.070099126226073e-01 5.550405358829648e-01 3.069961810460543e-01 1.726935812945217e-01 1.986243340746110e-01 4.677611920759961e-01 3.285131702736166e-01 3.341482803395999e-01 1.655753171044877e-01 3.844718929214248e-01 5.797004974399995e-01 3.917190132124065e-01 1.745800578416223e-01 3.422671119119208e-01 3.957372201690200e-01 1.989948214390562e-01 3.649956576422469e-01 6.161225997206083e-01 3.798162355389323e-01 1.244878934051968e-01 3.281709627917798e-01 2.286474148176339e-01 5.375687374652243e-01 1.817048421668745e-01 1.866017064183848e-01 2.758882659180676e-01 1.936001617645325e-01 2.108557104100955e-01 2.949737761126306e-01 2.441161965371092e-01 5.228096257246105e-01 2.389764083626084e-01 5.244097233986109e-01 2.799228696138608e-01 4.855814584140115e-01 4.699691046709518e-01 5.984750817160494e-01 6.200216895569837e-01 6.200216921445509e-01 5.696570996402812e-01 5.690032439635510e-01 4.231854458108621e-01 2.215724517285714e-01 5.436901451445590e-01 2.337084264453087e-01 5.317792003833299e-01 2.931893880600117e-01 5.977777590540249e-01 2.740617188590258e-01 2.714411995637139e-01 4.933029397821594e-01 4.341278808714454e-01 3.701420694031652e-01 1.749948786663788e-01 3.527275421322887e-01 3.510565328826661e-01 5.679717216731779e-01 5.967609742550080e-01 3.118387075650190e-01 2.352975431640535e-01 3.874635881618734e-01 3.245896797218685e-01 2.535910467808392e-01 2.546307818224997e-01 5.139810948051426e-01 5.082227053905873e-01 1.407036905499505e-01 4.176507116905739e-01 5.909228377861623e-01 3.834605856226777e-01 1.357942810199760e-01 2.470957441644959e-01 1.778935983338595e-01 1.737457856103332e-01 4.510375408798388e-01 5.821113388908948e-01 5.111809165700818e-01 4.094595504505019e-01 6.197574395887570e-01 4.101405266380717e-01 2.392490869612847e-01 5.268790234018064e-01 5.932165177014702e-01 1.293025401764988e-01 1.919800400123806e-01 4.714383214639657e-01 3.367472254772796e-01 2.583517050377118e-01 4.471553783365002e-01 5.070959771281044e-01 5.586919762414781e-01 3.225011596307120e-01 3.541934893205121e-01 3.002568326475559e-01 2.698332923999174e-01 4.345401337770842e-01 4.938682165031876e-01 5.552997710880514e-01 3.351941244457106e-01 2.744973308905257e-01 4.305374802880368e-01 4.903895232327107e-01 5.513916056561660e-01 2.990354082138268e-01 2.795012534638448e-01 4.848953881131030e-01 4.700973309497949e-01 4.148336317077320e-01 4.723892852963354e-01 4.832450889554340e-01 5.200844921482022e-01 4.595682703706488e-01 5.291788525064181e-01 4.686642251010933e-01 3.781068877255157e-01 2.145608500492394e-01 6.119631153261287e-01 3.827650693712207e-01 1.451144342963439e-01 4.557716663105101e-01 6.079490108092425e-01 5.150844980974318e-01 4.545682712275693e-01 4.083546127350015e-01 3.086971862864678e-01 3.511190206523255e-01 2.353117799077640e-01 5.783211145978299e-01 5.941359055996449e-01 2.434201014708407e-01 3.720325689557037e-01 3.819262829170033e-01 3.138759502884027e-01 6.085625846355733e-01 6.051586874478840e-01 2.354957897916220e-01 5.310574464639859e-01 3.989937874931568e-01 4.002240073532563e-01 4.127473974275609e-01 5.920117694157658e-01 5.863743342756151e-01 5.904459092501213e-01 1.290646048385875e-01 3.030504505207432e-01 1.974888222106652e-01 3.743911903196955e-01 5.549798364267334e-01 1.286186568044312e-01 5.697147834878868e-01 4.727992059751304e-01 1.857605849389448e-01 2.899174952542539e-01 5.425687358063606e-01 4.783958148226473e-01 4.733755204467031e-01 2.538041084016877e-01 5.122490002944630e-01 6.048070193245370e-01 5.739232326496946e-01 5.253244083647609e-01 5.351416886777340e-01 4.745594683444589e-01 3.889857800686150e-01 5.634406293636149e-01 4.299812981909215e-01 5.746070137878646e-01 1.253944765883796e-01 2.101543734535225e-01 2.548026249570394e-01 5.104760990556827e-01 4.511856109375773e-01 4.921726192531762e-01 4.628828870598301e-01 2.802679155130980e-01 1.399076387054417e-01 3.455986124674993e-01 5.646571013798322e-01 3.090904384290198e-01 3.745472410272960e-01 2.040024560652967e-01 3.561413833993854e-01 2.444149122037131e-01 5.209246809630904e-01 5.527889101406483e-01 5.755747345624058e-01 5.770498158010909e-01 2.279412444298327e-01 2.334304142157563e-01 3.480397031909851e-01 2.469670702880462e-01 5.832362632047997e-01 5.672089766745084e-01 2.311039766891186e-01 5.348048123229839e-01 4.149566846346608e-01 5.863522508408047e-01 4.199566797340519e-01 1.387087330520410e-01 5.710353734568328e-01 5.434958802052732e-01 3.923480625367136e-01 4.492799253267615e-01 4.037186025550779e-01 2.162310974200300e-01 3.316333804405118e-01 5.642892046705353e-01 4.445664023581994e-01 5.451116763112703e-01 2.791726847797674e-01 4.849499504515360e-01 4.249054181243286e-01 1.555945977331400e-01 2.998199566118760e-01 5.735222733464950e-01 4.009186448136626e-01 3.136569158384984e-01 2.058568504403921e-01 3.324229107689370e-01 2.528344202039283e-01 5.120997504518787e-01 4.521716411889669e-01 3.037081542401979e-01 5.583699906602451e-01 5.884240047313036e-01 1.296696452420792e-01 1.252827919863508e-01 1.553981892566118e-01 3.377511452582121e-01 2.720501652328807e-01 4.352893172170829e-01 4.955733409282523e-01 2.429004796094964e-01 5.222231094705666e-01 2.910233010125803e-01 6.000229391790878e-01 2.870752893011342e-01 1.323859019945054e-01 5.785638321615739e-01 5.758521598894281e-01 1.421725710329879e-01 5.599628407318853e-01 5.629155037224354e-01 3.479386600096723e-01 4.108652669473131e-01 4.841412768481792e-01 3.251992615020739e-01 3.933159561357241e-01 5.984976882305026e-01 5.944015889296328e-01 3.647683127016522e-01 1.915834250650347e-01 4.728042480543140e-01 3.711315159809758e-01 3.932202516270899e-01 2.127516559926139e-01 5.490112512046883e-01 2.416313185418510e-01 2.498215554501426e-01 5.161001265016560e-01 2.465564955143990e-01 5.192421064533526e-01 6.081279334365124e-01 6.039784074727230e-01 3.636205803486047e-01 4.467220450713398e-01 1.684189979224490e-01 2.117983757977918e-01 1.397320350928467e-01 5.059078884681611e-01 2.611124833878282e-01 4.460125629461258e-01 5.976746749642073e-01 3.069115974465779e-01 3.051386503908420e-01 1.353491076380715e-01 3.868853641375058e-01 1.680578931768162e-01 2.245093123143196e-01 1.289272221011058e-01 1.335280158709095e-01 5.631365652173195e-01 1.786778806131692e-01 1.725636425359492e-01 3.615880255787485e-01 4.276024915925408e-01 2.380640984550769e-01 5.291503168124466e-01 3.972471515533130e-01 3.521368269925388e-01 3.279775935041548e-01 5.487723829628188e-01 2.977651255755877e-01 3.711175109056916e-01 1.993236884592565e-01 2.336465786143662e-01 2.342034670795535e-01 5.333694552125386e-01 5.296830181111903e-01 2.930542893673351e-01 3.418922826132680e-01 5.067722751843166e-01 2.605472468299579e-01 2.190207188162040e-01 4.747177274977414e-01 2.685765809687478e-01 4.391311520751359e-01 4.989868040542212e-01 1.772884139650122e-01 1.813811481786200e-01 1.667015646878983e-01 5.020082369256067e-01 4.540564953107871e-01 3.558805640686052e-01 3.954072668035096e-01 1.616597644826254e-01 1.577911219738715e-01 1.281461145390206e-01 5.733729807929547e-01 1.888932302874613e-01 2.305180234360370e-01 5.109078857007289e-01 4.510125625690028e-01 2.385088004626337e-01 5.509636376300062e-01 5.480982899411200e-01 2.764688801224672e-01 2.279258997567832e-01 5.364346011902082e-01 2.207781185717292e-01 3.011707526246382e-01 2.032321080724810e-01 1.452516148422918e-01 3.618688210040016e-01 4.018011884348844e-01 3.656583166706525e-01 3.122759012321444e-01 2.336548314001256e-01 5.401631751724997e-01 5.369798710007613e-01 4.193337700267049e-01 2.268043233635925e-01 2.304027183361943e-01 2.893285045840512e-01 3.876973404265253e-01 4.288043771257528e-01 3.201385262759355e-01 1.391806874030443e-01 1.419623324121723e-01 4.888905248264206e-01 2.484447452303273e-01 4.052360134567782e-01 5.832303559134686e-01 3.043361167728739e-01 6.167705468484954e-01 6.161831597072155e-01 3.766150868516193e-01 1.669852104622915e-01 4.696351180711683e-01 4.659352210917372e-01 4.228357173743492e-01 3.768253499507302e-01 3.732831144119332e-01 4.431024257622198e-01 2.631552780613747e-01 5.032808542259353e-01 3.900184081395342e-01 5.531185906767249e-01 3.287511052122628e-01 6.122199050056081e-01 6.164877599705001e-01 6.166071846088160e-01 6.123437046913162e-01 6.108052973612768e-01 6.114084300289846e-01 3.055700752802977e-01 5.017966140909981e-01 4.243684995669994e-01 4.226507075685685e-01 1.627754914875393e-01 3.711030105894749e-01 1.631947188697444e-01 1.957679764711947e-01 5.784077721697732e-01 3.747003714710643e-01 3.774725040645355e-01 2.651655581246379e-01 2.688202763507298e-01 4.982223941188891e-01 4.578828885612770e-01 2.195103259511056e-01 3.773067828278905e-01 2.932092559935130e-01 3.939908590605750e-01 1.774514765043599e-01 1.693928944142170e-01 1.483971829194258e-01 2.084087220874657e-01 4.328694460316256e-01 5.200865736966335e-01 2.460023765619176e-01 4.599207800537298e-01 3.392889687387237e-01 1.374926812892627e-01 1.359899517769960e-01 2.049925790203747e-01 2.067586428265689e-01 4.915148260906523e-01 2.140453439303926e-01 3.014890951343365e-01 4.338218393517623e-01 4.312590651565464e-01 2.501739886691555e-01 5.203683735233915e-01 2.928351653344038e-01 2.510212692492662e-01 4.231314016809590e-01 6.211925919936734e-01 6.211925929360796e-01 2.122969988305712e-01 5.539580636491108e-01 4.360163562756244e-01 3.585710318062433e-01 1.247055489426979e-01 5.090126967475517e-01 2.572003300774326e-01 4.471763632386476e-01 1.879383566278120e-01 4.656216733888063e-01 6.162142813781216e-01 6.162142842074616e-01 4.981768616814874e-01 5.782953433269256e-01 5.737667154265145e-01 5.617590106823099e-01 1.582529517089107e-01 1.577272614031546e-01 5.868940302127437e-01 5.825277667129672e-01 3.690005078491524e-01 1.717834413008941e-01 2.954352719482102e-01 1.604826332755822e-01 1.624419427596538e-01 5.768118028469573e-01 4.273874182813043e-01 6.115386262843895e-01 6.116184439885972e-01 3.139201197410352e-01 2.761928977863152e-01 5.241367723799857e-01 2.427343093426939e-01 4.643249695261120e-01 1.910994807683571e-01 2.255972360583562e-01 5.388830449892829e-01 5.481022464545851e-01 2.783797510401452e-01 2.993369831003613e-01 3.637079395577090e-01 3.670777472998108e-01 4.062364867001298e-01 2.864136588206528e-01 5.540704432502771e-01 4.595722588091282e-01 4.558231895552357e-01 5.190594036170713e-01 5.148979979785751e-01 4.278577891224337e-01 2.833788154549320e-01 4.649615976267827e-01 2.733532455817503e-01 4.929775126399357e-01 2.971602229242225e-01 4.215114022419379e-01 4.809973956196973e-01 5.409127268858225e-01 5.272384164744168e-01 4.674275380724635e-01 4.233810094726842e-01 4.611764717494982e-01 2.708517232729697e-01 4.955604581497943e-01 1.734184566769861e-01 1.673971215063567e-01 1.963959837742886e-01 2.304637971275728e-01 5.347978475785167e-01 4.247254551543240e-01 5.908287508926102e-01 4.779422644541043e-01 5.477696398286397e-01 4.411946873632993e-01 2.662983476804838e-01 4.994339248618995e-01 4.566649226983288e-01 5.452562532425345e-01 4.057886657118389e-01 4.009694822984483e-01 3.376558412117162e-01 2.030959501140293e-01 2.212025849242793e-01 4.119762981068061e-01 5.967012694694817e-01 5.998413222458495e-01 3.487792881932623e-01 4.876404529633531e-01 4.277567612547957e-01 5.916449663503479e-01 1.543453864371755e-01 1.251437192039966e-01 1.291322269992520e-01 5.811117282555500e-01 5.856214858791684e-01 3.100838696907350e-01 2.650554508284137e-01 4.392376773618965e-01 4.985241595615789e-01 1.331039302858764e-01 1.292711730410962e-01 4.784938168994681e-01 3.036307699226638e-01 3.496335263730843e-01 3.733930306141341e-01 3.336534134316321e-01 5.866068828354611e-01 2.557131977799285e-01 3.664600041466646e-01 1.598705761617314e-01 5.998295090690423e-01 6.118147211826677e-01 6.163429338507198e-01 5.032223913775995e-01 3.041888428500016e-01 3.806887645912383e-01 3.842040008154861e-01 1.945412963885820e-01 5.330319149832123e-01 4.739185175865070e-01 2.096960358236829e-01 1.797542783792508e-01 4.382135413700667e-01 4.339504412776165e-01 1.968791141006944e-01 1.446749473760919e-01 2.803380647505270e-01 2.169254371710515e-01 2.670682666797535e-01 2.116183584670876e-01 3.672557145595757e-01 2.459002563296190e-01 4.604668347853489e-01 5.202877008090232e-01 3.534497408759975e-01 3.579422195279326e-01 2.242892913341828e-01 5.413563591953071e-01 3.381620331772920e-01 5.038025039972606e-01 3.966289338432349e-01 3.427773686536041e-01 3.471156953776653e-01 4.878967124976413e-01 5.966764657640440e-01 3.595607240670550e-01 3.629721507301287e-01 2.104420249217784e-01 5.754294066671837e-01 5.954766989060538