<?xml version="1.0"?>
<VTKFile type="UnstructuredGrid" version="0.1" byte_order="LittleEndian">
<UnstructuredGrid>
<Piece NumberOfPoints="714" NumberOfCells="1306">
<Points>
<DataArray type="Float64" NumberOfComponents="3" format="ascii">
0.000000000000000e+00 0.000000000000000e+00 0.000000000000000e+00 5.000000000000000e+00 0.000000000000000e+00 0.000000000000000e+00 5.000000000000000e+00 1.000000000000000e+00 0.000000000000000e+00 0.000000000000000e+00 1.000000000000000e+00 0.000000000000000e+00 9.999999999992801e-02 0.000000000000000e+00 0.000000000000000e+00 1.999999999998339e-01 0.000000000000000e+00 0.000000000000000e+00 2.999999999997341e-01 0.000000000000000e+00 0.000000000000000e+00 3.999999999996643e-01 0.000000000000000e+00 0.000000000000000e+00 4.999999999995944e-01 0.000000000000000e+00 0.000000000000000e+00 5.999999999995166e-01 0.000000000000000e+00 0.000000000000000e+00 6.999999999992880e-01 0.000000000000000e+00 0.000000000000000e+00 7.999999999989961e-01 0.000000000000000e+00 0.000000000000000e+00 8.999999999987042e-01 0.000000000000000e+00 0.000000000000000e+00 9.999999999984124e-01 0.000000000000000e+00 0.000000000000000e+00 1.099999999998120e+00 0.000000000000000e+00 0.000000000000000e+00 1.199999999997829e+00 0.000000000000000e+00 0.000000000000000e+00 1.299999999997537e+00 0.000000000000000e+00 0.000000000000000e+00 1.399999999997245e+00 0.000000000000000e+00 0.000000000000000e+00 1.499999999996953e+00 0.000000000000000e+00 0.000000000000000e+00 1.599999999996661e+00 0.000000000000000e+00 0.000000000000000e+00 1.699999999996369e+00 0.000000000000000e+00 0.000000000000000e+00 1.799999999996077e+00 0.000000000000000e+00 0.000000000000000e+00 1.899999999995785e+00 0.000000000000000e+00 0.000000000000000e+00 1.999999999995511e+00 0.000000000000000e+00 0.000000000000000e+00 2.099999999995593e+00 0.000000000000000e+00 0.000000000000000e+00 2.199999999995745e+00 0.000000000000000e+00 0.000000000000000e+00 2.299999999995897e+00 0.000000000000000e+00 0.000000000000000e+00 2.399999999996049e+00 0.000000000000000e+00 0.000000000000000e+00 2.499999999996201e+00 0.000000000000000e+00 0.000000000000000e+00 2.599999999996353e+00 0.000000000000000e+00 0.000000000000000e+00 2.699999999996505e+00 0.000000000000000e+00 0.000000000000000e+00 2.799999999996657e+00 0.000000000000000e+00 0.000000000000000e+00 2.899999999996809e+00 0.000000000000000e+00 0.000000000000000e+00 2.999999999996961e+00 0.000000000000000e+00 0.000000000000000e+00 3.099999999997114e+00 0.000000000000000e+00 0.000000000000000e+00 3.199999999997265e+00 0.000000000000000e+00 0.000000000000000e+00 3.299999999997417e+00 0.000000000000000e+00 0.000000000000000e+00 3.399999999997569e+00 0.000000000000000e+00 0.000000000000000e+00 3.499999999997721e+00 0.000000000000000e+00 0.000000000000000e+00 3.599999999997873e+00 0.000000000000000e+00 0.000000000000000e+00 3.699999999998025e+00 0.000000000000000e+00 0.000000000000000e+00 3.799999999998176e+00 0.000000000000000e+00 0.000000000000000e+00 3.899999999998329e+00 0.000000000000000e+00 0.000000000000000e+00 3.999999999998481e+00 0.000000000000000e+00 0.000000000000000e+00 4.099999999998633e+00 0.000000000000000e+00 0.000000000000000e+00 4.199999999998784e+00 0.000000000000000e+00 0.000000000000000e+00 4.299999999998937e+00 0.000000000000000e+00 0.000000000000000e+00 4.399999999999088e+00 0.000000000000000e+00 0.000000000000000e+00 4.499999999999240e+00 0.000000000000000e+00 0.000000000000000e+00 4.599999999999393e+00 0.000000000000000e+00 0.000000000000000e+00 4.699999999999545e+00 0.000000000000000e+00 0.000000000000000e+00 4.799999999999696e+00 0.000000000000000e+00 0.000000000000000e+00 4.899999999999848e+00 0.000000000000000e+00 0.000000000000000e+00 5.000000000000000e+00 9.999999999981467e-02 0.000000000000000e+00 5.000000000000000e+00 1.999999999995579e-01 0.000000000000000e+00 5.000000000000000e+00 2.999999999992664e-01 0.000000000000000e+00 5.000000000000000e+00 3.999999999989749e-01 0.000000000000000e+00 5.000000000000000e+00 4.999999999986943e-01 0.000000000000000e+00 5.000000000000000e+00 5.999999999989468e-01 0.000000000000000e+00 5.000000000000000e+00 6.999999999992100e-01 0.000000000000000e+00 5.000000000000000e+00 7.999999999994734e-01 0.000000000000000e+00 5.000000000000000e+00 8.999999999997368e-01 0.000000000000000e+00 4.899999999999999e+00 1.000000000000000e+00 0.000000000000000e+00 4.800000000000000e+00 1.000000000000000e+00 0.000000000000000e+00 4.699999999999999e+00 1.000000000000000e+00 0.000000000000000e+00 4.600000000000000e+00 1.000000000000000e+00 0.000000000000000e+00 4.499999999999999e+00 1.000000000000000e+00 0.000000000000000e+00 4.399999999999999e+00 1.000000000000000e+00 0.000000000000000e+00 4.299999999999999e+00 1.000000000000000e+00 0.000000000000000e+00 4.199999999999998e+00 1.000000000000000e+00 0.000000000000000e+00 4.099999999999999e+00 1.000000000000000e+00 0.000000000000000e+00 3.999999999999999e+00 1.000000000000000e+00 0.000000000000000e+00 3.899999999999999e+00 1.000000000000000e+00 0.000000000000000e+00 3.799999999999999e+00 1.000000000000000e+00 0.000000000000000e+00 3.699999999999998e+00 1.000000000000000e+00 0.000000000000000e+00 3.599999999999999e+00 1.000000000000000e+00 0.000000000000000e+00 3.499999999999999e+00 1.000000000000000e+00 0.000000000000000e+00 3.399999999999999e+00 1.000000000000000e+00 0.000000000000000e+00 3.299999999999999e+00 1.000000000000000e+00 0.000000000000000e+00 3.199999999999998e+00 1.000000000000000e+00 0.000000000000000e+00 3.099999999999999e+00 1.000000000000000e+00 0.000000000000000e+00 2.999999999999999e+00 1.000000000000000e+00 0.000000000000000e+00 2.899999999999999e+00 1.000000000000000e+00 0.000000000000000e+00 2.799999999999999e+00 1.000000000000000e+00 0.000000000000000e+00 2.699999999999999e+00 1.000000000000000e+00 0.000000000000000e+00 2.599999999999999e+00 1.000000000000000e+00 0.000000000000000e+00 2.500000000000000e+00 1.000000000000000e+00 0.000000000000000e+00 2.399999999999999e+00 1.000000000000000e+00 0.000000000000000e+00 2.299999999999999e+00 1.000000000000000e+00 0.000000000000000e+00 2.199999999999999e+00 1.000000000000000e+00 0.000000000000000e+00 2.100000000000000e+00 1.000000000000000e+00 0.000000000000000e+00 2.000000000000000e+00 1.000000000000000e+00 0.000000000000000e+00 1.899999999999999e+00 1.000000000000000e+00 0.000000000000000e+00 1.799999999999999e+00 1.000000000000000e+00 0.000000000000000e+00 1.699999999999999e+00 1.000000000000000e+00 0.000000000000000e+00 1.599999999999999e+00 1.000000000000000e+00 0.000000000000000e+00 1.500000000000000e+00 1.000000000000000e+00 0.000000000000000e+00 1.399999999999999e+00 1.000000000000000e+00 0.000000000000000e+00 1.299999999999999e+00 1.000000000000000e+00 0.000000000000000e+00 1.199999999999999e+00 1.000000000000000e+00 0.000000000000000e+00 1.100000000000000e+00 1.000000000000000e+00 0.000000000000000e+00 9.999999999999991e-01 1.000000000000000e+00 0.000000000000000e+00 8.999999999999995e-01 1.000000000000000e+00 0.000000000000000e+00 7.999999999999998e-01 1.000000000000000e+00 0.000000000000000e+00 7.000000000000002e-01 1.000000000000000e+00 0.000000000000000e+00 5.999999999999996e-01 1.000000000000000e+00 0.000000000000000e+00 4.999999999999991e-01 1.000000000000000e+00 0.000000000000000e+00 3.999999999999995e-01 1.000000000000000e+00 0.000000000000000e+00 3.000000000000007e-01 1.000000000000000e+00 0.000000000000000e+00 1.999999999999993e-01 1.000000000000000e+00 0.000000000000000e+00 9.999999999999964e-02 1.000000000000000e+00 0.000000000000000e+00 0.000000000000000e+00 8.999999999995836e-01 0.000000000000000e+00 0.000000000000000e+00 7.999999999999998e-01 0.000000000000000e+00 0.000000000000000e+00 7.000000000006934e-01 0.000000000000000e+00 0.000000000000000e+00 6.000000000013869e-01 0.000000000000000e+00 0.000000000000000e+00 5.000000000020587e-01 0.000000000000000e+00 0.000000000000000e+00 4.000000000016644e-01 0.000000000000000e+00 0.000000000000000e+00 3.000000000012483e-01 0.000000000000000e+00 0.000000000000000e+00 2.000000000008322e-01 0.000000000000000e+00 0.000000000000000e+00 1.000000000004160e-01 0.000000000000000e+00 7.477570327540725e-01 4.905967956478702e-01 0.000000000000000e+00 1.346210646643281e+00 4.806066422083806e-01 0.000000000000000e+00 1.949496869330408e+00 5.032480558805372e-01 0.000000000000000e+00 4.449999999999997e+00 5.000000000000384e-01 0.000000000000000e+00 3.859142349610828e+00 5.103468031113156e-01 0.000000000000000e+00 3.246530027037640e+00 5.183101712757180e-01 0.000000000000000e+00 2.657531292711257e+00 5.037429884868682e-01 0.000000000000000e+00 3.824015840967434e-01 6.064457502813875e-01 0.000000000000000e+00 2.306343155343502e+00 6.315316747431162e-01 0.000000000000000e+00 1.049999999998266e+00 3.374999999994497e-01 0.000000000000000e+00 1.641930697057102e+00 3.436055112169133e-01 0.000000000000000e+00 4.150000000000006e+00 6.625000000000185e-01 0.000000000000000e+00 3.552784161359181e+00 6.642488388863971e-01 0.000000000000000e+00 2.940292465243163e+00 6.575992780735344e-01 0.000000000000000e+00 1.641237689750194e+00 6.703960699373966e-01 0.000000000000000e+00 1.050000000000000e+00 6.706367924525535e-01 0.000000000000000e+00 2.960517759676693e+00 3.261740577967960e-01 0.000000000000000e+00 3.551899302943298e+00 3.210887133285832e-01 0.000000000000000e+00 4.150779393876139e+00 3.209867287821391e-01 0.000000000000000e+00 2.213980362532827e+00 3.194901812685164e-01 0.000000000000000e+00 4.927283029162088e-01 3.252862896001115e-01 0.000000000000000e+00 4.696684455724628e+00 3.145438084075651e-01 0.000000000000000e+00 4.690990908683984e+00 6.962960281446974e-01 0.000000000000000e+00 2.487221901830106e+00 2.763334294511438e-01 0.000000000000000e+00 6.215262983536076e-01 7.328515730233995e-01 0.000000000000000e+00 2.065768881873406e+00 7.342557316219342e-01 0.000000000000000e+00 2.543072460766750e+00 7.257064952909391e-01 0.000000000000000e+00 8.105176211436336e-01 2.535517621144286e-01 0.0000000000000
[...]
<PointData Scalars="pressure_p1," Vectors="" Tensors="">
<DataArray type="Float64" Name="pressure_p1" format="ascii">
3.670258817638261e-02 4.970839672576160e+00 4.970839676434326e+00 3.466094761579978e-02 1.157528075310088e-01 2.017949093667379e-01 2.943759113697831e-01 3.989660542080837e-01 5.017342534266789e-01 6.066865701926467e-01 7.002475030363429e-01 7.900518494570844e-01 8.916416271652006e-01 1.002019825469383e+00 1.100589336388049e+00 1.200479804284313e+00 1.301176175358617e+00 1.400844585307669e+00 1.499992967200296e+00 1.604212330020211e+00 1.706095960958809e+00 1.810498114252760e+00 1.898502577043101e+00 1.985445731024212e+00 2.099226311680499e+00 2.201716028760258e+00 2.304901393147193e+00 2.402882707582299e+00 2.497541141202201e+00 2.597282514055986e+00 2.698926749186365e+00 2.798925355665631e+00 2.899642292120725e+00 3.000557702095762e+00 3.097675630474962e+00 3.194448252454488e+00 3.287555468784634e+00 3.388384042165869e+00 3.502327326436816e+00 3.602375539169838e+00 3.696837964090578e+00 3.794033593724372e+00 3.888904952151220e+00 3.988825760566549e+00 4.104998783946316e+00 4.208006450310349e+00 4.300060328892251e+00 4.397494521037040e+00 4.496308525054117e+00 4.594545604300921e+00 4.699846541623937e+00 4.803173203151915e+00 4.897288757221223e+00 4.968148095404565e+00 4.967565907559631e+00 4.968544322833049e+00 4.967281800798744e+00 4.961043374034531e+00 4.968038249176453e+00 4.968984801089062e+00 4.967565901926671e+00 4.967214793834703e+00 4.896784747805050e+00 4.799436698683905e+00 4.705164075668868e+00 4.600681657902662e+00 4.486690066284391e+00 4.400933998953709e+00 4.314754953817826e+00 4.199852990933856e+00 4.098977427223523e+00 3.999566123164518e+00 3.898977083924606e+00 3.801515024728165e+00 3.700028923110718e+00 3.598420833944958e+00 3.499791161766307e+00 3.400066713619337e+00 3.290739083090406e+00 3.201315757142800e+00 3.113588689550556e+00 2.991936061119256e+00 2.891242497127477e+00 2.797973989824605e+00 2.700915855300719e+00 2.602394658821316e+00 2.503349373444328e+00 2.410469955517245e+00 2.312674510672446e+00 2.207503248750379e+00 2.097439489292637e+00 1.995147832790514e+00 1.902327964411272e+00 1.803646221346955e+00 1.708141252365677e+00 1.608071426028882e+00 1.501828847135261e+00 1.408676553854493e+00 1.307997626620723e+00 1.199240755530046e+00 1.096968529595340e+00 9.971644655745071e-01 9.053821563177259e-01 8.054995782552933e-01 6.974817797421807e-01 5.990750859531555e-01 5.019072212355963e-01 4.056207160667246e-01 3.019071814102667e-01 1.944017610430578e-01 1.041279843016110e-01 2.785752146014985e-02 3.046822898454950e-02 3.135827641866962e-02 2.788984178426128e-02 3.835441406100305e-02 2.723763678374833e-02 2.820829902946528e-02 2.879371244957439e-02 2.770348563777798e-02 7.478442959164819e-01 1.344626964786118e+00 1.949380029915664e+00 4.450909503312631e+00 3.861740088370389e+00 3.244535470035720e+00 2.659521630490404e+00 3.823804909260855e-01 2.307967336770764e+00 1.047520520742336e+00 1.638447506600805e+00 4.152599098483221e+00 3.553639982583452e+00 2.937485543075660e+00 1.639315944342012e+00 1.051795707727819e+00 2.963213201236677e+00 3.552556494607473e+00 4.151970390865874e+00 2.210811980127637e+00 4.931875352901782e-01 4.698167730015737e+00 4.690971294112432e+00 2.491974976481703e+00 6.221467378045512e-01 2.067832403256518e+00 2.543576828261951e+00 8.162424929348664e-01 1.292177657524939e+00 1.883881663051487e+00 4.384640370223840e+00 3.906531310471323e+00 3.186677459271220e+00 1.397895227429816e+00 3.201447724571627e+00 3.800780643434130e+00 4.393631523383982e+00 2.578920410054829e-01 2.723564713151875e+00 8.444517725293299e-01 2.195826328373497e-01 2.759945278785020e+00 1.827306333743917e+00 2.172052745551818e-01 4.796177983858311e+00 2.462792320921583e+00 3.698876917533458e+00 3.395761126758402e+00 1.494994247917712e+00 1.213531151767904e+00 3.984571505419602e+00 3.384645858444611e+00 5.598601737363617e-01 4.388981539370105e-01 2.135151075576179e+00 1.551025827986640e+00 3.050079211842562e+00 9.565189531035350e-01 3.648668279975561e+00 4.250204758652067e+00 1.154592094195517e+00 4.053399834957168e+00 3.451936493289472e+00 1.749285811712932e+00 2.856925302216542e+00 2.361385052352755e+00 2.054996906504502e+00 6.505451399606387e-01 4.559830504842559e+00 4.558028113382719e+00 2.317726734325023e+00 4.816256950767246e+00 4.832331391014853e+00 9.651227160346137e-01 1.732311894393604e+00 4.217852122208328e+00 3.019150439898823e+00 1.562741407189717e+00 3.035738133507556e+00 3.622695789605931e+00 4.229545691690048e+00 4.620684064105661e+00 4.045417826511648e-01 1.146135447266784e+00 4.053946725388896e+00 2.024953566985287e+00 6.586886187955613e-01 4.513332268302754e+00 1.035684416775517e+00 3.887382466503506e-01 3.541651006815719e+00 1.449455818052283e+00 3.749739357608022e+00 3.349357040180550e+00 1.250338706808958e+00 3.947777196702056e+00 3.349771420466087e+00 2.190299951047568e+00 1.649338691882960e-01 2.877296832944356e+00 4.845945132917906e+00 4.841219070043883e+00 2.767594528650309e+00 4.521376399634256e+00 2.599464042201401e+00 1.851179211737133e+00 8.558455877411938e-01 2.294428638164553e+00 2.614179735154611e+00 7.153109486058455e-01 1.396905807006943e-01 1.712295240431318e+00 2.628064970234921e+00 1.985565237213109e+00 2.444048429402657e+00 2.889472645433290e+00 1.368712693646097e-01 8.954883457309231e-01 3.086498975178557e+00 4.304499448513901e+00 1.192713755299125e+00 1.787769150042463e+00 4.007105135266998e+00 1.444050054718534e+00 4.360943835907451e+00 3.754055357760862e+00 3.161919848722914e+00 2.760415575278951e+00 2.361032665450699e+00 1.363165891335934e+00 3.842492769129479e+00 3.275488126066727e+00 5.617744241549725e-01 1.323722152066645e+00 3.282375135339645e+00 3.877679292074436e+00 2.042348104286943e+00 2.221651133610329e+00 5.169584974141631e-01 6.521086472707694e-01 1.947423119205654e+00 4.676705564105307e+00 4.701914792204370e+00 7.583121144347461e-01 2.474112276527500e+00 2.452099217420462e+00 2.170477703861129e+00 3.512969945955871e+00 4.113888995926263e+00 2.611082528510209e+00 4.359564127099940e+00 3.141039742148257e-01 1.339918893148115e-01 4.455283016542443e+00 1.611089608789171e+00 3.390158643796391e-01 4.978715133801627e-01 7.423848562182103e-01 3.136684754603992e+00 1.318692818918993e+00 3.881752108150777e+00 3.219711895826541e+00 2.938604751953121e-01 9.377795642284256e-01 1.927538933607992e+00 1.537337403875316e+00 3.062516606617804e+00 3.665081192026258e+00 4.264744398584304e+00 2.745915389274523e+00 7.964724298605802e-01 1.465015156018134e+00 3.734657971896322e+00 3.136447042393118e+00 3.464081930175743e-01 4.691899945072595e+00 1.936760683589513e+00 1.255922800543510e+00 3.945147527921892e+00 2.862250317767403e+00 4.413746434129279e+00 9.893595342547684e-01 2.769036359869592e-01 2.091254161143496e+00 8.387616893900118e-02 1.829496361701098e+00 8.725348177876860e-01 2.272185747827224e+00 1.763612228412212e+00 1.142759584541627e+00 2.541367793756356e+00 2.750337877350661e+00 1.260730341859481e-01 2.835156739100167e+00 3.639813823349922e+00 3.453268853950085e+00 4.151542698912152e+00 2.947777698681264e+00 3.550778691136271e+00 1.051035142961132e+00 1.644757206884830e+00 4.466019096841358e+00 4.894071817694360e+00 1.863864323487568e+00 2.517204184024114e+00 2.648472441433419e+00 2.313687403427386e-01 4.345342219641702e+00 4.034098341006718e+00 1.159526416927928e+00 3.434582450982539e+00 3.443545917909149e+00 3.661268848507742e+00 1.544729553923740e+00 1.054338313391905e+00 4.144808111692596e+00 3.809732927386287e+00 1.384955556182712e+00 3.283991797604567e+00 9.557981369878689e-01 4.715203163172013e+00 4.901196837985048e+00 4.900509868937863e+00 1.645365910021658e+00 1.057299925213909e+00 2.955455799317107e+00 3.554345143770776e+00 4.154097835820732e+00 8.232069394290330e-01 8.582686953540475e-02 1.303828108520109e+00 3.296592612195937e+00 3.896120522837772e+00 1.247185221731582e+00 3.955317942327329e+00 3.146435663333172e+00 2.272673741243034e+00 1.854970382083843e+00 1.130899767901113e+00 4.069306066176682e+00 2.951284531666400e+00 2.381906140417880e+00 5.678379164838581e-01 6.498371483295218e-01 4.546890628256636e+00 2.015064176505236e+00 8.557742375230253e-01 1.453035857207663e+00 2.357238966520913e+00 3.965161156022655e+00 3.365627030952225e+00 1.634932204984642e+00 6.836185649226627e-01 4.903460078950229e+00 4.900643402535849e+00 4.532648344658584e-01 2.850849192258898e+00 2.045861653216953e+00 2.129174818213992e+00 4.892815655773812e+00 2.929650219389164e+00 4.615566512040913e-01 4.347273407866836e+00 2.550462547704435e-01 2.104240447296036e+00 1.449563668450625e+00 3.749863074205450e+00 3.348108195134421e+00 5.858906235375122e-01 9.096061605191359e-01 3.094721134523124e+00 4.284415610123623e+00 1.802704666197206e+00 2.232684633862888e+00 2.050276216693029e+00 5.314286816955097e-01 4.154985622052765e+00 3.553470908942067e+00 2.854838860221786e+00 2.948799805238419e+00 6.661978427884375e-01 4.490541915012469e+00 4.589633229921797e+00 4.262894951791272e+00 1.536989976451249e+00 3.662964281940756e+00 3.062452779517854e+00 1.661732725453300e+00 1.549416247388368e+00 3.649807988453925e+00 3.450662734624066e+00 2.219913417732057e-01 2.752279686409128e+00 1.357186016329500e+00 3.834985163350463e+00 3.238216281851297e+00 1.745856216615834e+00 2.571633185110322e+00 3.455250033884979e+00 4.053990925377469e+00 4.448645302226631e+00 2.971430968046315e+00 1.627927673737520e+00 4.789368671240568e+00 4.787976655095800e+00 1.246254676553090e+00 4.928547446177265e-01 2.243861071656285e+00 4.603387130899242e+00 3.758769908206328e+00 3.353930130135840e+00 4.280935746627649e-01 1.950860463776924e+00 2.387337763692180e+00 2.367762286233976e+00 7.485991729606756e-01 4.480334435748872e+00 4.533517400874761e+00 1.021569489219327e+00 4.177108619714293e+00 2.646123773891562e+00 4.755759984904933e+00 2.462350435661012e+00 4.772886260837036e+00 4.253584498793544e+00 1.159466907196336e+00 6.437260651303435e-01 4.614975106888862e+00 4.607042548338324e+00 3.646103510462236e+00 3.047204644492640e+00 3.521589305787643e+00 8.256338204854084e-02 2.159195052812890e+00 1.679446281171466e+00 2.402849981445180e+00 9.588644282881645e-01 4.777644547050865e+00 4.182146314250034e+00 4.339720578679842e-01 1.075425153348968e+00 3.606224287298691e+00 2.556525142406638e+00 4.610685806483144e+00 2.370302934552838e+00 4.785488334359587e-01 1.271639647687268e+00 3.960801523694099e+00 2.536287937957519e+00 8.069874821118593e-02 4.533184679847726e+00 1.149989569896445e+00 4.049643569468716e+00 3.056455734976156e+00 9.045568273881496e-01 3.461909962311711e-01 2.581154233126563e+00 1.548952019942881e+00 4.313967720122481e+00 2.845135448030298e+00 3.385515092103658e-01 1.482885721755311e+00 3.117048103785485e+00 3.716052401537269e+00 2.690582835953063e+00 4.657061990476431e+00 4.706099153697346e+00 1.031593142560223e+00 2.516043526187751e+00 2.169545190134284e+00 1.226018161452807e+00 3.974820155278064e+00 3.548319737763586e+00 3.375175581032259e+00 3.004140450293729e-01 2.260385781260197e+00 3.631638622055158e-01 2.147463263999756e+00 1.758579259296365e+00 1.841485379961403e+00 9.756224682945355e-01 1.120678008509318e+00 1.720414950112715e+00 4.225567973277986e+00 4.079914756540951e+00 3.019252613690244e+00 2.496825891468736e+00 1.977322589124484e-01 3.455481396542682e+00 4.042305440360410e+00 2.691171944001323e+00 4.241575362555798e-01 2.432841267806132e+00 2.839935193420358e+00 6.155922000148076e-01 2.703653035804227e+00 4.928635091819296e+00 4.929536962332914e+00 8.420959560898687e-02 2.843364525105242e+00 1.752169561824517e+00 2.293094643008567e+00 3.272293253704035e+00 3.882759478446000e+00 8.203035234469660e-01 1.540895978351852e+00 3.560177514597566e+00 4.428383276729235e+00 7.689840547777332e-01 2.159479320601260e+00 2.719399881549053e+00 2.788040979957751e+00 2.554477935760700e+00 4.626093365739408e+00 7.380153497654396e-01 2.120553923197365e+00 4.801443794647184e+00 2.683650049555834e+00 4.157878776607618e-01 4.449704135916729e+00 2.217276278332905e+00 2.035531970031176e-01 1.716983964811806e+00 1.951721778468711e+00 2.656744914364167e+00 1.625937616610686e-01 3.013762143364001e+00 3.468897021591681e+00 1.999029015692707e+00 8.479073496541157e-01 1.219979480274441e+00 3.980168031775471e+00 9.727462042243955e-01 4.226938792285803e+00 2.143689871730471e-01 4.073221883184757e+00 3.473187862698218e+00 3.204364554344514e+00 1.853375440488662e+00 5.606997516636230e-01 2.014493436791941e+00 1.750575229831366e+00 1.862001813333233e+00 3.182732375213156e+00 4.767656626415297e+00 7.160689860897772e-01 1.382144252891538e+00 3.220171030193935e+00 3.818915238939103e+00 4.738614026264823e+00 1.760733189622281e-01 1.380260458322285e+00 3.833777167307431e+00 3.234689478892561e+00 3.213953963313856e+00 4.924371108016583e+00 4.923793132787763e+00 5.951472452066299e-01 4.638192107874163e+00 4.704576218902587e+00 2.307341367367605e+00 7.573054209717139e-02 1.383618722176853e+00 3.816938557564174e+00 3.283771021439101e+00 1.353169344372660e+00 3.849261543289992e+00 6.269437498163470e-02 3.708376319737610e-01 1.388897990744418e+00 1.128582187395922e+00 5.524106225074530e-01 3.163945227016002e+00 1.969634906612963e+00 6.424816161914240e-02 1.863439176391653e+00 1.320690807430775e+00 3.879368114637223e+00 2.094724260884786e+00 4.364963671786917e+00 8.344005893146971e-01 4.255936185472073e+00 6.759873795984701e-01 2.082811528035139e+00 4.436369826823584e+00 2.274946005444219e+00 1.564888806029566e+00 4.301843182669495e+00 1.456672989251480e+00 4.341954447513579e+00 3.743048073261922e+00 3.142699759240640e+00 8.915518307310416e-01 5.766940994244661e-01 4.480758867145471e+00 1.948925533503949e+00 4.539192550661099e+00 3.111785818930249e+00 2.707945581628826e+00 2.781360020660387e+00 1.914533730961210e+00 2.023807404007984e+00 7.518906352079151e-02 2.921290203786151e-01 2.456975678193131e+00 4.321377953936173e+00 2.798864404615197e+00 2.470093801522964e+00 1.466173026555535e-01 1.894989016684127e+00 7.519347711677148e-01 1.476574056889973e+00 3.722334844076605e+00 1.415601471839243e+00 3.784929294868024e+00 3.314989922563619e+00 8.099590177532580e-01 1.784878718499591e+00 1.624723202723017e-01 2.382641393192396e+00 6.907504750166056e-01 2.464996697772375e+00 2.549233688660019e+00 5.586795266817000e-01 3.364676851065810e+00 3.733211588442278e+00 1.465036687539684e+00 2.450615648974791e+00 1.293081150769995e+00 3.311795478219921e+00 3.910515819354052e+00 2.038542917593140e+00 6.579252558924864e-01 4.444755955315411e+00 8.141700568622120e-01 7.200223645189938e-02 4.282978206912643e+00 9.498613823235125e-01 4.033292245592349e+00 3.433698124425973e+00 3.307596722879940e-01 3.802444465440760e+00 3.967722022831008e+00 3.368202741235802e+00 1.231855728871750e+00 2.777243049927160e+00 2.234070615632064e+00 3.621115351855703e+00 4.221918274436515e+00 9.191070726422377e-01 3.022012575871950e+00 1.779316854204710e+00 4.132537585667133e+00 1.066025088171555e+00 3.078760524215129e+00 1.178030858524112e+00 4.022510151929810e+00 4.403610177174604e+00 4.667473488045197e-01 5.172228926149214e-01 4.670405604167795e+00 4.386753622717496e+00 1.578399608004088e+00 9.739293295247408e-01 1.520867719306376e-01 7.521137248849987e-01 2.654241671609114e+00 1.533414971111750e+00 3.116945631689960e+00 8.807452720980660e-01 4.627738244308168e+00 9.178311765975052e-01 3.308120746875695e+00 3.910519410295126e+00 2.915921958642854e+00 3.698213604517835e-01 4.393528610808644e+00 1.682780682263358e+00 4.836539470924930e+00 3.933651670714479e+00 1.266038656231800e+00 2.697207761144012e-01 4.848889821471743e+00 4.756379438644685e+00 1.940936704811406e+00 3.248316648787807e+00 1.348254801387904e+00 3.850634136868439e+00 4.935888591590672e+00 4.946847131675336e+00 2.613318842115540e+00 7.417246092935093e-01 2.405918942904476e+00 2.952909613408986e+00 
</DataArray>
</PointData>
<CellData Scalars="pressure_p0," Vectors="velocity_p0," Tensors="">
<DataArray type="Float64" Name="pressure_p0" format="ascii">