<?xml version="1.0"?>
<VTKFile type="UnstructuredGrid" version="0.1" byte_order="LittleEndian">
<UnstructuredGrid>
<Piece NumberOfPoints="568" NumberOfCells="1054">
<Points>
<DataArray type="Float64" NumberOfComponents="3" format="ascii">
0 0 0 0.049999999999899652 0 0 0.032369857048753323 0 0.032369857048862027 0.058433525112266523 0 0.058433525112214509 0 0 0.050000000000207989 0.099999999999814668 0 0 0.094457855579284628 0 0.040058458469418377 0.10018038848459949 0 0.1001803884845984 0.040058458469319463 0 0.094457855579157701 0 0 0.10000000000041601 0 0 0.15000000000062411 0.03725404360008934 0 0.1750000000007281 0.05377533243853682 0 0.1325005004430061 0.089842803725715389 0 0.1381841208714272 0.12294765968567151 0 0.14825146416195439 0.082790869735775666 0 0.17901245275062619 0.095543037456985586 0 0.22193261929963179 0.056452228708379938 0 0.23456580837661581 0 0 0.20000000000083221 0.20651120576393109 0 0.20199905954595571 0.21057947097242491 0 0.2417469648948872 0.158053632507308 0 0.2268013581628531 0.12653846297942931 0 0.19158732753109589 0.1696816851668107 0 0.16900770769873369 0.1895140536721657 0 0.12788918147180439 0.2247830792460255 0 0.1529153910504554 0.2185156616679583 0 0.10294584553875399 0.14812922079575311 0 0.1116768372643608 0.18172590289758209 0 0.08161197406129285 0.13429110747043921 0 0.052926350890909732 0.17499999999963081 0 0.037254043600333922 0.14999999999970359 0 0 0.23456580837633481 0 0.056452228708538207 0.19999999999955789 0 0 0.24999999999941211 0 0 0.28250371532178009 0 0.048314439960346241 0.29999999999926641 0 0 0.34999999999912063 0 0 0.3629341086827127 0 0.043743067292809718 0.32407664412868242 0 0.03147990422237483 0.32323905878352971 0 0.068797554874606648 0.35543598582779579 0 0.082982015632305867 0.37006613921504228 0 0.1127114780999451 0.33237048665962382 0 0.1136581284495253 0.29644905946097272 0 0.09738398694351863 0.25601550987287242 0 0.10272615176133371 0.48293373568619558 0 0.036430254038082047 0.49999999999869432 0 0 0.44999999999882923 0 0 0.44680728445084528 0 0.052197623590655128 0.40685581827241168 0 0.041139877312511758 0.3999999999989749 0 0 0.3916036288951929 0 0.079958203766499356 0.4316208759059188 0 0.086115928109670392 0.46532046045115349 0 0.1120462411422502 0.4752502695347145 0 0.077185407609287299 0.49991194100589043 0 0.16093363903022459 0.45743518697174701 0 0.1573953566633769 0.43240736009008829 0 0.18205680965402779 0.41348142939699623 0 0.1304176489881628 0.39686507344417149 0 0.16696943013009691 0.38053974351486231 0 0.20482643591764671 0.42511586293556319 0 0.221781893189434 0.46128442072854448 0 0.20274793947042791 0.49999999999997102 0 0.21968641114982909 0.30329479422196592 0 0.15713877348901781 0.2631894976960133 0 0.14610173397257309 0.36018342751929311 0 0.15323582203070049 0.33352531839774341 0 0.18597734890393791 0.33179683980498331 0 0.2223019939720309 0.29346687340408079 0 0.24384901136619991 0.30250773648392321 0 0.20267924172263391 0.26017196519013502 0 0.20370391303005 0.25082138072344978 0 0.25770010742236849 0.25725688379080608 0 0.29271415021599467 0.29285714285711661 0 0.2928571428571638 0.32267250342477011 0 0.27158624156492173 0.3558533770855537 0 0.25608022367925543 0.35468905333555628 0 0.30354850823225432 0.3223485407613903 0 0.31729940920074262 0.34804757266227387 0 0.35750068079406028 0.28936363433567769 0 0.34096001733818271 0.48451522907125188 0 0.2979898765740453 0.45370534537989432 0 0.25219241102783818 0.43171291966674152 0 0.30453214969181508 0.40318055958881172 0 0.25603502111398402 0.39162098771181331 0 0.29503699292854579 0.39120887188745579 0 0.33407577688404289 0.43301393728221038 0 0.3598432055749215 0.49950852667988122 0 0.37177384892568449 0.47253211736503092 0 0.34081710830804929 0.46454436163172108 0 0.3887849939350001 0.46102425708533712 0 0.43254199134332599 0.42922464544284911 0 0.40630340531121673 0.39019247057184381 0 0.37859653529062909 0.39496273408169691 0 0.41776538878733838 0.37702386074717242 0 0.45819417564476822 0.4107495277344459 0 0.49037725997835019 0.42316408760146962 0 0.44801031954207648 0.46175016025438481 0 0.47347049777522349 0.29796045116672282 0 0.43015960494410788 0.25449651740659451 0 0.38808141346477132 0.31019453158398091 0 0.39329859738987311 0.35385289791388408 0 0.40159277289475548 0.33382663527330159 0 0.44130125047503488 0.33651319436468952 0 0.4783441239363237 0.30134135312955679 0 0.46879574451330441 0.26364085314390329 0 0.44783523059915831 0.26226050147839369 0 0.49110019321786108 0.19198133915115559 0 0.46586026795645807 0.23291809223701501 0 0.4656974769237659 0.2208071321930753 0 0.43163039621411609 0.19870171725042279 0 0.38861432954547492 0.17821487671629599 0 0.43120055987028061 0.14821922925614839 0 0.40625311789773111 0.14372581841487611 0 0.45307699983828398 0.1586365872515651 0 0.49489972778326169 0.1089627379823233 0 0.48695581311184433 0.065269678217979632 0 0.48498822282228249 0.029444907164209121 0 0.47500000000196552 0.043903581319822103 0 0.4396595897603241 0 0 0.45000000000187229 0.060355908961946793 0 0.39369310381996869 0 0 0.40000000000166441 0.097089465249167464 0 0.43605177560980668 0.11010057308181009 0 0.381520439012282 0.075118110585058809 0 0.33967192637290311 0.1185585700790238 0 0.33658228590826972 0 0 0.35000000000145642 0.033928849768172148 0 0.36303967476065702 0.03379823124261027 0 0.32804723569673411 0 0 0.30000000000124832 0.053537423120311442 0 0.28721465904708382 0 0 0.25000000000104028 0.1007821570193273 0 0.30431615859651262 0.1104903431171893 0 0.26289419189694579 0.14920367104265289 0 0.30541547055433838 0.16670639615124161 0 0.26639914963125938 0.2067805405838698 0 0.28584838460408118 0.19325512052991989 0 0.33306663985341661 0.24094941244017279 0 0.32436008629998692 0.22213230492347791 0 0.35847848963573758 0.15401470087117619 0 0.36030748482174652 1 0 0.19999999999955789 1 0 0.24999999999941211 0.94354777129145917 0 0.23456580837633551 0.89802923195804896 0 0.21811367046334759 0.87596596465772447 0 0.18867153496981909 0.91838802593870938 0 0.18172590289757809 0.89159184379670986 0 0.14494072992816051 0.9470736491090942 0 0.13429110747043591 0.96274595639966776 0 0.17499999999963081 1 0 0.14999999999970359 1 0 0.099999999999814668 0.95994154153057998 0 0.094457855579277689 1 0 0.049999999999899652 0.96763014295114447 0 0.032369857048773917 0.94156647488778245 0 0.058433525112256669 0.94999999999986839 0 0 1 0 0 0.89999999999973679 0 0 0.90554214442081615 0 0.04005845846934717 0.89981961151540379 0 0.1001803884845969 0.85174853583807242 0 0.1229476596856862 0.82098754724941847 0 0.082790869735818007 0.86181587912858637 0 0.08984280372574327 0.86749949955697314 0 0.05377533243858712 0.82499999999953888 0 0.037254043600147273 0.84999999999960507 0 0 0.79999999999947335 0 0 0.7654341916234465 0 0.056452228708420919 0.77806738070040027 0 0.095543037457036364 0.77319187461838601 0 0.1580414468185819 0.80841177017310029 0 0.12653683822095729 0.83099229230126881 0 0.16968168516679721 0.84746345792040523 0 0.22492258526225159 0.75825654232551043 0 0.2105777466250684 0.79805055135431524 0 0.20652818180758831 0.71415161539593597 0 0.20678054058386669 0.67563991370002585 0 0.24094941244015911 0.6415191552096835 0 0.22207372191542479 0.6669333601466102 0 0.19325512052990951 0.63969251517826664 0 0.15401470087115929 0.69457776222691059 0 0.1491914853539334 0.73358957167080407 0 0.16668608667004459 0.73703475230600179 0 0.11036239338565321 0.69564157139735316 0 0.100785591047804 0.71258228990280137 0 0.053690952490469027 0.69999999999921003 0 0 0.74999999999934175 0 0 0.64999999999907843 0 0 0.67192311240406333 0 0.033820651404645997 0.63694179437019638 0 0.033931461840544977 0.66030873543186752 0 0.075132732429877641 0.66340090130685259 0 0.11855630949779281 0.61837957051503323 0 0.1100811825664081 0.56315763975672206 0 0.096917780229301378 0.60621690475468748 0 0.060338457498094439 0.59999999999894682 0 0 0.52499999999875446 0 0.02944490716446933 0.5499999999988151 0 0 0.56026567019024531 0 0.043887089595726007 0.51521969278951962 0 0.065310389184250167 0.51240296464009005 0 0.1092034132851365 0.54618742926256092 0 0.14398871197731891 0.59356619921281006 0 0.14822720903697389 0.56879944012975414 0 0.17821487671634589 0.61138567045458314 0 0.1987017172504206 0.56832385264223995 0 0.2206577527778586 0.53283923177677006 0 0.2319180116344591 0.5334764372375963 0 0.19224917980959499 0.52906838132685197 0 0.29676734998227472 0.50697050072006788 0 0.26184857647360332 0.55176714003520688 0 0.26264793645511891 0.6119044556076344 0 0.25414501935824879 0.60628236686295423 0 0.30976861159962632 0.56984039505589401 0 0.29796045116672693 0.59389473899031153 0 0.35072537054467579 0.55869874952496712 0 0.33382663527330642 0.51514249589217276 0 0.33149230404233487 0.54715635490880621 0 0.37829016026862078 0.5487649968682462 0 0.42273278605230202 0.5016503264876655 0 0.40929152596651552 0.50753758205811106 0 0.45065628736132751 0.5472909711595727 0 0.46659262218386188 0.62205415260980468 0 0.47198370367529929 0.58457744135451362 0 0.47965822781101802 0.59238418396128045 0 0.4409354247555563 0.60317301798432987 0 0.39228863993079988 0.66592422311595956 0 0.39120887188746251 0.64015679442508122 0 0.43301393728221732 0.6639961791532627 0 0.4670077752602913 0.70093392681741462 0 0.48596826265374382 0.7469787439804928 0 0.45635473682499073 0.69573605525800952 0 0.43160553488103942 0.70496300707145609 0 0.39162098771181991 0.74387288499805526 0 0.40347493641604848 0.74208521326295984 0 0.36164460397718329 0.72749610249006957 0 0.3249789658266235 0.69645149176774834 0 0.35468905333556078 0.64249931920594172 0 0.34804757266228042 0.68269509027005715 0 0.32233866878637241 0.65899872869279463 0 0.28928959452303532 0.70728584978400144 0 0.25725688379081818 0.74229989257762252 0 0.25082138072345389 0.70714285714283931 0 0.2928571428571245 0.79792399133360037 0 0.30219159128211909 0.75615098863379926 0 0.29346687340407718 0.79629608696994103 0 0.260171965190
[...]
<CellData Scalars="pressure_p0,piezo_head_p0," Vectors="velocity_p0," Tensors="">
<DataArray type="Float64" Name="pressure_p0" format="ascii">
1.0612151932691976 1.0778542840201788 1.0583671599457447 1.0417466411117908 1.057466507204369 1.0751882104634998 1.0557672229897421 1.0241288353798279 1.0043447093740094 1.0223854971086768 0.97974464221784485 0.96518911803794882 0.96859265393005822 1.0072907725010867 1.0210871098755252 0.97986834803916123 0.96144502184629954 0.93656788808185421 0.91422515476813149 0.92690711649065016 0.93906130526373732 0.93375702742500566 0.95987955615947751 0.91600649898723496 0.85216770877235093 0.87752661549133459 0.89164938022107965 0.84976662109032919 0.86143565242173636 0.88621857406708493 0.89311068145681549 0.87262400599474765 0.85404117923153455 0.86527128448724089 0.8757154709798689 0.8440778323363356 0.89308942982365935 0.88946028619129347 0.91917617116714623 0.94563291470084243 0.95225639423467001 0.93839474021800784 0.96020521115377377 0.91377219575348767 0.90201849517539223 0.92039010249109365 0.95392648107184175 0.96839020842082191 0.98399707090701272 1.0076371328409581 1.0004262839987463 0.98125210931213558 1.0062708399402831 1.0002387982851682 1.0309716174375112 1.0757011624909629 1.0581977155006537 1.0707328524355848 1.0295890965536005 1.056717009972848 1.0689492296074425 1.0712536405758679 1.0526355930365217 1.0375506735428179 1.0605387091109182 1.0764204566893338 1.0616352543530276 1.0718626289186337 1.0388078463639583 0.99379372303423075 0.99838430401050271 1.0215511622550686 1.0175924258207829 0.99460403938638475 0.98360369286989657 0.96447848965330363 0.97216131395483818 1.0184226265201495 1.0046220651787203 1.0156994645562891 1.0254575095346001 1.0731094661856386 1.0559156866319896 1.0300950340791064 1.0260117096519217 1.0546369700232971 1.0722071356390943 1.0579497959941842 1.0313418817050606 0.97859671854200614 0.98721448610477613 0.97623757126913269 1.0169734498811054 0.99372463111545661 1.0137378293407493 0.98570752917191951 0.91166710834699849 0.9576952962650791 0.94186632474470189 0.95239328848794724 0.90492898098986674 0.92628668558209548 0.92921722757849456 0.95432933022082889 0.93617253780436727 0.91155770137528891 0.90167021755269983 0.85884835235798884 0.84777407931018023 0.84275091925972812 0.88331540949554621 0.88364027228114361 0.86019999891502352 0.86054007690749734 0.84062755895186481 0.89072438646196106 0.91873789545493889 0.95392976479538227 0.94568227782016789 0.96021168399459822 0.90549572830821978 0.90543613718145455 0.92164182188979782 0.88369406136685424 0.88266663390891553 0.85929592564155954 0.83739557078482085 0.84172055299989679 0.86465068642852305 0.87109536383695618 0.89982320555333062 0.85305130376421934 0.80738057802233287 0.82340327504932942 0.77969024156270117 0.81850585889091221 0.8103486519782761 0.80223706008373141 0.79022182678074016 0.79405606818666707 0.7496043992596817 0.76164383471210728 0.75571420994761418 0.72454886945699415 0.73804436958069042 0.71496238709869653 0.76950454949090297 0.77125797301054067 0.81462022785524368 0.80081457493333263 0.8012857451521479 0.81520051194091347 0.81776274439965468 0.77618331151306008 0.77543546732407509 0.72934802750780081 0.73064349010582053 0.75368039189773905 0.75094898096200091 0.77121636886158829 0.72272823922842133 0.71831813972698788 0.73706907099412777 0.76174435164223642 0.67536753224689794 0.65444180897197679 0.69531763151256298 0.70125235330622782 0.65754337803935559 0.67689886902616681 0.66294636547788321 0.70514062211537842 0.68619217595391124 0.6882701012446919 0.66202088676779836 0.64614955577833499 0.62199546343538881 0.60171710370954512 0.61622030067888867 0.63498656293424738 0.59375972100037966 0.58943850436555545 0.6103288772033042 0.63340312990302849 0.66782856484466335 0.68550778512589949 0.70414492731334266 0.70851563136026852 0.65467887598254482 0.66749178419070898 0.6765532286882775 0.62655619744158852 0.6294838030823563 0.6063087032608806 0.60258841082778647 0.59895694550609457 0.6410042879250073 0.64268937663061931 0.62267926523357642 0.62122315302271036 0.60586540926921872 0.60538657370939908 0.61453490385718401 0.63690370392024809 0.64846787067642597 0.64242086022462896 0.66777669992429634 0.67375056174565784 0.68755464409443134 0.71160130204389027 0.7083294285676478 0.70571868115089997 0.66146252745324374 0.68237215302662013 0.66015167318463108 0.64178884209440235 0.62105977761881104 0.61451706655111438 0.59492514669505081 0.62372482347480007 0.639273190096185 0.63391318847704881 0.61851882041593886 0.59669615080417082 0.60150834135012543 0.62668360818419533 0.63814016223113557 0.66261500780425175 0.68097427578023306 0.70606148231381738 0.6836625102364654 0.66907926500647985 0.68797933245848397 0.73823700110095913 0.71960273013582432 0.77475301426743681 0.76363152819357105 0.74400625758152428 0.7204110769226082 0.72577183320339622 0.74734640642151184 0.77225054978883567 0.76472812056543871 0.78535537437940006 0.83261793953550456 0.81106651175791633 0.79904033196376056 0.77997884097785308 0.80520848129451439 0.82826501735997327 0.8373343202940644 0.81140014628053936 0.78151183906446697 0.80358087563427971 0.82443030469188316 0.81002528346071156 0.82704055375555807 0.78803479533992926 0.77495350085177062 0.73257200705140912 0.75094893574028965 0.7299575122645523 0.72961117155826516 0.73128056985693446 0.75620120338271801 0.75714751342122266 0.88354833398397847 0.87735818643546959 0.8521372715941391 0.84418842911674774 0.84758455474357608 0.88464137789129715 0.86913449703202006 0.90920575896709788 0.92734758677928752 0.95468961213852821 0.9171988796376308 0.90573180778360496 0.92779075063544258 0.95291557284187245 0.97152181116228609 1.0136153579767664 0.99970023858481527 1.0343483973727705 1.0510618311877853 1.0705302579491929 1.053835647641552 1.0680722781104102 1.0485364348278357 1.0502252751925649 1.0002045127382082 1.0167739076635283 1.0151304416345901 0.99690382418844214 0.97152513196499601 0.95861465333845186 0.97709862319512619 0.98305325786076536 0.9708864448814063 1.0061502848935866 1.0237864663984211 1.0694353567069119 1.0513665902859199 1.0636658441869624 1.0633924136263468 1.0507866641785324 1.0231068605343032 0.99475159108933586 1.0037471266122551 0.98021770646990714 0.96076880312897117 0.90348592561901353 0.90344350943028617 0.95516615264581528 0.93021739674650572 0.94178628696736411 0.93545668069367083 0.91338663378550322 0.88082303944606777 0.8866387521627257 0.87025070330435228 0.83251060831438506 0.85053804059661375 0.83135168429918371 0.85561162287529502 0.84092661400541902 0.88993718129313915 0.88735485146510928 0.85912556192164369 0.843658030630978 0.84723470531342593 0.84387510482279637 0.86401487351136597 0.87842275120013835 0.86883615149049709 0.91741282091663878 0.9011878959472801 0.95574476942000963 0.942395690797309 0.89947829863125706 0.90812991442056323 0.93710138841394697 0.94031405069810448 0.962471530225677 0.99432160526558877 1.0063362444315684 1.0089149673550235 1.0457171427261653 1.0537005786594422 1.0647362692256697 1.0722344091518397 1.060706832572317 1.0718086558338853 1.028764989891358 1.0356124484994242 1.0269957430149139 1.0016546564371014 0.95998348766577191 0.98484204999245306 0.98201225871879561 0.96546876522543246 1.0170520843971487 0.9947496103222675 1.0522709231739802 1.049233513387192 1.0695612399960559 1.0748916187559612 1.0630059154732543 1.0600305500634153 1.038390693344373 1.0411766851697641 1.0010850132947799 0.99415572933819041 1.0157464360280426 0.96779471920093063 0.9467089713048833 0.91892711258254356 0.91285957084766189 0.95444431985130973 0.94610482268491447 0.91653373158636087 0.90874769691921142 0.92729149918724907 0.8846688404998726 0.85829696807490763 0.85910554132492056 0.83802326541578576 0.84583513329585913 0.84698739170283466 0.87006747242582483 0.89389135774260642 0.86941798287794148 0.88717462546996928 0.77457849623886843 0.79839088565061123 0.79935875960864489 0.77609231635206344 0.83239799387957358 0.81078213877480132 0.8121885749339921 0.79614692917190411 0.76979255249386747 0.7520053337786059 0.74674679755701145 0.71911859733648731 0.72944921128449569 0.70960553187132036 0.73637346887503796 0.76370135980341414 0.72409012225029634 0.69823351942189693 0.68087485543861082 0.6570207314650196 0.63752477510923289 0.59199071005024806 0.59829775960175124 0.61185915850422234 0.59231259099042832 0.58369518393477637 0.64007959866766062 0.62072074706484492 0.63349163355631055 0.61827677376306622 0.66039305479447363 0.66452259359881549 0.68582099328347024 0.67656795734510999 0.70508829876724033 0.66271831099750211 0.6241663728090292 0.63720935088344344 0.618910183231274 0.59497524059962814 0.60033509289165665 0.59612282643482173 0.62192123879566075 0.64952764071144742 0.67163271106461653 0.70213349048977935 0.67623909267316606 0.69496903410537336 0.73398328524325029 0.74130552827103213 0.76822848303470281 0.74750217897409466 0.71166346343216147 0.71715084112614969 0.76696635498115207 0.76234465270680207 0.74019291045301538 0.78054149784071003 0.82129198411155069 0.79858185252791603 0.81981443464212944 0.80226827695930325 0.80245690811068271 0.81481292012866002 0.77759667184708381 0.79190983802023696 0.7956280870932988 0.77158626495628013 0.81309763219077624 0.80487701884786889 0.7923925470291322 0.76804377705230642 0.74833293640097365 0.74776971231227662 0.72523353166781335 0.72170611246798022 0.73154335667278192 0.75877869750080462 0.76419637532562157 0.72145056577171252 0.67550712725849271 0.6974212257018062 0.66535771998194337 0.65094509748027107 0.6308243994756364 0.63857022853286138 0.59037724903151334 0.59081679023551248 0.60570728907583271 0.58408148272429838 0.60296620582822291 0.60449296623989612 0.62753802930981262 0.63226519626116129 0.66421775690827545 0.64371650975334638 0.6991790321770861 0.67484071975444493 0.69766188975583998 0.68859018751019785 0.68682740368698025 0.66779174915823758 0.64074235509185407 0.66572024332414093 0.61955100890142178 0.6256768321306807 0.59219565007632058 0.59862016486524616 0.58492592675717425 0.60822148151538036 0.6167652133631838 0.65864773428005807 0.64270398738623213 0.64892927788069787 0.69109978279335404 0.68817031464428324 0.73316333770756748 0.70743644912765014 0.75450804399847016 0.7423529126842936 0.70641672796281463 0.73182642439785039 0.70861151108110776 0.72670159848517812 0.74251699842689844 0.76244904739295771 0.7790253083801526 0.7691529676221428 0.80832448380610789 0.80166421750630112 0.82245998774934281 0.82439648225274986 0.80232017269335798 0.7773377801054806 0.76962383182975924 0.37360319776134282 0.34610317755328962 0.32309579071962469 0.3280912186880332 0.35965923665881899 0.35290530385493007 0.37964250086985307 0.38546582920545391 0.39698777523225859 0.423910820030314 0.44349870387363455 0.43681230117706282 0.38769626849864014 0.4138979686799984 0.3952834000094903 0.4173370142153997 0.44231094166384965 0.45758207421835229 0.48413025989952885 0.50346969381912732 0.52930798457473927 0.54134000089410972 0.56784050763167626 0.57298293664283917 0.5499771003323537 0.54497862040346967 0.5750110784348782 0.52836692103854555 0.53463890863356478 0.48193951654571798 0.49703963382384098 0.47718806586912688 0.45583930447847631 0.45883610316091983 0.50545254037887166 0.48340849809711139 0.50695205832658274 0.52631440857226852 0.5497790259348635 0.55657613165758213 0.56466918977965952 0.55517007937326701 0.56597389982892643 0.53186141086226424 0.51921622213071061 0.52601880808298884 0.49923885508501936 0.49258131993297438 0.45333801261099205 0.47842204311457659 0.43166978330619299 0.41208794987619146 0.386827563387457 0.43382654960891542 0.43385430142516801 0.43149695908762031 0.4052944918395528 0.4046474942379793 0.37929564161426993 0.35581895684453502 0.31939231420979503 0.34686683462558898 0.33433019669118769 0.33238293765246529 0.35067785188631295 0.37361212245524145 0.38351086145268753 0.35429168211170581 0.33796008143443246 0.34426763407465377 0.32674713794636068 0.35491378329205897 0.3637272684893324 0.3699271687286162 0.37454177023839846 0.41572496714817792 0.40387662420572007 0.41058727219421709 0.44161763319159358 0.45094130479596262 0.42640391953818546 0.39286415709958394 0.3936657781148562 0.48144778524572218 0.49942759777190071 0.52671336547218073 0.52827423135743112 0.57207045294834158 0.54724535288678966 0.54932510123587008 0.5496563278110409 0.57395145778730428 0.54142483411173536 0.50928765625717531 0.49324573729459176 0.50036648940500972 0.49114507126959372 0.4628768691806413 0.46326728937205663 0.47051021891420292 0.51781826954443899 0.50593133173536309 0.49774392646803078 0.54104157869711456 0.55720063495897643 0.58055904560241778 0.55577728253382863 0.56508680031010805 0.54802521387087 0.55246319567349256 0.50735079376301584 0.51998480074052766 0.47641842729011452 0.4596962645161583 0.47659155847664347 0.41583119197370777 0.41826682365511902 0.39643857220200307 0.41512603028914385 0.43450440252536893 0.44103941370175614 0.44380853685330424 0.41489492047793586 0.36546098407385808 0.39159055951894928 0.3900730666923935 0.34848259031962914 0.35246872491766768 0.35723768341315354 0.37004825872565372 0.28345024091238236 0.27901094054101833 0.3087704999717264 0.32942228263695733 0.3078630927443945 0.32456732835293423 0.30660466223351129 0.31752831851906327 0.28216735138251986 0.23851807545657033 0.23687434769570342 0.26287098022603489 0.25129054285991875 0.20747961728146369 0.22683207138252953 0.21418587992301696 0.26251141668733935 0.25714456499243338 0.21234959789669713 0.22685974295975303 0.18369572551348257 0.152633864140374 0.17338559372734208 0.1445634191072584 0.13773844907356997 0.11090242173956812 0.095527067057607787 0.10158108896084311 0.09000642876846135 0.10958063006231375 0.13807061138913523 0.12872060814276476 0.1455914197401266 0.17621322308063797 0.18938195765051577 0.18329114527749313 0.17496992545689521 0.161821847327065 0.15850671127564825 0.16517464011618849 0.1352486109342429 0.14130237756628489 0.11631638919982035 0.075543786718678174 0.085203707271987839 0.093219128052835623 0.07604979087849234 0.089836857431742967 0.11491512656171446 0.09318081866680511 0.14516346944774083 0.12808926948694421 0.13721030997165282 0.19192121530906997 0.1773873001053527 0.23590824545921019 0.25211189573278536 0.19953550264634945 0.2129829965782935 0.19942213518085156 0.25476948110609332 0.23652931468166308 0.27534343386929822 0.27784853378879437 0.30456480821935999 0.32068400752976778 0.296003331194158 0.30657423256475025 0.28819694796104245 0.25819887456049029 0.2564085576721602 0.28485500868094848 0.30455779481821765 0.291446695036993 0.31310839022920373 0.26058646310625772 0.27761955246122605 0.26590554659654952 0.23208486933104994 0.20786078828715521 0.20329266523778419 0.23539862579655049 0.19798431321637125 0.21790370454746416 0.24336291220075568 0.20240436107537119 0.18082724394766209 0.17153531735228356 0.14458882251601091 0.14951905844501251 0.11874000076664099 0.08705079463460505 0.073371420451994976 0.064731953143495016 0.064793565866019448 0.08285276923505322 0.11480735972661327 0.13399830727036599 0.12853900276791874 0.17385926188151052 0.15670099357068487 0.15950863135321808 0.18130319613468399 0.16392735290446053 0.13600689884443759 0.11636639691291453 0.11578967377177884 0.078552193524111746 0.078179509023207472 0.056769138039673997 0.051716894216864304 0.070636054212126737 0.074592032211954845 0.093168975763140496 0.13182987502487228 0.11656797285238701 0.16321352944107823 0.1834971787416794 0.21088164177334784 0.23451861638079702 0.22273241651171349 0.21368562886176448 0.18430144490472938 0.23492070732102571 0.27572740943624308 0.26083904064354074 0.30283993984504876 0.30477606802331852 0.29179106687447748 0.26505175728986979 0.25881799717991694 0.42970315664729775 0.43053329447170102 0.4520208001644711 0.45478309214851187 0.44509241652275622 0.45433385199415188 0.41311268391337119 0.41916997828576574 0.3879854084181511 0.38383240201953661 0.40657183228944715 0.36676735638936064 0.37529500941816796 0.41075452063845819 0.38766821675812518 0.37392122156556573 0.35952542397087112 0.38121845155117901 0.40161785938465633 0.41053840214877069 0.38004636825437538 0.35700560374717905 0.41081265071519868 0.40365693103574318 0.42527416284850061 0.43661639225153875 0.46939792923305201 0.4453413199752122 0.4171615289164789 0.43599528706999202 0.46813933808709096 0.44623188203100683 0.47009215261409587 0.45082728383712956 0.48854995925549616 0.50663569819679566 0.53216571190661788 0.50848828223458764 0.48758144915158608 0.4847473749731967 0.52448638073387865 0.53055618035506247 0.51552657268720403 0.55513186269644699 0.56320739920396312 0.58529252220849504 0.5723879924127897 0.55233834899118128 0.54651156797450984 0.57866057405750837 0.57177548842491155 0.58806772187202627 0.57045212385824451 0.54671682273091193 0.54219373820568639 0.53119449194126467 0.50971074756289458 0.49939017836326022 0.47627560901412769 0.48657778490222159 0.47810817941681827 0.49841238197689147 0.477220687519324 0.50832711339372161 0.52184470159142715 0.54144811102162849 0.53416053909041517 0.58198693750348651 0.56552688362270542 0.58024455567693289 0.57479078632101011 0.54873760303385777 0.56784151651799641 0.58825456836865486 0.55241174234082258 0.55020798128208281 0.53144764063630767 0.54905647226080678 0.50918324461270936 0.49676448126281958 0.46895445317343859 0.47169484778096149 0.49632343039448268 0.47916340906342658 0.52251050142922462 0.50102792077946201 0.52276614281803679 0.56413966152692874 0.54723593003237769 0.55376177591246223 0.53380274045710896 0.57498601985113618 0.57717952234336223 0.53025216591618729 0.50634750197080947 0.48988380941986487 0.47852544444990736 0.5157460748194479 0.4957259709920816 0.52409940443133651 0.48573657441834434 0.46644896559610716 0.51132064102181374 0.39951186459250065 0.44213225787484406 0.4343335094525736 0.41030414850143004 0.41463125756467489 0.43837925697540059 0.45591934754252439 0.46413195757800396 0.45277675744561185 0.42369448327464088 0.4067952864312091 0.37730025781591192 0.36209192660258699 0.37608806979183762 0.39914328155927126 0.36236780050130063 0.33948518796881255 0.37462249345422288 0.42799495602632137 0.40809653143064128 0.43493226140202668 0.44144904243329441 0.46281004847116969 0.45676025673328569 0.40635386377445165 0.41252636886283545 0.43440550782706489 0.35498083950455184 0.3955170696493403 0.37523735504586941 0.35758933351978961 0.37482142202246937 0.39973381675571074 0.37607487131596173 0.36375989572494205 0.33622882239032637 0.32210663552394148 0.29523388182727589 0.33199661517718776 0.33301769943069159 0.31462704980674694 0.29970569188842033 0.31099518647325131 0.26354288062041986 0.27764636498338052 0.22495854190382633 0.23934238152838411 0.24913537214104192 0.24466905304480718 0.27458367133794365 0.28194518330055029 0.27674681187605416 0.30100400237046332 0.32395758381418482 0.32714325154941248 0.3028664429065191 0.28602797530305563 0.29038199113704588 0.33607022662991204 0.31611253239385606 0.31807477723562244 0.26115786183660433 0.23267777769971837 0.22112163489816422 0.24783776269863322 0.26730591383348234 0.2602827693050751 0.22527869140556253 0.25283725118047579 0.17916327108860949 0.16976079316423637 0.20600202257302544 0.15930494760389891 0.16079121837004356 0.21212385733479552 0.18407391589925887 0.13032864829964663 0.10911208494484492 0.13075252280332025 0.13583642591558534 0.11574890454173828 0.1083270507134686 0.098981941243087276 0.13052128299337815 0.19352900645289983 0.18036296139934235 0.18153979440787515 0.22306100262756332 0.19948830820121832 0.2237907916098395 0.20030943089981726 0.18004934697069452 0.15008809723152872 0.15866983577491381 0.15632102519466176 0.1260725731835963 0.11277729306762467 0.1176668852925456 0.13647908588406824 0.14786398916733384 0.1285981530177398 0.13403749193888689 0.14711515219271146 0.17207763977888912 0.14902726766792404 0.1391205326544494 0.1321663684514896 0.17288332263355816 0.19578377670649605 0.20249373640561852 0.21688240