<?xml version="1.0"?>
<VTKFile type="UnstructuredGrid" version="0.1" byte_order="LittleEndian">
<UnstructuredGrid>
<Piece NumberOfPoints="2400" NumberOfCells="800">
<Points>
<DataArray type="Float64" NumberOfComponents="3" format="ascii">
0.000000000000000e+00 0.000000000000000e+00 0.000000000000000e+00 0.000000000000000e+00 1.999999999995579e-01 0.000000000000000e+00 2.000000000000000e-01 1.999999999995579e-01 0.000000000000000e+00 0.000000000000000e+00 0.000000000000000e+00 0.000000000000000e+00 2.000000000000000e-01 1.999999999995579e-01 0.000000000000000e+00 2.000000000000000e-01 0.000000000000000e+00 0.000000000000000e+00 2.000000000000000e-01 0.000000000000000e+00 0.000000000000000e+00 2.000000000000000e-01 1.999999999995579e-01 0.000000000000000e+00 4.000000000000000e-01 1.999999999995579e-01 0.000000000000000e+00 2.000000000000000e-01 0.000000000000000e+00 0.000000000000000e+00 4.000000000000000e-01 1.999999999995579e-01 0.000000000000000e+00 4.000000000000000e-01 0.000000000000000e+00 0.000000000000000e+00 4.000000000000000e-01 0.000000000000000e+00 0.000000000000000e+00 4.000000000000000e-01 1.999999999995579e-01 0.000000000000000e+00 6.000000000000000e-01 1.999999999995579e-01 0.000000000000000e+00 4.000000000000000e-01 0.000000000000000e+00 0.000000000000000e+00 6.000000000000000e-01 1.999999999995579e-01 0.000000000000000e+00 6.000000000000000e-01 0.000000000000000e+00 0.000000000000000e+00 6.000000000000000e-01 0.000000000000000e+00 0.000000000000000e+00 6.000000000000000e-01 1.999999999995579e-01 0.000000000000000e+00 8.000000000000000e-01 1.999999999995579e-01 0.000000000000000e+00 6.000000000000000e-01 0.000000000000000e+00 0.000000000000000e+00 8.000000000000000e-01 1.999999999995579e-01 0.000000000000000e+00 8.000000000000000e-01 0.000000000000000e+00 0.000000000000000e+00 8.000000000000000e-01 0.000000000000000e+00 0.000000000000000e+00 8.000000000000000e-01 1.999999999995579e-01 0.000000000000000e+00 1.000000000000000e+00 1.999999999995579e-01 0.000000000000000e+00 8.000000000000000e-01 0.000000000000000e+00 0.000000000000000e+00 1.000000000000000e+00 1.999999999995579e-01 0.000000000000000e+00 1.000000000000000e+00 0.000000000000000e+00 0.000000000000000e+00 1.000000000000000e+00 0.000000000000000e+00 0.000000000000000e+00 1.000000000000000e+00 1.999999999995579e-01 0.000000000000000e+00 1.200000000000000e+00 1.999999999995579e-01 0.000000000000000e+00 1.000000000000000e+00 0.000000000000000e+00 0.000000000000000e+00 1.200000000000000e+00 1.999999999995579e-01 0.000000000000000e+00 1.200000000000000e+00 0.000000000000000e+00 0.000000000000000e+00 1.200000000000000e+00 0.000000000000000e+00 0.000000000000000e+00 1.200000000000000e+00 1.999999999995579e-01 0.000000000000000e+00 1.400000000000000e+00 1.999999999995579e-01 0.000000000000000e+00 1.200000000000000e+00 0.000000000000000e+00 0.000000000000000e+00 1.400000000000000e+00 1.999999999995579e-01 0.000000000000000e+00 1.400000000000000e+00 0.000000000000000e+00 0.000000000000000e+00 1.400000000000000e+00 0.000000000000000e+00 0.000000000000000e+00 1.400000000000000e+00 1.999999999995579e-01 0.000000000000000e+00 1.600000000000000e+00 1.999999999995579e-01 0.000000000000000e+00 1.400000000000000e+00 0.000000000000000e+00 0.000000000000000e+00 1.600000000000000e+00 1.999999999995579e-01 0.000000000000000e+00 1.600000000000000e+00 0.000000000000000e+00 0.000000000000000e+00 1.600000000000000e+00 0.000000000000000e+00 0.000000000000000e+00 1.600000000000000e+00 1.999999999995579e-01 0.000000000000000e+00 1.800000000000000e+00 1.999999999995579e-01 0.000000000000000e+00 1.600000000000000e+00 0.000000000000000e+00 0.000000000000000e+00 1.800000000000000e+00 1.999999999995579e-01 0.000000000000000e+00 1.800000000000000e+00 0.000000000000000e+00 0.000000000000000e+00 1.800000000000000e+00 0.000000000000000e+00 0.000000000000000e+00 1.800000000000000e+00 1.999999999995579e-01 0.000000000000000e+00 2.000000000000000e+00 1.999999999995579e-01 0.000000000000000e+00 1.800000000000000e+00 0.000000000000000e+00 0.000000000000000e+00 2.000000000000000e+00 1.999999999995579e-01 0.000000000000000e+00 2.000000000000000e+00 0.000000000000000e+00 0.000000000000000e+00 2.000000000000000e+00 0.000000000000000e+00 0.000000000000000e+00 2.000000000000000e+00 1.999999999995579e-01 0.000000000000000e+00 2.200000000000000e+00 1.999999999995579e-01 0.000000000000000e+00 2.000000000000000e+00 0.000000000000000e+00 0.000000000000000e+00 2.200000000000000e+00 1.999999999995579e-01 0.000000000000000e+00 2.200000000000000e+00 0.000000000000000e+00 0.000000000000000e+00 2.200000000000000e+00 0.000000000000000e+00 0.000000000000000e+00 2.200000000000000e+00 1.999999999995579e-01 0.000000000000000e+00 2.400000000000000e+00 1.999999999995579e-01 0.000000000000000e+00 2.200000000000000e+00 0.000000000000000e+00 0.000000000000000e+00 2.400000000000000e+00 1.999999999995579e-01 0.000000000000000e+00 2.400000000000000e+00 0.000000000000000e+00 0.000000000000000e+00 2.400000000000000e+00 0.000000000000000e+00 0.000000000000000e+00 2.400000000000000e+00 1.999999999995579e-01 0.000000000000000e+00 2.600000000000000e+00 1.999999999995579e-01 0.000000000000000e+00 2.400000000000000e+00 0.000000000000000e+00 0.000000000000000e+00 2.600000000000000e+00 1.999999999995579e-01 0.000000000000000e+00 2.600000000000000e+00 0.000000000000000e+00 0.000000000000000e+00 2.600000000000000e+00 0.000000000000000e+00 0.000000000000000e+00 2.600000000000000e+00 1.999999999995579e-01 0.000000000000000e+00 2.800000000000000e+00 1.999999999995579e-01 0.000000000000000e+00 2.600000000000000e+00 0.000000000000000e+00 0.000000000000000e+00 2.800000000000000e+00 1.999999999995579e-01 0.000000000000000e+00 2.800000000000000e+00 0.000000000000000e+00 0.000000000000000e+00 2.800000000000000e+00 0.000000000000000e+00 0.000000000000000e+00 2.800000000000000e+00 1.999999999995579e-01 0.000000000000000e+00 3.000000000000000e+00 1.999999999995579e-01 0.000000000000000e+00 2.800000000000000e+00 0.000000000000000e+00 0.000000000000000e+00 3.000000000000000e+00 1.999999999995579e-01 0.000000000000000e+00 3.000000000000000e+00 0.000000000000000e+00 0.000000000000000e+00 3.000000000000000e+00 0.000000000000000e+00 0.000000000000000e+00 3.000000000000000e+00 1.999999999995579e-01 0.000000000000000e+00 3.200000000000000e+00 1.999999999995579e-01 0.000000000000000e+00 3.000000000000000e+00 0.000000000000000e+00 0.000000000000000e+00 3.200000000000000e+00 1.999999999995579e-01 0.000000000000000e+00 3.200000000000000e+00 0.000000000000000e+00 0.000000000000000e+00 3.200000000000000e+00 0.000000000000000e+00 0.000000000000000e+00 3.200000000000000e+00 1.999999999995579e-01 0.000000000000000e+00 3.400000000000000e+00 1.999999999995579e-01 0.000000000000000e+00 3.200000000000000e+00 0.000000000000000e+00 0.000000000000000e+00 3.400000000000000e+00 1.999999999995579e-01 0.000000000000000e+00 3.400000000000000e+00 0.000000000000000e+00 0.000000000000000e+00 3.400000000000000e+00 0.000000000000000e+00 0.000000000000000e+00 3.400000000000000e+00 1.999999999995579e-01 0.000000000000000e+00 3.600000000000000e+00 1.999999999995579e-01 0.000000000000000e+00 3.400000000000000e+00 0.000000000000000e+00 0.000000000000000e+00 3.600000000000000e+00 1.999999999995579e-01 0.000000000000000e+00 3.600000000000000e+00 0.000000000000000e+00 0.000000000000000e+00 3.600000000000000e+00 0.000000000000000e+00 0.000000000000000e+00 3.600000000000000e+00 1.999999999995579e-01 0.000000000000000e+00 3.800000000000000e+00 1.999999999995579e-01 0.000000000000000e+00 3.600000000000000e+00 0.000000000000000e+00 0.000000000000000e+00 3.800000000000000e+00 1.999999999995579e-01 0.000000000000000e+00 3.800000000000000e+00 0.000000000000000e+00 0.000000000000000e+00 3.800000000000000e+00 0.000000000000000e+00 0.000000000000000e+00 3.800000000000000e+00 1.999999999995579e-01 0.000000000000000e+00 4.000000000000000e+00 1.999999999995579e-01 0.000000000000000e+00 3.800000000000000e+00 0.000000000000000e+00 0.000000000000000e+00 4.000000000000000e+00 1.999999999995579e-01 0.000000000000000e+00 4.000000000000000e+00 0.000000000000000e+00 0.000000000000000e+00 4.000000000000000e+00 0.000000000000000e+00 0.000000000000000e+00 4.000000000000000e+00 1.999999999995579e-01 0.000000000000000e+00 4.200000000000000e+00 1.999999999995579e-01 0.000000000000000e+00 4.000000000000000e+00 0.000000000000000e+00 0.000000000000000e+00 4.200000000000000e+00 1.999999999995579e-01 0.000000000000000e+00 4.200000000000000e+00 0.000000000000000e+00 0.000000000000000e+00 4.200000000000000e+00 0.000000000000000e+00 0.000000000000000e+00 4.200000000000000e+00 1.999999999995579e-01 0.000000000000000e+00 4.400000000000000e+00 1.999999999995579e-01 0.000000000000000e+00 4.200000000000000e+00 0.000000000000000e+00 0.000000000000000e+00 4.400000000000000e+00 1.999999999995579e-01 0.000000000000000e+00 4.400000000000000e+00 0.000000000000000e+00 0.000000000000000e+00 4.400000000000000e+00 0.000000000000000e+00 0.000000000000000e+00 4.400000000000000e+00 1.999999999995579e-01 0.000000000000000e+00 4.600000000000000e+00 1.999999999995579e-01 0.000000000000000e+00 4.400000000000000e+00 0.000000000000000e+00 0.000000000000000e+00 4.600000000000000e+00 1.999999999995579e-01 0.000000000000000e+00 4.600000000000000e+00 0.000000000000000e+00 0.000000000000000e+00 4.600000000000000e+00 0.000000000000000e+00 0.000000000000000e+00 4.600000000000000e+00 1.999999999995579e-01 0.000000000000000e+00 4.800000000000000e+00 1.999999999995579e-01 0.000000000000000e+00 4.600000000000000e+00 0.000000000000000e+00 0.000000000000000e+00 4.800000000000000e+00 1.999999999995579e-01 0.000000000000000e+00 4.800000000000000e+00 0.000000000000000e+00 0.000000000000000e+00 4.800000000000000e+00 0.000000000000000e+00 0.000000000000000e+00 4.800000000000000e+00 1.999999999995579e-01 0.000000000000000e+00 5.000000000000000e+00 1.999999999995579e-01 0.000000000000000e+00 4.800000000000000e+00 0.000000000000000e+00 0.0000000000000
[...]
<PointData Scalars="conc_conc," Vectors="" Tensors="">
<DataArray type="Float64" Name="conc_conc" format="ascii">
1.299956683833048e-04 1.299956683833070e-04 -5.023639989709614e-03 -1.891133068814060e-03 -4.152278163643006e-03 -6.579368024878011e-03 -1.114654197664156e-02 -9.626230478241108e-03 1.391440658279746e-02 -2.244818522788650e-02 1.813749379974118e-02 2.351851999721704e-02 2.205840261934656e-02 1.496201419588058e-02 9.962938641522422e-02 2.343829325945481e-02 1.003746964333171e-01 1.097608266446045e-01 1.142525583383295e-01 1.083539406784723e-01 1.611997527559509e-01 1.274126289580844e-01 1.562932462491249e-01 1.510931247458226e-01 1.549862908417821e-01 1.622683885807706e-01 1.332247423346111e-01 1.615343341903307e-01 1.293849136639500e-01 1.189926534187526e-01 1.198388506214768e-01 1.286633394933802e-01 7.170076491650487e-02 1.185225207585029e-01 7.135967311127747e-02 6.717659540782166e-02 6.629494239378522e-02 6.881818612052704e-02 2.839120062847379e-02 6.310025375063182e-02 2.961834195343075e-02 3.061875047149960e-02 2.950637264538134e-02 2.804391429836657e-02 8.756120387402514e-03 2.728738769543523e-02 9.911396598471537e-03 1.208471475978021e-02 1.133088141037212e-02 9.318444114046556e-03 2.090306658998655e-03 1.024518326799937e-02 2.761998506177157e-03 4.313324969108363e-03 3.924315453490063e-03 2.611356375686060e-03 3.275206348322382e-04 3.483699453737269e-03 6.373289129204051e-04 1.431691484196112e-03 1.262118189488001e-03 6.184828628686276e-04 -1.210494750670263e-05 1.103211638459874e-03 1.116568112674938e-04 4.502156029986757e-04 3.844876370366393e-04 1.173957833302551e-04 -3.685797918961609e-05 3.316288271189517e-04 7.912044349814599e-06 1.358487236611998e-04 1.124838423920112e-04 1.337384186145511e-05 -1.975544842049847e-05 9.589532851641976e-05 -4.694951080834938e-06 3.968695473539227e-05 3.191173296690362e-05 -2.019481858399202e-06 -7.940735911655484e-06 2.692740225976098e-05 -3.146748376990224e-06 1.129822460159839e-05 8.840894165882208e-06 -2.093329506134613e-06 -2.788301714651936e-06 7.392521482848042e-06 -1.326777975856452e-06 3.149390863067863e-06 2.403991682734033e-06 -9.581991988364023e-07 -9.022091552350708e-07 1.994056074947145e-06 -4.717177838935663e-07 8.627347630115796e-07 6.439989719071706e-07 -3.522268932970985e-07 -2.760936056519836e-07 5.304031574515138e-07 -1.527802225915689e-07 2.329098716106152e-07 1.704376931415541e-07 -1.160768406507044e-07 -8.111885218265929e-08 1.394990290591934e-07 -4.659529429702754e-08 6.210519559852259e-08 4.465736645922347e-08 -3.576645797195410e-08 -2.310483355920080e-08 3.635085682474837e-08 -1.362115876283360e-08 1.638620531650940e-08 1.160311260548921e-08 -1.052427542573274e-08 -6.422322097191818e-09 9.399596865991629e-09 -3.858194795859518e-09 4.284283964064387e-09 2.993387502309755e-09 -2.994148428238939e-09 -1.750577701181814e-09 2.414770620666565e-09 -1.066528814849593e-09 1.111366609626903e-09 7.675356823344731e-10 -8.302188329877253e-10 -4.696111609699033e-10 6.169142196208462e-10 -2.891845889922460e-10 2.863255035566669e-10 1.957661764677896e-10 -2.256036717602551e-10 -1.243283030619471e-10 1.568499679116454e-10 -7.719760105763395e-11 7.332676571171683e-11 4.970192476255797e-11 -6.032084339905601e-11 -3.255554931425778e-11 3.971206879772020e-11 -2.034605122246708e-11 1.868038830755799e-11 1.256752696747797e-11 -1.591677408449057e-11 -8.446213881372483e-12 1.001753143547542e-11 -5.305822532926593e-12 4.737028160130924e-12 3.166463043928566e-12 -4.154404398111818e-12 -2.174182443179744e-12 2.518752284432361e-12 -1.371426438114058e-12 1.196357575423791e-12 7.952872957495619e-13 -1.074519769207259e-12 -5.559436149363300e-13 6.314741960483978e-13 -3.518384699433223e-13 3.010632941867462e-13 1.991827181708389e-13 -2.758038058246300e-13 -1.413459726449311e-13 1.579094510215592e-13 -8.969264422494683e-14 7.552253680644525e-14 4.976115858395519e-14 -7.033565745570365e-14 -3.576037138046378e-14 3.939691490263736e-14 -2.274142556240046e-14 1.889186404739586e-14 1.240387377813078e-14 -1.783847734465325e-14 -9.009046299225633e-15 9.808948843686066e-15 -5.739339332630899e-15 4.714011607931809e-15 3.085710458251251e-15 -4.502901703278792e-15 -2.261314218017358e-15 2.437705468985724e-15 -1.442681986444486e-15 1.173668549975463e-15 7.662581636758907e-16 -1.132055945378566e-15 -5.657938825029295e-16 6.048120554561565e-16 -3.613936849281562e-16 2.916393967779660e-16 1.899757193457160e-16 -2.836130708544506e-16 -1.411724797287703e-16 1.498349345902263e-16 -9.025936413781121e-17 7.234144385279201e-17 4.703229720050077e-17 -7.083896539993736e-17 -3.513904298991285e-17 3.707015282159639e-17 -2.248414650734076e-17 1.791644370816551e-17 1.162876800491731e-17 -1.764735738202346e-17 -8.727906372265297e-18 9.160363761538406e-18 -5.588289054760038e-18 4.431124202355163e-18 2.871892114718782e-18 -4.386287082520519e-18 -2.163837173651156e-18 2.261155856855104e-18 -1.386196597985600e-18 1.094558404796764e-18 7.085179751698513e-19 -1.088056569218914e-18 -5.355896630206664e-19 5.576025604139275e-19 -3.432591330039401e-19 2.700753252059891e-19 1.746336909857662e-19 -2.694339242933851e-19 -1.323788554125389e-19 1.373845173487975e-19 -8.487187014452878e-20 6.657380413521547e-20 4.300717287690851e-20 -6.661833180386072e-20 -3.267822415499406e-20 3.382264983193208e-20 -2.095706437599843e-20 1.639608447412428e-20 1.058343089719465e-20 -1.644968016160659e-20 -8.057803177466609e-21 8.320865054561440e-21 -5.168828014052032e-21 4.034929527827813e-21 2.602663231035305e-21 -4.057084822152555e-21 -1.984951885712443e-21 2.045743142374026e-21 -1.273530934374556e-21 9.922634800821144e-22 6.396540231003174e-22 -9.995972330556556e-22 -4.885488908430422e-22 5.026702139447237e-22 -3.134986376837911e-22 2.438627668556032e-22 1.571211275607135e-22 -2.460615419383011e-22 -1.201528783145834e-22 1.234495278908095e-22 -7.711106689264819e-23 5.989905932577473e-23 3.857537232336205e-23 -6.052247378169747e-23 -2.953019848053153e-23 3.030345621275269e-23 -1.895365094994420e-23 1.470536608007515e-23 9.466576355089854e-24 -1.487593623511318e-23 -7.253334855475573e-24 7.435516676584858e-24 -4.655851893506202e-24 3.608571738033858e-24 2.322211593912515e-24 -3.654111813627207e-24 -1.780644012732752e-24 1.823744265286200e-24 -1.143051767228776e-24 8.851524193030033e-25 5.694467267969021e-25 -8.970976303698124e-25 -4.369275501196100e-25 4.471630221868935e-25 -2.804912043639502e-25 2.170405501710837e-25 1.395921607500985e-25 -2.201324809131194e-25 -1.071657473875893e-25 1.096049483412970e-25 -6.879888832142254e-26 5.320078740342866e-26 3.420876465247935e-26 -5.399297909774899e-26 -2.627450724607746e-26 2.685763039758126e-26 -1.686828233411593e-26 1.303650328678502e-26 8.380916069581803e-27 -1.323785269881497e-26 -6.439607484653658e-27 6.579409570030749e-27 -4.134301950259818e-27 3.193585846458180e-27 2.052720377964367e-27 -3.244436862281191e-27 -1.577759749084934e-27 1.611363237246431e-27 -1.012945225726757e-27 7.821239517242026e-28 5.026380601432520e-28 -7.949007105767790e-28 -3.864427368748680e-28 3.945385476618130e-28 -2.481007684905540e-28 1.914930486251489e-28 1.230458769178679e-28 -1.946900247495624e-28 -9.462224742876297e-29 9.657677881764843e-29 -6.074759229006628e-29 4.687124835243273e-29 3.011329375574409e-29 -4.766850570162497e-29 -2.316113602074710e-29 2.363390287586006e-29 -1.486902171409178e-29 1.146898196225979e-29 7.367414567338060e-30 -1.166726319323276e-29 -5.667236873115145e-30 5.781789607988713e-30 -3.638084223444108e-30 2.805353965974567e-30 1.801830962379583e-30 -2.854561334673275e-30 -1.386127971032910e-30 1.413929437026616e-30 -8.897603225846316e-31 6.859021774193042e-31 4.404720310942905e-31 -6.980936707550458e-31 -3.388571991747828e-31 3.456149578569239e-31 -2.174905603628001e-31 1.676096321248376e-31 1.076151289466852e-31 -1.706264998573238e-31 -8.278522823773554e-32 8.443035746043735e-32 -5.312645022055313e-32 4.092850729568970e-32 2.627241499052097e-32 -4.167446189823688e-32 -2.020814557273265e-32 2.060926258883545e-32 -1.296556365044631e-32 9.984816038333908e-33 6.407464394726619e-33 -1.016919246470981e-32 -4.927383345787336e-33 5.025343467013087e-33 -3.160462531217397e-33 2.432746795287171e-33 1.560540417244192e-33 -2.478320577067367e-33 -1.199645303228072e-33 1.223610927629502e-33 -7.691387394922589e-34 5.916920675419814e-34 3.793579005594835e-34 -6.029620019400507e-34 -2.914749019657834e-34 2.973492473045925e-34 -1.867667022524883e-34 1.435689427202976e-34 9.198353803330466e-35 -1.463582728830948e-34 -7.062185790250301e-35 7.206476281486135e-35 -4.521544535286117e-35 3.472275407499741e-35 2.222547075465585e-35 -3.541396371071061e-35 -1.704621484497864e-35 1.740142677581676e-35 -1.090166937348023e-35 8.360744387031457e-36 5.344656131707346e-36 -8.532286393816294e-36 -4.093295757470413e-36 4.180941366057429e-36 -2.613825956622131e-36 2.001065329079609e-36 1.276941944241793e-36 -2.043705925197319e-36 -9.760508675788065e-37 9.977226984477505e-37 -6.219747605967147e-37 4.750413971623952e-37 3.024135841875812e-37 -4.856552089324380e-37 -2.305398377550595e-37 2.359070797956741e-37 -1.464929992651213e-37 1.115326356114885e-37 7.077166281372687e-38 -1.141762243590569e-37 -5.375763620753788e-38 5.508747887846627e-38 -3.402837633216340e-38 2.579790198701900e-38 1.629764762869483e-38 -2.645575268228161e-38 -1.231952413129918e-38 1.264848561433160e-38 -7.757624229827485e-39 5.847840473011839e-39 3.672254352381438e-39 -6.010961241431390e-39 -2.757695023631417e-39 2.838661622728435e-39 -1.724256176459504e-39 1.289803107774493e-39 8.033702409712761e-40 -1.329933641963666e-39 -5.979283371453301e-40 6.176518944141310e-40 -3.702584319652942e-40 2.740761805011662e-40 1.688143262656479e-40 -2.838078965077723e-40 -1.241139407552273e-40 1.288318644682379e-40 -7.584128260928002e-41 5.533341480019477e-41 3.355923829001014e-41 -5.763737303358717e-41 -2.425533683036019e-41 2.535075896192974e-41 -1.454996506544098e-41 1.040147255856451e-41 6.172822377763398e-42 -1.092657545788896e-41 -4.353943029044166e-42 4.596685680029571e-42 -2.544082608365837e-42 1.765636086526993e-42 1.015502076243310e-42 -1.878501419398080e-42 -6.907560904034905e-43 7.408211752472831e-43 -3.883559530883461e-43 2.575872753822800e-43 1.413277365063640e-43 -2.797626714420382e-43 -9.075170748199584e-44 9.999361265918122e-44 -4.805986758934346e-44 2.955494667345996e-44 1.502218208059611e-44 -3.334209761669424e-44 -8.700986850369455e-45 1.013022257245407e-44 -4.156155574704689e-45 2.198720115489054e-45 9.658857424505215e-46 -2.712149053235023e-45 -4.378891043631471e-46 6.004744681897988e-46 -1.648869881684137e-46 5.161413075815461e-47 1.257489330149298e-47 -9.669681617568729e-47 2.498860540100254e-48 6.972238770781225e-48 2.494549607702359e-48 -1.993861603201965e-48 -6.598252288206531e-49 9.682951051953784e-49 -9.915697053954265e-51 -1.818267662392925e-49 -3.353609102119950e-50 9.381408448230602e-50 1.190153050430200e-04 1.190153050430296e-04 -5.021849858676168e-03 -1.913416079733551e-03 -4.146854368322295e-03 -6.562098910517487e-03 -1.112088986454885e-02 -9.609050726659235e-03 1.396474798279396e-02 -2.237761623008159e-02 1.817670597328296e-02 2.353361326346632e-02 2.210051949310875e-02 1.504147011832375e-02 9.938235756384933e-02 2.352037841971292e-02 1.000959978818902e-01 1.094365047124292e-01 1.139355091011456e-01 1.080426806098556e-01 1.604341121285399e-01 1.270494280720154e-01 1.555255361296259e-01 1.504514552081252e-01 1.543302291949406e-01 1.614484515778433e-01 1.323780380368392e-01 1.608286911961753e-01 1.285629884332670e-01 1.183942673653286e-01 1.192229388656744e-01 1.278351758040400e-01 7.114980635397887e-02 1.178964497395405e-01 7.082730711637153e-02 6.680096488578915e-02 6.591043882404793e-02 6.830343790612245e-02 2.813774689648034e-02 6.272538788400346e-02 2.936976984163513e-02 3.043362690524241e-02 2.931993367281735e-02 2.780991152883170e-02 8.665890175831191e-03 2.711129342644338e-02 9.819628535685842e-03 1.200688054554712e-02 1.125446125113869e-02 9.233376355406010e-03 2.064506775973477e-03 1.017479815416137e-02 2.733857024618856e-03 4.284007906420037e-03 3.896435810333644e-03 2.585407322046847e-03 3.217161118317378e-04 3.458550392478268e-03 6.300333691121447e-04 1.421493215705108e-03 1.252759531285180e-03 6.117106488527723e-04 -1.295647576517264e-05 1.094917806556453e-03 1.100932312551434e-04 4.468736049951057e-04 3.815318797021352e-04 1.159032446926750e-04 -3.681113417056753e-05 3.290493255437555e-04 7.669442753326527e-06 1.348030020389489e-04 1.115919333722424e-04 1.311944561232410e-05 -1.965472176742732e-05 9.512737748159351e-05 -4.700002539253864e-06 3.937153633384637e-05 3.165180402374308e-05 -2.038276560384806e-06 -7.888621964728458e-06 2.670624095150784e-05 -3.130453885831032e-06 1.120587545862602e-05 8.767168298243459e-06 -2.083868910634295e-06 -2.767752048599817e-06 7.330445158904380e-06 -1.317682842545625e-06 3.123008104192304e-06 2.383524985267743e-06 -9.517879974141715e-07 -8.950871598355689e-07 1.976981479142745e-06 -4.680997104231560e-07 8.553506272287956e-07 6.384151413341569e-07 -3.495424735515853e-07 -2.738113073339809e-07 5.257823107791289e-07 -1.515326657014535e-07 2.308786624481258e-07 1.689358671682245e-07 -1.151301565045631e-07 -8.042557920121758e-08 1.382649696946970e-07 -4.619902030324960e-08 6.155464218459988e-08 4.425821408312331e-08 -3.546210176382281e-08 -2.290232190470463e-08 3.602488784057472e-08 -1.350193149983399e-08 1.623885670915127e-08 1.149808811572603e-08 -1.043204094461656e-08 -6.364906476330082e-09 9.314286950885007e-09 -3.823687768352494e-09 4.245276263202210e-09 2.965990021065272e-09 -2.967330571351797e-09 -1.734677058833454e-09 2.392619267697208e-09 -1.056828805596226e-09 1.101137313684064e-09 7.604413402304026e-10 -8.226570865325310e-10 -4.652899248946087e-10 6.112013547999787e-10 -2.865190507674653e-10 2.836649784692370e-10 1.939409509537429e-10 -2.235213309109501e-10 -1.231718906907381e-10 1.553852714985697e-10 -7.647823834468824e-11 7.263974377956922e-11 4.923496960784300e-11 -5.975803745565897e-11 -3.224999632054655e-11 3.933847332031752e-11 -2.015473908480790e-11 1.850409115674346e-11 1.244865356121695e-11 -1.576693962973144e-11 -8.366333459293396e-12 9.922671020541423e-12 -5.255553771547511e-12 4.692037043182482e-12 3.136333096441701e-12 -4.115004379789298e-12 -2.153485647726262e-12 2.494762474322438e-12 -1.358349792378499e-12 1.184931298627736e-12 7.876799292466905e-13 -1.064264866468487e-12 -5.506217209052556e-13 6.254288117852495e-13 -3.484653034802660e-13 2.981737431724216e-13 1.972685417850913e-13 -2.731574805561723e-13 -1.399863606057808e-13 1.563908376695148e-13 -8.882869569712470e-14 7.479455231506209e-14 4.928097582717360e-14 -6.965768084858649e-14 -3.541494818076691e-14 3.901651001625960e-14 -2.252148337012433e-14 1.870906640532769e-14 1.228374328889971e-14 -1.766584560945973e-14 -8.921706631712456e-15 9.713898905317534e-15 -5.683636019039434e-15 4.668245667689122e-15 3.055729202117573e-15 -4.459174523808714e-15 -2.239321569469816e-15 2.414009174693140e-15 -1.428636956675017e-15 1.162240199091061e-15 7.587917980206616e-16 -1.121029605872644e-15 -5.602757961360289e-16 5.989163653011218e-16 -3.578659203522109e-16 2.887921679962202e-16 1.881199174210098e-16 -2.808433784340729e-16 -1.397922616468077e-16 1.483707162581534e-16 -8.937621012427936e-17 7.163354434488916e-17 4.657182249000505e-17 -7.014557080537268e-17 -3.479474940152908e-17 3.670709535360015e-17 -2.226368952955171e-17 1.774076031058529e-17 1.151468767345074e-17 -1.747426752903503e-17 -8.642226017543766e-18 9.070472832968070e-18 -5.533395119706213e-18 4.387594325593370e-18 2.843668217732570e-18 -4.343187825961090e-18 -2.142559061939961e-18 2.238928276098315e-18 -1.372557765160400e-18 1.083788315830556e-18 7.015438915583069e-19 -1.077348384349517e-18 -5.303149920490012e-19 5.521126861624030e-19 -3.398769115304227e-19 2.674140188150730e-19 1.729123088591835e-19 -2.667785190350139e-19 -1.310733933131346e-19 1.360300192077579e-19 -8.403452968557909e-20 6.591694091173252e-20 4.258271225676690e-20 -6.596094826968218e-20 -3.235558038108525e-20 3.348877262618667e-20 -2.075006617638240e-20 1.623412239168283e-20 1.047885967832649e-20 -1.628717397099607e-20 -7.978160627680502e-21 8.238635271135726e-21 -5.117721893528317e-21 3.995030909592306e-21 2.576921277216779e-21 -4.016964718575114e-21 -1.965314064728186e-21 2.025506293857140e-21 -1.260927515630916e-21 9.824425902852710e-22 6.333217289744286e-22 -9.897034379785251e-22 -4.837113670144462e-22 4.976932853409777e-22 -3.103935672880109e-22 2.414471397218750e-22 1.555644354372537e-22 -2.436241164089670e-22 -1.189622312169779e-22 1.222262795051404e-22 -7.634675051758769e-23 5.930527548384814e-23 3.819290455627954e-23 -5.992251888234443e-23 -2.923736854251037e-23 3.000296670076759e-23 -1.876565956467013e-23 1.455949279345945e-23 9.372655366826269e-24 -1.472837602868174e-23 -7.181363882613977e-24 7.361738283231715e-24 -4.609645242137386e-24 3.572754004932631e-24 2.299158538267838e-24 -3.617843940196753e-24 -1.762965692986507e-24 1.805637731058839e-24 -1.131701491804441e-24 8.763618264998145e-25 5.637906933322000e-25 -8.881890040156928e-25 -4.325875051574809e-25 4.427211486366384e-25 -2.777046170953029e-25 2.148840190184130e-25 1.382049896876858e-25 -2.179454033745314e-25 -1.061007684286641e-25 1.085156729074465e-25 -6.811509009308093e-26 5.267194335894139e-26 3.386867223527723e-26 -5.345630942782827e-26 -2.601329022196932e-26 2.659059843630602e-26 -1.670055917813808e-26 1.290686072813146e-26 8.297562486976867e-27 -1.310622118722772e-26 -6.375561507826644e-27 6.513968043548607e-27 -4.093178987402873e-27 3.161815187931876e-27 2.032297336466944e-27 -3.212163888585542e-27 -1.562062468990960e-27 1.595330200841676e-27 -1.002866296955414e-27 7.743405332406393e-28 4.976355240674641e-28 -7.869910773887537e-28 -3.825967579145984e-28 3.906116081110715e-28 -2.456313741493411e-28 1.895867865117812e-28 1.218208824718071e-28 -1.927521801866329e-28 -9.368026712474892e-29 9.561523714714416e-29 -6.014278860812180e-29 4.640452449465584e-29 2.981341418252227e-29 -4.719390554258059e-29 -2.293050107736541e-29 2.339853292148006e-29 -1.472094693697738e-29 1.135474870043088e-29 7.294028108268508e-30 -1.155107099803394e-29 -5.610789422658022e-30 5.724194069339504e-30 -3.601845225644061e-30 2.777405300099732e-30 1.783878715361308e-30 -2.826126511055417e-30 -1.372318531439359e-30 1.399841183053650e-30 -8.808954282401326e-31 6.790672520873520e-31 4.360824834608866e-31 -6.911382954117934e-31 -3.354805794873090e-31 3.421705252940876e-31 -2.153231994092881e-31 1.659390721448257e-31 1.065424618160635e-31 -1.689261338977863e-31 -8.196013179475830e-32 8.358874302848181e-32 -5.259692593144582e-32 4.052049373747030e-32 2.601049048265829e-32 -4.125907859370208e-32 -2.000669932513266e-32 2.040378674116143e-32 -1.283630924170596e-32 9.885259656460957e-33 6.343573085553191e-33 -1.006781455253363e-32 -4.878255809782782e-33 4.975231331483810e-33 -3.128950330514401e-33 2.408486186257997e-33 1.544976975941977e-33 -2.453609735444466e-33 -1.187682497120370e-33 1.211407129172001e-33 -7.614686090066035e-34 5.857904327783063e-34 3.755739018388242e-34 -5.969490308593542e-34 -2.885678739220721e-34 2.943831229738290e-34 -1.849039120857872e-34 1.421367366844349e-34 9.106588186679538e-35 -1.448985107685598e-34 -6.991740506313348e-35 7.134578886480942e-35 -4.476440573975729e-35 3.437631679760600e-35 2.200370930195898e-35 -3.506069754306545e-35 -1.687615458146117e-35 1.722779071444400e-35 -1.079290626597717e-35 8.277315206380348e-36 5.291320521496061e-36 -8.447162189437852e-36 -4.052453689124821e-36 4.139216867844599e-36 -2.587745006358829e-36 1.981094615688104e-36 1.264197300602060e-36 -2.023313743866818e-36 -9.663107515920843e-37 9.877643933931400e-37 -6.157678575163103e-37 4.702998578496648e-37 2.993949324530740e-37 -4.808087076435405e-37 -2.282389701269676e-37 2.335521861616464e-37 -1.450309167034177e-37 1.104192583847914e-37 7.006514508528186e-38 -1.130366877455620e-37 -5.322105346444533e-38 5.453751371320872e-38 -3.3688