<?xml version="1.0"?>
<VTKFile type="UnstructuredGrid" version="0.1" byte_order="LittleEndian">
<UnstructuredGrid>
<Piece NumberOfPoints="2400" NumberOfCells="800">
<Points>
<DataArray type="Float64" NumberOfComponents="3" format="ascii">
0.000000000000000e+00 0.000000000000000e+00 0.000000000000000e+00 0.000000000000000e+00 1.999999999995579e-01 0.000000000000000e+00 2.000000000000000e-01 1.999999999995579e-01 0.000000000000000e+00 0.000000000000000e+00 0.000000000000000e+00 0.000000000000000e+00 2.000000000000000e-01 1.999999999995579e-01 0.000000000000000e+00 2.000000000000000e-01 0.000000000000000e+00 0.000000000000000e+00 2.000000000000000e-01 0.000000000000000e+00 0.000000000000000e+00 2.000000000000000e-01 1.999999999995579e-01 0.000000000000000e+00 4.000000000000000e-01 1.999999999995579e-01 0.000000000000000e+00 2.000000000000000e-01 0.000000000000000e+00 0.000000000000000e+00 4.000000000000000e-01 1.999999999995579e-01 0.000000000000000e+00 4.000000000000000e-01 0.000000000000000e+00 0.000000000000000e+00 4.000000000000000e-01 0.000000000000000e+00 0.000000000000000e+00 4.000000000000000e-01 1.999999999995579e-01 0.000000000000000e+00 6.000000000000000e-01 1.999999999995579e-01 0.000000000000000e+00 4.000000000000000e-01 0.000000000000000e+00 0.000000000000000e+00 6.000000000000000e-01 1.999999999995579e-01 0.000000000000000e+00 6.000000000000000e-01 0.000000000000000e+00 0.000000000000000e+00 6.000000000000000e-01 0.000000000000000e+00 0.000000000000000e+00 6.000000000000000e-01 1.999999999995579e-01 0.000000000000000e+00 8.000000000000000e-01 1.999999999995579e-01 0.000000000000000e+00 6.000000000000000e-01 0.000000000000000e+00 0.000000000000000e+00 8.000000000000000e-01 1.999999999995579e-01 0.000000000000000e+00 8.000000000000000e-01 0.000000000000000e+00 0.000000000000000e+00 8.000000000000000e-01 0.000000000000000e+00 0.000000000000000e+00 8.000000000000000e-01 1.999999999995579e-01 0.000000000000000e+00 1.000000000000000e+00 1.999999999995579e-01 0.000000000000000e+00 8.000000000000000e-01 0.000000000000000e+00 0.000000000000000e+00 1.000000000000000e+00 1.999999999995579e-01 0.000000000000000e+00 1.000000000000000e+00 0.000000000000000e+00 0.000000000000000e+00 1.000000000000000e+00 0.000000000000000e+00 0.000000000000000e+00 1.000000000000000e+00 1.999999999995579e-01 0.000000000000000e+00 1.200000000000000e+00 1.999999999995579e-01 0.000000000000000e+00 1.000000000000000e+00 0.000000000000000e+00 0.000000000000000e+00 1.200000000000000e+00 1.999999999995579e-01 0.000000000000000e+00 1.200000000000000e+00 0.000000000000000e+00 0.000000000000000e+00 1.200000000000000e+00 0.000000000000000e+00 0.000000000000000e+00 1.200000000000000e+00 1.999999999995579e-01 0.000000000000000e+00 1.400000000000000e+00 1.999999999995579e-01 0.000000000000000e+00 1.200000000000000e+00 0.000000000000000e+00 0.000000000000000e+00 1.400000000000000e+00 1.999999999995579e-01 0.000000000000000e+00 1.400000000000000e+00 0.000000000000000e+00 0.000000000000000e+00 1.400000000000000e+00 0.000000000000000e+00 0.000000000000000e+00 1.400000000000000e+00 1.999999999995579e-01 0.000000000000000e+00 1.600000000000000e+00 1.999999999995579e-01 0.000000000000000e+00 1.400000000000000e+00 0.000000000000000e+00 0.000000000000000e+00 1.600000000000000e+00 1.999999999995579e-01 0.000000000000000e+00 1.600000000000000e+00 0.000000000000000e+00 0.000000000000000e+00 1.600000000000000e+00 0.000000000000000e+00 0.000000000000000e+00 1.600000000000000e+00 1.999999999995579e-01 0.000000000000000e+00 1.800000000000000e+00 1.999999999995579e-01 0.000000000000000e+00 1.600000000000000e+00 0.000000000000000e+00 0.000000000000000e+00 1.800000000000000e+00 1.999999999995579e-01 0.000000000000000e+00 1.800000000000000e+00 0.000000000000000e+00 0.000000000000000e+00 1.800000000000000e+00 0.000000000000000e+00 0.000000000000000e+00 1.800000000000000e+00 1.999999999995579e-01 0.000000000000000e+00 2.000000000000000e+00 1.999999999995579e-01 0.000000000000000e+00 1.800000000000000e+00 0.000000000000000e+00 0.000000000000000e+00 2.000000000000000e+00 1.999999999995579e-01 0.000000000000000e+00 2.000000000000000e+00 0.000000000000000e+00 0.000000000000000e+00 2.000000000000000e+00 0.000000000000000e+00 0.000000000000000e+00 2.000000000000000e+00 1.999999999995579e-01 0.000000000000000e+00 2.200000000000000e+00 1.999999999995579e-01 0.000000000000000e+00 2.000000000000000e+00 0.000000000000000e+00 0.000000000000000e+00 2.200000000000000e+00 1.999999999995579e-01 0.000000000000000e+00 2.200000000000000e+00 0.000000000000000e+00 0.000000000000000e+00 2.200000000000000e+00 0.000000000000000e+00 0.000000000000000e+00 2.200000000000000e+00 1.999999999995579e-01 0.000000000000000e+00 2.400000000000000e+00 1.999999999995579e-01 0.000000000000000e+00 2.200000000000000e+00 0.000000000000000e+00 0.000000000000000e+00 2.400000000000000e+00 1.999999999995579e-01 0.000000000000000e+00 2.400000000000000e+00 0.000000000000000e+00 0.000000000000000e+00 2.400000000000000e+00 0.000000000000000e+00 0.000000000000000e+00 2.400000000000000e+00 1.999999999995579e-01 0.000000000000000e+00 2.600000000000000e+00 1.999999999995579e-01 0.000000000000000e+00 2.400000000000000e+00 0.000000000000000e+00 0.000000000000000e+00 2.600000000000000e+00 1.999999999995579e-01 0.000000000000000e+00 2.600000000000000e+00 0.000000000000000e+00 0.000000000000000e+00 2.600000000000000e+00 0.000000000000000e+00 0.000000000000000e+00 2.600000000000000e+00 1.999999999995579e-01 0.000000000000000e+00 2.800000000000000e+00 1.999999999995579e-01 0.000000000000000e+00 2.600000000000000e+00 0.000000000000000e+00 0.000000000000000e+00 2.800000000000000e+00 1.999999999995579e-01 0.000000000000000e+00 2.800000000000000e+00 0.000000000000000e+00 0.000000000000000e+00 2.800000000000000e+00 0.000000000000000e+00 0.000000000000000e+00 2.800000000000000e+00 1.999999999995579e-01 0.000000000000000e+00 3.000000000000000e+00 1.999999999995579e-01 0.000000000000000e+00 2.800000000000000e+00 0.000000000000000e+00 0.000000000000000e+00 3.000000000000000e+00 1.999999999995579e-01 0.000000000000000e+00 3.000000000000000e+00 0.000000000000000e+00 0.000000000000000e+00 3.000000000000000e+00 0.000000000000000e+00 0.000000000000000e+00 3.000000000000000e+00 1.999999999995579e-01 0.000000000000000e+00 3.200000000000000e+00 1.999999999995579e-01 0.000000000000000e+00 3.000000000000000e+00 0.000000000000000e+00 0.000000000000000e+00 3.200000000000000e+00 1.999999999995579e-01 0.000000000000000e+00 3.200000000000000e+00 0.000000000000000e+00 0.000000000000000e+00 3.200000000000000e+00 0.000000000000000e+00 0.000000000000000e+00 3.200000000000000e+00 1.999999999995579e-01 0.000000000000000e+00 3.400000000000000e+00 1.999999999995579e-01 0.000000000000000e+00 3.200000000000000e+00 0.000000000000000e+00 0.000000000000000e+00 3.400000000000000e+00 1.999999999995579e-01 0.000000000000000e+00 3.400000000000000e+00 0.000000000000000e+00 0.000000000000000e+00 3.400000000000000e+00 0.000000000000000e+00 0.000000000000000e+00 3.400000000000000e+00 1.999999999995579e-01 0.000000000000000e+00 3.600000000000000e+00 1.999999999995579e-01 0.000000000000000e+00 3.400000000000000e+00 0.000000000000000e+00 0.000000000000000e+00 3.600000000000000e+00 1.999999999995579e-01 0.000000000000000e+00 3.600000000000000e+00 0.000000000000000e+00 0.000000000000000e+00 3.600000000000000e+00 0.000000000000000e+00 0.000000000000000e+00 3.600000000000000e+00 1.999999999995579e-01 0.000000000000000e+00 3.800000000000000e+00 1.999999999995579e-01 0.000000000000000e+00 3.600000000000000e+00 0.000000000000000e+00 0.000000000000000e+00 3.800000000000000e+00 1.999999999995579e-01 0.000000000000000e+00 3.800000000000000e+00 0.000000000000000e+00 0.000000000000000e+00 3.800000000000000e+00 0.000000000000000e+00 0.000000000000000e+00 3.800000000000000e+00 1.999999999995579e-01 0.000000000000000e+00 4.000000000000000e+00 1.999999999995579e-01 0.000000000000000e+00 3.800000000000000e+00 0.000000000000000e+00 0.000000000000000e+00 4.000000000000000e+00 1.999999999995579e-01 0.000000000000000e+00 4.000000000000000e+00 0.000000000000000e+00 0.000000000000000e+00 4.000000000000000e+00 0.000000000000000e+00 0.000000000000000e+00 4.000000000000000e+00 1.999999999995579e-01 0.000000000000000e+00 4.200000000000000e+00 1.999999999995579e-01 0.000000000000000e+00 4.000000000000000e+00 0.000000000000000e+00 0.000000000000000e+00 4.200000000000000e+00 1.999999999995579e-01 0.000000000000000e+00 4.200000000000000e+00 0.000000000000000e+00 0.000000000000000e+00 4.200000000000000e+00 0.000000000000000e+00 0.000000000000000e+00 4.200000000000000e+00 1.999999999995579e-01 0.000000000000000e+00 4.400000000000000e+00 1.999999999995579e-01 0.000000000000000e+00 4.200000000000000e+00 0.000000000000000e+00 0.000000000000000e+00 4.400000000000000e+00 1.999999999995579e-01 0.000000000000000e+00 4.400000000000000e+00 0.000000000000000e+00 0.000000000000000e+00 4.400000000000000e+00 0.000000000000000e+00 0.000000000000000e+00 4.400000000000000e+00 1.999999999995579e-01 0.000000000000000e+00 4.600000000000000e+00 1.999999999995579e-01 0.000000000000000e+00 4.400000000000000e+00 0.000000000000000e+00 0.000000000000000e+00 4.600000000000000e+00 1.999999999995579e-01 0.000000000000000e+00 4.600000000000000e+00 0.000000000000000e+00 0.000000000000000e+00 4.600000000000000e+00 0.000000000000000e+00 0.000000000000000e+00 4.600000000000000e+00 1.999999999995579e-01 0.000000000000000e+00 4.800000000000000e+00 1.999999999995579e-01 0.000000000000000e+00 4.600000000000000e+00 0.000000000000000e+00 0.000000000000000e+00 4.800000000000000e+00 1.999999999995579e-01 0.000000000000000e+00 4.800000000000000e+00 0.000000000000000e+00 0.000000000000000e+00 4.800000000000000e+00 0.000000000000000e+00 0.000000000000000e+00 4.800000000000000e+00 1.999999999995579e-01 0.000000000000000e+00 5.000000000000000e+00 1.999999999995579e-01 0.000000000000000e+00 4.800000000000000e+00 0.000000000000000e+00 0.0000000000000
[...]
<PointData Scalars="conc_conc," Vectors="" Tensors="">
<DataArray type="Float64" Name="conc_conc" format="ascii">
-1.175351087640157e-02 -1.175351087640153e-02 -6.673366015343942e-03 -3.105266299318601e-02 5.397398255687408e-04 3.847042963384780e-03 -2.088115495323291e-03 -9.051825732473959e-03 1.167226232578029e-01 -3.778677477894260e-03 1.203108435146621e-01 1.358378882807465e-01 1.454307244553063e-01 1.368836124765656e-01 2.135596481600402e-01 1.715293850169864e-01 2.031213019762977e-01 1.895884330956820e-01 1.953362977086034e-01 2.107741229349120e-01 1.377655122223237e-01 2.010894052883171e-01 1.325622987625907e-01 1.183715027900575e-01 1.177619265596283e-01 1.275496958483868e-01 4.683631244061229e-02 1.116652531526161e-01 4.861328724489727e-02 4.877949716774235e-02 4.660775801543133e-02 4.484750376834323e-02 9.427548988331610e-03 4.195118496899376e-02 1.186075526400675e-02 1.592706373293706e-02 1.448031701040014e-02 1.081042504858559e-02 7.295935705648918e-04 1.257585114275205e-02 1.975326611500073e-03 4.517243880312975e-03 3.887633425035428e-03 1.853968161517742e-03 -3.026436345873995e-04 3.287952177394317e-03 1.522323615783750e-04 1.168144329509534e-03 9.518584013382464e-04 1.793252424323495e-04 -1.795970633944037e-04 7.884794295770591e-04 -4.154581332721318e-05 2.831733017350538e-04 2.193363580743850e-04 -2.063802031192064e-05 -6.234985150547011e-05 1.786661221270388e-04 -2.508296633758360e-05 6.546749001210422e-05 4.848429258480233e-05 -1.722837719209391e-05 -1.773341824438106e-05 3.895492460344656e-05 -8.446802714144957e-06 1.460119688981112e-05 1.040536346282438e-05 -6.113966912169432e-06 -4.518917813274290e-06 8.266127655659499e-06 -2.333727756909603e-06 3.166789971276813e-06 2.185050431325751e-06 -1.722423817841231e-06 -1.073282015552513e-06 1.719715560198021e-06 -5.804851467928978e-07 6.718159149897105e-07 4.513166509180768e-07 -4.324529474837930e-07 -2.427834181647768e-07 3.524896562847085e-07 -1.351789839542082e-07 1.400170836511721e-07 9.202161103444721e-08 -1.012199985992488e-07 -5.300742461438373e-08 7.142038959124372e-08 -3.009131506383584e-08 2.876534282967604e-08 1.857016554308431e-08 -2.259918743807937e-08 -1.126959990909464e-08 1.433870403088048e-08 -6.484151020888508e-09 5.840571076557410e-09 3.716176585526007e-09 -4.878630314793120e-09 -2.347557188095811e-09 2.857323692565811e-09 -1.363730084187433e-09 1.174468673385503e-09 7.385350063679150e-10 -1.027240293913688e-09 -4.812831958489699e-10 5.658968047549955e-10 -2.815446718175378e-10 2.342890280205214e-10 1.459288951058443e-10 -2.122308345486417e-10 -9.743284621486762e-11 1.115022711843260e-10 -5.729203097610096e-11 4.642722450763825e-11 2.869513728486985e-11 -4.320732116537506e-11 -1.952658756211249e-11 2.187509428665565e-11 -1.152631222496565e-11 9.149165935764768e-12 5.619516097363280e-12 -8.695207696963385e-12 -3.881593359890842e-12 4.275840148993047e-12 -2.297925316923582e-12 1.794611428131435e-12 1.096687145350247e-12 -1.733811395332907e-12 -7.665121483560893e-13 8.331711845092103e-13 -4.547797462077651e-13 3.506413479825766e-13 2.133951278762226e-13 -3.431704596023157e-13 -1.505490150087051e-13 1.619144299847303e-13 -8.947210423524584e-14 6.828541602221705e-14 4.141835400582060e-14 -6.751757020712904e-14 -2.943783291435287e-14 3.139364957475139e-14 -1.751744868754670e-14 1.326136900460139e-14 8.021712603067147e-15 -1.321920747719404e-14 -5.735092490712058e-15 6.074971576652298e-15 -3.416094179226587e-15 2.569395785627040e-15 1.550752255964801e-15 -2.577864042821693e-15 -1.113923803476515e-15 1.173581743907542e-15 -6.640019828359429e-16 4.968351903614754e-16 2.993186512032007e-16 -5.010590677125767e-16 -2.158113732338659e-16 2.263873442421902e-16 -1.287170723258491e-16 9.590998824665913e-17 5.769513932259076e-17 -9.712730245573433e-17 -4.172343096278487e-17 4.361631943325608e-17 -2.489607954900938e-17 1.848826595793998e-17 1.110817048225821e-17 -1.878536894706434e-17 -8.052361126980568e-18 8.394210264319846e-18 -4.806379536099416e-18 3.559613070460233e-18 2.136561401647229e-18 -3.626515789365287e-18 -1.551774284414616e-18 1.614023569939541e-18 -9.264721864915563e-19 6.846405844625475e-19 4.106001701173170e-19 -6.990151661737988e-19 -2.986752103105343e-19 3.100953317151674e-19 -1.783549604328725e-19 1.315656652764329e-19 7.885084837932440e-20 -1.345620509700532e-19 -5.742763931827893e-20 5.953662546041782e-20 -3.429797732468115e-20 2.526383227729084e-20 1.513290161246175e-20 -2.587557080693540e-20 -1.103228448607329e-20 1.142400578108764e-20 -6.589594164041346e-21 4.848201991882151e-21 2.902721141460856e-21 -4.971244895081841e-21 -2.117836375094609e-21 2.190955821501138e-21 -1.265083352237197e-21 9.298819677550742e-22 5.565303752353905e-22 -9.543591260254170e-22 -4.063046844305760e-22 4.200109824270022e-22 -2.427184625260285e-22 1.782687813195070e-22 1.066599427531965e-22 -1.830976968871597e-22 -7.790864568761012e-23 8.048705014196051e-23 -4.654294217815182e-23 3.416273492911306e-23 2.043464790865736e-23 -3.510932265423718e-23 -1.493238138315108e-23 1.541886943547410e-23 -8.920909208870781e-24 6.544627744891191e-24 3.913877809411850e-24 -6.729261638058176e-24 -2.860959207064241e-24 2.952975425005566e-24 -1.709226352017513e-24 1.253411362971153e-24 7.494447565574195e-25 -1.289284080446335e-24 -5.479719354144015e-25 5.654116963325921e-25 -3.273792310521908e-25 2.399920552870202e-25 1.434761282524227e-25 -2.469402621689374e-25 -1.049276576108115e-25 1.082385315845749e-25 -6.268815502086461e-26 4.594202673456412e-26 2.746252871493873e-26 -4.728451340674053e-26 -2.008742616803796e-26 2.071684333444130e-26 -1.200109610633650e-26 8.793194019682969e-27 5.255735909009201e-27 -9.052068606715978e-27 -3.844820934390786e-27 3.964610387369182e-27 -2.297061940308039e-27 1.682742130151391e-27 1.005699669984997e-27 -1.732582266011239e-27 -7.357968801884770e-28 7.586156426367521e-28 -4.395959586217425e-28 3.219825663085054e-28 1.924212464371226e-28 -3.315658166103119e-28 -1.407927321153191e-28 1.451426872912407e-28 -8.411521938025036e-29 6.160259360015996e-29 3.681243812039522e-29 -6.344335206404082e-29 -2.693715513398808e-29 2.776688357438409e-29 -1.609326895736358e-29 1.178485193194731e-29 7.042043853892973e-30 -1.213812998869149e-29 -5.153230888649018e-30 5.311572973049903e-30 -3.078718908710151e-30 2.254307646170423e-30 1.347007807573234e-30 -2.322062655292406e-30 -9.857564903016988e-31 1.015985650316008e-30 -5.889219130723180e-31 4.311917345275690e-31 2.576394386311479e-31 -4.441792787714256e-31 -1.885499027810727e-31 1.943227914772416e-31 -1.126449486167418e-31 8.247056270285281e-32 4.927514483471917e-32 -8.495895771816639e-32 -3.606224055697881e-32 3.716497850955305e-32 -2.154443262500375e-32 1.577250243055815e-32 9.423626271171590e-33 -1.624910460805911e-32 -6.896844748238504e-33 7.107534662256668e-33 -4.120303118654983e-33 3.016308132410557e-33 1.802115078581906e-33 -3.107565671622749e-33 -1.318922956743820e-33 1.359184698859715e-33 -7.879408305206086e-34 5.767966744920342e-34 3.446030530416961e-34 -5.942663385455229e-34 -2.522071101250195e-34 2.599021029183349e-34 -1.506695805172149e-34 1.102904136077675e-34 6.589054154191939e-35 -1.136341133293777e-34 -4.822352126907032e-35 4.969442484598907e-35 -2.880839968893341e-35 2.108693426587003e-35 1.259754819746548e-35 -2.172684418510154e-35 -9.219661755255863e-36 9.500863487474574e-36 -5.507620137563420e-36 4.031232033937819e-36 2.408211236953145e-36 -4.153688167843261e-36 -1.762425344707553e-36 1.816191768800522e-36 -1.052794845215621e-36 7.705347588112787e-37 4.602864489943931e-37 -7.939680993274329e-37 -3.368398443080474e-37 3.471216567961770e-37 -2.012025589809253e-37 1.472477989179656e-37 8.795411807229872e-38 -1.517321896101362e-37 -6.436048750364993e-38 6.632703494713108e-38 -3.844112883254840e-38 2.812977828019826e-38 1.680093551206177e-38 -2.898803041353402e-38 -1.229273969447470e-38 1.266895081342216e-38 -7.341374205810951e-39 5.371365905239315e-39 3.207706358403553e-39 -5.535651423202766e-39 -2.346602922612501e-39 2.418593099364898e-39 -1.401195299830081e-39 1.024985395478324e-39 6.119916378836332e-40 -1.056440576666377e-39 -4.475987466974518e-40 4.613789901728542e-40 -2.672068265543177e-40 1.954076997824554e-40 1.166411695167589e-40 -2.014323805414231e-40 -8.528045275065698e-41 8.791930320922861e-41 -5.089370056567384e-41 3.720331788537794e-41 2.219849883414323e-41 -3.835775049602720e-41 -1.622235189630435e-41 1.672792116210272e-41 -9.676588972110759e-42 7.069539731925918e-42 4.215928242328575e-42 -7.290868949030161e-42 -3.078861744285397e-42 3.175775052693829e-42 -1.835293799891317e-42 1.339753789275785e-42 7.983376382363991e-43 -1.382213572901456e-42 -5.824672816716399e-43 6.010553746425259e-43 -3.468744074042734e-43 2.529315078466465e-43 1.505509659084820e-43 -2.610821690548929e-43 -1.096964700877924e-43 1.132635114169799e-43 -6.523933588001311e-44 4.749628750161282e-44 2.822694513437073e-44 -4.906172817812811e-44 -2.052920765126222e-44 2.121391049550125e-44 -1.218627309324356e-44 8.852728777901433e-45 5.249697560435170e-45 -9.153447529576941e-45 -3.808319560429536e-45 3.939716037862256e-45 -2.254707901527553e-45 1.633020391555773e-45 9.654448078873445e-46 -1.690755667075178e-45 -6.979021368138029e-46 7.230846537043654e-46 -4.116830884554281e-46 2.969366328555930e-46 1.748079108585474e-46 -3.079995510269054e-46 -1.257519620557572e-46 1.305630257172135e-46 -7.380364014171427e-47 5.292907937273246e-47 3.097676247707170e-47 -5.503959319674839e-47 -2.213458414980072e-47 2.304797321369433e-47 -1.289947803667145e-47 9.178096111966028e-48 5.327675509195460e-48 -9.577357885085443e-48 -3.771605573028319e-48 3.943067246471787e-48 -2.176526555808139e-48 1.531657297248430e-48 8.789736581369553e-49 -1.606083789072070e-48 -6.141910552376177e-49 6.457688500076715e-49 -3.495972254370718e-49 2.422308695289462e-49 1.367835011947525e-49 -2.557689636051145e-49 -9.382534911819723e-50 9.946311921862067e-50 -5.237376121182813e-50 3.548931767633872e-50 1.958207301071823e-50 -3.785682526885536e-50 -1.307458994394346e-50 1.403272839870371e-50 -7.095079021317879e-51 4.651308181182595e-51 2.480592851922143e-51 -5.040399038331521e-51 -1.589707698732213e-51 1.740398098706702e-51 -8.269007852618030e-52 5.146846590628220e-52 2.604539414174506e-52 -5.726649491812221e-52 -1.560927726811297e-52 1.770448963472589e-52 -7.588072433507185e-53 4.316918455225398e-53 1.999536510926318e-53 -5.054540907601628e-53 -1.056021849084292e-53 1.293501303863843e-53 -4.536030129240637e-54 2.124194222052635e-54 8.154721416205910e-55 -2.838102987649393e-54 -3.018923971132962e-55 4.862536854415215e-55 -8.957915278133002e-56 1.187196633032801e-56 -2.661664677273592e-57 -5.090079084187121e-56 6.051250087611270e-57 -9.222757444028922e-58 2.706068991252173e-57 -8.269347562088732e-58 -1.310301764846833e-58 1.061411587025024e-57 -2.598487158758504e-58 -4.454608705324452e-59 -7.154523822882121e-59 5.125069951223937e-59 -1.177542350618009e-02 -1.177542350618005e-02 -6.567315483377806e-03 -3.104155960224020e-02 6.462891484640067e-04 3.944556375299359e-03 -1.932413479875064e-03 -8.855527967968017e-03 1.165584010902823e-01 -3.517180511703327e-03 1.200813197419242e-01 1.354847226623507e-01 1.450881888541416e-01 1.365906637111918e-01 2.125013881302236e-01 1.710839522264274e-01 2.020644753186457e-01 1.887437883232042e-01 1.944594548366740e-01 2.096246927699804e-01 1.367415070845509e-01 2.001390829645925e-01 1.315906258380997e-01 1.177225929455836e-01 1.170861201423805e-01 1.265988995737983e-01 4.637645090408015e-02 1.109986986025892e-01 4.817349219315210e-02 4.847221437239323e-02 4.629509189481486e-02 4.444242652923729e-02 9.304377481701974e-03 4.166051975258731e-02 1.173425217494789e-02 1.581407875844662e-02 1.437101472236424e-02 1.069730526087749e-02 7.102167098456684e-04 1.247842639769438e-02 1.950169575692321e-03 4.481642096932263e-03 3.855378464388882e-03 1.831492072519755e-03 -3.026815286270833e-04 3.260117517661464e-03 1.491948927678004e-04 1.158071290456943e-03 9.433295828572884e-04 1.764254750269973e-04 -1.783725684606864e-04 7.813064876557857e-04 -4.142025871100961e-05 2.805434477728778e-04 2.172438371279339e-04 -2.063987442275099e-05 -6.180177600941756e-05 1.769423679962052e-04 -2.486899489790718e-05 6.482194515021215e-05 4.799745509589973e-05 -1.708120598264889e-05 -1.755919521367733e-05 3.856054169509251e-05 -8.362877344830065e-06 1.445014585440822e-05 1.029642483298070e-05 -6.052615907778442e-06 -4.471527576418534e-06 8.179062804580378e-06 -2.308858057539071e-06 3.132748349046836e-06 2.161379526488574e-06 -1.703911855999918e-06 -1.061526104843309e-06 1.701002897744059e-06 -5.740318149548156e-07 6.643687967746947e-07 4.462888578643209e-07 -4.276129132314929e-07 -2.400401968910683e-07 3.485498544850419e-07 -1.336321879923312e-07 1.384261164643620e-07 9.097267119882086e-08 -1.000556642913464e-07 -5.239442739018757e-08 7.060425241056401e-08 -2.973967407806988e-08 2.843188505210253e-08 1.835445370132070e-08 -2.233399878734759e-08 -1.113692584953910e-08 1.417182679940951e-08 -6.407158061146614e-09 5.771753880283262e-09 3.672331976027413e-09 -4.820509905215853e-09 -2.319529135710693e-09 2.823561730567910e-09 -1.347333682177207e-09 1.160444847830065e-09 7.297085951848825e-10 -1.014856940093686e-09 -4.754721437637353e-10 5.591255751626580e-10 -2.781257326792627e-10 2.314606799009771e-10 1.441661282201099e-10 -2.096481301867331e-10 -9.624567939500212e-11 1.101540595337899e-10 -5.659067187377620e-11 4.586165699471158e-11 2.834541444247601e-11 -4.267747578788843e-11 -1.928688626465019e-11 2.160827673506914e-11 -1.138427292754458e-11 9.036871549236666e-12 5.550517660948969e-12 -8.587906818260540e-12 -3.833649753303398e-12 4.223304278644107e-12 -2.269452314987029e-12 1.772446242315962e-12 1.083137608540462e-12 -1.712303797577879e-12 -7.569958055482857e-13 8.228714047989395e-13 -4.491188314780160e-13 3.462877542436683e-13 2.107448159002488e-13 -3.388948561194112e-13 -1.486718583576225e-13 1.599024808362591e-13 -8.835409062322428e-14 6.743381577000364e-14 4.090167477159268e-14 -6.667325468997762e-14 -2.906944200432235e-14 3.100185124063013e-14 -1.729784014377607e-14 1.309536345320819e-14 7.921270144130366e-15 -1.305338153841132e-14 -5.663100193711484e-15 5.998874880606955e-15 -3.373148599274315e-15 2.537129652462222e-15 1.531273041892615e-15 -2.545439910273525e-15 -1.099903807357761e-15 1.158834997085703e-15 -6.556344714562537e-16 4.905790386577506e-16 2.955486671763806e-16 -4.947422925876996e-16 -2.130889749729118e-16 2.235350304919002e-16 -1.270916775549147e-16 9.469947520370940e-17 5.696676683528181e-17 -9.590039861620100e-17 -4.119607026868673e-17 4.306552358929841e-17 -2.458113744824443e-17 1.825445094907406e-17 1.096765466571771e-17 -1.854766374207611e-17 -7.950410665680824e-18 8.287996778885320e-18 -4.745482581522071e-18 3.514517635444704e-18 2.109487596750403e-18 -3.580557514961377e-18 -1.532098194770122e-18 1.593566083026827e-18 -9.147176825035824e-19 6.759540182499367e-19 4.053893477466736e-19 -6.901449045226900e-19 -2.948831531902415e-19 3.061590743513075e-19 -1.760893702414954e-19 1.298941832247378e-19 7.784885560336571e-20 -1.328525036643883e-19 -5.669768487254066e-20 5.877990194922307e-20 -3.386183353767139e-20 2.494249350390152e-20 1.494037864496838e-20 -2.554649152259578e-20 -1.089191154794640e-20 1.127863801642882e-20 -6.505718731437322e-21 4.786472685542331e-21 2.865754515607243e-21 -4.907962937511041e-21 -2.090864806565396e-21 2.163048201881044e-21 -1.248966964097073e-21 9.180314730736630e-22 5.494364150580506e-22 -9.422003445280787e-22 -4.011259757987630e-22 4.146562082827006e-22 -2.396239814362107e-22 1.759950417101887e-22 1.052992643343971e-22 -1.807632175666046e-22 -7.691489546793276e-23 7.946008120705135e-23 -4.594913604778143e-23 3.372668114303374e-23 2.017376782769262e-23 -3.466137307129633e-23 -1.474178536794195e-23 1.522198997254902e-23 -8.807020745554628e-24 6.461035694811839e-24 3.863877652478493e-24 -6.643350671188546e-24 -2.824419494418750e-24 2.915244674464992e-24 -1.687392630021566e-24 1.237392142729962e-24 7.398646720378755e-25 -1.272814482973691e-24 -5.409693289728070e-25 5.581829373718610e-25 -3.231949775176233e-25 2.369230950830612e-25 1.416410522439470e-25 -2.437840859582058e-25 -1.035860619621119e-25 1.068539339785911e-25 -6.188652329602114e-26 4.535422166126407e-26 2.711109621442305e-26 -4.667985833751051e-26 -1.983046283038631e-26 2.045169399255345e-26 -1.184755696926602e-26 8.680634177259804e-27 5.188446466745322e-27 -8.936259482160169e-27 -3.795614106069526e-27 3.913843795869460e-27 -2.267660547361853e-27 1.661191738185779e-27 9.928177383695253e-28 -1.710406244426273e-27 -7.263758444890149e-28 7.488971861854075e-28 -4.339668987516690e-28 3.178572255140946e-28 1.899554670514730e-28 -3.273201620405257e-28 -1.389892863992265e-28 1.432824940488988e-28 -8.303767503196746e-29 6.081299373464832e-29 3.634051077008421e-29 -6.263063781296480e-29 -2.659197265499770e-29 2.741086844637607e-29 -1.588702753250232e-29 1.163373785838731e-29 6.951730721406774e-30 -1.198257881374573e-29 -5.087170061159469e-30 5.243443465505302e-30 -3.039248969354100e-30 2.225390196723012e-30 1.329726073073591e-30 -2.292294005363067e-30 -9.731150762879635e-31 1.002949060884931e-30 -5.813690160427286e-31 4.256585193475250e-31 2.543327826368745e-31 -4.384828587281014e-31 -1.861310525197954e-31 1.918284322908615e-31 -1.111997670222759e-31 8.141189028679570e-32 4.864250095203373e-32 -8.386900675601292e-32 -3.559944644168520e-32 3.668775334214728e-32 -2.126793162576961e-32 1.556996062966918e-32 9.302594273603409e-33 -1.604057030616081e-32 -6.808305783844503e-33 7.016237194561778e-33 -4.067405219463401e-33 2.977561162013598e-33 1.778961823403224e-33 -3.067670950056130e-33 -1.301985459457727e-33 1.341719833817481e-33 -7.778215962835626e-34 5.693847687179759e-34 3.401741797946053e-34 -5.866346513245267e-34 -2.489672192152634e-34 2.565613771265449e-34 -1.487339519904489e-34 1.088727029521190e-34 6.504343216945690e-35 -1.121743241454761e-34 -4.760383329430053e-35 4.905545445846660e-35 -2.843818304017411e-35 2.081578776512231e-35 1.243553782140066e-35 -2.144764246850537e-35 -9.101148092212712e-36 9.378662044496619e-36 -5.436819123147024e-36 3.979379800107834e-36 2.377230606486049e-36 -4.100294015095341e-36 -1.739763150613946e-36 1.792824191927321e-36 -1.039256782051079e-36 7.606205119703591e-37 4.543631790644182e-37 -7.837587075890192e-37 -3.325072178233086e-37 3.426540881021572e-37 -1.986144509119700e-37 1.453526074920259e-37 8.682191007458979e-38 -1.497805015481851e-37 -6.353238769606970e-38 6.547311582127638e-38 -3.794649912505712e-38 2.776761324303383e-38 1.658459420400751e-38 -2.861504975512138e-38 -1.213452500791805e-38 1.250579494219232e-38 -7.246882042475180e-39 5.302189144391367e-39 3.166388677300936e-39 -5.464403783045931e-39 -2.316391455786888e-39 2.387435772086850e-39 -1.383154705695330e-39 1.011780714276569e-39 6.041062742623567e-40 -1.042839278901899e-39 -4.418343394056536e-40 4.554334663785576e-40 -2.637654437526348e-40 1.928895222607292e-40 1.151378103732794e-40 -1.988382153284725e-40 -8.418183004865953e-41 8.678598661132721e-41 -5.023803485383770e-41 3.672373832684243e-41 2.191229918419761e-41 -3.786360562340944e-41 -1.601330386377475e-41 1.651222435815263e-41 -9.551886886378993e-42 6.978379676549475e-42 4.161556464168572e-42 -7.196915384887223e-42 -3.039174051663682e-42 3.134812553420170e-42 -1.811635136123138e-42 1.322472618382818e-42 7.880384706346190e-43 -1.364396261955365e-42 -5.749567437503937e-43 5.933002902544520e-43 -3.424014944898219e-43 2.496679895958660e-43 1.486081372441414e-43 -2.577156764260325e-43 -1.082815675271402e-43 1.118016791078236e-43 -6.439782130327946e-44 4.688326346378586e-44 2.786256895686804e-44 -4.842891263085991e-44 -2.026433281121246e-44 2.094002854398723e-44 -1.202903520295789e-44 8.738433256174827e-45 5.181909242003229e-45 -9.035346658450475e-45 -3.759168093953619e-45 3.888836610674942e-45 -2.225606683360279e-45 1.611930322203516e-45 9.529743437009717e-46 -1.668934213517993e-45 -6.888919794948388e-46 7.137