<?xml version="1.0"?>
<VTKFile type="UnstructuredGrid" version="0.1" byte_order="LittleEndian">
<UnstructuredGrid>
<Piece NumberOfPoints="2400" NumberOfCells="800">
<Points>
<DataArray type="Float64" NumberOfComponents="3" format="ascii">
0 0 0 0 0.199999999999558 0 0.2 0.199999999999558 0 0 0 0 0.2 0.199999999999558 0 0.2 0 0 0.2 0 0 0.2 0.199999999999558 0 0.4 0.199999999999558 0 0.2 0 0 0.4 0.199999999999558 0 0.4 0 0 0.4 0 0 0.4 0.199999999999558 0 0.6 0.199999999999558 0 0.4 0 0 0.6 0.199999999999558 0 0.6 0 0 0.6 0 0 0.6 0.199999999999558 0 0.8 0.199999999999558 0 0.6 0 0 0.8 0.199999999999558 0 0.8 0 0 0.8 0 0 0.8 0.199999999999558 0 1 0.199999999999558 0 0.8 0 0 1 0.199999999999558 0 1 0 0 1 0 0 1 0.199999999999558 0 1.2 0.199999999999558 0 1 0 0 1.2 0.199999999999558 0 1.2 0 0 1.2 0 0 1.2 0.199999999999558 0 1.4 0.199999999999558 0 1.2 0 0 1.4 0.199999999999558 0 1.4 0 0 1.4 0 0 1.4 0.199999999999558 0 1.6 0.199999999999558 0 1.4 0 0 1.6 0.199999999999558 0 1.6 0 0 1.6 0 0 1.6 0.199999999999558 0 1.8 0.199999999999558 0 1.6 0 0 1.8 0.199999999999558 0 1.8 0 0 1.8 0 0 1.8 0.199999999999558 0 2 0.199999999999558 0 1.8 0 0 2 0.199999999999558 0 2 0 0 2 0 0 2 0.199999999999558 0 2.2 0.199999999999558 0 2 0 0 2.2 0.199999999999558 0 2.2 0 0 2.2 0 0 2.2 0.199999999999558 0 2.4 0.199999999999558 0 2.2 0 0 2.4 0.199999999999558 0 2.4 0 0 2.4 0 0 2.4 0.199999999999558 0 2.6 0.199999999999558 0 2.4 0 0 2.6 0.199999999999558 0 2.6 0 0 2.6 0 0 2.6 0.199999999999558 0 2.8 0.199999999999558 0 2.6 0 0 2.8 0.199999999999558 0 2.8 0 0 2.8 0 0 2.8 0.199999999999558 0 3 0.199999999999558 0 2.8 0 0 3 0.199999999999558 0 3 0 0 3 0 0 3 0.199999999999558 0 3.2 0.199999999999558 0 3 0 0 3.2 0.199999999999558 0 3.2 0 0 3.2 0 0 3.2 0.199999999999558 0 3.4 0.199999999999558 0 3.2 0 0 3.4 0.199999999999558 0 3.4 0 0 3.4 0 0 3.4 0.199999999999558 0 3.6 0.199999999999558 0 3.4 0 0 3.6 0.199999999999558 0 3.6 0 0 3.6 0 0 3.6 0.199999999999558 0 3.8 0.199999999999558 0 3.6 0 0 3.8 0.199999999999558 0 3.8 0 0 3.8 0 0 3.8 0.199999999999558 0 4 0.199999999999558 0 3.8 0 0 4 0.199999999999558 0 4 0 0 4 0 0 4 0.199999999999558 0 4.2 0.199999999999558 0 4 0 0 4.2 0.199999999999558 0 4.2 0 0 4.2 0 0 4.2 0.199999999999558 0 4.4 0.199999999999558 0 4.2 0 0 4.4 0.199999999999558 0 4.4 0 0 4.4 0 0 4.4 0.199999999999558 0 4.6 0.199999999999558 0 4.4 0 0 4.6 0.199999999999558 0 4.6 0 0 4.6 0 0 4.6 0.199999999999558 0 4.8 0.199999999999558 0 4.6 0 0 4.8 0.199999999999558 0 4.8 0 0 4.8 0 0 4.8 0.199999999999558 0 5 0.199999999999558 0 4.8 0 0 5 0.199999999999558 0 5 0 0 5 0 0 5 0.199999999999558 0 5.2 0.199999999999558 0 5 0 0 5.2 0.199999999999558 0 5.2 0 0 5.2 0 0 5.2 0.199999999999558 0 5.4 0.199999999999558 0 5.2 0 0 5.4 0.199999999999558 0 5.4 0 0 5.4 0 0 5.4 0.199999999999558 0 5.6 0.199999999999558 0 5.4 0 0 5.6 0.199999999999558 0 5.6 0 0 5.6 0 0 5.6 0.199999999999558 0 5.8 0.199999999999558 0 5.6 0 0 5.8 0.199999999999558 0 5.8 0 0 5.8 0 0 5.8 0.199999999999558 0 6 0.199999999999558 0 5.8 0 0 6 0.199999999999558 0 6 0 0 6 0 0 6 0.199999999999558 0 6.2 0.199999999999558 0 6 0 0 6.2 0.199999999999558 0 6.2 0 0 6.2 0 0 6.2 0.199999999999558 0 6.4 0.199999999999558 0 6.2 0 0 6.4 0.199999999999558 0 6.4 0 0 6.4 0 0 6.4 0.199999999999558 0 6.6 0.199999999999558 0 6.4 0 0 6.6 0.199999999999558 0 6.6 0 0 6.6 0 0 6.6 0.199999999999558 0 6.8 0.199999999999558 0 6.6 0 0 6.8 0.199999999999558 0 6.8 0 0 6.8 0 0 6.8 0.199999999999558 0 7 0.199999999999558 0 6.8 0 0 7 0.199999999999558 0 7 0 0 7 0 0 7 0.199999999999558 0 7.2 0.199999999999558 0 7 0 0 7.2 0.199999999999558 0 7.2 0 0 7.2 0 0 7.2 0.199999999999558 0 7.4 0.199999999999558 0 7.2 0 0 7.4 0.199999999999558 0 7.4 0 0 7.4 0 0 7.4 0.199999999999558 0 7.6 0.199999999999558 0 7.4 0 0 7.6 0.199999999999558 0 7.6 0 0 7.6 0 0 7.6 0.199999999999558 0 7.8 0.199999999999558 0 7.6 0 0 7.8 0.199999999999558 0 7.8 0 0 7.8 0 0 7.8 0.199999999999558 0 8 0.199999999999558 0 7.8 0 0 8 0.199999999999558 0 8 0 0 8 0 0 8 0.199999999999558 0 8.2 0.199999999999558 0 8 0 0 8.2 0.199999999999558 0 8.2 0 0 8.2 0 0 8.2 0.199999999999558 0 8.4 0.199999999999558 0 8.2 0 0 8.4 0.199999999999558 0 8.4 0 0 8.4 0 0 8.4 0.199999999999558 0 8.6 0.199999999999558 0 8.4 0 0 8.6 0.199999999999558 0 8.6 0 0 8.6 0 0 8.6 0.199999999999558 0 8.8 0.199999999999558 0 8.6 0 0 8.8 0.199999999999558 0 8.8 0 0 8.8 0 0 8.8 0.199999999999558 0 9 0.199999999999558 0 8.8 0 0 9 0.199999999999558 0 9 0 0 9 0 0 9 0.199999999999558 0 9.2 0.199999999999558 0 9 0 0 9.2 0.199999999999558 0 9.2 0 0 9.2 0 0 9.2 0.199999999999558 0 9.4 0.199999999999558 0 9.2 0 0 9.4 0.199999999999558 0 9.4 0 0 9.4 0 0 9.4 0.199999999999558 0 9.6 0.199999999999558 0 9.4 0 0 9.6 0.199999999999558 0 9.6 0 0 9.6 0 0 9.6 0.199999999999558 0 9.8 0.199999999999558 0 9.6 0 0 9.8 0.199999999999558 0 9.8 0 0 9.8 0 0 9.8 0.199999999999558 0 10 0.199999999999558 0 9.8 0 0 10 0.199999999999558 0 10 0 0 10 0 0 10 0.199999999999558 0 10.2 0.199999999999558 0 10 0 0 10.2 0.199999999999558 0 10.2 0 0 10.2 0 0 10.2 0.199999999999558 0 10.4 0.199999999999558 0 10.2 0 0 10.4 0.199999999999558 0 10.4 0 0 10.4 0 0 10.4 0.199999999999558 0 10.6 0.199999999999558 0 10.4 0 0 10.6 0.199999999999558 0 10.6 0 0 10.6 0 0 10.6 0.199999999999558 0 10.8 0.199999999999558 0 10.6 0 0 10.8 0.199999999999558 0 10.8 0 0 10.8 0 0 10.8 0.199999999999558 0 11 0.199999999999558 0 10.8 0 0 11 0.199999999999558 0 11 0 0 11 0 0 11 0.199999999999558 0 11.2 0.199999999999558 0 11 0 0 11.2 0.199999999999558 0 11.2 0 0 11.2 0 0 11.2 0.199999999999558 0 11.4 0.199999999999558 0 11.2 0 0 11.4 0.199999999999558 0 11.4 0 0 11.4 0 0 11.4 0.199999999999558 0 11.6 0.199999999999558 0 11.4 0 0 11.6 0.199999999999558 0 11.6 0 0 11.6 0 0 11.6 0.199999999999558 0 11.8 0.199999999999558 0 11.6 0 0 11.8 0.199999999999558 0 11.8 0 0 11.8 0 0 11.8 0.199999999999558 0 12 0.199999999999558 0 11.8 0 0 12 0.199999999999558 0 12 0 0 12 0 0 12 0.199999999999558 0 12.2 0.199999999999558 0 12 0 0 12.2 0.199999999999558 0 12.2 0 0 12.2 0 0 12.2 0.199999999999558 0 12.4 0.199999999999558 0 12.2 0 0 12.4 0.199999999999558 0 12.4 0 0 12.4 0 0 12.4 0.199999999999558 0 12.6 0.199999999999558 0 12.4 0 0 12.6 0.199999999999558 0 12.6 0 0 12.6 0 0 12.6 0.199999999999558 0 12.8 0.199999999999558 0 12.6 0 0 12.8 0.199999999999558 0 12.8 0 0 12.8 0 0 12.8 0.199999999999558 0 13 0.199999999999558 0 12.8 0 0 13 0.199999999999558 0 13 0 0 13 0 0 13 0.199999999999558 0 13.2 0.199999999999558 0 13 0 0 13.2 0.199999999999558 0 13.2 0 0 13.2 0 0 13.2 0.199999999999558 0 13.4 0.199999999999558 0 13.2 0 0 13.4 0.199999999999558 0 13.4 0 0 13.4 0 0 13.4 0.199999999999558 0 13.6 0.199999999999558 0 13.4 0 0 13.6 0.199999999999558 0 13.6 0 0 13.6 0 0 13.6 0.199999999999558 0 13.8 0.199999999999558 0 13.6 0 0 13.8 0.199999999999558 0 13.8 0 0 13.8 0 0 13.8 0.199999999999558 0 14 0.199999999999558 0 13.8 0 0 14 0.199999999999558 0 14 0 0 14 0 0 14 0.199999999999558 0 14.2 0.199999999999558 0 14 0 0 14.2 0.199999999999558 0 14.2 0 0 14.2 0 0 14.2 0.199999999999558 0 14.4 0.199999999999558 0 14.2 0 0 14.4 0.199999999999558 0 14.4 0 0 14.4 0 0 14.4 0.199999999999558 0 14.6 0.199999999999558 0 14.4 0 0 14.6 0.199999999999558 0 14.6 0 0 14.6 0 0 14.6 0.199999999999558 0 14.8 0.199999999999558 0 14.6 0 0 14.8 0.199999999999558 0 14.8 0 0 14.8 0 0 14.8 0.199999999999558 0 15 0.199999999999558 0 14.8 0 0 15 0.199999999999558 0 15 0 0 15 0 0 15 0.199999999999558 0 15.2 0.199999999999558 0 15 0 0 15.2 0.199999999999558 0 15.2 0 0 15.2 0 0 15.2 0.199999999999558 0 15.4 0.199999999999558 0 15.2 0 0 15.4 0.199999999999558 0 15.4 0 0 15.4 0 0 15.4 0.199999999999558 0 15.6 0.199999999999558 0 15.4 0 0 15.6 0.199999999999558 0 15.6 0 0 15.6 0 0 15.6 0.199999999999558 0 15.8 0.199999999999558 0 15.6 0 0 15.8 0.199999999999558 0 15.8 0 0 15.8 0 0 15.8 0.199999999999558 0 16 0.199999999999558 0 15.8 0 0 16 0.199999999999558 0 16 0 0 0 0.199999999999558 0 0 0.399999999998975 0 0.2 0.399999999998975 0 0 0.199999999999558 0 0.2 0.399999999998975 0 0.2 0.199999999999558 0 0.2 0.199999999999558 0 0.2 0.399999999998975 0 0.4 0.399999999998975 0 0.2 0.199999999999558 0 0.4 0.399999999998975 0 0.4 0.199999999999558 0 0.4 0.199999999999558 0 0.4 0.399999999998975 0 0.6 0.399999999998975 0 0.4 0.199999999999558 0 0.6 0.399999999998975 0 0.6 0.199999999999558 0 0.6 0.199999999999558 0 0.6 0.399999999998975 0 0.8 0.399999999998975 0 0.6 0.199999999999558 0 0.8 0.399999999998975 0 0.8 0.199999999999558 0 0.8 0.199999999999558 0 0.8 0.399999999998975 0 1 0.399999999998975 0 0.8 0.199999999999558 0 1 0.399999999998975 0 1 0.199999999999558 0 1 0.199999999999558 0 1 0.399999999998975 0 1.2 0.399999999998975 0 1 0.199999999999558 0 1.2 0.399999999998975 0 1.2 0.199999999999558 0 1.2 0.199999999999558 0 1.2 0.399999999998975 0 1.4 0.399999999998975 0 1.2 0.199999999999558 0 1.4 0.399999999998975 0 1.4 0.199999999999558 0 1.4 0.199999999999558 0 1.4 0.399999999998975 0 1.6 0.399999999998975 0 1.4 0.199999999999558 0 1.6 0.399999999998975 0 1.6 0.199999999999558 0 1.6 0.199999999999558 0 1.6 0.399999999998975 0 1.8 0.399999999998975 0 1.6 0.199999999999558 0 1.8 0.399999999998975 0 1.8 0.199999999999558 0 1.8 0.199999999999558 0 1.8 0.399999999998975 0 2 0.399999999998975 0 1.8 0.199999999999558 0 2 0.399999999998975 0 2 0.199999999999558 0 2 0.199999999999558 0 2 0.399999999998975 0 2.2 0.399999999998975 0 2 0.199999999999558 0 2.2 0.399999999998975 0 2.2 0.199999999999558 0 2.2 0.199999999999558 0 2.2 0.399999999998975 0 2.4 0.399999999998975 0 2.2 0.199999999999558 0 2.4 0.399999999998975 0 2.4 0.199999999999558 0 2.4 0.199999999999558 0 2.4 0.399999999998975 0 2.6 0.399999999998975 0 2.4 0.199999999999558 0 2.6 0.399999999998975 0 2.6 0.199999999999558 0 2.6 0.199999999999558 0 2.6 0.399999999998975 0 2.8 0.399999999998975 0 2.6 0.199999999999558 0 2.8 0.399999999998975 0 2.8 0.199999999999558 0 2.8 0.199999999999558 0 2.8 0.399999999998975 0 3 0.399999999998975 0 2.8 0.199999999999558 0 3 0.399999
[...]
<PointData Scalars="conc_conc," Vectors="" Tensors="">
<DataArray type="Float64" Name="conc_conc" format="ascii">
0.322503062353228 0.322503062353228 0.587568970562854 0.594696099387224 0.427367587331738 0.312419576244193 0.276336296766159 0.326621131259745 -0.0874138611698757 0.184743079083066 -0.0344666335076498 0.0169872290556248 0.00551151958115342 -0.0273586036269378 -0.00529146890726528 0.00265998388179609 -0.00167562299968606 0.000553495657564177 5.82754903234047e-05 -0.000619161821668616 0.000153494906942173 2.26736387346424e-05 7.47713481150387e-05 -4.24826339058961e-05 -1.14477612180264e-05 3.14939557525676e-05 -1.0941088731304e-06 -5.15076966373351e-06 -1.67730884237384e-06 1.6737478957635e-06 5.97275258997315e-07 -7.05336037384051e-07 -1.34254341771718e-07 2.72335060038177e-07 -1.29111740717261e-09 -4.34190381463578e-08 -2.0169024741741e-08 -2.81773173355902e-09 8.63088366376554e-09 -9.10544668007688e-09 1.95942631092711e-09 6.05894923356482e-10 4.77123041352865e-10 9.70322893255854e-10 -3.34982430583492e-10 2.08732008403225e-10 -1.07278716972417e-10 1.12659093353846e-11 -5.51591126195814e-12 -5.08887804705034e-11 9.62991200115847e-12 -2.05282785739589e-12 3.90893702923085e-12 -1.22129697303269e-12 -1.754846393453e-13 1.80827217560119e-12 -1.94393647255096e-13 -9.73357316747626e-14 -1.07489559391678e-13 5.56070463124094e-14 1.50294433978219e-14 -4.83234034938927e-14 1.17756893070327e-15 7.34439654948252e-15 2.0401496770382e-15 -1.84303231172319e-15 -6.49295472308746e-16 8.64605768570632e-16 1.2502135622102e-16 -3.05682126288027e-16 -6.72934788176919e-18 4.6570897307482e-17 2.08412174189899e-17 -1.43361935552478e-19 -7.96940838743083e-18 9.54258730240168e-18 -1.61113174887219e-18 -7.56331085304986e-19 -5.08708501425108e-19 -8.29638760335492e-19 3.1417780842372e-19 -2.247169895726e-19 9.44631027652585e-20 -3.77726492569564e-21 7.61748989777135e-21 4.53862690276765e-20 -9.45297992913095e-21 3.04304374746077e-21 -3.60046712657071e-21 9.38334617299125e-22 7.55988419031587e-23 -1.67527987533814e-21 2.12708264469026e-22 5.07634913306414e-23 1.05377422311332e-22 -4.76387284792712e-23 -1.14867989889508e-23 4.76412354177054e-23 -2.48538962324721e-24 -5.7047324520395e-24 -2.27893669562152e-24 1.69705465537093e-24 5.54489026237641e-25 -9.84966972703183e-25 -6.98022651927369e-26 2.62445357706565e-25 2.27519302689588e-26 -4.67276317681336e-26 -1.92028927853183e-26 7.84129030592637e-27 6.21974045753724e-27 -8.82809954318424e-27 9.57048455569963e-28 9.14400709489979e-28 5.13888192099977e-28 5.21313594052464e-28 -2.72621367101581e-28 2.29016046698407e-28 -7.42515365030108e-29 -4.83183211628524e-30 -9.54212724429873e-30 -3.60198134660184e-29 8.89534574083218e-30 -3.99549981642592e-30 3.13317828968826e-30 -6.19539549909217e-31 2.53943961837461e-32 1.46424267738048e-30 -2.22928825722284e-31 -2.55457474274266e-33 -9.95303824464445e-32 3.85440404402509e-32 7.82060731209411e-33 -4.52363907965841e-32 3.59409172230899e-33 3.98977760535502e-33 2.41461890817536e-33 -1.5088329307885e-33 -4.51777848576134e-34 1.05896405216279e-33 1.88575190243491e-35 -2.15380842516601e-34 -3.58934270844299e-35 4.52583773762135e-35 1.71369719521002e-35 -1.42326555655262e-35 -4.50230686801335e-36 7.91548310383385e-36 -3.6836678742522e-37 -1.01698420266925e-36 -5.00410733882949e-37 -2.43159022560113e-37 2.27911387352811e-37 -2.2466904549247e-37 5.47431153460941e-38 1.18910693605654e-38 1.08082094209232e-38 2.69863573636699e-38 -8.11107285644863e-39 4.64099745541756e-39 -2.63514392672399e-39 3.31852747221692e-40 -1.07835158837039e-40 -1.23908800232755e-39 2.2332559458926e-40 -3.69676478543206e-41 9.11538049755208e-41 -2.96157927179052e-41 -4.53109206604324e-42 4.16533920588097e-41 -4.37719502515234e-42 -2.45167577766156e-42 -2.43826224496112e-42 1.29831502661161e-42 3.51446439697749e-43 -1.08058593617123e-42 2.37073723350322e-44 1.69438556141819e-43 4.53005549068196e-44 -4.23745287372842e-44 -1.48271202631344e-44 1.88774112884641e-44 2.92774126928049e-45 -6.88858326505292e-45 -1.2392146896353e-46 1.06299757293467e-45 4.71036621131044e-46 1.00038147987927e-47 -1.82850822405628e-46 2.12880861692836e-46 -3.68907763031843e-47 -1.72090205360414e-47 -1.14350206207424e-47 -1.87209075619251e-47 7.16699530610062e-48 -4.98799381908659e-48 2.13401229405812e-48 -8.49499080266624e-50 1.70568104927033e-49 1.01221651774693e-48 -2.15238550834157e-49 6.73242569570125e-50 -8.09875593703965e-50 2.12360585559579e-50 1.70325031534796e-51 -3.72271612060456e-50 4.84836675058178e-51 1.12675802372579e-51 2.36638042307549e-51 -1.07824325113351e-51 -2.57322695054661e-52 1.05755118060257e-51 -5.73518581338043e-53 -1.26297257320843e-52 -5.11944956183997e-53 3.84297779583398e-53 1.24094792113156e-53 -2.18894223488395e-53 -1.54073749934825e-54 5.80853377051973e-54 5.15929495228659e-55 -1.05989019689583e-54 -4.29702754729829e-55 1.76877262057495e-55 1.39436755282128e-55 -1.95461499984e-55 2.11364868969961e-56 2.08551453920238e-56 1.15093193314368e-56 1.14112024574726e-56 -6.13116763857143e-57 5.07766804631319e-57 -1.65078375033736e-57 -1.17713021433923e-58 -2.14559045709603e-58 -7.92933881062448e-58 2.00504759011386e-58 -8.90255851184621e-59 6.9768739003264e-59 -1.36655272148041e-59 6.31373943452325e-61 3.22917716805786e-59 -5.04314026697958e-60 -2.72151144611541e-62 -2.21934146801556e-60 8.59711679830491e-61 1.72103113031733e-61 -9.99268849708993e-61 8.22538617388689e-62 8.7133175675906e-62 5.39833048814007e-62 -3.37844547110433e-62 -1.00024974713823e-62 2.34625421327307e-62 3.66018839985877e-64 -4.72843255185796e-63 -8.1036291359311e-64 1.01679524200528e-63 3.80326753116176e-64 -3.19011653614259e-64 -9.92073117798725e-65 1.741939831765e-64 -7.72783246012045e-66 -2.29839653593091e-65 -1.11321020998733e-65 -5.16158874350629e-66 5.06447269073878e-66 -4.9566205986868e-66 1.20173737456745e-66 2.75806378794942e-67 2.41571493883074e-67 5.88465609845227e-67 -1.80990398511299e-67 1.02905574620444e-67 -5.81539853302049e-68 7.07198153201833e-69 -2.47196213408969e-69 -2.71433880366973e-68 5.00539136056054e-69 -8.47640131520867e-70 2.01751771623258e-69 -6.51642124877567e-70 -9.75417235195313e-71 9.15016297339114e-70 -9.90238977154066e-71 -5.2716029216333e-71 -5.4151944267298e-71 2.87674381251496e-71 7.70188833447829e-72 -2.38197116643782e-71 5.87587807068332e-73 3.69121844563031e-72 1.014172326113e-72 -9.43185160362785e-73 -3.26474700373831e-73 4.19666007889208e-73 6.32383845646273e-74 -1.50691290971589e-73 -3.24800917136631e-75 2.37987053581248e-74 1.04068129735191e-74 8.33399101610152e-78 -4.01756032938939e-75 4.67186863703741e-75 -7.98390597101631e-76 -3.91353405400786e-76 -2.53841446186713e-76 -4.03959836785158e-76 1.58441214080821e-76 -1.09985252563718e-76 4.66919602166305e-77 -1.54053068859947e-78 3.84133867742183e-78 2.2029430135363e-77 -4.78216877790931e-78 1.50839177847793e-78 -1.77991901073709e-78 4.60668722335814e-79 3.45469182947231e-80 -8.13392693777576e-79 1.08561898901405e-79 2.34517347382597e-80 5.22143042074285e-80 -2.3661231886187e-80 -5.57964371812081e-81 2.31935999494189e-80 -1.32409591321631e-81 -2.72938673948943e-81 -1.13720806844975e-81 8.4818222688236e-82 2.71224339354802e-82 -4.83295242940748e-82 -3.21793091583694e-83 1.26344043689894e-82 1.18351591282133e-83 -2.35279846261869e-83 -9.4329806573095e-84 4.06811189014491e-84 3.03005021186248e-84 -4.26831775928393e-84 4.47858945655485e-85 4.68109266969918e-85 2.53862844329434e-85 2.42652710598315e-85 -1.34410990878447e-85 1.11385119404407e-85 -3.58173837620607e-86 -2.91408633140191e-87 -4.78027426767117e-87 -1.71466845985812e-86 4.42076763633176e-87 -1.97312158966158e-87 1.52361479772416e-87 -2.91264055039161e-88 1.67020867847848e-89 7.02089157881937e-88 -1.11971827548105e-88 5.66510926683222e-91 -4.8690726683817e-89 1.86999432439777e-89 3.68576847775793e-90 -2.18169917950519e-89 1.85851168456575e-90 1.865770188061e-90 1.19162931418771e-90 -7.40468888865253e-91 -2.1719695137491e-91 5.1526483736257e-91 6.28571628538805e-93 -1.02330904078359e-91 -1.8197406233393e-92 2.24283884746631e-92 8.30858588873523e-93 -7.13678641752545e-93 -2.1318087679423e-93 3.78935537993488e-93 -1.53208217337387e-94 -5.11926757847874e-94 -2.4456790122707e-94 -1.06047061895815e-94 1.10375994942722e-94 -1.08374730981071e-94 2.58816160121858e-95 6.36369453121821e-96 5.35661920257505e-96 1.2652690713245e-95 -3.97733297773301e-96 2.27004145659481e-96 -1.26632785072715e-96 1.45653536488925e-97 -5.70205970279383e-98 -5.88764002779393e-97 1.11047535009257e-97 -1.96328156165632e-98 4.42749341592901e-98 -1.41153897988234e-98 -2.05133641687839e-99 1.99777472498334e-98 -2.23741421425945e-99 -1.11494938454686e-99 -1.20022261936007e-99 6.32834512682376e-100 1.67579646106765e-100 -5.24558113708132e-100 1.51409706643309e-101 7.9964660488072e-101 2.29292541755587e-101 -2.10714292207999e-101 -7.21321225785013e-102 9.41611096154872e-102 1.34551092213966e-102 -3.30410442798903e-102 -9.3159979559756e-104 5.44586181427444e-103 2.3405270206454e-103 -8.14938434254389e-105 -8.93130712318723e-104 1.03890898718565e-103 -1.7323693514473e-104 -9.47112716213896e-105 -5.87308450371235e-105 -8.72272217672787e-105 3.64542214840339e-105 -2.50288925827996e-105 1.05598095424065e-105 -1.30413835287603e-107 9.49410433828493e-107 4.90279869107423e-106 -1.15509282306715e-106 3.64991701540643e-107 -4.19045998152977e-107 1.03725288842032e-107 5.88370182109283e-109 -1.8640464154949e-107 2.85640913985133e-108 4.51561165488376e-109 1.30193081504725e-108 -5.8558399835045e-109 -1.32145632456234e-109 5.53863039577027e-109 -4.4232988869469e-110 -6.20982354362567e-110 -3.12259684381093e-110 2.34111578611502e-110 7.078751627118e-111 -1.23859308949596e-110 -5.03360381848786e-112 3.05144278495051e-111 4.28128721314471e-112 -7.61851169107492e-112 -2.7450160431556e-112 1.36507172901571e-112 8.22018191758941e-113 -1.08821856827433e-112 9.15573908967525e-114 1.98568447210659e-113 8.43487918073773e-114 4.81449498027486e-114 -4.56317372338264e-114 2.95127894344762e-114 -1.01219630553361e-114 -3.21932254219103e-115 -1.87184347076068e-115 -3.78745201278596e-115 1.82710919608735e-115 -5.16108339384884e-116 4.53573775336747e-116 -3.77668156896878e-117 1.62744859079114e-117 1.28180383001451e-116 -5.05890270987936e-117 1.80869277007849e-118 -1.09289183854377e-117 4.24066983629846e-118 3.48483585922347e-119 -1.73109027459074e-118 5.8316274781678e-119 4.07776193839545e-120 5.76387539629341e-120 -4.75316051197796e-120 0.322346349444888 0.322346349444888 0.583539790200189 0.593025676554104 0.423740591417908 0.310631921163669 0.274342565769513 0.323347612075986 -0.0874205067310999 0.183125698173164 -0.0344774268173655 0.0166691740738071 0.00527674836193849 -0.0272735791632602 -0.00513926385202675 0.0024949201349756 -0.0016055200677108 0.000510359595443006 4.27065713874266e-05 -0.000579216249857047 0.000158565369975204 1.42830783207134e-05 7.55704805918698e-05 -4.21671600895316e-05 -1.11534132671687e-05 3.18795132086103e-05 -1.25815272126778e-06 -4.98307606317366e-06 -1.7294758423411e-06 1.6847322103297e-06 5.94965206207166e-07 -7.31717260546387e-07 -1.30982166731281e-07 2.70235966664405e-07 3.45887102457618e-10 -4.4247068918328e-08 -2.03430662255722e-08 -1.92577195861415e-09 8.66204365455281e-09 -9.16107969432739e-09 1.94394037485944e-09 6.29886870004755e-10 4.86043728381206e-10 9.58451143855242e-10 -3.39987003028287e-10 2.12291701635465e-10 -1.08335877887041e-10 1.10208284363241e-11 -5.74152076534259e-12 -5.12325682650321e-11 9.86062232989381e-12 -2.14698110740001e-12 3.98437730191329e-12 -1.23771073944259e-12 -1.74586950584229e-13 1.83908367128739e-12 -2.01347745496147e-13 -9.69657461429345e-14 -1.10471998058554e-13 5.68706572706952e-14 1.52687699904918e-14 -4.95987481517023e-14 1.30259254277319e-15 7.44683757842788e-15 2.12211830752452e-15 -1.89775759218266e-15 -6.64695886455973e-16 9.00308876622626e-16 1.25957674720194e-16 -3.12249889440691e-16 -7.98700125257265e-18 4.83082474422265e-17 2.14689164775857e-17 -6.98182750566076e-19 -8.17018638023572e-18 9.80832927203269e-18 -1.63298480681773e-18 -7.95182934542781e-19 -5.27755809952456e-19 -8.39060224654627e-19 3.24861541781558e-19 -2.3265860379594e-19 9.71856448646798e-20 -3.48028592685496e-21 8.01505463157494e-21 4.65758499587853e-20 -9.84965850120505e-21 3.20193038499126e-21 -3.73469676703204e-21 9.64728909580861e-22 7.3946164038727e-23 -1.73392201918623e-21 2.23855520956379e-22 5.05418495407194e-23 1.10147201307812e-22 -4.95070861603695e-23 -1.18372066520856e-23 4.9716385861546e-23 -2.69350217089087e-24 -5.87200114934067e-24 -2.40727240292561e-24 1.77644015113413e-24 5.76746702230705e-25 -1.04022040419406e-24 -6.99721170436547e-26 2.72469272138806e-25 2.49527977713577e-26 -4.9281356065767e-26 -2.01096324285564e-26 8.75615699556588e-27 6.45528716370744e-27 -9.2263367198357e-27 9.69354805031368e-28 9.7576428139205e-28 5.4208791155389e-28 5.28708267200842e-28 -2.85969152666748e-28 2.41121510455628e-28 -7.73239143272472e-29 -5.61796729533399e-30 -1.01883517853411e-29 -3.743130301511e-29 9.40821440949458e-30 -4.26250386595299e-30 3.29593602615065e-30 -6.39866618537437e-31 3.23087629465135e-32 1.53716071324212e-30 -2.38057362332938e-31 -2.11597947350169e-34 -1.05565331780093e-31 4.0536936546974e-32 8.11186145086054e-33 -4.79002833207104e-32 3.91491504810391e-33 4.14036932587928e-33 2.58675379628508e-33 -1.60097712778575e-33 -4.7570993637703e-34 1.13367079134222e-33 1.65001159619645e-35 -2.26472629631276e-34 -3.93458649887252e-35 4.84092179354893e-35 1.81936643041788e-35 -1.56791272303819e-35 -4.703831442541e-36 8.38913548359435e-36 -3.52280933386063e-37 -1.0996656243346e-36 -5.35420937612915e-37 -2.3925661990309e-37 2.41779967853824e-37 -2.39980170151721e-37 5.74222803669363e-38 1.33014242387181e-38 1.16931738168736e-38 2.82722229843791e-38 -8.68640878668674e-39 5.01572923073818e-39 -2.80324256514766e-39 3.37651813509978e-40 -1.21617157175305e-40 -1.31583772345013e-39 2.41483488992453e-40 -4.22849744195931e-41 9.78752496098696e-41 -3.13968430281535e-41 -4.66669811620625e-42 4.46565796438906e-41 -4.80856768157826e-42 -2.53887869958562e-42 -2.644104964949e-42 1.39272627545155e-42 3.73287134002924e-43 -1.17079417459665e-42 2.93573573025967e-44 1.79845543258788e-43 4.99909453953513e-44 -4.58630899315884e-44 -1.59182298395917e-44 2.08709018314499e-44 3.05152267030832e-45 -7.3855431216431e-45 -1.7701949423399e-46 1.16261541406814e-45 5.10062868144603e-46 -9.69178606867018e-48 -1.95568850716042e-46 2.30187126513781e-46 -3.86945558830361e-47 -1.92462172650766e-47 -1.25139072397375e-47 -1.96507658075286e-47 7.75437694182639e-48 -5.45292304656356e-48 2.28919602957276e-48 -7.19954827752005e-50 1.91375196191872e-49 1.08442935185985e-48 -2.35233180390215e-49 7.5785574772342e-50 -8.78492587211799e-50 2.25771951701363e-50 1.63291696416518e-51 -4.03279368932448e-50 5.37224442207332e-51 1.12505491874569e-51 2.59315445949228e-51 -1.16641864808308e-51 -2.74477238870084e-52 1.15787441124496e-51 -6.64230466790535e-53 -1.34787678349684e-52 -5.69353379090159e-53 4.2004886358484e-53 1.34403894956395e-53 -2.43613369674818e-53 -1.56287251753151e-54 6.28544318233213e-54 6.07739773103348e-55 -1.17067713043914e-54 -4.70004445207577e-55 2.13646493275742e-55 1.49817651366705e-55 -2.13547185951026e-55 2.17964654393819e-56 2.34392347460462e-56 1.27209407512258e-56 1.18510733127467e-56 -6.68808214227447e-57 5.60693942822251e-57 -1.77996336888302e-57 -1.50460546859541e-58 -2.41614196216345e-58 -8.54485480259932e-58 2.2112257425277e-58 -1.00355814590004e-58 7.63061208820206e-59 -1.4434593670803e-59 9.22561780773613e-61 3.52806832265654e-59 -5.63301173349929e-60 7.25793850302705e-62 -2.45390219772265e-60 9.35384653822945e-61 1.83024122427396e-61 -1.10398876093445e-60 9.44358543570027e-62 9.29463471612415e-62 6.04914559258639e-62 -3.72269634002384e-62 -1.09024437312057e-62 2.62964942956857e-62 2.78515640689163e-64 -5.15227231620334e-63 -9.37751072743147e-64 1.13264034641008e-63 4.19481908804085e-64 -3.71858225855977e-64 -1.06518356377502e-64 1.91965782698484e-64 -7.1484813851027e-66 -2.59866060536926e-65 -1.24103677556339e-65 -5.05631980490177e-66 5.5582014189203e-66 -5.52141252455384e-66 1.29669287440971e-66 3.27084113123149e-67 2.73536231310211e-67 6.35384034959252e-67 -2.01126352418013e-67 1.16555651306316e-67 -6.40054640215236e-68 7.21657076408114e-69 -2.97307652878615e-69 -2.98542871731009e-68 5.63150899725824e-69 -1.04264245727104e-69 2.2477702154025e-69 -7.10725185946922e-70 -1.01559362186017e-70 1.01875940379835e-69 -1.13729711363795e-70 -5.54899109858736e-71 -6.11052745808694e-71 3.19020499235291e-71 8.42359949500546e-72 -2.68777360349655e-71 7.80734355911025e-73 4.03933241718297e-72 1.17091226936366e-72 -1.0583240642907e-72 -3.62517367992917e-73 4.86103913070288e-73 6.71393178689305e-74 -1.67246323097796e-73 -5.0308730236323e-75 2.70694359544729e-74 1.16884602159384e-74 -6.3658129482582e-76 -4.42550006280996e-75 5.24403001069363e-75 -8.55144288626981e-76 -4.58373740265753e-76 -2.89105299108974e-76 -4.3417330345938e-76 1.77172971608777e-76 -1.25265062800174e-76 5.16035976182146e-77 -1.07037617813191e-78 4.52405082350326e-78 2.43426895411235e-77 -5.41525518251858e-78 1.78744525868095e-78 -1.99565024805227e-78 5.01024771796734e-79 3.1681953516878e-80 -9.11536923673223e-79 1.2505919261237e-79 2.31414715688279e-80 5.92922701099563e-80 -2.63605101214475e-80 -6.09709100450714e-81 2.63350843494766e-80 -1.61054783512287e-81 -2.98860801984282e-81 -1.31539919845474e-81 9.57626811691927e-82 3.0269683213529e-82 -5.59992648608362e-82 -3.26475427608422e-83 1.40998295998756e-82 1.46931877153409e-83 -2.69137402535443e-83 -1.06624983495284e-83 5.20370057134416e-84 3.33906850947808e-84 -4.82271567589071e-84 4.65898554573868e-85 5.47215763745883e-85 2.9076118067748e-85 2.55661591837137e-85 -1.51034253988677e-85 1.2756390515678e-85 -3.96371927770102e-86 -3.9443867732017e-87 -5.60605293187198e-87 -1.89874919554543e-86 5.03455646341796e-87 -2.32003744006937e-87 1.71691969815938e-87 -3.12387147448354e-88 2.59239181013641e-89 7.90980051079467e-88 -1.29488613350419e-88 3.77002709014545e-90 -5.5603231393976e-89 2.08834908850827e-89 3.99092301010673e-90 -2.49121106777286e-89 2.22096364285957e-90 2.03106670774391e-90 1.38287830082258e-90 -8.40281216707873e-91 -2.43153973904977e-91 5.98574631784027e-91 3.53319745063537e-93 -1.14623988454834e-91 -2.19469709575928e-92 2.57900387687528e-92 9.44181124485974e-93 -8.68684105323855e-93 -2.33704559457312e-93 4.30550866963598e-93 -1.34600004915492e-94 -5.99264656131991e-94 -2.81587229050438e-94 -1.02548357074361e-94 1.24428257054435e-94 -1.24769716382074e-94 2.85492493043877e-95 7.87586680672397e-96 6.28488035056271e-96 1.39868286661317e-95 -4.55156187892306e-96 2.66699606079122e-96 -1.43206943154201e-96 1.48196407082444e-97 -7.18165961900393e-98 -6.65898102783675e-97 1.28936006696719e-97 -2.54034800485415e-98 5.08062084422501e-98 -1.57490773018808e-98 -2.14943946046804e-99 2.29243245258294e-98 -2.66030956242434e-99 -1.187507926812e-99 -1.39793418859211e-99 7.20841467125237e-100 1.8765325370229e-100 -6.11369583672138e-100 2.08759912047314e-101 8.96785275796523e-101 2.74217853332869e-101 -2.4338197510296e-101 -8.23029763784427e-102 1.13098858443106e-101 1.44708802649358e-102 -3.77056294519933e-102 -1.46339886615264e-103 6.38917550717442e-103 2.7068905952162e-103 -2.71835394153328e-104 -1.00728810325263e-103 1.20153216251632e-103 -1.88474840933862e-104 -1.14754990874353e-104 -6.90226891561372e-105 -9.54657543104105e-105 4.18505011667935e-105 -2.94378761921917e-105 1.19515189576975e-105 4.3191506600124e-108 1.1576941345361e-106 5.5525271400284e-106 -1.34474960027195e-106 4.48521892110716e-107 -4.82271268996136e-107 1.14532594062443e-107 4.63285518013128e-109 -2.14541749860719e-107 3.38512588015935e-108 4.27637568598803e-109 1.51936497405837e-108 -6.66862908299863e-109 -1.4685059219528e-109 6.46599880563042e-109 -5.48954493737491e-110 -6.92756253100791e-110 -3.7138327930522e-110 2.70608263083336e-110 8.07594500188915e-111 -1.47640252144368e-110 -4.51373647549858e-112 3.48393258573956e-111