<?xml version="1.0"?>
<VTKFile type="UnstructuredGrid" version="0.1" byte_order="LittleEndian">
<UnstructuredGrid>
<Piece NumberOfPoints="486" NumberOfCells="800">
<Points>
<DataArray type="Float64" NumberOfComponents="3" format="ascii">
0.000000000000000e+00 0.000000000000000e+00 0.000000000000000e+00 0.000000000000000e+00 1.000000000000000e+00 0.000000000000000e+00 1.600000000000000e+01 0.000000000000000e+00 0.000000000000000e+00 1.600000000000000e+01 1.000000000000000e+00 0.000000000000000e+00 0.000000000000000e+00 1.999999999995579e-01 0.000000000000000e+00 0.000000000000000e+00 3.999999999989749e-01 0.000000000000000e+00 0.000000000000000e+00 5.999999999989468e-01 0.000000000000000e+00 0.000000000000000e+00 7.999999999994734e-01 0.000000000000000e+00 1.600000000000000e+01 1.999999999995579e-01 0.000000000000000e+00 1.600000000000000e+01 3.999999999989749e-01 0.000000000000000e+00 1.600000000000000e+01 5.999999999989468e-01 0.000000000000000e+00 1.600000000000000e+01 7.999999999994734e-01 0.000000000000000e+00 2.000000000000000e-01 0.000000000000000e+00 0.000000000000000e+00 4.000000000000000e-01 0.000000000000000e+00 0.000000000000000e+00 6.000000000000000e-01 0.000000000000000e+00 0.000000000000000e+00 8.000000000000000e-01 0.000000000000000e+00 0.000000000000000e+00 1.000000000000000e+00 0.000000000000000e+00 0.000000000000000e+00 1.200000000000000e+00 0.000000000000000e+00 0.000000000000000e+00 1.400000000000000e+00 0.000000000000000e+00 0.000000000000000e+00 1.600000000000000e+00 0.000000000000000e+00 0.000000000000000e+00 1.800000000000000e+00 0.000000000000000e+00 0.000000000000000e+00 2.000000000000000e+00 0.000000000000000e+00 0.000000000000000e+00 2.200000000000000e+00 0.000000000000000e+00 0.000000000000000e+00 2.400000000000000e+00 0.000000000000000e+00 0.000000000000000e+00 2.600000000000000e+00 0.000000000000000e+00 0.000000000000000e+00 2.800000000000000e+00 0.000000000000000e+00 0.000000000000000e+00 3.000000000000000e+00 0.000000000000000e+00 0.000000000000000e+00 3.200000000000000e+00 0.000000000000000e+00 0.000000000000000e+00 3.400000000000000e+00 0.000000000000000e+00 0.000000000000000e+00 3.600000000000000e+00 0.000000000000000e+00 0.000000000000000e+00 3.800000000000000e+00 0.000000000000000e+00 0.000000000000000e+00 4.000000000000000e+00 0.000000000000000e+00 0.000000000000000e+00 4.200000000000000e+00 0.000000000000000e+00 0.000000000000000e+00 4.400000000000000e+00 0.000000000000000e+00 0.000000000000000e+00 4.600000000000000e+00 0.000000000000000e+00 0.000000000000000e+00 4.800000000000000e+00 0.000000000000000e+00 0.000000000000000e+00 5.000000000000000e+00 0.000000000000000e+00 0.000000000000000e+00 5.200000000000000e+00 0.000000000000000e+00 0.000000000000000e+00 5.400000000000000e+00 0.000000000000000e+00 0.000000000000000e+00 5.600000000000000e+00 0.000000000000000e+00 0.000000000000000e+00 5.800000000000000e+00 0.000000000000000e+00 0.000000000000000e+00 6.000000000000000e+00 0.000000000000000e+00 0.000000000000000e+00 6.200000000000000e+00 0.000000000000000e+00 0.000000000000000e+00 6.400000000000000e+00 0.000000000000000e+00 0.000000000000000e+00 6.600000000000000e+00 0.000000000000000e+00 0.000000000000000e+00 6.800000000000000e+00 0.000000000000000e+00 0.000000000000000e+00 7.000000000000000e+00 0.000000000000000e+00 0.000000000000000e+00 7.200000000000000e+00 0.000000000000000e+00 0.000000000000000e+00 7.400000000000000e+00 0.000000000000000e+00 0.000000000000000e+00 7.600000000000000e+00 0.000000000000000e+00 0.000000000000000e+00 7.800000000000000e+00 0.000000000000000e+00 0.000000000000000e+00 8.000000000000000e+00 0.000000000000000e+00 0.000000000000000e+00 8.199999999999999e+00 0.000000000000000e+00 0.000000000000000e+00 8.400000000000000e+00 0.000000000000000e+00 0.000000000000000e+00 8.600000000000000e+00 0.000000000000000e+00 0.000000000000000e+00 8.800000000000001e+00 0.000000000000000e+00 0.000000000000000e+00 9.000000000000000e+00 0.000000000000000e+00 0.000000000000000e+00 9.199999999999999e+00 0.000000000000000e+00 0.000000000000000e+00 9.400000000000000e+00 0.000000000000000e+00 0.000000000000000e+00 9.600000000000000e+00 0.000000000000000e+00 0.000000000000000e+00 9.800000000000001e+00 0.000000000000000e+00 0.000000000000000e+00 1.000000000000000e+01 0.000000000000000e+00 0.000000000000000e+00 1.020000000000000e+01 0.000000000000000e+00 0.000000000000000e+00 1.040000000000000e+01 0.000000000000000e+00 0.000000000000000e+00 1.060000000000000e+01 0.000000000000000e+00 0.000000000000000e+00 1.080000000000000e+01 0.000000000000000e+00 0.000000000000000e+00 1.100000000000000e+01 0.000000000000000e+00 0.000000000000000e+00 1.120000000000000e+01 0.000000000000000e+00 0.000000000000000e+00 1.140000000000000e+01 0.000000000000000e+00 0.000000000000000e+00 1.160000000000000e+01 0.000000000000000e+00 0.000000000000000e+00 1.180000000000000e+01 0.000000000000000e+00 0.000000000000000e+00 1.200000000000000e+01 0.000000000000000e+00 0.000000000000000e+00 1.220000000000000e+01 0.000000000000000e+00 0.000000000000000e+00 1.240000000000000e+01 0.000000000000000e+00 0.000000000000000e+00 1.260000000000000e+01 0.000000000000000e+00 0.000000000000000e+00 1.280000000000000e+01 0.000000000000000e+00 0.000000000000000e+00 1.300000000000000e+01 0.000000000000000e+00 0.000000000000000e+00 1.320000000000000e+01 0.000000000000000e+00 0.000000000000000e+00 1.340000000000000e+01 0.000000000000000e+00 0.000000000000000e+00 1.360000000000000e+01 0.000000000000000e+00 0.000000000000000e+00 1.380000000000000e+01 0.000000000000000e+00 0.000000000000000e+00 1.400000000000000e+01 0.000000000000000e+00 0.000000000000000e+00 1.420000000000000e+01 0.000000000000000e+00 0.000000000000000e+00 1.440000000000000e+01 0.000000000000000e+00 0.000000000000000e+00 1.460000000000000e+01 0.000000000000000e+00 0.000000000000000e+00 1.480000000000000e+01 0.000000000000000e+00 0.000000000000000e+00 1.500000000000000e+01 0.000000000000000e+00 0.000000000000000e+00 1.520000000000000e+01 0.000000000000000e+00 0.000000000000000e+00 1.540000000000000e+01 0.000000000000000e+00 0.000000000000000e+00 1.560000000000000e+01 0.000000000000000e+00 0.000000000000000e+00 1.580000000000000e+01 0.000000000000000e+00 0.000000000000000e+00 2.000000000000000e-01 1.000000000000000e+00 0.000000000000000e+00 4.000000000000000e-01 1.000000000000000e+00 0.000000000000000e+00 6.000000000000000e-01 1.000000000000000e+00 0.000000000000000e+00 8.000000000000000e-01 1.000000000000000e+00 0.000000000000000e+00 1.000000000000000e+00 1.000000000000000e+00 0.000000000000000e+00 1.200000000000000e+00 1.000000000000000e+00 0.000000000000000e+00 1.400000000000000e+00 1.000000000000000e+00 0.000000000000000e+00 1.600000000000000e+00 1.000000000000000e+00 0.000000000000000e+00 1.800000000000000e+00 1.000000000000000e+00 0.000000000000000e+00 2.000000000000000e+00 1.000000000000000e+00 0.000000000000000e+00 2.200000000000000e+00 1.000000000000000e+00 0.000000000000000e+00 2.400000000000000e+00 1.000000000000000e+00 0.000000000000000e+00 2.600000000000000e+00 1.000000000000000e+00 0.000000000000000e+00 2.800000000000000e+00 1.000000000000000e+00 0.000000000000000e+00 3.000000000000000e+00 1.000000000000000e+00 0.000000000000000e+00 3.200000000000000e+00 1.000000000000000e+00 0.000000000000000e+00 3.400000000000000e+00 1.000000000000000e+00 0.000000000000000e+00 3.600000000000000e+00 1.000000000000000e+00 0.000000000000000e+00 3.800000000000000e+00 1.000000000000000e+00 0.000000000000000e+00 4.000000000000000e+00 1.000000000000000e+00 0.000000000000000e+00 4.200000000000000e+00 1.000000000000000e+00 0.000000000000000e+00 4.400000000000000e+00 1.000000000000000e+00 0.000000000000000e+00 4.600000000000000e+00 1.000000000000000e+00 0.000000000000000e+00 4.800000000000000e+00 1.000000000000000e+00 0.000000000000000e+00 5.000000000000000e+00 1.000000000000000e+00 0.000000000000000e+00 5.200000000000000e+00 1.000000000000000e+00 0.000000000000000e+00 5.400000000000000e+00 1.000000000000000e+00 0.000000000000000e+00 5.600000000000000e+00 1.000000000000000e+00 0.000000000000000e+00 5.800000000000000e+00 1.000000000000000e+00 0.000000000000000e+00 6.000000000000000e+00 1.000000000000000e+00 0.000000000000000e+00 6.200000000000000e+00 1.000000000000000e+00 0.000000000000000e+00 6.400000000000000e+00 1.000000000000000e+00 0.000000000000000e+00 6.600000000000000e+00 1.000000000000000e+00 0.000000000000000e+00 6.800000000000000e+00 1.000000000000000e+00 0.000000000000000e+00 7.000000000000000e+00 1.000000000000000e+00 0.000000000000000e+00 7.200000000000000e+00 1.000000000000000e+00 0.000000000000000e+00 7.400000000000000e+00 1.000000000000000e+00 0.000000000000000e+00 7.600000000000000e+00 1.000000000000000e+00 0.000000000000000e+00 7.800000000000000e+00 1.000000000000000e+00 0.000000000000000e+00 8.000000000000000e+00 1.000000000000000e+00 0.000000000000000e+00 8.199999999999999e+00 1.000000000000000e+00 0.000000000000000e+00 8.400000000000000e+00 1.000000000000000e+00 0.000000000000000e+00 8.600000000000000e+00 1.000000000000000e+00 0.000000000000000e+00 8.800000000000001e+00 1.000000000000000e+00 0.000000000000000e+00 9.000000000000000e+00 1.000000000000000e+00 0.000000000000000e+00 9.199999999999999e+00 1.000000000000000e+00 0.000000000000000e+00 9.400000000000000e+00 1.000000000000000e+00 0.000000000000000e+00 9.600000000000000e+00 1.000000000000000e+00 0.000000000000000e+00 9.800000000000001e+00 1.000000000000000e+00 0.000000000000000e+00 1.000000000000000e+01 1.000000000000000e+00 0.000000000000000e+00 1.020000000000000e+01 1.000000000000000e+00 0.000000000000000e+00 1.040000000000000e+01 1.000000000000000e+00 0.000000000000000e+00 1.060000000000000e+01 1.000000000000000e+00 0.000000000000000e+00 1.080000000000000e+01 1.000000000000000e+00 0.000000000000000e+00 1.100000000000000e+01 1.000000000000000e+00 0.000000000000000e+00 1.120000000000000e+01 1.000000000000000e+00 0.000000000000000e+00 1.140000000000000e+01 1.000000000000000e+00 0.00000000000000
[...]
<PointData Scalars="pressure_p1," Vectors="" Tensors="">
<DataArray type="Float64" Name="pressure_p1" format="ascii">
-5.800401853793244e-02 -3.898470121540373e-02 -1.073334342860572e+01 -1.073057658953414e+01 -5.162077634759296e-02 -5.157633794886009e-02 -5.153756434628518e-02 -5.148001365962444e-02 -1.073201627086373e+01 -1.073179580994110e+01 -1.073157595821453e+01 -1.073135581323329e+01 -1.652143493508499e-01 -3.053103712184951e-01 -4.453613905023048e-01 -5.853887516077360e-01 -7.254034606822235e-01 -8.654113618325582e-01 -1.005415595674957e+00 -1.145417856710046e+00 -1.285419059421856e+00 -1.425419696429267e+00 -1.565420032236752e+00 -1.705420208305543e+00 -1.845420299998572e+00 -1.985420347323208e+00 -2.125420371438679e+00 -2.265420383482721e+00 -2.405420389282555e+00 -2.545420391866484e+00 -2.685420392798715e+00 -2.825420392883924e+00 -2.965420392535441e+00 -3.105420391965656e+00 -3.245420391283721e+00 -3.385420390545506e+00 -3.525420389779252e+00 -3.665420388998740e+00 -3.805420388210061e+00 -3.945420387414961e+00 -4.085420386612252e+00 -4.225420385798014e+00 -4.365420384964770e+00 -4.505420384099568e+00 -4.645420383180447e+00 -4.785420382170403e+00 -4.925420381007319e+00 -5.065420379587130e+00 -5.205420377735894e+00 -5.345420375163531e+00 -5.485420371387401e+00 -5.625420365606473e+00 -5.765420356494643e+00 -5.905420341862256e+00 -6.045420318103528e+00 -6.185420279297408e+00 -6.325420215749266e+00 -6.465420111634098e+00 -6.605419941201649e+00 -6.745419662689312e+00 -6.885419208597956e+00 -7.025418470223054e+00 -7.165417273157421e+00 -7.305415338678491e+00 -7.445412223188573e+00 -7.585407223732525e+00 -7.725399231410869e+00 -7.865386505298691e+00 -8.005366325955976e+00 -8.145334467971079e+00 -8.285284402799054e+00 -8.425206103285603e+00 -8.565084265730054e+00 -8.704895689340544e+00 -8.844605451047967e+00 -8.984161380328114e+00 -9.123486169293717e+00 -9.262466245885591e+00 -9.400936295919994e+00 -9.538658055583721e+00 -9.675291736072015e+00 -9.810358231722867e+00 -9.943190171051777e+00 -1.007286999125771e+01 -1.019815366799336e+01 -1.031737963616839e+01 -1.042836388580091e+01 -1.052828421215636e+01 -1.061355899322622e+01 -1.067972831845296e+01 -1.072134726056319e+01 -1.148360303042696e-01 -2.547161956455941e-01 -3.946528200644467e-01 -5.346188840751757e-01 -6.746006413498353e-01 -8.145908354274299e-01 -9.545855749282222e-01 -1.094582761222097e+00 -1.234581261499663e+00 -1.374580465162362e+00 -1.514580043955817e+00 -1.654579821995690e+00 -1.794579705396006e+00 -1.934579644251478e+00 -2.074579612156545e+00 -2.214579595207398e+00 -2.354579586118807e+00 -2.494579581091506e+00 -2.634579578152989e+00 -2.774579576283612e+00 -2.914579574958660e+00 -3.054579573909459e+00 -3.194579572999199e+00 -3.334579572158583e+00 -3.474579571352563e+00 -3.614579570563281e+00 -3.754579569781253e+00 -3.894579569000785e+00 -4.034579568217419e+00 -4.174579567426203e+00 -4.314579566620107e+00 -4.454579565787969e+00 -4.594579564911342e+00 -4.734579563959383e+00 -4.874579562880363e+00 -5.014579561587635e+00 -5.154579559936296e+00 -5.294579557684521e+00 -5.434579554429646e+00 -5.574579549502748e+00 -5.714579541795459e+00 -5.854579529475910e+00 -5.994579509524534e+00 -6.134579476977791e+00 -6.274579423700085e+00 -6.414579336396379e+00 -6.554579193407732e+00 -6.694578959563894e+00 -6.834578577947855e+00 -6.974577956774769e+00 -7.114576948578808e+00 -7.254575317351562e+00 -7.394572686910668e+00 -7.534568460196158e+00 -7.674561693812934e+00 -7.814550904128794e+00 -7.954533769428834e+00 -8.094506675401707e+00 -8.234464026405856e+00 -8.374397209656536e+00 -8.514293050016525e+00 -8.654131524969479e+00 -8.793882417389213e+00 -8.933500462308626e+00 -9.072918387863773e+00 -9.212037056617977e+00 -9.350711682520483e+00 -9.488732839724081e+00 -9.625800713896282e+00 -9.761490813405551e+00 -9.895209216588684e+00 -1.002613546482083e+01 -1.015315152629161e+01 -1.027475597880867e+01 -1.038896380839675e+01 -1.049319403656430e+01 -1.058414967537630e+01 -1.065769698815843e+01 -1.070875324316406e+01 -1.401422101542531e-01 -2.802286362224051e-01 -4.202754518482896e-01 -5.603007739674548e-01 -7.003144414598307e-01 -8.403217988351478e-01 -9.803257468749936e-01 -1.120327857694329e+00 -1.260328981652933e+00 -1.400329577513886e+00 -1.540329891918551e+00 -1.680330056920837e+00 -1.820330142931907e+00 -1.960330187356737e+00 -2.100330209995914e+00 -2.240330221286496e+00 -2.380330226699215e+00 -2.520330229082485e+00 -2.660330229909556e+00 -2.800330229938600e+00 -2.940330229558867e+00 -3.080330228970239e+00 -3.220330228275440e+00 -3.360330227527160e+00 -3.500330226752135e+00 -3.640330225963510e+00 -3.780330225167161e+00 -3.920330224364851e+00 -4.060330223555575e+00 -4.200330222735778e+00 -4.340330221898625e+00 -4.480330221032259e+00 -4.620330220116565e+00 -4.760330219117662e+00 -4.900330217978642e+00 -5.040330216604144e+00 -5.180330214834719e+00 -5.320330212404355e+00 -5.460330208870304e+00 -5.600330203497446e+00 -5.740330195068267e+00 -5.880330181571587e+00 -6.020330159694052e+00 -6.160330123992284e+00 -6.300330065549453e+00 -6.440329969802876e+00 -6.580329813043867e+00 -6.720329556799808e+00 -6.860329138853331e+00 -7.000328458945961e+00 -7.140327356120820e+00 -7.280325572982235e+00 -7.420322699595062e+00 -7.560318085883089e+00 -7.700310705592483e+00 -7.840298946276309e+00 -7.980280287088541e+00 -8.120250807740684e+00 -8.260204445471233e+00 -8.400131879292253e+00 -8.540018868282404e+00 -8.679843798641743e+00 -8.819574097279746e+00 -8.959161042306034e+00 -9.098532338037144e+00 -9.237581621426216e+00 -9.376153830428485e+00 -9.514025103475468e+00 -9.650875616696903e+00 -9.786253543499653e+00 -9.919528203746497e+00 -1.004983054653177e+01 -1.017597949457201e+01 -1.029639349382242e+01 -1.040898796114850e+01 -1.051106122770522e+01 -1.059917391350198e+01 -1.066902913085215e+01 -1.071536301138278e+01 -1.400371893370703e-01 -2.800689043264513e-01 -4.200874115606832e-01 -5.600977252295091e-01 -7.001033618639277e-01 -8.401064126279284e-01 -9.801080537489849e-01 -1.120108932151254e+00 -1.260109400025436e+00 -1.400109647984002e+00 -1.540109778675690e+00 -1.680109847095448e+00 -1.820109882568486e+00 -1.960109900676401e+00 -2.100109909675517e+00 -2.240109913925689e+00 -2.380109915716426e+00 -2.520109916240662e+00 -2.660109916114738e+00 -2.800109915655060e+00 -2.940109915023764e+00 -3.080109914304197e+00 -3.220109913539435e+00 -3.360109912751764e+00 -3.500109911952525e+00 -3.640109911147139e+00 -3.780109910337661e+00 -3.920109909523976e+00 -4.060109908704173e+00 -4.200109907874264e+00 -4.340109907027212e+00 -4.480109906151056e+00 -4.620109905225639e+00 -4.760109904217050e+00 -4.900109903068384e+00 -5.040109901684287e+00 -5.180109899905319e+00 -5.320109897465500e+00 -5.460109893922131e+00 -5.600109888540188e+00 -5.740109880102303e+00 -5.880109866597522e+00 -6.020109844712858e+00 -6.160109809005501e+00 -6.300109750559483e+00 -6.440109654813369e+00 -6.580109498060181e+00 -6.720109241829520e+00 -6.860108823906702e+00 -7.000108144036070e+00 -7.140107041263145e+00 -7.280105258193234e+00 -7.420102384889561e+00 -7.560097771270596e+00 -7.700090391073235e+00 -7.840078631839076e+00 -7.980059972712844e+00 -8.120030493405643e+00 -8.259984131170000e+00 -8.399911565044194e+00 -8.539798554127572e+00 -8.679623484601095e+00 -8.819353783283127e+00 -8.958940728134102e+00 -9.098312023374843e+00 -9.237361306118807e+00 -9.375933514880664e+00 -9.513804788843041e+00 -9.650655304337043e+00 -9.786033233535973e+00 -9.919307893725145e+00 -1.004961023205334e+01 -1.017575917272522e+01 -1.029617316706038e+01 -1.040876763729672e+01 -1.051084091434432e+01 -1.059895361168006e+01 -1.066880883325514e+01 -1.071514270943400e+01 -1.399482968132778e-01 -2.799225357109132e-01 -4.199077946783967e-01 -5.598996451936404e-01 -6.998952081861645e-01 -8.398928119710561e-01 -9.798915247860976e-01 -1.119890836248987e+00 -1.259890469298732e+00 -1.399890274401321e+00 -1.539890171190209e+00 -1.679890116621650e+00 -1.819890087727541e+00 -1.959890072311962e+00 -2.099890063937902e+00 -2.239890059228464e+00 -2.379890056420375e+00 -2.519890054595362e+00 -2.659890053275928e+00 -2.799890052214419e+00 -2.939890051283164e+00 -3.079890050417033e+00 -3.219890049583249e+00 -3.359890048765487e+00 -3.499890047955536e+00 -3.639890047148999e+00 -3.779890046343040e+00 -3.919890045535146e+00 -4.059890044722239e+00 -4.199890043899765e+00 -4.339890043060415e+00 -4.479890042192102e+00 -4.619890041274605e+00 -4.759890040273988e+00 -4.899890039133326e+00 -5.039890037757263e+00 -5.179890035986367e+00 -5.319890033554677e+00 -5.459890030019529e+00 -5.599890024645940e+00 -5.739890016216641e+00 -5.879890002720818e+00 -6.019889980845702e+00 -6.159889945148813e+00 -6.299889886714674e+00 -6.439889790982535e+00 -6.579889634246300e+00 -6.719889378036641e+00 -6.859888960139963e+00 -6.999888280301398e+00 -7.139887177566372e+00 -7.279885394538346e+00 -7.419882521275902e+00 -7.559877907689214e+00 -7.699870527503273e+00 -7.839858768246145e+00 -7.979840109052163e+00 -8.119810629632839e+00 -8.259764267259577e+00 -8.399691701009322e+00 -8.539578690025804e+00 -8.679403620504742e+00 -8.819133919203288e+00 -8.958720863925734e+00 -9.098092158709830e+00 -9.237141440645258e+00 -9.375713648598742e+00 -9.513584922475772e+00 -9.650435439217590e+00 -9.785813370673601e+00 -9.919088032497358e+00 -1.004939036980043e+01 -1.017553930615101e+01 -1.029595329465361e+01 -1.040854776094198e+01 -1.051062103879082e+01 -1.059873374219119e+01 -1.066858897334680e+01 -1.071492285604874e+01 -1.398439391858942e-01 -2.797649607360573e-01 -4.197213305102416e-01 -5.596975408122510e-01 -6.996846586935388e-01 -8.396777154998364e-01 -9.796739880025892e-01 -1.119671994457226e+00 -1.259670932344237e+00 -1.399670368670223e+00 -1.539670070666171e+00 -1.679669913663058e+00 -1.819669831153428e+00 -1.959669787812635e+00 -2.099669764968546e+00 -2.239669752800815e+00 -2.379669746169764e+00 -2.519669742397489e+00 -2.659669740094458e+00 -2.799669738542640e+00 -2.939669737372717e+00 -3.079669736395809e+00 -3.219669735515930e+00 -3.359669734684570e+00 -3.499669733877213e+00 -3.639669733081254e+00 -3.779669732289785e+00 -3.919669731498274e+00 -4.059669730702670e+00 -4.199669729897946e+00 -4.339669729076569e+00 -4.479669728226342e+00 -4.619669727326993e+00 -4.759669726344566e+00 -4.899669725222119e+00 -5.039669723864285e+00 -5.179669722111641e+00 -5.319669719698237e+00 -5.459669716181422e+00 -5.599669710826231e+00 -5.739669702415447e+00 -5.879669688938329e+00 -6.019669667082218e+00 -6.159669631404796e+00 -6.299669572990807e+00 -6.439669477279796e+00 -6.579669320566015e+00 -6.719669064380473e+00 -6.859668646509744e+00 -6.999667966698666e+00 -7.139666863991436e+00 -7.279665080988686e+00 -7.419662207743770e+00 -7.559657594158586e+00 -7.699650213946936e+00 -7.839638454624432e+00 -7.979619795315938e+00 -8.119590315733339e+00 -8.259543953166286e+00 -8.399471386731820e+00 -8.539358375626984e+00 -8.679183306084754e+00 -8.818913604835608e+00 -8.958500549552921e+00 -9.097871844060800e+00 -9.236921125287891e+00 -9.375493332216216e+00 -9.513364605281184e+00 -9.650215122166145e+00 -9.785593055081391e+00 -9.918867719080794e+00 -1.004917005774376e+01 -1.017531899297677e+01 -1.029573297730954e+01 -1.040832743799104e+01 -1.051040071266648e+01 -1.059851341903414e+01 -1.066836865944947e+01 -1.071470255104518e+01 
</DataArray>
</PointData>
<CellData Scalars="pressure_p0," Vectors="velocity_p0," Tensors="">
<DataArray type="Float64" Name="pressure_p0" format="ascii">