<?xml version="1.0"?>
<VTKFile type="UnstructuredGrid" version="0.1" byte_order="LittleEndian">
<UnstructuredGrid>
<Piece NumberOfPoints="2400" NumberOfCells="800">
<Points>
<DataArray type="Float64" NumberOfComponents="3" format="ascii">
0 0 0 0 0.199999999999558 0 0.2 0.199999999999558 0 0 0 0 0.2 0.199999999999558 0 0.2 0 0 0.2 0 0 0.4 0.199999999999558 0 0.4 0 0 0.4 0 0 0.4 0.199999999999558 0 0.6 0.199999999999558 0 0.2 0 0 0.2 0.199999999999558 0 0.4 0.199999999999558 0 0.2 0.199999999999558 0 0.4 0.399999999998975 0 0.4 0.199999999999558 0 0.2 0.199999999999558 0 0.2 0.399999999998975 0 0.4 0.399999999998975 0 0.4 0.199999999999558 0 0.4 0.399999999998975 0 0.6 0.399999999998975 0 0.2 0.399999999998975 0 0.4 0.599999999998947 0 0.4 0.399999999998975 0 0 0.399999999998975 0 0.2 0.599999999998947 0 0.2 0.399999999998975 0 0 0.199999999999558 0 0.2 0.399999999998975 0 0.2 0.199999999999558 0 0 0.199999999999558 0 0 0.399999999998975 0 0.2 0.399999999998975 0 0 0.399999999998975 0 0 0.599999999998947 0 0.2 0.599999999998947 0 0 0.599999999998947 0 0.2 0.799999999999473 0 0.2 0.599999999998947 0 0 0.599999999998947 0 0 0.799999999999473 0 0.2 0.799999999999473 0 0 0.799999999999473 0 0 1 0 0.2 1 0 0 0.799999999999473 0 0.2 1 0 0.2 0.799999999999473 0 0.2 0.799999999999473 0 0.4 1 0 0.4 0.799999999999473 0 0.2 0.799999999999473 0 0.2 1 0 0.4 1 0 0.4 0.799999999999473 0 0.4 1 0 0.6 1 0 0.4 0.599999999998947 0 0.4 0.799999999999473 0 0.6 0.799999999999473 0 0.2 0.599999999998947 0 0.2 0.799999999999473 0 0.4 0.799999999999473 0 0.2 0.599999999998947 0 0.4 0.799999999999473 0 0.4 0.599999999998947 0 0.2 0.399999999998975 0 0.2 0.599999999998947 0 0.4 0.599999999998947 0 0.4 0.399999999998975 0 0.4 0.599999999998947 0 0.6 0.599999999998947 0 0.6 0.399999999998975 0 0.6 0.599999999998947 0 0.8 0.599999999998947 0 0.6 0.599999999998947 0 0.6 0.799999999999473 0 0.8 0.799999999999473 0 0.6 0.599999999998947 0 0.8 0.799999999999473 0 0.8 0.599999999998947 0 0.4 0.599999999998947 0 0.6 0.799999999999473 0 0.6 0.599999999998947 0 0.4 0.799999999999473 0 0.6 1 0 0.6 0.799999999999473 0 0.6 0.799999999999473 0 0.6 1 0 0.8 1 0 0.6 0.799999999999473 0 0.8 1 0 0.8 0.799999999999473 0 0.8 0.799999999999473 0 0.8 1 0 1 1 0 0.8 0.799999999999473 0 1 1 0 1 0.799999999999473 0 0.8 0.599999999998947 0 1 0.799999999999473 0 1 0.599999999998947 0 0.8 0.599999999998947 0 0.8 0.799999999999473 0 1 0.799999999999473 0 0.8 0.399999999998975 0 0.8 0.599999999998947 0 1 0.599999999998947 0 0.8 0.399999999998975 0 1 0.599999999998947 0 1 0.399999999998975 0 0.8 0.199999999999558 0 1 0.399999999998975 0 1 0.199999999999558 0 0.8 0.199999999999558 0 0.8 0.399999999998975 0 1 0.399999999998975 0 0.6 0.399999999998975 0 0.8 0.599999999998947 0 0.8 0.399999999998975 0 0.4 0.399999999998975 0 0.6 0.599999999998947 0 0.6 0.399999999998975 0 0.4 0.199999999999558 0 0.6 0.399999999998975 0 0.6 0.199999999999558 0 0.6 0.199999999999558 0 0.8 0.399999999998975 0 0.8 0.199999999999558 0 0.6 0.199999999999558 0 0.6 0.399999999998975 0 0.8 0.399999999998975 0 0.6 0 0 0.6 0.199999999999558 0 0.8 0.199999999999558 0 0.4 0 0 0.6 0.199999999999558 0 0.6 0 0 0.6 0 0 0.8 0.199999999999558 0 0.8 0 0 0.8 0 0 0.8 0.199999999999558 0 1 0.199999999999558 0 0.8 0 0 1 0.199999999999558 0 1 0 0 1 0 0 1.2 0.199999999999558 0 1.2 0 0 1 0 0 1 0.199999999999558 0 1.2 0.199999999999558 0 1 0.199999999999558 0 1 0.399999999998975 0 1.2 0.399999999998975 0 1 0.399999999998975 0 1.2 0.599999999998947 0 1.2 0.399999999998975 0 1 0.199999999999558 0 1.2 0.399999999998975 0 1.2 0.199999999999558 0 1.2 0.199999999999558 0 1.4 0.399999999998975 0 1.4 0.199999999999558 0 1.2 0.199999999999558 0 1.2 0.399999999998975 0 1.4 0.399999999998975 0 1.2 0.399999999998975 0 1.4 0.599999999998947 0 1.4 0.399999999998975 0 1.4 0.199999999999558 0 1.4 0.399999999998975 0 1.6 0.399999999998975 0 1.4 0 0 1.4 0.199999999999558 0 1.6 0.199999999999558 0 1.2 0 0 1.2 0.199999999999558 0 1.4 0.199999999999558 0 1.2 0 0 1.4 0.199999999999558 0 1.4 0 0 1.4 0 0 1.6 0.199999999999558 0 1.6 0 0 1.6 0 0 1.6 0.199999999999558 0 1.8 0.199999999999558 0 1.6 0 0 1.8 0.199999999999558 0 1.8 0 0 1.8 0 0 2 0.199999999999558 0 2 0 0 1.8 0 0 1.8 0.199999999999558 0 2 0.199999999999558 0 1.8 0.199999999999558 0 1.8 0.399999999998975 0 2 0.399999999998975 0 1.8 0.199999999999558 0 2 0.399999999998975 0 2 0.199999999999558 0 1.8 0.399999999998975 0 2 0.599999999998947 0 2 0.399999999998975 0 1.6 0.399999999998975 0 1.8 0.599999999998947 0 1.8 0.399999999998975 0 1.6 0.199999999999558 0 1.6 0.399999999998975 0 1.8 0.399999999998975 0 1.6 0.199999999999558 0 1.8 0.399999999998975 0 1.8 0.199999999999558 0 1.4 0.199999999999558 0 1.6 0.399999999998975 0 1.6 0.199999999999558 0 1.4 0.399999999998975 0 1.6 0.599999999998947 0 1.6 0.399999999998975 0 1.4 0.599999999998947 0 1.6 0.799999999999473 0 1.6 0.599999999998947 0 1.6 0.599999999998947 0 1.6 0.799999999999473 0 1.8 0.799999999999473 0 1.6 0.599999999998947 0 1.8 0.799999999999473 0 1.8 0.599999999998947 0 1.6 0.399999999998975 0 1.6 0.599999999998947 0 1.8 0.599999999998947 0 1.8 0.399999999998975 0 1.8 0.599999999998947 0 2 0.599999999998947 0 1.8 0.599999999998947 0 2 0.799999999999473 0 2 0.599999999998947 0 1.8 0.599999999998947 0 1.8 0.799999999999473 0 2 0.799999999999473 0 1.8 0.799999999999473 0 2 1 0 2 0.799999999999473 0 1.8 0.799999999999473 0 1.8 1 0 2 1 0 1.6 0.799999999999473 0 1.6 1 0 1.8 1 0 1.6 0.799999999999473 0 1.8 1 0 1.8 0.799999999999473 0 1.4 0.799999999999473 0 1.6 1 0 1.6 0.799999999999473 0 1.4 0.799999999999473 0 1.4 1 0 1.6 1 0 1.2 0.799999999999473 0 1.2 1 0 1.4 1 0 1.2 0.799999999999473 0 1.4 1 0 1.4 0.799999999999473 0 1.4 0.599999999998947 0 1.4 0.799999999999473 0 1.6 0.799999999999473 0 1.4 0.399999999998975 0 1.4 0.599999999998947 0 1.6 0.599999999998947 0 1.2 0.399999999998975 0 1.2 0.599999999998947 0 1.4 0.599999999998947 0 1.2 0.599999999998947 0 1.2 0.799999999999473 0 1.4 0.799999999999473 0 1.2 0.599999999998947 0 1.4 0.799999999999473 0 1.4 0.599999999998947 0 1 0.599999999998947 0 1.2 0.799999999999473 0 1.2 0.599999999998947 0 1 0.399999999998975 0 1 0.599999999998947 0 1.2 0.599999999998947 0 1 0.599999999998947 0 1 0.799999999999473 0 1.2 0.799999999999473 0 1 0.799999999999473 0 1.2 1 0 1.2 0.799999999999473 0 1 0.799999999999473 0 1 1 0 1.2 1 0 2.8 0.799999999999473 0 2.8 1 0 3 1 0 2.8 0.799999999999473 0 3 1 0 3 0.799999999999473 0 2.8 0.599999999998947 0 3 0.799999999999473 0 3 0.599999999998947 0 2.8 0.399999999998975 0 2.8 0.599999999998947 0 3 0.599999999998947 0 2.8 0.599999999998947 0 2.8 0.799999999999473 0 3 0.799999999999473 0 2.6 0.599999999998947 0 2.6 0.799999999999473 0 2.8 0.799999999999473 0 2.6 0.599999999998947 0 2.8 0.799999999999473 0 2.8 0.599999999998947 0 2.6 0.399999999998975 0 2.6 0.599999999998947 0 2.8 0.599999999998947 0 2.4 0.599999999998947 0 2.6 0.799999999999473 0 2.6 0.599999999998947 0 2.4 0.799999999999473 0 2.6 1 0 2.6 0.799999999999473 0 2.6 0.799999999999473 0 2.8 1 0 2.8 0.799999999999473 0 2.6 0.799999999999473 0 2.6 1 0 2.8 1 0 2.4 0.799999999999473 0 2.4 1 0 2.6 1 0 2.2 0.799999999999473 0 2.4 1 0 2.4 0.799999999999473 0 2.2 0.799999999999473 0 2.2 1 0 2.4 1 0 2 0.799999999999473 0 2 1 0 2.2 1 0 2 0.799999999999473 0 2.2 1 0 2.2 0.799999999999473 0 2 0.599999999998947 0 2.2 0.799999999999473 0 2.2 0.599999999998947 0 2 0.599999999998947 0 2 0.799999999999473 0 2.2 0.799999999999473 0 2 0.399999999998975 0 2 0.599999999998947 0 2.2 0.599999999998947 0 2.2 0.399999999998975 0 2.2 0.599999999998947 0 2.4 0.599999999998947 0 2.2 0.599999999998947 0 2.4 0.799999999999473 0 2.4 0.599999999998947 0 2.2 0.599999999998947 0 2.2 0.799999999999473 0 2.4 0.799999999999473 0 2.4 0.599999999998947 0 2.4 0.799999999999473 0 2.6 0.799999999999473 0 2.4 0.399999999998975 0 2.4 0.599999999998947 0 2.6 0.599999999998947 0 2.4 0.199999999999558 0 2.4 0.399999999998975 0 2.6 0.399999999998975 0 2.2 0.199999999999558 0 2.4 0.399999999998975 0 2.4 0.199999999999558 0 2.2 0.199999999999558 0 2.2 0.399999999998975 0 2.4 0.399999999998975 0 2.2 0.399999999998975 0 2.4 0.599999999998947 0 2.4 0.399999999998975 0 2 0.399999999998975 0 2.2 0.599999999998947 0 2.2 0.399999999998975 0 2 0.199999999999558 0 2 0.399999999998975 0 2.2 0.399999999998975 0 2 0.199999999999558 0 2.2 0.399999999998975 0 2.2 0.199999999999558 0 2 0 0 2 0.199999999999558 0 2.2 0.199999999999558 0 2 0 0 2.2 0.199999999999558 0 2.2 0 0 2.2 0 0 2.4 0.199999999999558 0 2.4 0 0 2.2 0 0 2.2 0.199999999999558 0 2.4 0.199999999999558 0 2.4 0 0 2.4 0.199999999999558 0 2.6 0.199999999999558 0 2.4 0 0 2.6 0.199999999999558 0 2.6 0 0 2.6 0 0 2.8 0.199999999999558 0 2.8 0 0 2.6 0 0 2.6 0.199999999999558 0 2.8 0.199999999999558 0 2.4 0.199999999999558 0 2.6 0.399999999998975 0 2.6 0.199999999999558 0 2.4 0.399999999998975 0 2.6 0.599999999998947 0 2.6 0.399999999998975 0 2.6 0.399999999998975 0 2.8 0.599999999998947 0 2.8 0.399999999998975 0 2.6 0.199999999999558 0 2.6 0.399999999998975 0 2.8 0.399999999998975 0 2.6 0.199999999999558 0 2.8 0.399999999998975 0 2.8 0.199999999999558 0 2.8 0.199999999999558 0 2.8 0.399999999998975 0 3 0.399999999998975 0 2.8 0.399999999998975 0 3 0.599999999998947 0 3 0.399999999998975 0 2.8 0.199999999999558 0 3 0.399999999998975 0 3 0.199999999999558 0 2.8 0 0 2.8 0.199999999999558 0 3 0.199999999999558 0 2.8 0 0 3 0.199999999999558 0 3 0 0 3 0 0 3 0.199999999999558 0 3.2 0.199999999999558 0 3 0 0 3.2 0.199999999999558 0 3.2 0 0 3.2 0 0 3.4 0.199999999999558 0 3.4 0 0 3.4 0 0 3.4 0.199999999999558 0 3.6 0.199999999999558 0 3.2 0 0 3.2 0.199999999999558 0 3.4 0.199999999999558 0 3.2 0.199999999999558 0 3.2 0.399999999998975 0 3.4 0.399999999998975 0 3.2 0.199999999999558 0 3.4 0.399999999998975 0 3.4 0.199999999999558 0 3.4 0.199999999999558 0 3.4 0.399999999998975 0 3.6 0.399999999998975 0 3.2 0.399999999998975 0 3.4 0.599999999998947 0 3.4 0.399999999998975 0 3 0.399999999998975 0 3.2 0.599999999998947 0 3.2 0
[...]
<PointData Scalars="conc_conc," Vectors="" Tensors="">
<DataArray type="Float64" Name="conc_conc" format="ascii">
0.000619147576861186 0.00061914757686118 -0.00193475651029787 0.000671205485455055 -0.00180674619780304 -0.00337302096114577 -0.0121299522091266 0.00347475243363225 0.00362234388751548 0.000694291669220089 -0.00128074534157422 0.0486152371861743 -0.00555707545899267 -0.00400218190352995 0.00112189770600504 -0.0121158238386792 0.00350104192153502 0.00365293273155793 -0.00555620559794288 -0.00400708341163881 0.00115044508425176 0.000742014069016567 -0.00122653900306127 0.0485518817038715 -0.01212137864909 0.00352239319350648 0.00368013700456701 0.000656877109823255 -0.00181461360266316 -0.00337564357238519 0.000661891206114064 -0.00181078829864858 -0.00337225452879521 0.000615991344860672 0.000615991243131697 -0.00194004980848737 0.000614741461899125 0.000614741459270968 -0.0019449491709108 0.00065183459008271 -0.00181824057853213 -0.00337920827858683 0.000613477371119442 0.000613477368488762 -0.00194984576727355 0.00061022974513419 0.000610229745134187 -0.00195501071973459 0.00064237543947777 -0.00182117363588809 -0.00337915996989513 -0.0121126735543401 0.00356819042962958 0.00374003541272539 -0.00556695372224233 -0.00402510084915837 0.00122012478993675 0.000868503599640925 -0.00110926828679241 0.0485125079822021 0.000813620729421256 -0.00116041553461546 0.0485920757701327 -0.00556773755287471 -0.00402176859680348 0.00119116736960594 -0.0121270373506728 0.00354344938592897 0.00370780299326135 -0.00556194370238573 -0.00401456556878792 0.00117073977506179 0.000776884588923546 -0.00119309317788467 0.0485737419968081 0.0604919918776973 0.0529523244379907 0.120293273788854 0.0605025962214164 0.0529679717081839 0.120136171866093 0.0670279856872967 0.118370574517211 0.121753753460375 -0.00433973224422577 0.0509633995244767 0.0590933944741436 -0.00423680355712389 0.0508539615873932 0.0589913903482374 0.0604248290616895 0.0528604641570487 0.119633898584642 0.06695319078881 0.11784112875834 0.121356721401486 0.124972858351964 0.124138061451748 0.140317965938961 0.133821623593811 0.136516456894563 0.130452910344531 0.134249441845752 0.137350473261044 0.13097150434636 0.12536258635146 0.124711368470292 0.141152956352436 0.125512540397462 0.124898232422047 0.141499460293161 0.134418147636776 0.137696259946884 0.131226014833815 0.134603001625763 0.138024040404575 0.1314995334851 0.125677777931901 0.125070813708432 0.141829451963643 0.0670094946648617 0.118540302879174 0.121905935904843 -0.004401374355441 0.0509563934034769 0.0590940540239023 -0.00446019429972019 0.0509431387247999 0.0591010172685253 0.0670007851143927 0.118696831310545 0.122071500156859 0.060489795729269 0.0529293157154015 0.120439679739289 0.0605967896763882 0.0530060904607099 0.120892869591032 -0.00455222067440123 0.0510264050296075 0.059223190107512 0.0671096374280251 0.119166499403344 0.122516234928063 0.126124331715035 0.125578904016117 0.142586614832267 0.135091708137527 0.138772792685328 0.132093934288115 0.137448031513496 0.104807104773095 0.0973894559408076 0.134366658246281 0.141620122972248 0.106919365263302 0.133759268084971 0.140843032778869 0.106223507684501 0.136515794420263 0.103799436180242 0.0966452849371526 0.136811878447487 0.104129808921489 0.096894121412802 0.095775757642439 0.0582833883226099 0.0557227396593329 0.0971803880289595 0.103149271452774 0.0582252747110544 0.0955174375323544 0.0580609489452176 0.0555601119050942 0.0550047463986852 0.0564978081981059 0.0252946346280383 0.0553200985754691 0.056914223608222 0.0255106166075174 0.0976878491774516 0.103825289560819 0.0586665528376626 0.0962869666749122 0.0587128499225538 0.0560321576362146 0.0529763965942782 0.0264303990984262 0.0271864327638859 0.0263546130532272 0.0252689911223056 0.00918195812822023 0.0246689789970746 0.0100412071083061 0.0116841538380442 0.0101934076299276 0.00331024266143748 0.00459510268691784 0.0110940587616821 0.00953793831401383 0.00277248208479224 0.0110228265827518 0.00945568083222223 0.00274278445329594 0.0101268742585793 0.00327902327391137 0.00456561022792144 0.0100905016277485 0.00326117630775364 0.00454948133496457 0.0244331343666197 0.00990484968019523 0.0115729344486739 0.0261939018808905 0.0250668407836517 0.00909508635421181 0.0245158019964589 0.0099535636004828 0.0116121443414176 0.0526683546904585 0.0262177113767911 0.0270268379486652 0.0525059613130489 0.026103092991057 0.026940945500771 0.0523604782781835 0.025975600629574 0.0268688720382315 0.0260328426544437 0.0248362476281651 0.00898877116749002 0.0243614789502708 0.00984832772177402 0.011541887823234 0.0261073972219923 0.0249574919412313 0.00904667248825096 0.0109839675000783 0.00940985015065513 0.00272567834651416 0.0100601847114663 0.00323921771738246 0.0045375193099558 0.0109518511346949 0.00935701417915773 0.00270334053209373 0.0100177658823169 0.00319122423174415 0.00452459308162749 0.0109075551767629 0.00924565962856165 0.00265226447747374 0.0259204536662848 0.0245833673915302 0.00886227954362523 0.0242526652996095 0.00972818093300025 0.0115027197928408 0.0521214340803407 0.0257078447259933 0.0267656720022995 0.0544488065553506 0.0555552367310769 0.024767629731285 0.0962725368688096 0.101696464273691 0.057223503863618 0.0948554102463612 0.0573123526334185 0.0551877654832095 0.0546913424886542 0.0560471238405832 0.0250469529940991 0.0548391643583356 0.0562809598450464 0.0251781591098264 0.0969256543898902 0.10281698733545 0.057996716405892 0.0966921402457444 0.102464755374524 0.0577493165758492 0.0952800910996838 0.0578207757018682 0.0554168938860759 0.136240318386467 0.103449240441594 0.0964179552308756 0.133479900415122 0.140498537701055 0.105884434970949 0.133220701916961 0.140135290297193 0.105525710845174 0.135687499411804 0.102679569934456 0.0960126416000388 0.132694470342814 0.139268897887316 0.104738620817306 5.35410687326214e-05 6.80231849863647e-06 -8.39619693740221e-06 4.62732359921015e-05 -1.65157288876003e-06 2.02527259745658e-05 4.63587507259318e-05 -1.46186344712792e-06 2.02503666738055e-05 5.37641953235722e-05 7.54603170506823e-06 -8.11973835160818e-06 5.36261318419761e-05 7.34625737362031e-06 -8.17747138201722e-06 0.000168824197013516 4.9304654353799e-05 -1.38057323002293e-05 0.000147329214774483 4.89832178332042e-06 6.38223362917715e-05 0.000169279217047435 4.99965602572327e-05 -1.35922306087734e-05 0.000454352935896917 4.59133435904935e-05 0.000196064243422321 0.000453027421274794 4.3939221262058e-05 0.000195864033699751 0.000146977285162737 4.27720057662252e-06 6.37946051279119e-05 0.000168463077500022 4.75610353174504e-05 -1.45086421289164e-05 0.000513824049851288 0.000224383269788188 -5.63717543835563e-06 0.00134364094899147 0.00022537080137001 0.000582607950981139 0.00150608329615589 0.000882306341879114 0.000103324837304469 0.00419275376953144 0.00303848316183862 0.000641249501966854 0.00379112001654949 0.000915063594893171 0.00166542988378454 0.0038057917984695 0.000932651495781715 0.00166918577434457 0.00420815619664468 0.00308229367739001 0.000660206881656456 0.00422049868322744 0.00310256412274348 0.000667984935151641 0.0015152705836092 0.000905218049374315 0.000112429767188836 0.00134824332117219 0.000231411113738631 0.000583560697084509 0.00151091304904891 0.000898159619805468 0.000109931489030443 0.00051520562393279 0.000229769477085882 -3.44230524030553e-06 0.000516648883214581 0.000232047606027289 -2.69115645695079e-06 0.000518691902447494 0.000233619666512299 -2.39738290031607e-06 0.00135753728098319 0.000235594485014681 0.000587186580921248 0.00152109982417414 0.000910609798393635 0.000113805380246533 0.00135225310755871 0.000233917956134747 0.000584977032869801 0.00381727914928216 0.000940367624393254 0.00167343041623941 0.00423616225430776 0.00311922830850549 0.000673216764356461 0.00383168942762339 0.00094615044091177 0.00167957555725919 0.00426468812602316 0.00314834915596336 0.000681929990915267 0.00385788041134589 0.000955966159220591 0.00169081326455921 0.00136712026054792 0.000238332505193113 0.000591238791292732 0.0015316934619662 0.000919770592000426 0.000115947331668328 0.000522407790509582 0.000236199178439873 -2.00546158602704e-06 0.000460813674767042 4.77774898829767e-05 0.000198674371105984 0.000149445827391636 5.34825762744473e-06 6.46799337152469e-05 0.0001712104677519 5.10529481213914e-05 -1.35352181595172e-05 0.000457496032622955 4.71111194059331e-05 0.000197274891148745 0.000455668252672479 4.66780739248945e-05 0.000196515269323379 0.000147740456030389 5.11966965512724e-06 6.39609008554142e-05 0.000169963099172327 5.04093541134588e-05 -1.35535721811624e-05 0.000148345337479631 5.21614276650071e-06 6.42130883901028e-05 5.39852020451328e-05 7.64158924710519e-06 -8.12552118786982e-06 4.64825965089252e-05 -1.40058760956553e-06 2.02917714135914e-05 4.66760439190529e-05 -1.38413679100247e-06 2.03731740286108e-05 5.43897524314874e-05 7.77754030203011e-06 -8.15385631161157e-06 4.70291639443265e-05 -1.36880703564436e-06 2.05245878585771e-05 1.68575362153073e-05 -1.65517146088961e-07 -3.64516518272484e-06 1.44522462308066e-05 -1.31002861883438e-06 6.37738400662113e-06 4.35787429952956e-06 -6.4707997662785e-07 1.94715374636484e-06 1.53190881117953e-06 -4.55795451930745e-07 -5.12487806868416e-07 5.12261938850598e-06 -8.06196585377829e-07 -1.42315974022811e-06 5.08318960263465e-06 -8.05754553096312e-07 -1.41444031672407e-06 4.32408568572521e-06 -6.43835086425643e-07 1.93224461267745e-06 1.51988514208045e-06 -4.53795153599492e-07 -5.08909681430714e-07 4.30572705296697e-06 -6.42855314375591e-07 1.92429747863569e-06 1.42816412432378e-05 -1.30769863728992e-06 6.30372684405149e-06 1.43418655696021e-05 -1.30685868705101e-06 6.32940375721498e-06 1.67298484344757e-05 -1.8582757411163e-07 -3.62617911862948e-06 1.66603837951167e-05 -2.03936330203377e-07 -3.61895385864619e-06 1.42454147359476e-05 -1.32399956383864e-06 6.29161500100558e-06 1.66197232902073e-05 -2.59190667478034e-07 -3.63384416269787e-06 1.66024617296408e-05 -4.24032687501518e-07 -3.7003987413482e-06 1.42268924180035e-05 -1.38062618778624e-06 6.295543440972e-06 4.29206708072598e-06 -6.6363647153134e-07 1.92289770087776e-06 5.04755629430408e-06 -8.71285966417548e-07 -1.43421777910145e-06 1.51017790540909e-06 -4.71292659204504e-07 -5.14189664929919e-07 1.51018430867594e-06 -4.57068366549909e-07 -5.08327516851731e-07 4.29536806665754e-06 -6.47034605298772e-07 1.92081160449454e-06 5.05012562211524e-06 -8.22439651508193e-07 -1.41432443879315e-06 5.06182807427877e-06 -8.07724619564859e-07 -1.41066380227511e-06 1.51349187600497e-06 -4.53284008811791e-07 -5.07474693632553e-07 4.46629995387251e-07 -1.92290217532233e-07 -1.72858639442694e-07 3.7408616958234e-07 -9.49768682566228e-08 1.71643605284596e-07 4.45707133332277e-07 -1.93230899565524e-07 -1.7304396747758e-07 1.27553644105316e-06 -2.60645596597117e-07 5.77818056026783e-07 1.27520981669645e-06 -2.65444611812237e-07 5.78686132470327e-07 4.4591664771714e-07 -1.97316631817144e-07 -1.74751602612843e-07 3.74171029856967e-07 -9.6348835490973e-08 1.71964906651515e-07 1.30232518161748e-07 -7.33243282570942e-08 -5.71012657804915e-08 1.08660225534768e-07 -3.28801550237085e-08 5.0548634107053e-08 1.0858681381681e-07 -3.24913565943145e-08 5.04377270270546e-08 1.30114526249679e-07 -7.21632269591806e-08 -5.66085897656264e-08 1.30369190723048e-07 -7.19376298850166e-08 -5.65722915828139e-08 1.08808221913527e-07 -3.24355883625619e-08 5.05158098190915e-08 1.09295985266464e-07 -3.25435547431351e-08 5.07379013156651e-08 1.30947433894362e-07 -7.21294274570673e-08 -5.67764258484677e-08 3.74893229796915e-07 -9.47313911829289e-08 1.71922966877365e-07 1.27844830116312e-06 -2.5961255019617e-07 5.78809754582117e-07 1.28397744690278e-06 -2.60146498656942e-07 5.81234339539462e-07 4.48573006730565e-07 -1.92631092681616e-07 -1.7342260942901e-07 3.76543361901203e-07 -9.49974207135909e-08 1.72660514969204e-07 4.52128252661649e-07 -1.93870996001629e-07 -1.74688571653369e-07 1.29412137943507e-06 -2.61862406154547e-07 5.8578628651805e-07 3.79538848267965e-07 -9.56656308271475e-08 1.74022715784542e-07 1.31990936829281e-07 -7.26303916783155e-08 -5.72008418336866e-08 1.10169632661526e-07 -3.27808742371128e-08 5.1140183308794e-08 3.170488373181e-08 -1.07435115860551e-08 1.4887824740133e-08 3.81798976157051e-08 -2.52575288813146e-08 -1.81621907769514e-08 3.78770193737236e-08 -2.50761189059316e-08 -1.80253539099637e-08 3.13124669393084e-08 -1.06254861436401e-08 1.47055317441789e-08 3.14527260596024e-08 -1.06639975799974e-08 1.47703375896146e-08 1.08708608076562e-08 -8.29494787204643e-09 -5.58510141217456e-09 8.98571351545554e-09 -3.38121699656587e-09 4.26463045369637e-09 8.9449796641047e-09 -3.3680192612686e-09 4.24552156919556e-09 3.09911583480644e-09 -2.64697189081489e-09 -1.6967484097837e-09 3.12397797424218e-09 -2.66691406592102e-09 -1.70986144012646e-09 1.09579745251673e-08 -8.35645263325846e-09 -5.62794921090018e-09 9.05787689875509e-09 -3.40679956343688e-09 4.29862043428425e-09 2.57170330707706e-09 -1.05312983318931e-09 1.23222254332043e-09 8.85429360892344e-10 -8.28159388873353e-10 -5.11104564185018e-10 7.26235192715066e-10 -3.19018461238782e-10 3.50976815461532e-10 2.04124066324137e-10 -9.50599146205921e-11 9.94056586392571e-11 2.49680506491107e-10 -2.51699186369586e-10 -1.5071721823325e-10 2.47692771254595e-10 -2.49781685378235e-10 -1.49550685352622e-10 2.02496531385001e-10 -9.43297082999408e-11 9.86181987862697e-11 2.01546262911167e-10 -9.46205045957959e-11 9.82810908996127e-11 7.17071665530078e-10 -3.15210368555814e-10 3.46575077755223e-10 7.20443984131866e-10 -3.1658126881373e-10 3.48196827748427e-10 8.78381136170464e-10 -8.21899522883699e-10 -5.07165104850775e-10 2.55119714564841e-09 -1.04514195013366e-09 1.22246859197141e-09 2.53944424522099e-09 -1.04081692861354e-09 1.21687949709854e-09 2.53477951509641e-09 -1.0410985036716e-09 1.21508769721917e-09 8.7280718636547e-10 -8.188450491166e-10 -5.04758717421798e-10 7.15607956352273e-10 -3.15418500094109e-10 3.46533559607681e-10 8.74293706460894e-10 -8.18505601880909e-10 -5.04944467557604e-10 2.4661560687952e-10 -2.50973495318432e-10 -1.49781832557239e-10 2.01488698990039e-10 -9.39453345869033e-11 9.81424570930358e-11 2.46470680574821e-10 -2.4884424511558e-10 -1.48916833133947e-10 2.0167626375199e-10 -9.45439100577448e-11 9.83386183405122e-11 2.46746220411086e-10 -2.50688397688673e-10 -1.49695003644122e-10 8.74805274910137e-10 -8.25919094895957e-10 -5.07948468100625e-10 7.17328200163743e-10 -3.17582500439194e-10 3.47168451668971e-10 2.53937402247055e-09 -1.04962548089846e-09 1.21868108473309e-09 3.08562181385216e-09 -2.66427558304081e-09 -1.7005809610337e-09 1.08200039290268e-08 -8.3675786700621e-09 -5.6026697041752e-09 8.94091492007844e-09 -3.40064206588248e-09 4.25067816316496e-09 3.07947249620326e-09 -2.63876663630147e-09 -1.68924347871801e-09 3.08493794432589e-09 -2.63669591914058e-09 -1.68960125109119e-09 1.08219777998671e-08 -8.26533478783253e-09 -5.56265088298295e-09 1.08019587726998e-08 -8.27597310307709e-09 -5.56256758515173e-09 8.92779142080341e-09 -3.37002958142768e-09 4.23907320939485e-09 3.12494432103772e-08 -1.06364595782415e-08 1.46824251142938e-08 3.77096374573992e-08 -2.49968714911461e-08 -1.79569824591248e-08 3.76366780230763e-08 -2.50467950822886e-08 -1.79612417291286e-08 3.12835464385361e-08 -1.0745866204397e-08 1.47189301951993e-08 3.76858924890758e-08 -2.5374022327108e-08 -1.81022788507298e-08 4.15371087818467e-13 -5.26618356358954e-13 -2.89077435800971e-13 3.35656288474772e-13 -1.87669580878856e-13 1.67902901055855e-13 3.3498054663695e-13 -1.86803237788125e-13 1.67463327923334e-13 3.87666604415592e-13 -4.98065376323209e-13 -2.72068828576954e-13 4.1449038904224e-13 -5.23983263524181e-13 -2.8788196294121e-13 1.2117932929316e-12 -6.59012792485657e-13 6.03465614269006e-13 1.49677263411451e-12 -1.8340490075271e-12 -1.01926791811972e-12 1.40204469186174e-12 -1.75027683686643e-12 -9.66230170825022e-13 4.3721539880105e-12 -2.30866374250967e-12 2.16762672380766e-12 4.37935942919851e-12 -2.32053271237909e-12 2.17287092666843e-12 1.21402594741052e-12 -6.62219638883188e-13 6.04990969139771e-13 1.4997110977435e-12 -1.8438318294182e-12 -1.02364657366155e-12 5.39918208789954e-12 -6.40211349771505e-12 -3.60241681506232e-12 1.57511544688804e-11 -8.06585588891704e-12 7.77588958045699e-12 1.93755683127489e-11 -2.20121004396361e-11 -1.25872596881821e-11 6.92829333450774e-11 -7.4806126175811e-11 -4.36183375226978e-11 5.64659178524268e-11 -2.77705034021346e-11 2.77151017540454e-11 5.63985490162966e-11 -2.7608177853299e-11 2.76553991472234e-11 6.91886806933164e-11 -7.43071315245739e-11 -4.34045751111328e-11 6.92226629246746e-11 -7.48718413319562e-11 -4.3630194564527e-11 1.9352927880066e-11 -2.2024392209928e-11 -1.25866454701696e-11 1.93449407875715e-11 -2.1877376447847e-11 -1.25286919737043e-11 1.57286372789113e-11 -8.02195107189875e-12 7.75807837842698e-12 5.38957031633732e-12 -6.36580100450677e-12 -3.58639378299506e-12 5.39143222497861e-12 -6.40349096556167e-12 -3.60108120562524e-12 5.34171323387987e-12 -6.3318280897925e-12 -3.56240051884462e-12 1.9184790923222e-11 -2.1782750753657e-11 -1.24554644828793e-11 1.55944405370952e-11 -7.97849090343576e-12 7.6940321211721e-12 1.57309779555959e-11 -8.06717347800386e-12 7.76692610528037e-12 5.64102123576243e-11 -2.77842839499307e-11 2.76906229634605e-11 6.86625873893068e-11 -7.40674432085809e-11 -4.31908883970259e-11 5.59542454748284e-11 -2.74859244577868e-11 2.74450218211726e-11 7.00910458912538e-11 -7.51849390505961e-11 -4.39380936714056e-11 5.71369427273648e-11 -2.79429300080365e-11 2.80129506414736e-11 1.59349863799399e-11 -8.12092241197672e-12 7.85882268967159e-12 1.95978892373579e-11 -2.21418525658244e-11 -1.26848780425034e-11 5.46024087239796e-12 -6.44417867626243e-12 -3.6316348108629e-12 4.42965090568751e-12 -2.33755687358374e-12 2.19589824146759e-12 1.22777068343444e-12 -6.67359206348573e-13 6.11369196780338e-13 1.51645734662249e-12 -1.85696856830787e-12 -1.0322561484107e-12 4.10854826964641e-12 -2.20473159894651e-12 2.04168362566612e-12 4.09757728157943e-12 -2.20194341936231e-12 2.03679393682941e-12 1.13390808354377e-12 -6.26125757267837e-13 5.65992928258738e-13 1.13694384309987e-12 -6.2703983594843e-13 5.67369847267274e-13 1.40570974135319e-12 -1.75238319033511e-12 -9.67841149592093e-13 3.88682460972269e-13 -4.98766118430569e-13 -2.72558717405681e-13 3.13006762573696e-13 -1.76876419970317e-13 1.56800686354173e-13 3.13844712667146e-13 -1.77164035677408e-13 1.57186740596702e-13 4.19957269610148e-13 -5.30612315012667e-13 -2.9158167434543e-13 3.39408535803341e-13 -1.89192430665345e-13 1.69664886004882e-13 1.16000176592119e-13 -1.50527451632101e-13 -8.19164052261393e-14 9.36044876950323e-14 -5.3310458002642e-14 4.69481523316359e-14 2.57594679608433e-14 -1.49429436946319e-14 1.29571403418613e-14 8.79066626556146e-15 -1.19004557295744e-14 -6.37756273232628e-15 3.19667899351545e-14 -4.24381549254616e-14 -2.29043414160113e-14 2.9506721202918e-14 -3.96325554681101e-14 -2.13010388796798e-14 2.37596962229244e-14 -1.39144751370336e-14 1.19688464035571e-14 7.61642017071665e-15 -1.15720970660243e-14 -4.81636461134329e-15 2.36961368883742e-14 -1.38881462836036e-14 1.19387693627781e-14 8.62098626408325e-14 -4.96845915851342e-14 4.33202446016629e-14 8.64407482262328e-14 -4.97725336016201e-14 4.34281427639555e-14 1.07210263113678e-13 -1.41005169566703e-13 -7.63657166172494e-14 1.06929293006899e-13 -1.40782445667758e-13 -7.62195978248053e-14 9.24125147128204e-14 -5.27882686755761e-14 4.63727418452786e-14 1.14546318348298e-13 -1.49160650742278e-13 -8.10781646314133e-14 1.13694020038429e-13 -1.48290338359518e-13 -8.05594507876268e-14 9.17182949228019e-14 -5.24616514467084e-14 4.60377501694259e-14 2.52344731615663e-14 -1.46932809102655e-14 1.27016939436123e-14 3.13230109985358e-14 -4.17685226207368e-14 -2.25091809615594e-14 8.61151783026279e-15 -1.17030211126319e-14 -6.26361330344564e-15 8.67610304311936e-15 -1.17784001437602e-14 -6.306266976747e-15 3.15577202544887e-14 -4.2026768105