<?xml version="1.0"?>
<VTKFile type="UnstructuredGrid" version="0.1" byte_order="LittleEndian">
<UnstructuredGrid>
<Piece NumberOfPoints="2400" NumberOfCells="800">
<Points>
<DataArray type="Float64" NumberOfComponents="3" format="ascii">
0 0 0 0 0.199999999999558 0 0.2 0.199999999999558 0 0 0 0 0.2 0.199999999999558 0 0.2 0 0 0 0.199999999999558 0 0 0.399999999998975 0 0.2 0.399999999998975 0 0 0.199999999999558 0 0.2 0.199999999999558 0 0.2 0.399999999998975 0 0 0.399999999998975 0 0.2 0.399999999998975 0 0.2 0.599999999998947 0 0.2 0.399999999998975 0 0.4 0.399999999998975 0 0.4 0.599999999998947 0 0.2 0.199999999999558 0 0.2 0.399999999998975 0 0.4 0.399999999998975 0 0.2 0.199999999999558 0 0.4 0.399999999998975 0 0.4 0.199999999999558 0 0.4 0.399999999998975 0 0.4 0.199999999999558 0 0.6 0.399999999998975 0 0.2 0 0 0.4 0.199999999999558 0 0.4 0 0 0.2 0.199999999999558 0 0.2 0 0 0.4 0.199999999999558 0 0.4 0.199999999999558 0 0.4 0 0 0.6 0.199999999999558 0 0.4 0 0 0.6 0 0 0.6 0.199999999999558 0 0.6 0 0 0.8 0 0 0.8 0.199999999999558 0 0.6 0 0 0.6 0.199999999999558 0 0.8 0.199999999999558 0 0.4 0.199999999999558 0 0.6 0.199999999999558 0 0.6 0.399999999998975 0 0.4 0.399999999998975 0 0.6 0.399999999998975 0 0.6 0.599999999998947 0 0.6 0.399999999998975 0 0.8 0.399999999998975 0 0.8 0.599999999998947 0 0.6 0.199999999999558 0 0.8 0.399999999998975 0 0.8 0.199999999999558 0 0.6 0.199999999999558 0 0.6 0.399999999998975 0 0.8 0.399999999998975 0 0.8 0.399999999998975 0 0.8 0.199999999999558 0 1 0.399999999998975 0 0.8 0.399999999998975 0 1 0.399999999998975 0 1 0.599999999998947 0 0.8 0.199999999999558 0 1 0.199999999999558 0 1 0.399999999998975 0 0.8 0 0 1 0.199999999999558 0 1 0 0 0.8 0 0 0.8 0.199999999999558 0 1 0.199999999999558 0 0.8 0.799999999999473 0 0.8 1 0 1 1 0 0.8 0.799999999999473 0 1 1 0 1 0.799999999999473 0 0.8 0.599999999998947 0 1 0.599999999998947 0 1 0.799999999999473 0 0.8 0.399999999998975 0 0.8 0.599999999998947 0 1 0.599999999998947 0 0.8 0.799999999999473 0 0.8 0.599999999998947 0 1 0.799999999999473 0 0.8 0.799999999999473 0 0.8 0.599999999998947 0 0.6 0.599999999998947 0 0.8 0.799999999999473 0 0.6 0.599999999998947 0 0.6 0.799999999999473 0 0.6 0.399999999998975 0 0.8 0.599999999998947 0 0.6 0.599999999998947 0 0.6 0.599999999998947 0 0.6 0.799999999999473 0 0.4 0.599999999998947 0 0.6 0.799999999999473 0 0.4 0.799999999999473 0 0.6 1 0 0.8 0.799999999999473 0 0.6 0.799999999999473 0 0.8 1 0 0.6 0.799999999999473 0 0.6 1 0 0.8 1 0 0.4 0.799999999999473 0 0.4 1 0 0.6 1 0 0.4 0.799999999999473 0 0.2 0.799999999999473 0 0.4 1 0 0.2 0.799999999999473 0 0.2 1 0 0.4 1 0 0.4 0.399999999998975 0 0.6 0.599999999998947 0 0.4 0.599999999998947 0 0.6 0.799999999999473 0 0.4 0.799999999999473 0 0.4 0.599999999998947 0 0.4 0.799999999999473 0 0.4 0.599999999998947 0 0.2 0.599999999998947 0 0.4 0.799999999999473 0 0.2 0.599999999998947 0 0.2 0.799999999999473 0 0.2 0.399999999998975 0 0.4 0.599999999998947 0 0.2 0.599999999998947 0 0.2 0.599999999998947 0 0 0.599999999998947 0 0.2 0.799999999999473 0 0 0.599999999998947 0 0.2 0.799999999999473 0 0 0.799999999999473 0 0 0.399999999998975 0 0.2 0.599999999998947 0 0 0.599999999998947 0 0.2 0.799999999999473 0 0 0.799999999999473 0 0.2 1 0 0 0.799999999999473 0 0 1 0 0.2 1 0 1.8 0.799999999999473 0 2 0.799999999999473 0 2 1 0 1.8 1 0 1.8 0.799999999999473 0 2 1 0 1.6 1 0 1.8 1 0 1.6 0.799999999999473 0 1.8 1 0 1.8 0.799999999999473 0 1.6 0.799999999999473 0 1.6 1 0 1.6 0.799999999999473 0 1.4 0.799999999999473 0 1.6 0.799999999999473 0 1.6 0.599999999998947 0 1.4 0.599999999998947 0 1.8 0.799999999999473 0 1.6 0.799999999999473 0 1.6 0.599999999998947 0 1.8 0.799999999999473 0 1.6 0.599999999998947 0 1.8 0.599999999998947 0 1.6 0.599999999998947 0 1.8 0.599999999998947 0 1.6 0.399999999998975 0 1.8 0.599999999998947 0 1.8 0.399999999998975 0 2 0.599999999998947 0 1.8 0.799999999999473 0 1.8 0.599999999998947 0 2 0.799999999999473 0 1.8 0.599999999998947 0 2 0.599999999998947 0 2 0.799999999999473 0 1.8 0.399999999998975 0 2 0.399999999998975 0 2 0.599999999998947 0 1.8 0.199999999999558 0 2 0.199999999999558 0 2 0.399999999998975 0 1.8 0.399999999998975 0 1.8 0.199999999999558 0 2 0.399999999998975 0 1.8 0 0 2 0.199999999999558 0 2 0 0 1.8 0.199999999999558 0 1.8 0 0 2 0.199999999999558 0 1.8 0.199999999999558 0 1.8 0 0 1.6 0 0 1.8 0.199999999999558 0 1.6 0.199999999999558 0 1.6 0 0 1.6 0.199999999999558 0 1.6 0 0 1.4 0 0 1.8 0.599999999998947 0 1.8 0.399999999998975 0 1.6 0.399999999998975 0 1.8 0.399999999998975 0 1.8 0.199999999999558 0 1.6 0.199999999999558 0 1.8 0.399999999998975 0 1.6 0.199999999999558 0 1.6 0.399999999998975 0 1.6 0.199999999999558 0 1.6 0.399999999998975 0 1.4 0.199999999999558 0 1.6 0.599999999998947 0 1.6 0.399999999998975 0 1.4 0.399999999998975 0 1.6 0.399999999998975 0 1.4 0.399999999998975 0 1.4 0.199999999999558 0 1.4 0.399999999998975 0 1.2 0.199999999999558 0 1.2 0.399999999998975 0 1.4 0.399999999998975 0 1.4 0.199999999999558 0 1.2 0.199999999999558 0 1.4 0.399999999998975 0 1.2 0.399999999998975 0 1.4 0.599999999998947 0 1.6 0.199999999999558 0 1.4 0 0 1.4 0.199999999999558 0 1.4 0.199999999999558 0 1.2 0 0 1.2 0.199999999999558 0 1.4 0 0 1.4 0.199999999999558 0 1.2 0 0 1.2 0 0 1.2 0.199999999999558 0 1 0 0 1.2 0.199999999999558 0 1 0.199999999999558 0 1 0 0 1.2 0.399999999998975 0 1 0.399999999998975 0 1.2 0.599999999998947 0 1.2 0.199999999999558 0 1 0.199999999999558 0 1.2 0.399999999998975 0 1 0.199999999999558 0 1.2 0.399999999998975 0 1 0.399999999998975 0 1 0.399999999998975 0 1 0.599999999998947 0 1.2 0.599999999998947 0 1 0.599999999998947 0 1.2 0.599999999998947 0 1.2 0.799999999999473 0 1 0.599999999998947 0 1 0.799999999999473 0 1.2 0.799999999999473 0 1 1 0 1.2 1 0 1 0.799999999999473 0 1.2 1 0 1 0.799999999999473 0 1.2 0.799999999999473 0 1.4 1 0 1.2 0.799999999999473 0 1.4 0.799999999999473 0 1.2 1 0 1.4 1 0 1.2 0.799999999999473 0 1.4 1 0 1.6 1 0 1.4 0.799999999999473 0 1.6 0.799999999999473 0 1.4 0.799999999999473 0 1.4 0.599999999998947 0 1.6 0.599999999998947 0 1.4 0.399999999998975 0 1.4 0.599999999998947 0 1.2 0.399999999998975 0 1.2 0.599999999998947 0 1.4 0.599999999998947 0 1.2 0.599999999998947 0 1.2 0.799999999999473 0 1.4 0.799999999999473 0 1.2 0.599999999998947 0 1.4 0.799999999999473 0 1.4 0.599999999998947 0 2.6 0.599999999998947 0 2.6 0.799999999999473 0 2.8 0.799999999999473 0 2.6 0.599999999998947 0 2.8 0.799999999999473 0 2.8 0.599999999998947 0 2.6 0.599999999998947 0 2.8 0.599999999998947 0 2.6 0.399999999998975 0 2.6 0.599999999998947 0 2.6 0.799999999999473 0 2.4 0.599999999998947 0 2.6 0.799999999999473 0 2.4 0.799999999999473 0 2.6 1 0 2.6 0.799999999999473 0 2.6 1 0 2.8 1 0 2.6 0.799999999999473 0 2.8 0.799999999999473 0 2.8 1 0 2.8 0.799999999999473 0 2.8 1 0 3 1 0 2.8 0.799999999999473 0 3 0.799999999999473 0 3 1 0 3 0.799999999999473 0 2.8 0.599999999998947 0 3 0.599999999998947 0 2.8 0.799999999999473 0 3 0.799999999999473 0 2.8 0.599999999998947 0 2.8 0.599999999998947 0 3 0.599999999998947 0 2.8 0.399999999998975 0 3 0.599999999998947 0 3 0.399999999998975 0 2.8 0.399999999998975 0 3 0.399999999998975 0 3 0.199999999999558 0 2.8 0.199999999999558 0 3 0.399999999998975 0 2.8 0.399999999998975 0 2.8 0.199999999999558 0 3 0 0 3 0.199999999999558 0 2.8 0 0 3 0.199999999999558 0 2.8 0.199999999999558 0 2.8 0 0 2.8 0.199999999999558 0 2.8 0 0 2.6 0 0 2.8 0.199999999999558 0 2.6 0.199999999999558 0 2.6 0 0 2.6 0.199999999999558 0 2.6 0 0 2.4 0 0 2.8 0.599999999998947 0 2.8 0.399999999998975 0 2.6 0.399999999998975 0 2.8 0.399999999998975 0 2.8 0.199999999999558 0 2.6 0.199999999999558 0 2.8 0.399999999998975 0 2.6 0.199999999999558 0 2.6 0.399999999998975 0 2.6 0.199999999999558 0 2.6 0.399999999998975 0 2.4 0.199999999999558 0 2.6 0.599999999998947 0 2.6 0.399999999998975 0 2.4 0.399999999998975 0 2.6 0.399999999998975 0 2.4 0.399999999998975 0 2.4 0.199999999999558 0 2.4 0.399999999998975 0 2.4 0.199999999999558 0 2.2 0.199999999999558 0 2.4 0.399999999998975 0 2.2 0.199999999999558 0 2.2 0.399999999998975 0 2.4 0.399999999998975 0 2.2 0.399999999998975 0 2.4 0.599999999998947 0 2.6 0.199999999999558 0 2.4 0 0 2.4 0.199999999999558 0 2.4 0.199999999999558 0 2.2 0 0 2.2 0.199999999999558 0 2.4 0 0 2.4 0.199999999999558 0 2.2 0 0 2.2 0 0 2.2 0.199999999999558 0 2 0 0 2.2 0.199999999999558 0 2 0.199999999999558 0 2 0 0 2.2 0.399999999998975 0 2 0.399999999998975 0 2.2 0.599999999998947 0 2.2 0.199999999999558 0 2 0.199999999999558 0 2.2 0.399999999998975 0 2 0.199999999999558 0 2.2 0.399999999998975 0 2 0.399999999998975 0 2 0.399999999998975 0 2 0.599999999998947 0 2.2 0.599999999998947 0 2 0.599999999998947 0 2.2 0.799999999999473 0 2 0.799999999999473 0 2 0.599999999998947 0 2.2 0.599999999998947 0 2.2 0.799999999999473 0 2.2 0.399999999998975 0 2.2 0.599999999998947 0 2.4 0.599999999998947 0 2.2 0.599999999998947 0 2.4 0.599999999998947 0 2.4 0.799999999999473 0 2.2 0.599999999998947 0 2.4 0.799999999999473 0 2.2 0.799999999999473 0 2.6 0.799999999999473 0 2.4 0.599999999998947 0 2.4 0.799999999999473 0 2.6 0.599999999998947 0 2.4 0.399999999998975 0 2.4 0.599999999998947 0 2.4 0.799999999999473 0 2.4 1 0 2.6 1 0 2.4 0.799999999999473 0 2.2 0.799999999999473 0 2.4 1 0 2.2 0.799999999999473 0 2.2 1 0 2.4 1 0 2.2 0.799999999999473 0 2 0.799999999999473 0 2.2 1 0 2 0.799999999999473 0 2 1 0 2.2 1 0 3.8 0.799999999999473 0 4 0.799999999999473 0 4 1 0 3.8 1 0 3.8 0.799999999999473 0 4 1 0 3.8 0.599999999998947 0 4 0.799999999999473 0 4 0.599999999998947 0 3.8 0.799999999999473 0 3.8 0.599999999998947 0 4 0.799999999999473 0 3.8 0.599999999998947 0 3.8 0.399999999998975 0 4 0.599999999998947 0 3.8 0.599999999998947 0 3.6 0.599999999998947 0 3.6 0.399999999998975 0 3.8 0.799999999999473 0 3.8 0.599999999998947 0 3.6 0.599999999998947 0 3.8 0.799999999999473 0 3.6 0.599999999998947 0 3.6 0.799999999999473 0 3.6 0.599999999998947 0 3.6 0.799999999999473 0 3.4 0.5999999999989
[...]
<PointData Scalars="conc_conc," Vectors="" Tensors="">
<DataArray type="Float64" Name="conc_conc" format="ascii">
-0.0491656827124418 -0.049165682712442 0.0805338088071911 -0.0840336014425938 0.0987294925275458 0.124341705662651 -0.0489992876321597 -0.0489992876321597 0.0807217676369771 -0.0835867558153341 0.124201175523336 0.0988150892737101 -0.0833997804283602 0.124260615982969 0.0989470774951213 0.199909523104166 0.249008250463092 0.273046168483864 0.143679841236075 0.126842982522583 0.29553552356745 0.199872239303573 0.273624229624947 0.249527479657742 0.286831405668131 0.25972443796243 0.146278854135431 0.200156428144399 0.275033092298586 0.250649318506296 0.12678247451208 0.143775479222201 0.296915707274087 0.288445394507959 0.260916141088332 0.147602334583896 0.265072347147006 0.120895621457015 0.139306455976218 0.103715128179301 0.0328566425232913 0.0251938553569101 0.117274930792103 0.126122399391866 0.0191513797272259 0.263754176731565 0.120173212678602 0.138097976185317 0.26310852955743 0.119767385461106 0.137454036790651 0.102591341339404 0.032466300444283 0.0246881317973398 0.102996195998587 0.024879198361606 0.0326081973016096 0.116509414330836 0.124998464779308 0.0188232434751525 0.0212061865210565 0.0288609339058 -0.00213930429346259 0.0236406733196839 0.00687794520860907 0.00123840725256957 0.023761901189349 0.00691499939081978 0.00126124575999605 0.0239726517293529 0.00129143953956923 0.00698188720888723 0.0291049089922017 0.0214712248491094 -0.00212592015315465 0.028474126428756 0.0204766557312294 -0.00228086671401333 0.0234299780789277 0.00111349083675704 0.0068462929882483 0.0235438042278822 0.00685580908052273 0.00120089212880071 0.0287208871781476 0.0210431802363326 -0.00215366418923254 0.0208532455237082 0.0286081107599061 -0.00218794224945242 0.0244677002467363 0.0323573199511651 0.102222267561142 0.0183908793608077 0.115690309782454 0.123744084262333 0.116082544579271 0.0186228090295929 0.124386634834608 0.119392415044469 0.136783288283032 0.262484102792103 0.11881231240378 0.261255006723784 0.135436920091697 0.0322445492939046 0.101657543747425 0.024029082999941 0.115076850027189 0.122470162792703 0.0179243413710756 0.257514798367534 0.283716849474743 0.143399912733811 0.247425833375838 0.199701095759627 0.270972127029317 0.14380690279025 0.127200371367293 0.292986835023304 0.25916631206569 0.145574236480682 0.286134396047578 0.14484599507329 0.285421987627615 0.25862797711041 0.272455228065325 0.248502101041275 0.19995625969867 0.294428485115493 0.1438796716306 0.127171321536333 0.143776530952566 0.294987207316618 0.127009807014515 0.12432512215449 -0.0832127178832612 0.0990735013166887 -0.0488930303688578 0.0810737289234407 -0.0488930169903975 -0.0489462187642582 0.0808977009179134 -0.0489463375967163 0.124203441516404 -0.0827602039551878 0.0991255043755495 -0.0487228610441048 -0.0487227993917374 0.0812562248624273 2.17765245447559e-06 7.19148808441088e-07 -8.61020019051446e-07 -3.82558241492739e-06 2.96636685620797e-06 -1.67197976910573e-06 -2.15376518995536e-05 -1.06881811744945e-05 2.06149719054703e-05 -5.36146677087388e-06 4.95154378413125e-06 1.52864798458726e-05 -3.03037088998653e-05 3.30387269193509e-05 0.000104660331586289 -3.00027244623644e-05 3.29479149099963e-05 0.000104648252620826 -1.06254924214012e-05 -2.13086427581114e-05 2.05832316783296e-05 -5.31912944235215e-06 1.52652906407529e-05 4.93462194216358e-06 -2.13076060694888e-05 -1.06453146897107e-05 2.06539235934193e-05 -3.79786852210448e-06 2.96868640023837e-06 -1.66632241799816e-06 -4.03634262083098e-06 2.94113879796196e-06 -1.70508198165322e-06 2.1525067714132e-06 7.1686883126019e-07 -8.85926834812133e-07 2.1797802773986e-06 7.1840275716134e-07 -8.56615602826778e-07 2.1981550883331e-06 7.24517589327658e-07 -8.63637042298392e-07 -3.8272542442903e-06 2.9935228474386e-06 -1.67995927770783e-06 2.23279518640537e-06 -8.77684523449047e-07 7.36265931975374e-07 -3.88738597117813e-06 3.04043745269576e-06 -1.70679765436165e-06 -5.45000650358105e-06 5.06702847338505e-06 1.56738045708506e-05 -1.08900394753558e-05 -2.17717488846722e-05 2.11277944171905e-05 -3.06543015515865e-05 3.37883886747413e-05 0.000107307521211516 -5.32539681065514e-06 4.94888052042419e-06 1.53190594904206e-05 -5.36644219562097e-06 4.98944153179808e-06 1.54428421136505e-05 -1.07273320027379e-05 2.08190092080402e-05 -2.14559431583322e-05 3.330095649094e-05 -3.02158332789135e-05 0.000105838143090082 -3.00079395210836e-05 3.30445318922783e-05 0.000105039011413141 -6.34946819299105e-05 -9.87068341090898e-05 0.00014069157372823 -0.000330035494014042 0.000909730622923395 -0.000254787228874657 -0.000140937437089805 0.000212574470547544 0.000698017185875958 0.000211062091971857 0.000693187698193542 -0.000140169600748337 -6.4380996238819e-05 0.000142619359803567 -9.99885145739798e-05 -0.000334008536454396 0.000920854170973842 -0.000256783499801694 0.000215419550835964 -0.000142723507417039 0.000706733758772083 0.00128679494869778 -0.000396723469182229 0.00436364993662641 -0.0013299322088455 0.00124754345173361 0.00552651523006828 0.00126384803150682 0.00429081697043255 -0.000393324180774584 0.00127189627391263 0.004317142816867 -0.000393712816457297 0.00546952527034851 -0.00131875351617216 0.00122257430014851 0.00543733437460729 0.00120359287330573 -0.00131412639283559 0.00427313298537829 0.0012599580812115 -0.000397490958170273 0.0054157327457058 0.00117260505253109 -0.00131662800367407 0.00110112244345631 -0.00133258009534621 0.00539909697182799 -0.000411616484649174 0.00425931307044876 0.00126051066530765 -0.000142554983759114 0.00068944612818017 0.000210809838627098 -0.000269356750842634 -0.000330612159980063 0.000898985413001372 -0.000100048849929151 -6.33806548175874e-05 0.000139181896648932 -6.29691516637662e-05 -9.84201988399743e-05 0.000139141554461229 -6.30542788308567e-05 0.000139645876851103 -9.81688903809504e-05 0.000903584065578735 -0.000254706112479631 -0.000328130631575786 0.00090013678816884 -0.000258144261952969 -0.000328001379140274 0.000690453138335924 -0.000140454581052289 0.000210432064421506 1.07001039066889e-09 -1.92034052420972e-09 -6.97111871014655e-10 7.69811515436209e-10 -3.72813882325459e-10 2.63988046507509e-10 -1.94562492838711e-09 -7.06788604619951e-10 1.08548317527271e-09 1.93509981193018e-09 -2.68540759577336e-09 5.6650755860649e-09 1.96408236073706e-09 5.7470887246075e-09 -2.72622508918572e-09 1.08605527387629e-09 -1.94970639510478e-09 -7.07825501209076e-10 7.81386935878322e-10 2.68057764425627e-10 -3.78624358819058e-10 6.15522516643258e-11 -1.16426873158337e-10 -4.10038803345741e-11 4.40891327098243e-11 1.51753136624502e-11 -2.20141587162802e-11 -2.48426419917646e-11 5.07405852112773e-11 1.73350755566039e-11 -1.30811412618249e-10 -4.64930665748812e-11 7.07720556061679e-11 -2.70232311693816e-10 -9.68459369004178e-11 1.47093386626222e-10 -5.19094695889372e-11 3.63207560308324e-11 1.05639716840966e-10 -5.24141490367418e-11 3.68812263293818e-11 1.07456194749476e-10 -9.79167264299675e-11 -2.71697694162002e-10 1.49512530553699e-10 3.75342025055053e-11 -5.33419116022449e-11 1.0934669923744e-10 -9.96439028619075e-11 -2.76473026207717e-10 1.52139607571355e-10 -3.8669707225066e-10 2.76155633068093e-10 8.07280249406755e-10 -7.24486420658878e-10 -1.97871903406665e-09 1.1208502846293e-09 -2.76740869177867e-09 2.01815618351922e-09 5.92907327706957e-09 -3.77942073937058e-10 2.67792026144791e-10 7.81016209320187e-10 -3.8002730929138e-10 2.71394145453318e-10 7.93474623487219e-10 -7.12047008501052e-10 1.1017114116054e-09 -1.94489934967227e-09 1.98376221139414e-09 -2.72020323098066e-09 5.82915070475787e-09 -2.72074478306109e-09 1.96237605350749e-09 5.74608130483413e-09 -5.11924181426466e-09 -1.36720747811519e-08 8.07055229663245e-09 -1.91227488429711e-08 1.43716287669447e-08 4.25361490210436e-08 -3.6226952850936e-08 5.86636723374917e-08 -9.36363939768366e-08 1.42622289067255e-08 4.20029017429921e-08 -1.92772032379195e-08 -5.20751164620003e-09 8.20861205952314e-09 -1.39064666775718e-08 -3.68408146647255e-08 5.96468100822359e-08 -9.52110412609643e-08 1.46168740441161e-08 -1.94496603790754e-08 4.32509560876066e-08 1.04594416057204e-07 -1.33188899592961e-07 3.12666964153525e-07 -2.54853946620105e-07 -6.27036368850699e-07 4.28900610587991e-07 1.02511050522578e-07 3.04410108580716e-07 -1.33506836882825e-07 1.02876097823386e-07 3.07634626453836e-07 -1.30994897331507e-07 4.22023141538524e-07 -2.50706978074959e-07 -6.16941827660772e-07 4.18560725370811e-07 -6.39269327903532e-07 -2.53900354360589e-07 4.13090107291061e-07 -2.51025166453943e-07 -6.33559160703354e-07 3.00355870482467e-07 1.01191652337325e-07 -1.3205334037955e-07 5.80295152515335e-08 -9.54873963220149e-08 -3.63672671285115e-08 4.14254967474126e-08 1.40703967257279e-08 -1.90432501375514e-08 5.7242003652837e-08 -3.59160072996801e-08 -9.44471337893598e-08 -5.03868477576259e-09 7.85471877354827e-09 -1.36194223016584e-08 -5.10589994354651e-09 7.96599106163347e-09 -1.37870016352811e-08 7.96798460463728e-09 -1.38208526462145e-08 -5.11380558231245e-09 1.42727924673965e-08 4.19944582251214e-08 -1.93224528335199e-08 5.80236171541831e-08 -9.57754026448256e-08 -3.64286959058157e-08 1.02565619211803e-07 3.04180766791571e-07 -1.33886697722416e-07 4.18300812034378e-07 -6.41762989619538e-07 -2.54379956830291e-07 1.86869552210914e-15 6.45553807604197e-16 -9.49894976469173e-16 -5.08283482982622e-15 2.61432257510355e-15 -1.76427636047218e-15 2.13246685713839e-15 -1.07941346285643e-15 7.35472584264917e-16 -5.77060568935948e-15 2.98272925444999e-15 -2.00685126432673e-15 -5.2901973975992e-15 2.7213945050299e-15 -1.83629341676921e-15 -1.37580340449944e-14 -3.9577981801413e-14 2.04153011119042e-14 -8.07927720586396e-15 5.5177468948143e-15 1.60125798251137e-14 -1.50301660388404e-14 2.23906294773038e-14 -4.31258739166895e-14 4.13700734912337e-14 -6.03836856474738e-14 1.20205293471911e-13 -3.80242132971295e-14 -1.32174439040137e-14 1.96097253395741e-14 -7.11459251331154e-15 4.84181635522909e-15 1.40198852991519e-14 -5.32225306322779e-14 3.62888181687952e-14 1.05123788661308e-13 -2.83995308408757e-13 -9.89110931445906e-14 1.46995063945794e-13 -2.11653119054728e-12 -7.39104785588811e-13 1.10097649586873e-12 -3.97500978454772e-13 2.71728260284447e-13 7.87667653941768e-13 -1.12429618193097e-13 -3.21654592815815e-13 1.68019686189178e-13 -1.02966228504773e-13 -2.95623550386054e-13 1.53056789121645e-13 -7.69497663443684e-13 -2.20340648184523e-12 1.14659973757151e-12 -4.50419528729978e-13 3.09931763009499e-13 9.02083287753065e-13 -8.39636934337931e-13 1.26025051367925e-12 -2.39266782821436e-12 6.76717480832869e-12 2.31952664340873e-12 -3.3510261982134e-12 -1.63759501953601e-11 8.58110177040942e-12 -5.73973055648726e-12 -1.77344624280363e-11 9.44745439068432e-12 -6.25701485230133e-12 8.23756560320584e-12 -1.57283743629049e-11 -5.51218976076746e-12 5.89639754163226e-12 -2.96241022729637e-12 2.03224148076266e-12 5.93763490784103e-12 -2.92139868160507e-12 2.0307332413311e-12 8.28603899601397e-12 -1.54294506734857e-11 -5.462688358626e-12 -1.50979036757248e-11 8.10740836926311e-12 -5.34493581265989e-12 6.14227208076722e-12 -3.08414827072554e-12 2.11633457949269e-12 5.80951548434107e-12 1.9868112811238e-12 -2.85834634244731e-12 1.08100606414914e-12 -2.04041202202623e-12 -7.17798402795338e-13 7.74000750564773e-13 -3.84650293889241e-13 2.65488130968988e-13 -4.13791185767974e-13 8.20304413184038e-13 2.82921682202845e-13 -2.74641154493464e-13 1.44076344292652e-13 -9.61706127164804e-14 -2.80725533790266e-13 1.47277401067316e-13 -9.83060269324112e-14 -2.08543855761434e-12 1.10493470878876e-12 -7.3368113884536e-13 7.91146529919599e-13 -3.93169542934633e-13 2.7138007173708e-13 1.05389614146576e-13 3.62284763479337e-14 -5.2758292227912e-14 1.96234196950018e-14 -3.7675415795372e-14 -1.31485828069321e-14 1.40360020503818e-14 4.83247245331143e-15 -7.06396449467232e-15 -5.53988099164368e-14 1.09458344852954e-13 3.77784042629547e-14 1.03097537130845e-13 3.54395042417749e-14 -5.16114675031111e-14 1.91956737691693e-14 -3.68563311637452e-14 -1.28621649005753e-14 1.37298798830827e-14 -6.91000171596065e-15 4.72696888185656e-15 -7.40499292979067e-15 1.4595773753544e-14 5.04000521079225e-15 -4.9350192207275e-15 2.55671544791683e-15 -1.7179318579126e-15 1.82810982252881e-15 6.30095529661256e-16 -9.23636622081803e-16 1.94522156158661e-15 6.71919883322155e-16 -9.88608667411585e-16 2.6138276932926e-15 -5.04499138454068e-15 -1.75627796951379e-15 1.86896691239339e-15 6.44189478506372e-16 -9.44262644136653e-16 2.48817820098889e-16 8.58307845232145e-17 -1.26067248528771e-16 3.480683138449e-16 -2.34350234321818e-16 -6.74426733041329e-16 3.40447616701795e-16 -6.59693961159033e-16 -2.29223487560646e-16 2.59133748745954e-16 8.9530429666312e-17 -1.31864605143148e-16 8.39494707809398e-17 2.43367708921942e-16 -1.23308313150717e-16 4.53235991927834e-17 -8.80753435205559e-17 -3.05618322257995e-17 3.2393424080421e-17 -1.64468901232766e-17 1.11805619798873e-17 3.45088446817558e-17 1.1924584880099e-17 -1.75765031187476e-17 -1.17478803602308e-17 6.03281610181626e-18 -4.0723654996201e-18 -1.20111808137752e-17 6.16832274976e-18 -4.16375249857363e-18 3.31201633448232e-17 -1.68155069954399e-17 1.14315390844338e-17 4.63399845697121e-17 -9.00460150080386e-17 -3.12465719574371e-17 6.63791388984261e-17 -1.25527564008701e-16 -4.40083114875414e-17 4.74907784318525e-17 1.62363320048899e-17 -2.35448613167084e-17 -2.36295443177936e-17 4.76623201271256e-17 1.62930210674456e-17 -1.25992369873349e-16 -4.41695281385363e-17 6.6621585611758e-17 3.62590730525554e-16 -7.06260439463589e-16 -2.4488718825914e-16 4.82921037182242e-17 -9.4202534823381e-17 -3.2637346051334e-17 6.42990375712356e-18 -1.25562803121811e-17 -4.3476371084908e-18 1.17157244709669e-18 -2.25232491845784e-18 -7.84379644840362e-19 6.31510299043813e-18 2.16513073880497e-18 -3.15574153430687e-18 -1.68594568755587e-17 8.83082049372184e-18 -5.88785707404346e-18 6.29366570389162e-18 2.15797806814765e-18 -3.14480462205491e-18 1.16776851438845e-18 -7.81734610514335e-19 -2.24450151697093e-18 8.80043335433774e-18 -5.86716402964933e-18 -1.67989892757744e-17 1.55055096965005e-19 -1.04110487324947e-19 -2.99528157589553e-19 8.34880213307014e-19 2.86878054669942e-19 -4.19575784590546e-19 1.10829501092836e-19 3.81427125448006e-20 -5.59335973824519e-20 -3.00535094044941e-19 1.55530553136563e-19 -1.04447295269458e-19 1.11163668390308e-19 3.82564360341216e-20 -5.61137593156967e-20 8.37557150551028e-19 -4.20981419604499e-19 2.87778526253071e-19 -1.67275562515468e-18 -5.78936632284553e-19 8.55912043712703e-19 -2.22757642204639e-19 1.13912842146893e-19 -7.7070172075507e-20 1.47622090519285e-20 5.08640285741076e-21 -7.47515671591555e-21 2.06573350237313e-20 -4.00660248713574e-20 -1.39035725721707e-20 1.47201909107509e-20 5.07193616642565e-21 -7.45203619910411e-21 2.05975499808629e-20 -1.38606244297562e-20 -3.99367894157884e-20 8.20941550698909e-19 -1.60103139836662e-18 -5.5459261873718e-19 5.86602179933721e-19 -2.98601918230203e-19 2.02611355778789e-19 4.40801976645824e-18 1.52207284342519e-18 -2.24137898002012e-18 4.31114582767598e-18 1.48860743487516e-18 -2.19217100011179e-18 4.59429344672104e-18 -2.34158064516141e-18 1.58772588643882e-18 -3.1182698897031e-19 6.11523619033671e-19 2.11348641289881e-19 5.73692575380684e-19 -2.92037219361621e-19 1.98150919329382e-19 8.02881253326393e-19 -1.5658820060732e-18 -5.42402783331922e-19 -2.08606908311145e-19 1.06839146079693e-19 -7.22190651984694e-20 8.13831089710026e-20 2.81281102254408e-20 -4.15133679156443e-20 7.63351097897559e-20 2.63713127067335e-20 -3.88893501878741e-20 -2.1329606771581e-19 1.09245366959749e-19 -7.38440584728915e-20 7.80550009610332e-20 2.69657257678679e-20 -3.97646407516443e-20 1.4536154455673e-20 -2.84047352134718e-20 -9.82979582564454e-21 1.03853706685274e-20 -5.29384277694427e-21 3.58837490410494e-21 1.38169838605584e-21 -7.04602165974322e-22 4.77455553618349e-22 -3.78152242573946e-21 1.93401472466981e-21 -1.30823599656562e-21 -5.03315620097481e-22 2.57299409868774e-22 -1.74084605784942e-22 2.51604864665815e-22 -4.92214053508533e-22 -1.70239421379767e-22 1.89130249009942e-21 -1.27938669524723e-21 -3.69819621664758e-21 1.35117029373088e-21 4.66897033879404e-22 -6.89058369353202e-22 4.98020589201704e-22 1.44085286428261e-21 -7.3530157043769e-22 3.74298882241087e-21 1.0829255236264e-20 -5.52540745034839e-21 1.01562285499305e-20 3.50916872305587e-21 -5.17717858738692e-21 1.42155668127397e-20 -9.61323589691979e-21 -2.77795339969112e-20 1.51584137220499e-20 -2.96553515667883e-20 -1.02576777848898e-20 2.74512248618328e-21 -5.33839574684505e-21 -1.85054267059714e-21 1.96150846131054e-21 6.76427277026927e-22 -9.95455473989381e-22 2.73713780946268e-21 -1.84487264166192e-21 -5.32143807140166e-21 1.95587174762019e-21 6.74476116114018e-22 -9.923961079843e-22 3.63816016215378e-22 -2.45509265908522e-22 -7.08725713206935e-22 2.59947721673455e-22 8.96977395807972e-23 -1.32115408491097e-22 4.83663749551116e-23 -3.26669660572753e-23 -9.43571920403378e-23 2.01691509100928e-21 -3.94708391104814e-21 -1.36502761730747e-21 3.64845196437883e-22 -7.10918805538375e-22 -2.46241810397432e-22 2.60673011524088e-22 -1.32509833335413e-22 8.99475789013122e-23 -9.46400782273024e-23 4.84978518997176e-23 -3.27611231079414e-23 2.68344441082133e-22 -5.25264197666236e-22 -1.81628267115061e-22 3.46478257259516e-23 1.19606860938499e-23 -1.76343972157314e-23 4.60572961469242e-24 -2.34630043445928e-24 1.59042148486472e-24 6.44721938273839e-24 -1.25953299226193e-23 -4.35811082173887e-24 -6.98906800040556e-23 -2.41646514944377e-23 3.56995549960228e-23 3.4555605781428e-23 1.19292066899217e-23 -1.7583950315415e-23 4.59424152163765e-24 1.58654239126358e-24 -2.33992246052996e-24 6.4307332130323e-24 -4.34614743149274e-24 -1.25590945479213e-23 8.55102291852531e-25 -1.67131768318296e-24 -5.78184760701404e-25 6.10878681235821e-25 2.11007634074587e-25 -3.11335338438488e-25 -9.29855708450098e-24 4.74905585779661e-24 -3.2147392687674e-24 -1.67590396587284e-24 8.57113243250766e-25 -5.79678947502855e-25 6.12414426514121e-25 2.11527074314766e-25 -3.12170711919998e-25 3.39249418316774e-24 1.1726136371431e-24 -1.73173381141169e-24 -1.47673997519623e-24 7.55418089554937e-25 -5.108419044141e-25 5.39656248302157e-25 -2.75078982295188e-25 1.86412300076411e-25 3.25278022663511e-24 -1.65994923235772e-24 1.12421702477529e-24 4.55337286793686e-24 -8.9122042157651e-24 -3.081647025049e-24 -2.31625601439127e-23 3.42286344529105e-23 -6.69781756478399e-23 8.45081462607339e-24 -1.24763221341412e-23 2.44522789010566e-23 1.83812964953938e-22 6.35219120999235e-23 -9.37637681748281e-23 3.0534184392629e-23 1.05392583870665e-23 -1.55372053838428e-23 1.9169752729114e-22 -9.78392204074594e-23 6.62597259901223e-23 -1.30170035303125e-23 8.81477745505702e-24 2.55022582358036e-23 -3.84005969569385e-24 5.68122604212505e-24 -1.10973765146625e-23 -2.06747524553905e-24 1.40163794846183e-24 4.0586868039273e-24 -2.89950101208268e-33 1.48040006159228e-33 -1.00222146667209e-33 1.05748453574179e-33 -5.39880283306694e-34 3.65506699238504e-34 1.05846356980996e-33 -5.40582335491992e-34 3.65858039403267e-34 -1.61240721275128e-32 8.23243680278349e-33 -5.57330825882789e-33 -2.90374842845554e-33 1.48185702909135e-33 -1.00349774270873e-33 -7.54596539948712e-33 1.11433979521645e-32 -2.18347390603373e-32 -4.06492544609361e-33 2.75112000602946e-33 7.95951358610025e-33 -4.19027418434427e-32 -1.21227926735819e-31 6.18954653957585e-32 2.06878462520714e-32 -3.05662717814339e-32 5.98542667031933e-32 2.066185985528e-32 -3.05177855481363e-32 5.97802602824969e-32 -7.53520301643544e-33 1.11306067980817e-32 -2.17996011887168e-32 -4.05907404447265e-33 2.74810265641005e-33 7.95087744235144e-33 9.62026315392728e-34 3.32504807142868e-34 -4.91096236551148e-34 1.34675077076528e-33 -2.63742266354116e-33 -9.11672908901406e-34 1.30805291917625e-33 -2.56191453445924e-33 -8.85532518220783e-34 9.34372898857459e-34 -4.7701908775859e-34 3.22952251173372e-34 5.88063751945748e-33 -3.00226088593028e-33 2.03259484362161e-3