<?xml version="1.0"?>
<VTKFile type="UnstructuredGrid" version="0.1" byte_order="LittleEndian">
<UnstructuredGrid>
<Piece NumberOfPoints="2400" NumberOfCells="800">
<Points>
<DataArray type="Float64" NumberOfComponents="3" format="ascii">
0 0 0 0 0.199999999999558 0 0.2 0.199999999999558 0 0 0 0 0.2 0.199999999999558 0 0.2 0 0 0.2 0 0 0.4 0.199999999999558 0 0.4 0 0 0.4 0 0 0.4 0.199999999999558 0 0.6 0.199999999999558 0 0.2 0 0 0.2 0.199999999999558 0 0.4 0.199999999999558 0 0.2 0.199999999999558 0 0.4 0.399999999998975 0 0.4 0.199999999999558 0 0.2 0.199999999999558 0 0.2 0.399999999998975 0 0.4 0.399999999998975 0 0.4 0.199999999999558 0 0.4 0.399999999998975 0 0.6 0.399999999998975 0 0.2 0.399999999998975 0 0.4 0.599999999998947 0 0.4 0.399999999998975 0 0 0.399999999998975 0 0.2 0.599999999998947 0 0.2 0.399999999998975 0 0 0.199999999999558 0 0.2 0.399999999998975 0 0.2 0.199999999999558 0 0 0.199999999999558 0 0 0.399999999998975 0 0.2 0.399999999998975 0 0 0.399999999998975 0 0 0.599999999998947 0 0.2 0.599999999998947 0 0 0.599999999998947 0 0.2 0.799999999999473 0 0.2 0.599999999998947 0 0 0.599999999998947 0 0 0.799999999999473 0 0.2 0.799999999999473 0 0 0.799999999999473 0 0 1 0 0.2 1 0 0 0.799999999999473 0 0.2 1 0 0.2 0.799999999999473 0 0.2 0.799999999999473 0 0.4 1 0 0.4 0.799999999999473 0 0.2 0.799999999999473 0 0.2 1 0 0.4 1 0 0.4 0.799999999999473 0 0.4 1 0 0.6 1 0 0.4 0.599999999998947 0 0.4 0.799999999999473 0 0.6 0.799999999999473 0 0.2 0.599999999998947 0 0.2 0.799999999999473 0 0.4 0.799999999999473 0 0.2 0.599999999998947 0 0.4 0.799999999999473 0 0.4 0.599999999998947 0 0.2 0.399999999998975 0 0.2 0.599999999998947 0 0.4 0.599999999998947 0 0.4 0.399999999998975 0 0.4 0.599999999998947 0 0.6 0.599999999998947 0 0.6 0.399999999998975 0 0.6 0.599999999998947 0 0.8 0.599999999998947 0 0.6 0.599999999998947 0 0.6 0.799999999999473 0 0.8 0.799999999999473 0 0.6 0.599999999998947 0 0.8 0.799999999999473 0 0.8 0.599999999998947 0 0.4 0.599999999998947 0 0.6 0.799999999999473 0 0.6 0.599999999998947 0 0.4 0.799999999999473 0 0.6 1 0 0.6 0.799999999999473 0 0.6 0.799999999999473 0 0.6 1 0 0.8 1 0 0.6 0.799999999999473 0 0.8 1 0 0.8 0.799999999999473 0 0.8 0.799999999999473 0 0.8 1 0 1 1 0 0.8 0.799999999999473 0 1 1 0 1 0.799999999999473 0 0.8 0.599999999998947 0 1 0.799999999999473 0 1 0.599999999998947 0 0.8 0.599999999998947 0 0.8 0.799999999999473 0 1 0.799999999999473 0 0.8 0.399999999998975 0 0.8 0.599999999998947 0 1 0.599999999998947 0 0.8 0.399999999998975 0 1 0.599999999998947 0 1 0.399999999998975 0 0.8 0.199999999999558 0 1 0.399999999998975 0 1 0.199999999999558 0 0.8 0.199999999999558 0 0.8 0.399999999998975 0 1 0.399999999998975 0 0.6 0.399999999998975 0 0.8 0.599999999998947 0 0.8 0.399999999998975 0 0.4 0.399999999998975 0 0.6 0.599999999998947 0 0.6 0.399999999998975 0 0.4 0.199999999999558 0 0.6 0.399999999998975 0 0.6 0.199999999999558 0 0.6 0.199999999999558 0 0.8 0.399999999998975 0 0.8 0.199999999999558 0 0.6 0.199999999999558 0 0.6 0.399999999998975 0 0.8 0.399999999998975 0 0.6 0 0 0.6 0.199999999999558 0 0.8 0.199999999999558 0 0.4 0 0 0.6 0.199999999999558 0 0.6 0 0 0.6 0 0 0.8 0.199999999999558 0 0.8 0 0 0.8 0 0 0.8 0.199999999999558 0 1 0.199999999999558 0 0.8 0 0 1 0.199999999999558 0 1 0 0 1 0 0 1.2 0.199999999999558 0 1.2 0 0 1 0 0 1 0.199999999999558 0 1.2 0.199999999999558 0 1 0.199999999999558 0 1 0.399999999998975 0 1.2 0.399999999998975 0 1 0.399999999998975 0 1.2 0.599999999998947 0 1.2 0.399999999998975 0 1 0.199999999999558 0 1.2 0.399999999998975 0 1.2 0.199999999999558 0 1.2 0.199999999999558 0 1.4 0.399999999998975 0 1.4 0.199999999999558 0 1.2 0.199999999999558 0 1.2 0.399999999998975 0 1.4 0.399999999998975 0 1.2 0.399999999998975 0 1.4 0.599999999998947 0 1.4 0.399999999998975 0 1.4 0.199999999999558 0 1.4 0.399999999998975 0 1.6 0.399999999998975 0 1.4 0 0 1.4 0.199999999999558 0 1.6 0.199999999999558 0 1.2 0 0 1.2 0.199999999999558 0 1.4 0.199999999999558 0 1.2 0 0 1.4 0.199999999999558 0 1.4 0 0 1.4 0 0 1.6 0.199999999999558 0 1.6 0 0 1.6 0 0 1.6 0.199999999999558 0 1.8 0.199999999999558 0 1.6 0 0 1.8 0.199999999999558 0 1.8 0 0 1.8 0 0 2 0.199999999999558 0 2 0 0 1.8 0 0 1.8 0.199999999999558 0 2 0.199999999999558 0 1.8 0.199999999999558 0 1.8 0.399999999998975 0 2 0.399999999998975 0 1.8 0.199999999999558 0 2 0.399999999998975 0 2 0.199999999999558 0 1.8 0.399999999998975 0 2 0.599999999998947 0 2 0.399999999998975 0 1.6 0.399999999998975 0 1.8 0.599999999998947 0 1.8 0.399999999998975 0 1.6 0.199999999999558 0 1.6 0.399999999998975 0 1.8 0.399999999998975 0 1.6 0.199999999999558 0 1.8 0.399999999998975 0 1.8 0.199999999999558 0 1.4 0.199999999999558 0 1.6 0.399999999998975 0 1.6 0.199999999999558 0 1.4 0.399999999998975 0 1.6 0.599999999998947 0 1.6 0.399999999998975 0 1.4 0.599999999998947 0 1.6 0.799999999999473 0 1.6 0.599999999998947 0 1.6 0.599999999998947 0 1.6 0.799999999999473 0 1.8 0.799999999999473 0 1.6 0.599999999998947 0 1.8 0.799999999999473 0 1.8 0.599999999998947 0 1.6 0.399999999998975 0 1.6 0.599999999998947 0 1.8 0.599999999998947 0 1.8 0.399999999998975 0 1.8 0.599999999998947 0 2 0.599999999998947 0 1.8 0.599999999998947 0 2 0.799999999999473 0 2 0.599999999998947 0 1.8 0.599999999998947 0 1.8 0.799999999999473 0 2 0.799999999999473 0 1.8 0.799999999999473 0 2 1 0 2 0.799999999999473 0 1.8 0.799999999999473 0 1.8 1 0 2 1 0 1.6 0.799999999999473 0 1.6 1 0 1.8 1 0 1.6 0.799999999999473 0 1.8 1 0 1.8 0.799999999999473 0 1.4 0.799999999999473 0 1.6 1 0 1.6 0.799999999999473 0 1.4 0.799999999999473 0 1.4 1 0 1.6 1 0 1.2 0.799999999999473 0 1.2 1 0 1.4 1 0 1.2 0.799999999999473 0 1.4 1 0 1.4 0.799999999999473 0 1.4 0.599999999998947 0 1.4 0.799999999999473 0 1.6 0.799999999999473 0 1.4 0.399999999998975 0 1.4 0.599999999998947 0 1.6 0.599999999998947 0 1.2 0.399999999998975 0 1.2 0.599999999998947 0 1.4 0.599999999998947 0 1.2 0.599999999998947 0 1.2 0.799999999999473 0 1.4 0.799999999999473 0 1.2 0.599999999998947 0 1.4 0.799999999999473 0 1.4 0.599999999998947 0 1 0.599999999998947 0 1.2 0.799999999999473 0 1.2 0.599999999998947 0 1 0.399999999998975 0 1 0.599999999998947 0 1.2 0.599999999998947 0 1 0.599999999998947 0 1 0.799999999999473 0 1.2 0.799999999999473 0 1 0.799999999999473 0 1.2 1 0 1.2 0.799999999999473 0 1 0.799999999999473 0 1 1 0 1.2 1 0 2.8 0.799999999999473 0 2.8 1 0 3 1 0 2.8 0.799999999999473 0 3 1 0 3 0.799999999999473 0 2.8 0.599999999998947 0 3 0.799999999999473 0 3 0.599999999998947 0 2.8 0.399999999998975 0 2.8 0.599999999998947 0 3 0.599999999998947 0 2.8 0.599999999998947 0 2.8 0.799999999999473 0 3 0.799999999999473 0 2.6 0.599999999998947 0 2.6 0.799999999999473 0 2.8 0.799999999999473 0 2.6 0.599999999998947 0 2.8 0.799999999999473 0 2.8 0.599999999998947 0 2.6 0.399999999998975 0 2.6 0.599999999998947 0 2.8 0.599999999998947 0 2.4 0.599999999998947 0 2.6 0.799999999999473 0 2.6 0.599999999998947 0 2.4 0.799999999999473 0 2.6 1 0 2.6 0.799999999999473 0 2.6 0.799999999999473 0 2.8 1 0 2.8 0.799999999999473 0 2.6 0.799999999999473 0 2.6 1 0 2.8 1 0 2.4 0.799999999999473 0 2.4 1 0 2.6 1 0 2.2 0.799999999999473 0 2.4 1 0 2.4 0.799999999999473 0 2.2 0.799999999999473 0 2.2 1 0 2.4 1 0 2 0.799999999999473 0 2 1 0 2.2 1 0 2 0.799999999999473 0 2.2 1 0 2.2 0.799999999999473 0 2 0.599999999998947 0 2.2 0.799999999999473 0 2.2 0.599999999998947 0 2 0.599999999998947 0 2 0.799999999999473 0 2.2 0.799999999999473 0 2 0.399999999998975 0 2 0.599999999998947 0 2.2 0.599999999998947 0 2.2 0.399999999998975 0 2.2 0.599999999998947 0 2.4 0.599999999998947 0 2.2 0.599999999998947 0 2.4 0.799999999999473 0 2.4 0.599999999998947 0 2.2 0.599999999998947 0 2.2 0.799999999999473 0 2.4 0.799999999999473 0 2.4 0.599999999998947 0 2.4 0.799999999999473 0 2.6 0.799999999999473 0 2.4 0.399999999998975 0 2.4 0.599999999998947 0 2.6 0.599999999998947 0 2.4 0.199999999999558 0 2.4 0.399999999998975 0 2.6 0.399999999998975 0 2.2 0.199999999999558 0 2.4 0.399999999998975 0 2.4 0.199999999999558 0 2.2 0.199999999999558 0 2.2 0.399999999998975 0 2.4 0.399999999998975 0 2.2 0.399999999998975 0 2.4 0.599999999998947 0 2.4 0.399999999998975 0 2 0.399999999998975 0 2.2 0.599999999998947 0 2.2 0.399999999998975 0 2 0.199999999999558 0 2 0.399999999998975 0 2.2 0.399999999998975 0 2 0.199999999999558 0 2.2 0.399999999998975 0 2.2 0.199999999999558 0 2 0 0 2 0.199999999999558 0 2.2 0.199999999999558 0 2 0 0 2.2 0.199999999999558 0 2.2 0 0 2.2 0 0 2.4 0.199999999999558 0 2.4 0 0 2.2 0 0 2.2 0.199999999999558 0 2.4 0.199999999999558 0 2.4 0 0 2.4 0.199999999999558 0 2.6 0.199999999999558 0 2.4 0 0 2.6 0.199999999999558 0 2.6 0 0 2.6 0 0 2.8 0.199999999999558 0 2.8 0 0 2.6 0 0 2.6 0.199999999999558 0 2.8 0.199999999999558 0 2.4 0.199999999999558 0 2.6 0.399999999998975 0 2.6 0.199999999999558 0 2.4 0.399999999998975 0 2.6 0.599999999998947 0 2.6 0.399999999998975 0 2.6 0.399999999998975 0 2.8 0.599999999998947 0 2.8 0.399999999998975 0 2.6 0.199999999999558 0 2.6 0.399999999998975 0 2.8 0.399999999998975 0 2.6 0.199999999999558 0 2.8 0.399999999998975 0 2.8 0.199999999999558 0 2.8 0.199999999999558 0 2.8 0.399999999998975 0 3 0.399999999998975 0 2.8 0.399999999998975 0 3 0.599999999998947 0 3 0.399999999998975 0 2.8 0.199999999999558 0 3 0.399999999998975 0 3 0.199999999999558 0 2.8 0 0 2.8 0.199999999999558 0 3 0.199999999999558 0 2.8 0 0 3 0.199999999999558 0 3 0 0 3 0 0 3 0.199999999999558 0 3.2 0.199999999999558 0 3 0 0 3.2 0.199999999999558 0 3.2 0 0 3.2 0 0 3.4 0.199999999999558 0 3.4 0 0 3.4 0 0 3.4 0.199999999999558 0 3.6 0.199999999999558 0 3.2 0 0 3.2 0.199999999999558 0 3.4 0.199999999999558 0 3.2 0.199999999999558 0 3.2 0.399999999998975 0 3.4 0.399999999998975 0 3.2 0.199999999999558 0 3.4 0.399999999998975 0 3.4 0.199999999999558 0 3.4 0.199999999999558 0 3.4 0.399999999998975 0 3.6 0.399999999998975 0 3.2 0.399999999998975 0 3.4 0.599999999998947 0 3.4 0.399999999998975 0 3 0.399999999998975 0 3.2 0.599999999998947 0 3.2 0
[...]
<PointData Scalars="conc_conc," Vectors="" Tensors="">
<DataArray type="Float64" Name="conc_conc" format="ascii">
-0.0117692933595897 -0.0117692933595898 -0.00668453891793758 -0.0310951577972559 0.00053883761442868 0.00384922463126584 -0.00379224963361847 0.120483052577715 0.13601995920337 0.145622628495026 0.137080647214999 0.213879073271464 -0.00209642853909741 -0.00906701834293079 0.116886198509295 -0.00353039812786443 0.120254262314641 0.135667547335433 -0.0019405199085554 -0.0088704960813897 0.116722800812328 0.145280990612568 0.13678847086408 0.212821068416232 -0.00335727110459557 0.12025015144996 0.1355953846171 -0.0311099726261903 0.000706156290105871 0.00401833954796414 -0.0310843269454934 0.000645558762175762 0.00394690934518212 -0.0117913492137453 -0.0117913453449633 -0.00657838528152954 -0.0118146024082437 -0.0118146023140974 -0.0065232801049536 -0.0311354982939226 0.00076626414375973 0.0040905808844916 -0.0118378261851331 -0.0118378260906457 -0.00646793599088945 -0.011859056577411 -0.011859056577411 -0.00636070510940781 -0.0311223934387875 0.000870025082602072 0.00419179037706372 -0.00290014369242119 0.11995817272147 0.135215086881302 -0.0015669282575452 -0.00847196271218351 0.116584019871027 0.144870532840214 0.136400027452788 0.210794409475122 0.145168791821542 0.136744974565229 0.21192825680307 -0.00173334769120484 -0.00866342535998491 0.116775202632053 -0.00317973415637578 0.120235018489849 0.135534068329083 -0.00183813943400504 -0.00876647732095918 0.116751655420173 0.145218445773136 0.13677266787898 0.21238248792067 0.19432117530416 0.209446864287009 0.136440919078445 0.193938996256462 0.208928970372572 0.135896690646051 0.199536001355619 0.130788379911187 0.117217813367655 0.171118894382012 0.20146506846108 0.188244916988549 0.170722838541566 0.200320351585095 0.187470301813263 0.19314780556522 0.20768222097973 0.134763497640582 0.198677274546546 0.129700931875857 0.116683805014329 0.115997720135359 0.124724723304245 0.0453521542532936 0.10991485709535 0.0472023232184598 0.0480193810361121 0.110464605171846 0.0477439110975217 0.0482187894043783 0.11655668145675 0.125795080894482 0.0459223371035998 0.116887275740735 0.126312030645319 0.0462038621431769 0.11079369908355 0.0480124708357285 0.0483639531344329 0.11115038507154 0.048257739914422 0.0485349373043387 0.117245275183983 0.126803838268025 0.0464606455874178 0.199963488014578 0.131307693667776 0.117536043991216 0.171208469768473 0.201927496702169 0.188614113055099 0.171312358588772 0.202372193688746 0.189001290987724 0.200413174685093 0.131803200646199 0.117880494458656 0.194724483122922 0.209945522144278 0.136962743021981 0.195600670210982 0.211094896673481 0.137987164210026 0.171756772665715 0.203428917545067 0.189845292447811 0.201362888230962 0.13277530419157 0.118529068930092 0.117920782838967 0.12775509823005 0.0469209613712547 0.111816699565867 0.0486979261932998 0.048842047987215 0.042007023996834 0.0118842387655521 0.0159465172295403 0.0466693891486275 0.0449253387889996 0.00944922768942639 0.0463568338403417 0.0445199075410153 0.00932584535561583 0.0415540502094946 0.0116822572832467 0.0157702670703009 0.0417164490552235 0.0117575783275133 0.0158335974039346 0.012494693962245 0.00195518373996706 0.00448689216280428 0.0143895997790737 0.0107182547653849 0.000714162876887347 0.0124396116131321 0.00193891215769434 0.00446710502155117 0.00386017256522151 0.00183597439261943 -0.000302210140721731 0.00389242460365779 0.00185846671118026 -0.000302175002282851 0.0144988679081801 0.0108315075416649 0.00073358492914841 0.0125920959890494 0.0019803666861163 0.0045224819552608 0.00329204468772233 0.000153096626492733 0.00116943354519236 0.000952983450161438 0.000180108326111836 -0.00017960727067113 0.000789421929875583 -4.1434875805483e-05 0.00028347242394655 0.00017887113907107 -2.50770608018742e-05 6.55341107545786e-05 0.000219585059406272 -2.05311228146489e-05 -6.2376731580787e-05 0.000217491953915833 -2.05292082510874e-05 -6.18268203113841e-05 0.000177147048953685 -2.48617163405273e-05 6.48882808968986e-05 0.000176193699752173 -2.47901679880519e-05 6.45424964253455e-05 0.000778237686586391 -4.14307311229143e-05 0.000279417600148714 0.000944453047438919 0.000177214488770623 -0.000178377669817087 0.000782247657523514 -4.13050354913742e-05 0.000280841275739857 0.00326421100991977 0.000150064254272854 0.0011593588081184 0.00324851326281106 0.000147647768057752 0.00115383483460976 0.00323706420475598 0.000142740191471664 0.00115066059563966 0.000936606587635191 0.000170715110836841 -0.000178676135185503 0.000775587568360779 -4.23348280004451e-05 0.000278692962387083 0.000939699353351038 0.000174979158847911 -0.000177938146587529 0.00021633846226271 -2.06934024969999e-05 -6.15832930507624e-05 0.000175623092842063 -2.49359751204796e-05 6.43841597690877e-05 0.000215661508351057 -2.14789867186604e-05 -6.16775679662777e-05 0.000175333255915201 -2.55462575338356e-05 6.44398579097914e-05 0.000215358484221969 -2.38596411491982e-05 -6.24108637161801e-05 0.000934379948321384 0.000159956647639234 -0.000181966872847233 0.000773559955311876 -4.51907318463871e-05 0.000278700488191582 0.00322553958841896 0.000130042675826735 0.00114955172742455 0.00381613185337686 0.001756211220089 -0.000321677495129159 0.0142190312239927 0.0104036731827091 0.00062205144997396 0.0123412162503988 0.00186379294999536 0.0044448764597588 0.00382893541527218 0.00180120703372392 -0.000307582198445636 0.00384203063484916 0.00182144635053676 -0.000303089815802372 0.0143279742411975 0.0106505800909032 0.000700793289063757 0.0142788640310827 0.0105698521934065 0.000678195205408045 0.0123955096445997 0.0019158375312656 0.00445411386634766 0.0414130370477713 0.0115921345108628 0.0157226136531233 0.0461829105508749 0.044292109397368 0.00925181623144531 0.0460319419253594 0.0440421639353008 0.00915964956126173 0.0412093000710785 0.0114050501048087 0.0156722901185099 0.0458133861430716 0.0435415728492335 0.00896125764601432 9.04839928162807e-08 -1.00318474121612e-07 -5.23513872920704e-08 7.02084247067225e-08 -2.97615971218079e-08 2.83166292060337e-08 7.00701773346809e-08 -2.95620649850964e-08 2.82262772030925e-08 9.05078764433024e-08 -9.95548726585329e-08 -5.21270537191249e-08 9.02917767392546e-08 -9.95191100733677e-08 -5.20626609215982e-08 4.42954114345303e-07 -4.25656024396784e-07 -2.38604495709369e-07 3.459123099432e-07 -1.32901067502889e-07 1.37434377778823e-07 4.44064806117794e-07 -4.25557588156336e-07 -2.38851299520394e-07 1.68813272295314e-06 -5.71306615536833e-07 6.59660817665178e-07 1.68951941890036e-06 -5.76419770609703e-07 6.61348606984909e-07 3.46412135583446e-07 -1.33914103313523e-07 1.37835179598362e-07 4.43673808806916e-07 -4.29724415109154e-07 -2.40027216797337e-07 2.14746998947548e-06 -1.71879238373481e-06 -1.06262919030141e-06 8.11802780127122e-06 -2.32607215775191e-06 3.11740772617674e-06 1.02232496171464e-05 -6.14875218578445e-06 -4.48342913416368e-06 4.76199888356485e-05 -1.76585419802924e-05 -1.76512748029971e-05 3.82422472016094e-05 -8.4752592558793e-06 1.43729742597149e-05 3.8270395380124e-05 -8.34900945316091e-06 1.4350667451798e-05 4.76435879341775e-05 -1.71568433235602e-05 -1.74929417617973e-05 4.77847368219125e-05 -1.70286737022793e-05 -1.74868841444624e-05 1.02485312414265e-05 -6.02805793985313e-06 -4.45143310849976e-06 8.11726842851281e-06 -2.30049344279343e-06 3.11083855639217e-06 1.02199886607859e-05 -6.0462248899942e-06 -4.44999758397576e-06 2.14526903634451e-06 -1.69824289901778e-06 -1.05568665195498e-06 2.15093258516603e-06 -1.69620696364128e-06 -1.05647503180153e-06 2.16362966915821e-06 -1.70465365713646e-06 -1.06231619314471e-06 8.18790295241201e-06 -2.3099795186996e-06 3.13581545088598e-06 1.0307406060488e-05 -6.05351327771813e-06 -4.47455166857639e-06 8.14069463707325e-06 -2.29847028313898e-06 3.11782631608401e-06 3.83876988745192e-05 -8.32901380311579e-06 1.43842673249398e-05 4.8050260514698e-05 -1.70716812379006e-05 -1.75693090778703e-05 3.86035289627362e-05 -8.36493811228412e-06 1.44645399909665e-05 4.85371387826482e-05 -1.7219985006544e-05 -1.77439371108519e-05 3.89978851826462e-05 -8.44915407766963e-06 1.46155999495874e-05 8.2749195341183e-06 -2.33488839331703e-06 3.16983653818867e-06 1.04163033009692e-05 -6.115093047817e-06 -4.52199664478123e-06 2.18727630455333e-06 -1.72319540069291e-06 -1.07407169153711e-06 1.72148616656571e-06 -5.80842638575481e-07 6.72449337395244e-07 3.52842377954603e-07 -1.35272129903549e-07 1.40146989876672e-07 4.51763913586665e-07 -4.32706171006962e-07 -2.4297079114748e-07 1.70292568078285e-06 -5.74437455783244e-07 6.65075217673461e-07 1.6927305676938e-06 -5.71286089026027e-07 6.61093422527793e-07 3.46804314745464e-07 -1.32966082688281e-07 1.37724460370873e-07 4.46790676603818e-07 -4.27904991907605e-07 -2.40256842282515e-07 3.48947483516853e-07 -1.33743305801832e-07 1.38576760803701e-07 9.10763338205166e-08 -1.00137484720714e-07 -5.24452810830843e-08 7.02421364168249e-08 -2.95869824136651e-08 2.82845113649206e-08 7.06857017997165e-08 -2.97671060183419e-08 2.84635036707785e-08 9.21107101090797e-08 -1.01287715938077e-07 -5.30496631344345e-08 7.14901370418303e-08 -3.01135012201776e-08 2.87916961052067e-08 1.85878000751006e-08 -2.26155300535293e-08 -1.12787845949593e-08 1.43524214913397e-08 -6.48915083849587e-09 5.84586935387702e-09 2.86001108882119e-09 -1.36481471578825e-09 1.17552571166306e-09 7.39216406814623e-10 -1.02804958977666e-09 -4.81686612437954e-10 3.71964995082508e-09 -4.88234209203831e-09 -2.34950179489713e-09 3.67662735011012e-09 -4.82525864942192e-09 -2.32200623801618e-09 2.82689225140537e-09 -1.34873921834394e-09 1.16178396061448e-09 7.32073449932535e-10 -1.01441041145518e-09 -4.79447487382201e-10 2.80854681755725e-09 -1.34013491965316e-09 1.15422269952795e-09 1.40977008748248e-08 -6.37351627282678e-09 5.74127649786537e-09 1.41883548834321e-08 -6.41350412110863e-09 5.77830132327965e-09 1.83756347270346e-08 -2.23544057953361e-08 -1.11483273600135e-08 1.82587464861199e-08 -2.22189370659336e-08 -1.10787784063695e-08 1.40646598673035e-08 -6.36656841869421e-09 5.72967748535655e-09 1.82168811755811e-08 -2.22022510998813e-08 -1.10634605220545e-08 1.82632198213199e-08 -2.23585491108135e-08 -1.11215387852059e-08 1.40985735177567e-08 -6.4057024901099e-09 5.74931809313766e-09 2.80998136727577e-09 -1.34608399228717e-09 1.15608371913985e-09 3.65527870012811e-09 -4.82068191605269e-09 -2.31535441472785e-09 7.26513247637785e-10 -1.01411427415224e-09 -4.74465403641775e-10 7.24222540070506e-10 -1.00818982889359e-09 -4.72162599025026e-10 2.80221069005659e-09 -1.33843255193914e-09 1.15192553766542e-09 3.64476672915151e-09 -4.790218400601e-09 -2.30375535438226e-09 3.65285258023331e-09 -4.79512854174863e-09 -2.30719686106514e-09 7.25782011278786e-10 -1.00942224246014e-09 -4.72906976436434e-10 1.4338114592482e-10 -2.08510300249556e-10 -9.57203192773436e-11 1.09321886536161e-10 -5.61958481346308e-11 4.55215276906356e-11 1.43082448275415e-10 -2.08224270140472e-10 -9.55637296174807e-11 5.5490663404319e-10 -2.76229493972683e-10 2.29753532261624e-10 5.56600083934199e-10 -2.77722816272351e-10 2.30613942537495e-10 1.4356560201259e-10 -2.09375574217649e-10 -9.60183666476337e-11 1.09682690283722e-10 -5.64863585816414e-11 4.56974258642042e-11 2.82321745756951e-11 -4.2603677049127e-11 -1.92376542853118e-11 2.15199332307707e-11 -1.13598384359702e-11 9.00506106627297e-12 2.14448484971817e-11 -1.13034209649168e-11 8.96953157970891e-12 2.81319219765532e-11 -4.23805657112281e-11 -1.91482850022023e-11 2.81895570090904e-11 -4.24433781878123e-11 -1.91805997569356e-11 2.14892930879226e-11 -1.13213499328397e-11 8.98685608076559e-12 2.17768011642034e-11 -1.14894254616729e-11 9.11213426589209e-12 2.85671386512648e-11 -4.30712572619455e-11 -1.94579967735209e-11 1.09553271382102e-10 -5.62807197502713e-11 4.56100557033892e-11 5.5611068036747e-10 -2.76619013516263e-10 2.30203900202077e-10 5.62996260621589e-10 -2.80598755599766e-10 2.33226408186708e-10 1.45235880148901e-10 -2.11547280313869e-10 -9.70783123499651e-11 1.10968811966376e-10 -5.71052041910385e-11 4.62291210392538e-11 1.46062039523997e-10 -2.12401982564293e-10 -9.75151739485064e-11 5.66421524258567e-10 -2.81773336976729e-10 2.34498465705259e-10 1.11604461756865e-10 -5.73393163964916e-11 4.64685350784778e-11 2.87211083577472e-11 -4.32427927555924e-11 -1.9543206905294e-11 2.18949676648163e-11 -1.15359454472977e-11 9.15727764634806e-12 4.27969485614597e-12 -2.29986249592671e-12 1.7961969594709e-12 5.62456734318605e-12 -8.70244405834754e-12 -3.88491366101384e-12 5.59581478737093e-12 -8.66816590901438e-12 -3.86832143447475e-12 4.19735102730483e-12 -2.25518600381561e-12 1.76133360189327e-12 4.25767922131328e-12 -2.29065646709447e-12 1.78766614107673e-12 1.09228195875072e-12 -1.72845320597509e-12 -7.63945023612235e-13 8.29802817172001e-13 -4.53351873045702e-13 3.49334551873504e-13 8.17668022322044e-13 -4.46226822633324e-13 3.44062282355708e-13 2.12573181403374e-13 -3.42113262104551e-13 -1.50052721274698e-13 2.13584690017903e-13 -3.43460493717217e-13 -1.50678356182236e-13 1.0976667867746e-12 -1.73526792814683e-12 -7.67169635441118e-13 8.33917154357563e-13 -4.55165151673761e-13 3.50949966260748e-13 1.62058509347126e-13 -8.95482016885897e-14 6.83453122535997e-14 4.14549570304286e-14 -6.75748529453083e-14 -2.94631251200531e-14 3.14214323700521e-14 -1.75323718509683e-14 1.32729601243799e-14 6.08031967411238e-15 -3.41900613926609e-15 2.57163331657152e-15 8.02876722990713e-15 -1.32304449766248e-14 -5.74001809629467e-15 7.99277024690095e-15 -1.31785015481433e-14 -5.71657620875622e-15 6.05294659364166e-15 -3.40544892127697e-15 2.56054113890992e-15 5.45112698862892e-15 -3.0791282865783e-15 2.30661015798642e-15 3.07971892673077e-14 -1.71822721087707e-14 1.30079377380967e-14 3.12763575840248e-14 -1.7462822553323e-14 1.32146910181442e-14 4.12644686936519e-14 -6.73097710380149e-14 -2.93419900231106e-14 1.6128703596094e-13 -8.91924301821546e-14 6.80388348207028e-14 1.5886739930063e-13 -8.77735747127729e-14 6.69913313887752e-14 1.58688771372847e-13 -8.77046279360089e-14 6.69259416573564e-14 4.05914847054409e-14 -6.61836239656411e-14 -2.88532444583566e-14 3.0798475936118e-14 -1.71375943946798e-14 1.29223474447606e-14 4.06323147351966e-14 -6.62337792257367e-14 -2.88764333245206e-14 7.20234232231278e-15 -1.19495847922487e-14 -5.16715498401475e-15 5.91328208397652e-15 -3.33700350821766e-15 2.50342542155845e-15 7.80999658036096e-15 -1.29230367575669e-14 -5.59857888950949e-15 5.97746171036017e-15 -3.36329131644744e-15 2.5285733002165e-15 7.89326779886011e-15 -1.30169016325682e-14 -5.64582475942037e-15 4.07548033071537e-14 -6.64952437140778e-14 -2.89825252081879e-14 3.08892281799681e-14 -1.72489008186194e-14 1.30509939867551e-14 1.59308877453694e-13 -8.8114356647969e-14 6.72038624203614e-14 2.09973266471758e-13 -3.3804326634973e-13 -1.48238497596667e-13 1.07907823569783e-12 -1.70834347734656e-12 -7.54860889874318e-13 8.19735593610345e-13 -4.47965670610125e-13 3.45097077197542e-13 2.09148939304003e-13 -3.36429106980761e-13 -1.4757288830846e-13 2.09384564023994e-13 -3.36703906777215e-13 -1.47702433276858e-13 1.07631151157231e-12 -1.70148763550576e-12 -7.52165269026549e-13 1.07494778561758e-12 -1.69998869214566e-12 -7.51441476040303e-13 8.16631933148851e-13 -4.45847074088336e-13 3.43687525223875e-13 4.1913220620848e-12 -2.25310398042273e-12 1.75918260419989e-12 5.5165493448569e-12 -8.53516356346135e-12 -3.80982155968938e-12 5.50863019880271e-12 -8.52704441284606e-12 -3.80578260454604e-12 4.20669112885772e-12 -2.26404578926504e-12 1.76628895556342e-12 5.52911052789532e-12 -8.57023529984091e-12 -3.82329333690513e-12 2.10267131047466e-18 -3.56989183945385e-18 -1.52740274325972e-18 1.58839838677901e-18 -9.11955220946215e-19 6.73809268826055e-19 1.57145312567224e-18 -9.03304971755227e-19 6.66848657447653e-19 1.34100713252766e-18 -2.29130655796561e-18 -9.77399318729125e-19 2.08039815082795e-18 -3.53697789725903e-18 -1.51257978986106e-18 8.17245458593881e-18 -4.68741471176164e-18 3.46725590315901e-18 1.08159048447817e-17 -1.8327543797499e-17 -7.85056862850954e-18 6.98353200197372e-18 -1.19069799108104e-17 -5.0846169437709e-18 4.24620263650872e-17 -2.42874501178832e-17 1.80094628221803e-17 4.29239495435127e-17 -2.45086632355129e-17 1.81963346078114e-17 8.26093573385268e-18 -4.73129365099796e-18 3.50334374804473e-18 1.09319995482292e-17 -1.84932137273779e-17 -7.92619870473165e-18 5.67805440934652e-17 -9.56241388624234e-17 -4.10718575949698e-17 2.22794171638709e-16 -1.26723434415975e-16 9.43974807519796e-17 2.9457608164882e-16 -4.93351430903216e-16 -2.12454367813416e-16 1.52619436002074e-15 -2.53850132130944e-15 -1.09667943692258e-15 1.15495807041829e-15 -6.53777505699651e-16 4.89012635436014e-16 1.14240279118317e-15 -6.48293916777235e-16 4.84033147625035e-16 1.50984462263394e-15 -2.51853802322659e-15 -1.08696824875158e-15 1.39006805640408e-15 -2.32338460241988e-15 -1.00125971779509e-15 2.67926897703745e-16 -4.50486289330074e-16 -1.93603019577654e-16 2.91428664359666e-16 -4.89262784507356e-16 -2.1051595074006e-16 2.20384463736317e-16 -1.25616871258352e-16 9.34317231693737e-17 5.61757345134778e-17 -9.47969582836126e-17 -4.06878197698556e-17 5.15823157809307e-17 -8.71458979567611e-17 -3.73683630453401e-17 4.92201741081168e-17 -8.32112570399029e-17 -3.56701537475984e-17 2.55694858696899e-16 -4.30277845932592e-16 -1.84848272339214e-16 1.93299072489082e-16 -1.10283649332262e-16 8.19186579319698e-17 2.02559800556524e-16 -1.15498211411693e-16 8.58349055705162e-17 1.0514469769652e-15 -5.97031962358176e-16 4.45275089651564e-16 1.32683141493082e-15 -2.21997666059994e-15 -9.56252065992165e-16 1.00353294839933e-15 -5.70249800806942e-16 4.25037790711206e-16 1.55210929038575e-15 -2.58005710210238e-15 -1.11488025509071e-15 1.17460930947762e-15 -6.64568797318506e-16 4.97266940887889e-16 2.26585389548592e-16 -1.28827509580021e-16 9.59933885820675e-17 2.99580235413485e-16 -5.01486494369949e-16 -2.15997261431222e-16 5.77455563842931e-17 -9.72106321414939e-17 -4.17594940371884e-17 4.36544545415447e-17 -2.49175294849072e-17 1.85043527051329e-17 8.4015356398094e-18 -4.81052880182406e-18 3.5627075430111e-18 1.11178583895336e-17 -1.8801541826616e-17 -8.05932663267345e-18 2.78267939445598e-17 -1.59929579469915e-17 1.18073111621298e-17 2.74504673279382e-17 -1.57808565685369e-17 1.16484860952432e-17 5.27362411427219e-18 -3.03691493098924e-18 2.23815752930118e-18 5.34590328805189e-18 -3.07786920957927e-18 2.26869053827572e-18 7.07914822157348e-18 -1.20669110765194e-17 -5.15339215954861e-18 1.3593611274644e-18 -2.32218799539717e-18 -9.90646488731048e-19 1.01245030046427e-18 -5.8383402463443e-19 4.29729293803371e-19 1.02631997073529e-18 -5.91728837804856e-19 4.35594747586688e-19 2.13842183775517e-18 -3.62964518141884e-18 -1.5531174888871e-18 1.61542981200516e-18 -9.27272951630074e-19 6.8523540988897e-19 4.10957315696906e-19 -6.99619067909875e-19 -2.98933997786371e-19 3.10365170126648e-19 -1.78509356266841e-19 1.31679950728145e-19 5.9588393761667e-20 -3.43276987057598e-20 2.52857685217315e-20 1.51460505225436e-20 -2.58979937612798e-20 -1.10418488692442e-20 7.89193932188056e-20 -1.34678501525498e-19 -5.74774286675616e-20 5.00352837351404e-20 -8.57495387644601e-20 -3.65207356415595e-20 3.77645124346499e-20 -2.18173261547402e-20 1.60299143832927e-20 8.05457007088022e-21 -1.79968045457914e-20 -3.45024685701268e-21 3.72540197250096e-20 -2.15249611374213e-20 1.58136900221403e-20 1.94259858010323e-19 -1.1214306909089e-19 8.24572077525331e-20 1.96920651080346e-19 -1.13663124813529e-19 8.35837430846391e-20 2.60867260854052e-19 -4.46428122509894e-19 -1.90274650077376e-19 2.5734545641979e-19 -4.4047465852433e-19 -1.87725998210385e-19 2.69046519190741e-19 -1.56093835748628e-19 1.14425345505198e-19 3.56458910020575e-19 -6.13141279689235e-19 -2.60992741699829e-19 3.51779182964435e-19 -6.00271648329936e-19 -2.56176498960963e-19 2.65609355190109e-19 -1.5299048084548e-19 1.12698610628649e-19 5.09601596318778e-20 -2.93914024490309e-20 2.16251838982918e-20 6.75054538269653e-20 -1.15419037