<?xml version="1.0"?>
<VTKFile type="UnstructuredGrid" version="0.1" byte_order="LittleEndian">
<UnstructuredGrid>
<Piece NumberOfPoints="2400" NumberOfCells="800">
<Points>
<DataArray type="Float64" NumberOfComponents="3" format="ascii">
0 0 0 0 0.199999999999558 0 0.2 0.199999999999558 0 0 0 0 0.2 0.199999999999558 0 0.2 0 0 0.2 0 0 0.4 0.199999999999558 0 0.4 0 0 0.4 0 0 0.4 0.199999999999558 0 0.6 0.199999999999558 0 0.2 0 0 0.2 0.199999999999558 0 0.4 0.199999999999558 0 0.2 0.199999999999558 0 0.4 0.399999999998975 0 0.4 0.199999999999558 0 0.2 0.199999999999558 0 0.2 0.399999999998975 0 0.4 0.399999999998975 0 0.4 0.199999999999558 0 0.4 0.399999999998975 0 0.6 0.399999999998975 0 0.2 0.399999999998975 0 0.4 0.599999999998947 0 0.4 0.399999999998975 0 0 0.399999999998975 0 0.2 0.599999999998947 0 0.2 0.399999999998975 0 0 0.199999999999558 0 0.2 0.399999999998975 0 0.2 0.199999999999558 0 0 0.199999999999558 0 0 0.399999999998975 0 0.2 0.399999999998975 0 0 0.399999999998975 0 0 0.599999999998947 0 0.2 0.599999999998947 0 0 0.599999999998947 0 0.2 0.799999999999473 0 0.2 0.599999999998947 0 0 0.599999999998947 0 0 0.799999999999473 0 0.2 0.799999999999473 0 0 0.799999999999473 0 0 1 0 0.2 1 0 0 0.799999999999473 0 0.2 1 0 0.2 0.799999999999473 0 0.2 0.799999999999473 0 0.4 1 0 0.4 0.799999999999473 0 0.2 0.799999999999473 0 0.2 1 0 0.4 1 0 0.4 0.799999999999473 0 0.4 1 0 0.6 1 0 0.4 0.599999999998947 0 0.4 0.799999999999473 0 0.6 0.799999999999473 0 0.2 0.599999999998947 0 0.2 0.799999999999473 0 0.4 0.799999999999473 0 0.2 0.599999999998947 0 0.4 0.799999999999473 0 0.4 0.599999999998947 0 0.2 0.399999999998975 0 0.2 0.599999999998947 0 0.4 0.599999999998947 0 0.4 0.399999999998975 0 0.4 0.599999999998947 0 0.6 0.599999999998947 0 0.6 0.399999999998975 0 0.6 0.599999999998947 0 0.8 0.599999999998947 0 0.6 0.599999999998947 0 0.6 0.799999999999473 0 0.8 0.799999999999473 0 0.6 0.599999999998947 0 0.8 0.799999999999473 0 0.8 0.599999999998947 0 0.4 0.599999999998947 0 0.6 0.799999999999473 0 0.6 0.599999999998947 0 0.4 0.799999999999473 0 0.6 1 0 0.6 0.799999999999473 0 0.6 0.799999999999473 0 0.6 1 0 0.8 1 0 0.6 0.799999999999473 0 0.8 1 0 0.8 0.799999999999473 0 0.8 0.799999999999473 0 0.8 1 0 1 1 0 0.8 0.799999999999473 0 1 1 0 1 0.799999999999473 0 0.8 0.599999999998947 0 1 0.799999999999473 0 1 0.599999999998947 0 0.8 0.599999999998947 0 0.8 0.799999999999473 0 1 0.799999999999473 0 0.8 0.399999999998975 0 0.8 0.599999999998947 0 1 0.599999999998947 0 0.8 0.399999999998975 0 1 0.599999999998947 0 1 0.399999999998975 0 0.8 0.199999999999558 0 1 0.399999999998975 0 1 0.199999999999558 0 0.8 0.199999999999558 0 0.8 0.399999999998975 0 1 0.399999999998975 0 0.6 0.399999999998975 0 0.8 0.599999999998947 0 0.8 0.399999999998975 0 0.4 0.399999999998975 0 0.6 0.599999999998947 0 0.6 0.399999999998975 0 0.4 0.199999999999558 0 0.6 0.399999999998975 0 0.6 0.199999999999558 0 0.6 0.199999999999558 0 0.8 0.399999999998975 0 0.8 0.199999999999558 0 0.6 0.199999999999558 0 0.6 0.399999999998975 0 0.8 0.399999999998975 0 0.6 0 0 0.6 0.199999999999558 0 0.8 0.199999999999558 0 0.4 0 0 0.6 0.199999999999558 0 0.6 0 0 0.6 0 0 0.8 0.199999999999558 0 0.8 0 0 0.8 0 0 0.8 0.199999999999558 0 1 0.199999999999558 0 0.8 0 0 1 0.199999999999558 0 1 0 0 1 0 0 1.2 0.199999999999558 0 1.2 0 0 1 0 0 1 0.199999999999558 0 1.2 0.199999999999558 0 1 0.199999999999558 0 1 0.399999999998975 0 1.2 0.399999999998975 0 1 0.399999999998975 0 1.2 0.599999999998947 0 1.2 0.399999999998975 0 1 0.199999999999558 0 1.2 0.399999999998975 0 1.2 0.199999999999558 0 1.2 0.199999999999558 0 1.4 0.399999999998975 0 1.4 0.199999999999558 0 1.2 0.199999999999558 0 1.2 0.399999999998975 0 1.4 0.399999999998975 0 1.2 0.399999999998975 0 1.4 0.599999999998947 0 1.4 0.399999999998975 0 1.4 0.199999999999558 0 1.4 0.399999999998975 0 1.6 0.399999999998975 0 1.4 0 0 1.4 0.199999999999558 0 1.6 0.199999999999558 0 1.2 0 0 1.2 0.199999999999558 0 1.4 0.199999999999558 0 1.2 0 0 1.4 0.199999999999558 0 1.4 0 0 1.4 0 0 1.6 0.199999999999558 0 1.6 0 0 1.6 0 0 1.6 0.199999999999558 0 1.8 0.199999999999558 0 1.6 0 0 1.8 0.199999999999558 0 1.8 0 0 1.8 0 0 2 0.199999999999558 0 2 0 0 1.8 0 0 1.8 0.199999999999558 0 2 0.199999999999558 0 1.8 0.199999999999558 0 1.8 0.399999999998975 0 2 0.399999999998975 0 1.8 0.199999999999558 0 2 0.399999999998975 0 2 0.199999999999558 0 1.8 0.399999999998975 0 2 0.599999999998947 0 2 0.399999999998975 0 1.6 0.399999999998975 0 1.8 0.599999999998947 0 1.8 0.399999999998975 0 1.6 0.199999999999558 0 1.6 0.399999999998975 0 1.8 0.399999999998975 0 1.6 0.199999999999558 0 1.8 0.399999999998975 0 1.8 0.199999999999558 0 1.4 0.199999999999558 0 1.6 0.399999999998975 0 1.6 0.199999999999558 0 1.4 0.399999999998975 0 1.6 0.599999999998947 0 1.6 0.399999999998975 0 1.4 0.599999999998947 0 1.6 0.799999999999473 0 1.6 0.599999999998947 0 1.6 0.599999999998947 0 1.6 0.799999999999473 0 1.8 0.799999999999473 0 1.6 0.599999999998947 0 1.8 0.799999999999473 0 1.8 0.599999999998947 0 1.6 0.399999999998975 0 1.6 0.599999999998947 0 1.8 0.599999999998947 0 1.8 0.399999999998975 0 1.8 0.599999999998947 0 2 0.599999999998947 0 1.8 0.599999999998947 0 2 0.799999999999473 0 2 0.599999999998947 0 1.8 0.599999999998947 0 1.8 0.799999999999473 0 2 0.799999999999473 0 1.8 0.799999999999473 0 2 1 0 2 0.799999999999473 0 1.8 0.799999999999473 0 1.8 1 0 2 1 0 1.6 0.799999999999473 0 1.6 1 0 1.8 1 0 1.6 0.799999999999473 0 1.8 1 0 1.8 0.799999999999473 0 1.4 0.799999999999473 0 1.6 1 0 1.6 0.799999999999473 0 1.4 0.799999999999473 0 1.4 1 0 1.6 1 0 1.2 0.799999999999473 0 1.2 1 0 1.4 1 0 1.2 0.799999999999473 0 1.4 1 0 1.4 0.799999999999473 0 1.4 0.599999999998947 0 1.4 0.799999999999473 0 1.6 0.799999999999473 0 1.4 0.399999999998975 0 1.4 0.599999999998947 0 1.6 0.599999999998947 0 1.2 0.399999999998975 0 1.2 0.599999999998947 0 1.4 0.599999999998947 0 1.2 0.599999999998947 0 1.2 0.799999999999473 0 1.4 0.799999999999473 0 1.2 0.599999999998947 0 1.4 0.799999999999473 0 1.4 0.599999999998947 0 1 0.599999999998947 0 1.2 0.799999999999473 0 1.2 0.599999999998947 0 1 0.399999999998975 0 1 0.599999999998947 0 1.2 0.599999999998947 0 1 0.599999999998947 0 1 0.799999999999473 0 1.2 0.799999999999473 0 1 0.799999999999473 0 1.2 1 0 1.2 0.799999999999473 0 1 0.799999999999473 0 1 1 0 1.2 1 0 2.8 0.799999999999473 0 2.8 1 0 3 1 0 2.8 0.799999999999473 0 3 1 0 3 0.799999999999473 0 2.8 0.599999999998947 0 3 0.799999999999473 0 3 0.599999999998947 0 2.8 0.399999999998975 0 2.8 0.599999999998947 0 3 0.599999999998947 0 2.8 0.599999999998947 0 2.8 0.799999999999473 0 3 0.799999999999473 0 2.6 0.599999999998947 0 2.6 0.799999999999473 0 2.8 0.799999999999473 0 2.6 0.599999999998947 0 2.8 0.799999999999473 0 2.8 0.599999999998947 0 2.6 0.399999999998975 0 2.6 0.599999999998947 0 2.8 0.599999999998947 0 2.4 0.599999999998947 0 2.6 0.799999999999473 0 2.6 0.599999999998947 0 2.4 0.799999999999473 0 2.6 1 0 2.6 0.799999999999473 0 2.6 0.799999999999473 0 2.8 1 0 2.8 0.799999999999473 0 2.6 0.799999999999473 0 2.6 1 0 2.8 1 0 2.4 0.799999999999473 0 2.4 1 0 2.6 1 0 2.2 0.799999999999473 0 2.4 1 0 2.4 0.799999999999473 0 2.2 0.799999999999473 0 2.2 1 0 2.4 1 0 2 0.799999999999473 0 2 1 0 2.2 1 0 2 0.799999999999473 0 2.2 1 0 2.2 0.799999999999473 0 2 0.599999999998947 0 2.2 0.799999999999473 0 2.2 0.599999999998947 0 2 0.599999999998947 0 2 0.799999999999473 0 2.2 0.799999999999473 0 2 0.399999999998975 0 2 0.599999999998947 0 2.2 0.599999999998947 0 2.2 0.399999999998975 0 2.2 0.599999999998947 0 2.4 0.599999999998947 0 2.2 0.599999999998947 0 2.4 0.799999999999473 0 2.4 0.599999999998947 0 2.2 0.599999999998947 0 2.2 0.799999999999473 0 2.4 0.799999999999473 0 2.4 0.599999999998947 0 2.4 0.799999999999473 0 2.6 0.799999999999473 0 2.4 0.399999999998975 0 2.4 0.599999999998947 0 2.6 0.599999999998947 0 2.4 0.199999999999558 0 2.4 0.399999999998975 0 2.6 0.399999999998975 0 2.2 0.199999999999558 0 2.4 0.399999999998975 0 2.4 0.199999999999558 0 2.2 0.199999999999558 0 2.2 0.399999999998975 0 2.4 0.399999999998975 0 2.2 0.399999999998975 0 2.4 0.599999999998947 0 2.4 0.399999999998975 0 2 0.399999999998975 0 2.2 0.599999999998947 0 2.2 0.399999999998975 0 2 0.199999999999558 0 2 0.399999999998975 0 2.2 0.399999999998975 0 2 0.199999999999558 0 2.2 0.399999999998975 0 2.2 0.199999999999558 0 2 0 0 2 0.199999999999558 0 2.2 0.199999999999558 0 2 0 0 2.2 0.199999999999558 0 2.2 0 0 2.2 0 0 2.4 0.199999999999558 0 2.4 0 0 2.2 0 0 2.2 0.199999999999558 0 2.4 0.199999999999558 0 2.4 0 0 2.4 0.199999999999558 0 2.6 0.199999999999558 0 2.4 0 0 2.6 0.199999999999558 0 2.6 0 0 2.6 0 0 2.8 0.199999999999558 0 2.8 0 0 2.6 0 0 2.6 0.199999999999558 0 2.8 0.199999999999558 0 2.4 0.199999999999558 0 2.6 0.399999999998975 0 2.6 0.199999999999558 0 2.4 0.399999999998975 0 2.6 0.599999999998947 0 2.6 0.399999999998975 0 2.6 0.399999999998975 0 2.8 0.599999999998947 0 2.8 0.399999999998975 0 2.6 0.199999999999558 0 2.6 0.399999999998975 0 2.8 0.399999999998975 0 2.6 0.199999999999558 0 2.8 0.399999999998975 0 2.8 0.199999999999558 0 2.8 0.199999999999558 0 2.8 0.399999999998975 0 3 0.399999999998975 0 2.8 0.399999999998975 0 3 0.599999999998947 0 3 0.399999999998975 0 2.8 0.199999999999558 0 3 0.399999999998975 0 3 0.199999999999558 0 2.8 0 0 2.8 0.199999999999558 0 3 0.199999999999558 0 2.8 0 0 3 0.199999999999558 0 3 0 0 3 0 0 3 0.199999999999558 0 3.2 0.199999999999558 0 3 0 0 3.2 0.199999999999558 0 3.2 0 0 3.2 0 0 3.4 0.199999999999558 0 3.4 0 0 3.4 0 0 3.4 0.199999999999558 0 3.6 0.199999999999558 0 3.2 0 0 3.2 0.199999999999558 0 3.4 0.199999999999558 0 3.2 0.199999999999558 0 3.2 0.399999999998975 0 3.4 0.399999999998975 0 3.2 0.199999999999558 0 3.4 0.399999999998975 0 3.4 0.199999999999558 0 3.4 0.199999999999558 0 3.4 0.399999999998975 0 3.6 0.399999999998975 0 3.2 0.399999999998975 0 3.4 0.599999999998947 0 3.4 0.399999999998975 0 3 0.399999999998975 0 3.2 0.599999999998947 0 3.2 0
[...]
<PointData Scalars="conc_conc," Vectors="" Tensors="">
<DataArray type="Float64" Name="conc_conc" format="ascii">
-0.0204982496558651 -0.0204982496558651 0.380396666311232 0.0590150405615183 0.362669872027526 0.351037922729607 0.407227826949293 0.182398935377271 0.147862443839349 0.137222738135184 0.148037918116939 -0.0142400261093556 0.386258833022778 0.419248572464175 0.210128286619279 0.405306181589872 0.180572347250449 0.146926029130284 0.384714112750237 0.417290582932643 0.208000959370473 0.136201308292933 0.146451686241478 -0.0144010556832227 0.404400762053974 0.179602104217146 0.146372615743018 0.0602868109002186 0.360860059506678 0.349122388262422 0.0597718125101945 0.361312960638222 0.349671049530693 -0.019859013318641 -0.019858911728693 0.379346945811075 -0.0195157283309955 -0.0195157258552516 0.379057859900801 0.0608013092708429 0.360403122829121 0.348576860656754 -0.0191720650681424 -0.0191720625948115 0.378766801069685 -0.0185330693459723 -0.0185330693459729 0.377694397064234 0.0615501299501637 0.359025861228792 0.347193464883246 0.401626262934749 0.176621147420308 0.145074343180771 0.381904508527007 0.41383817288977 0.203483183532737 0.134258552404707 0.142861877402987 -0.0150577273787467 0.135069748328337 0.14465378215252 -0.0146954059361722 0.383417038457358 0.415820029174768 0.205728736364326 0.403509321282896 0.17860234800291 0.145852589199358 0.384058328820325 0.416557870226655 0.206877293915992 0.135611853962728 0.145574228072647 -0.0145247135206315 0.015833871853921 0.000519106637739242 -0.0064215775967041 0.0157556333997024 0.00039501776498311 -0.00641338247178662 0.0111798805990667 -0.00255145349100078 0.00251347574600613 0.106115219529327 0.0015864691656815 0.0217981235754925 0.105449479946051 0.00123479851913511 0.0217683393036812 0.015698886105259 0.000131039744264139 -0.00643986446763589 0.0111420353378691 -0.00257858371540698 0.00252075851523824 0.00139601927319694 -0.00172431588450542 -0.00068665400473974 0.000951915690378458 -0.000291657935740012 0.000213802290225161 0.000950386698732117 -0.00028923501176328 0.00021262472318462 0.00139398488084933 -0.00170481348939817 -0.000682935828626031 0.00140071326871726 -0.00170299813459878 -0.000685121310564166 0.000955138734170789 -0.000289923149685851 0.000213529904393458 0.000966019092709411 -0.000293065601778466 0.000216281303737037 0.00141592471578072 -0.00171238215330104 -0.000692189591296497 0.0112380007986991 -0.00254891311855928 0.00252261128954919 0.106582913441284 0.00175526749987625 0.021876513045111 0.107103013169339 0.0018789695373743 0.0220054993828958 0.0113277018895768 -0.00256187201662291 0.00254621448997625 0.0159497285634385 0.000604375642639088 -0.00645430622349233 0.0161558226995758 0.000714558024680572 -0.00652289206731308 0.107997163706727 0.00204849708206898 0.0222399387908528 0.011488230464761 -0.00259256628719892 0.00259203692927408 0.00144478672664188 -0.00173458858209048 -0.000706334904329755 0.000986630452269228 -0.000299521762801916 0.000221656292545609 7.49842887347909e-05 -2.59503450289208e-05 1.71352859623784e-05 0.00011167486624232 -0.00019797978358309 -5.92491476856273e-05 0.000108789054235295 -0.000193556040531219 -5.76720455069039e-05 7.2023825175964e-05 -2.49395465425311e-05 1.64265059526322e-05 7.3006940833018e-05 -2.52356565486893e-05 1.66465384765821e-05 5.35037535670894e-06 -1.9896269953889e-06 1.24839539166897e-06 8.01646404141925e-06 -1.66869147192824e-05 -4.45956288521781e-06 5.26945255861991e-06 -1.95869919992105e-06 1.22581355957919e-06 5.86602690306542e-07 -1.31523441732983e-06 -3.34178205742202e-07 6.01467069635051e-07 -1.35092929336147e-06 -3.42346948561227e-07 8.25182314074973e-06 -1.7157514243632e-05 -4.58696520104633e-06 5.50580150878358e-06 -2.04466051608987e-06 1.28171784805139e-06 3.99271173592137e-07 -1.53745224114861e-07 9.35648478956201e-08 4.32821407016303e-08 -1.015272078582e-07 -2.49644737325851e-08 2.86724008904349e-08 -1.12678648045007e-08 6.75652313498527e-09 2.05200722134581e-09 -8.16208689733246e-10 4.85154236735887e-10 3.10183897718291e-09 -7.44198334757418e-09 -1.80356165633995e-09 3.04696051361785e-09 -7.30345688891371e-09 -1.77232422965971e-09 2.015958144447e-09 -8.02309025051618e-10 4.7700545701164e-10 1.95252617023893e-09 -7.72046935992151e-10 4.58664453107952e-10 2.73576536481419e-08 -1.075878448624e-08 6.44583003038607e-09 4.24114232321527e-08 -9.9263289398777e-08 -2.44792982032343e-08 2.81038611173183e-08 -1.10555977894367e-08 6.63330436544863e-09 3.89642417722238e-07 -1.50243746612562e-07 9.15703600060915e-08 3.81416037494768e-07 -1.46975392180287e-07 8.93425686925468e-08 3.79521431669877e-07 -1.4635424729598e-07 8.8925533281388e-08 4.11037407377538e-08 -9.66467804680527e-08 -2.3727549777057e-08 2.72235035807676e-08 -1.07109776559617e-08 6.41559514838221e-09 4.13051157939613e-08 -9.70554306490549e-08 -2.38367419279738e-08 2.95389503072875e-09 -7.09645075718338e-09 -1.71110162934841e-09 1.94717247491872e-09 -7.7525629964762e-10 4.60442750316274e-10 2.9437992902004e-09 -7.07447626167329e-09 -1.71284802300676e-09 1.96380640037842e-09 -7.81996277940602e-10 4.64444276159041e-10 2.96888549883175e-09 -7.13570137286483e-09 -1.72757518306361e-09 4.14396872181511e-08 -9.74719345192864e-08 -2.39278718649556e-08 2.7446941568955e-08 -1.08036693768725e-08 6.47057071261146e-09 3.82398272939893e-07 -1.47598365540371e-07 8.96602236004403e-08 5.76217228448376e-07 -1.29982533150521e-06 -3.28501232534252e-07 7.91325206849009e-06 -1.65700225274154e-05 -4.40983207915476e-06 5.27762112870697e-06 -1.96723787318172e-06 1.22961183431045e-06 5.71904901138514e-07 -1.28898842831673e-06 -3.25860351059887e-07 5.74731736467862e-07 -1.29403388378544e-06 -3.27312519921937e-07 7.90075459858448e-06 -1.64874242869904e-05 -4.39519285024586e-06 7.86195451656282e-06 -1.64306076498384e-05 -4.37653519176704e-06 5.24320534385994e-06 -1.95098805582891e-06 1.22016139770335e-06 7.16621591471646e-05 -2.48524171344234e-05 1.63527885721485e-05 0.000107340456341396 -0.00019153152450479 -5.69813761466289e-05 0.000106811687382374 -0.000191088132339185 -5.67558441202692e-05 7.20047387281312e-05 -2.50599031257016e-05 1.64672405171016e-05 0.000107316623576949 -0.000192762802595306 -5.71488280443553e-05 5.48372888760277e-15 -1.35457864859762e-14 -3.22074026432711e-15 3.62162324599281e-15 -1.46273612753908e-15 8.5995811276895e-16 3.58844286199073e-15 -1.44938863661441e-15 8.52034651921909e-16 5.35907889737247e-15 -1.32372323094072e-14 -3.14673701500398e-15 5.43363820512586e-15 -1.34238009025464e-14 -3.1914524560028e-15 7.62531774547673e-14 -1.88134251522574e-13 -4.47656613773818e-14 5.03624476902e-14 -2.03266781375338e-14 1.19552794016307e-14 7.52600920610507e-14 -1.85630674017987e-13 -4.41606073613802e-14 7.06731902087075e-13 -2.84879373094574e-13 1.67698611925993e-13 7.13086777588289e-13 -2.87437264490016e-13 1.69217621466036e-13 5.08216962960413e-14 -2.05114842486558e-14 1.20650311219913e-14 7.6946346105053e-14 -1.89822615059266e-13 -4.51709991769506e-14 1.07951354995059e-12 -2.65688622149237e-12 -6.33197197469069e-13 1.00021030798094e-11 -4.0231761561665e-12 2.37213956979978e-12 1.51380652615133e-11 -3.71086642834461e-11 -8.86700343158479e-12 2.12159714236724e-10 -5.16414131215951e-10 -1.23954926814886e-10 1.40232416747309e-10 -5.6190764339986e-11 3.32180232402633e-11 1.39021730973952e-10 -5.57020853354012e-11 3.29277435509919e-11 2.10333213971599e-10 -5.11963494728713e-10 -1.22884948392983e-10 2.09379582071577e-10 -5.09451079442281e-10 -1.22007921408146e-10 1.48677135682039e-11 -3.64410292532129e-11 -8.6957583707681e-12 9.91428966997776e-12 -3.98780943120378e-12 2.35112903909039e-12 1.50055535416065e-11 -3.67860628529353e-11 -8.78948202158334e-12 1.06992203346684e-12 -2.63353909017809e-12 -6.2758751618921e-13 1.05722633061508e-12 -2.60207255293892e-12 -6.19605868927456e-13 1.09992706708161e-12 -2.70530954922627e-12 -6.44439617595827e-13 1.02173948004203e-11 -4.09760602695513e-12 2.417111898749e-12 1.54668574296636e-11 -3.78748713084793e-11 -9.04214854464701e-12 9.82091062456803e-12 -3.94116488748764e-12 2.32377672955293e-12 1.38336986922447e-10 -5.52038927207026e-11 3.26382868996367e-11 2.17823479506787e-10 -5.29378372955157e-10 -1.26844699377068e-10 1.43926049225437e-10 -5.73782527797893e-11 3.39439756316337e-11 2.21705656352004e-10 -5.38990325553615e-10 -1.29461728998038e-10 1.4655559018405e-10 -5.86781473811599e-11 3.47086492304699e-11 1.04545308530118e-11 -4.2026540742916e-12 2.47906074809709e-12 1.58216785583608e-11 -3.87501727045082e-11 -9.2635648107097e-12 1.12840320542228e-12 -2.77533988868937e-12 -6.61654127205423e-13 7.45426482895105e-13 -3.00331964248885e-13 1.76872761509429e-13 5.31323260265208e-14 -2.14356143984945e-14 1.26124791471223e-14 8.04405716809429e-14 -1.98333473988055e-13 -4.72090151184436e-14 7.27991516597886e-13 -2.92928272527107e-13 1.7250580202992e-13 6.9833661775743e-13 -2.81122045726541e-13 1.65518743888928e-13 4.97040980922012e-14 -2.00455338799346e-14 1.17913231283429e-14 7.84424117188679e-14 -1.93419513451191e-13 -4.60176131007661e-14 5.18069077267629e-14 -2.08869683273201e-14 1.22884173249998e-14 5.58534534108585e-15 -1.37925221929704e-14 -3.27903542686011e-15 3.53910397567238e-15 -1.42881243327144e-15 8.40001670705258e-16 3.68861480437493e-15 -1.48882127106361e-15 8.75415026013212e-16 5.73333810997593e-15 -1.41557570722708e-14 -3.36651022234299e-15 3.78665884795234e-15 -1.52886978012564e-15 8.99089223226734e-16 4.08591507521536e-16 -1.0096442475919e-15 -2.39988447236311e-16 2.69847702681661e-16 -1.09000528811657e-16 6.40808997588445e-17 1.9229372224095e-17 -7.76944697223703e-18 4.5668144375712e-18 2.07487468580786e-18 -5.13085944069691e-18 -1.21902445693261e-18 2.91170108607608e-17 -7.19826707780592e-17 -1.71050289533754e-17 2.83351789771046e-17 -7.00665314584983e-17 -1.66461667076193e-17 1.87119736573104e-17 -7.56038796287686e-18 4.44317906943372e-18 1.81186452941858e-18 -5.19945201448651e-18 -6.86728840222157e-19 1.79526167632369e-17 -7.25481098136932e-18 4.26296195252381e-18 2.52049049561386e-16 -1.01819110258118e-16 5.98405203727915e-17 2.6269742681654e-16 -1.06100338652101e-16 6.23660560738453e-17 3.97790772454979e-16 -9.83164917238389e-16 -2.33633633052897e-16 3.81676853775824e-16 -9.43556216803169e-16 -2.24201471414559e-16 2.55680726383801e-16 -1.03298034761802e-16 6.07074612553554e-17 3.8717530547328e-16 -9.57244423614127e-16 -2.27447693847487e-16 3.90744076837333e-16 -9.65954556336386e-16 -2.29529674498225e-16 2.58043244410909e-16 -1.04245095892096e-16 6.12692362937394e-17 1.83820661286696e-17 -7.42850488520811e-18 4.36531609245261e-18 2.78356187843401e-17 -6.88422314402909e-17 -1.63546806290235e-17 1.98308255188556e-18 -4.90574860337592e-18 -1.16529590405371e-18 1.96466297557717e-18 -4.86081626039071e-18 -1.15453075038722e-18 1.82124997467494e-17 -7.36041144143097e-18 4.32492074309893e-18 2.75795321580378e-17 -6.82174372200027e-17 -1.62051122385046e-17 2.71860772311496e-17 -6.72403701148699e-17 -1.5973150795276e-17 1.93678083956882e-18 -4.79122848860019e-18 -1.13805381431397e-18 1.37982489663243e-19 -3.41379698803016e-19 -8.10827704430338e-20 9.24407202299279e-20 -3.73619440206266e-20 2.19525047912398e-20 1.39985661769456e-19 -3.46295599254042e-19 -8.22565869331595e-20 1.29776279680017e-18 -5.24376124419602e-19 3.08146357184976e-19 1.30957468841193e-18 -5.29322130310959e-19 3.11022864186997e-19 1.41285756582361e-19 -3.4956408644727e-19 -8.30281798957968e-20 9.3300885498151e-20 -3.7715831966496e-20 2.21600798589291e-20 1.00662094423071e-20 -2.49076036207248e-20 -5.91577409159985e-21 6.64740527848539e-21 -2.68731515238566e-21 1.57889339069614e-21 6.58511610481551e-21 -2.66206507846688e-21 1.56396733853387e-21 9.97213138849289e-21 -2.46737487599462e-20 -5.86048694690691e-21 9.83044647863752e-21 -2.43228468503743e-20 -5.77684150005932e-21 6.49167720059643e-21 -2.6240697232643e-21 1.5417976800586e-21 3.91588646835325e-21 -1.5831070172497e-21 9.30032977365239e-22 5.93004215498382e-21 -1.46754922804961e-20 -3.48513849301293e-21 9.11189797705967e-20 -3.68305560588243e-20 2.16406796217956e-20 1.27898973592518e-18 -5.16930885462785e-19 3.03747789231819e-19 7.71702995451173e-19 -3.11925714696359e-19 1.8326382947248e-19 8.32453840516965e-20 -2.05995752527331e-19 -4.89218616441613e-20 5.49709595893069e-20 -2.22220231012346e-20 1.30552464017792e-20 1.47852848922339e-19 -3.65674939497471e-19 -8.6871219625357e-20 1.37026220722833e-18 -5.53725656864314e-19 3.25442161988821e-19 9.76423187792621e-20 -3.94610031272182e-20 2.31911325984962e-20 1.05357364395671e-20 -2.60596761425831e-20 -6.19050348422037e-21 6.95778823973211e-21 -2.81205479542047e-21 1.65258093501098e-21 4.95796015127071e-22 -2.00386548629109e-22 1.17760337661867e-22 7.50754570892089e-22 -1.85705523182375e-21 -4.41131026652465e-22 4.22440161240288e-22 -1.04549140596425e-21 -2.48277884559976e-22 3.47763551840576e-22 -1.40571273477808e-22 8.25917410485948e-23 2.78956630901582e-22 -1.12780149808551e-22 6.62540420433495e-23 3.00936869728433e-23 -7.44806498238449e-23 -1.76870453975613e-23 1.9872214319321e-23 -8.03438354378203e-24 4.71982518136328e-24 2.47746120737942e-23 -1.00148891928004e-23 5.88402022167208e-24 2.1438090519879e-24 -5.30595797218349e-24 -1.26000046680364e-24 3.81207153468452e-24 -9.42992294414536e-24 -2.23994946956098e-24 5.34970537871794e-23 -1.32333466136335e-22 -3.14343343448101e-23 3.53292322021579e-23 -1.42792996217831e-23 8.39136457435546e-24 2.51747367472359e-24 -1.01751743729919e-24 5.9794989339766e-25 2.71638798173423e-25 -6.71959433106511e-25 -1.59613790135343e-25 1.79388865892354e-25 -7.25061080078421e-26 4.26084772692702e-26 1.27827916095254e-26 -5.16661565023423e-27 3.03617390528271e-27 1.93562927393875e-26 -4.78823875795034e-26 -1.13736991696266e-26 1.08794755366612e-26 -2.69275435483525e-26 -6.3943639402568e-27 7.184186199771e-27 -2.90467823089782e-27 1.70633153760582e-27 3.91009747440395e-28 -1.58632921265961e-28 9.27632880005262e-29 1.25739573236662e-25 -5.08316583670499e-26 2.98641485884251e-26 1.00848241008132e-25 -4.0774158792056e-26 2.39525102786504e-26 1.5272105636589e-25 -3.77991037960203e-25 -8.97606757460114e-26 1.41565177153464e-24 -5.72360879531205e-25 3.36232702487066e-25 1.76497321131063e-24 -7.13495588574057e-25 4.19190712513027e-25 2.38139403810728e-24 -9.62744339560135e-25 5.65619222391354e-25 2.56923487303296e-25 -6.35800462589164e-25 -1.50995624590781e-25 1.7107901412313e-25 -6.71732300852499e-26 3.6872734231557e-26 1.90412049332584e-25 -4.71194269163863e-25 -1.11903295760538e-25 5.92722460768806e-28 -1.47517750851419e-27 -3.49337380891161e-28 1.10135072002769e-26 -4.4980223748481e-27 2.62954293559394e-27 1.66851729429345e-26 -4.18421514356192e-26 -9.87153757408629e-27 1.22052635255003e-26 -4.93457001593731e-27 2.89913034228252e-27 1.84825542568602e-26 -4.57377531432147e-26 -1.08625224463062e-26 2.59405829622541e-25 -6.41933298621133e-25 -1.52456930665572e-25 1.7130277057055e-25 -6.92571348987268e-26 4.06894074173376e-26 2.40426833339394e-24 -9.72030072312126e-25 5.71081756227406e-25 3.64081176580055e-24 -9.00958178045677e-24 -2.13975400218299e-24 5.10997582669201e-23 -1.26449728329561e-22 -3.00317580322849e-23 3.37445499302431e-23 -1.36425202411471e-23 8.01522446868674e-24 3.60621866718209e-24 -8.92411222248931e-24 -2.11938889584827e-24 2.67276142653699e-24 -6.61384718536276e-24 -1.5707341125383e-24 3.7516996030584e-23 -9.28332891765779e-23 -2.20475952493307e-23 5.06171616436417e-23 -1.25253906013853e-22 -2.97472490180089e-23 3.34256624682833e-23 -1.35131087189134e-23 7.93909729052064e-24 4.69173961908654e-22 -1.89662886452212e-22 1.11432280696122e-22 5.26628579470201e-22 -1.30300496585052e-21 -3.09471163422198e-22 7.10482493288533e-22 -1.75802291039098e-21 -4.1753375615826e-22 4.73616318308458e-22 -1.91473290070869e-22 1.12495227125048e-22 7.17201828386989e-22 -1.77471141170617e-21 -4.21499530880176e-22 3.39415119739002e-32 -8.39915693558082e-32 -1.99478605520991e-32 2.24138945390257e-32 -9.06180586427516e-33 5.32399748890405e-33 2.03463616433351e-32 -8.22939677610288e-33 4.83427939704808e-33 1.0111793307044e-35 -2.49981570674532e-35 -5.9396928686969e-36 3.08106838921996e-32 -7.62885512214574e-32 -1.8112682580053e-32 2.85456391533387e-31 -1.15515079430822e-31 6.78412199150661e-32 4.32278914152231e-31 -1.07104310160668e-30 -2.54207557627214e-31 1.41593903923971e-34 -3.50759623265614e-34 -8.32574638129609e-35 4.00411361512175e-30 -1.62171136101614e-30 9.52010040958595e-31 4.41500044268699e-30 -1.78496098173532e-30 1.0486980820829e-30 3.14572554457579e-31 -1.27181987040921e-31 7.47218981589819e-32 4.76356557399801e-31 -1.17879497999707e-30 -2.79960664607774e-31 6.68566980778956e-30 -1.65444444078715e-29 -3.92925783317372e-30 6.1964726459221e-29 -2.50519929468967e-29 1.47184767228414e-29 9.38337700622331e-29 -2.32202656795036e-28 -5.51473873692212e-29 1.31696903825745e-27 -3.25897877304006e-27 -7.73999629909799e-28 8.69682598942397e-28 -3.51606749603984e-28 2.06574740995404e-28 7.86787256210374e-28 -3.19930511973316e-28 1.87438630125585e-28 1.19172791202675e-27 -2.97151352821358e-27 -7.03043943085502e-28 4.22646666520189e-29 -1.04945177999237e-28 -2.48808682907036e-29 3.01251860137572e-30 -7.47012708674721e-30 -1.77224946880848e-30 8.50330401503946e-29 -2.11323450133183e-28 -5.00807392274026e-29 5.61458421379387e-29 -2.27728645865946e-29 1.33588519646563e-29 6.06384518447481e-30 -1.50408391947616e-29 -3.56791950223653e-30 2.1467772237539e-31 -5.31914361646371e-31 -1.26243894242668e-31 2.30579641471876e-31 -5.75674862708382e-31 -1.36113353937122e-31 3.24751758223434e-30 -8.10946411609329e-30 -1.91722704379308e-30 2.14220032038104e-30 -8.71359801432432e-31 5.08969792812534e-31 1.9891683472536e-30 -8.05394310320289e-31 4.72790082517712e-31 2.79060141399073e-29 -1.13104387010661e-29 6.63611129004983e-30 4.57468767683578e-29 -1.14246688016233e-28 -2.70086551761874e-29 3.01755214385328e-29 -1.22746367161517e-29 7.16882270612915e-30 1.37927935068199e-27 -3.41198674942109e-27 -8.10462499058368e-28 9.10868406146162e-28 -3.6816120347552e-28 2.16350667137767e-28 6.49064605187048e-29 -2.62344326172894e-29 1.54166826915523e-29 9.82843447404503e-29 -2.43130589606384e-28 -5.77518566964619e-29 7.00351843514694e-30 -1.73249969417083e-29 -4.11526308975418e-30 4.62508544063994e-30 -1.86940358945057e-30 1.09855623341823e-30 3.29572478756815e-31 -1.33209482609769e-31 7.82805476835138e-32 4.99053828740797e-31 -1.23453798579801e-30 -2.93244080125878e-31 -1.0225205105184e-32 3.75091775481071e-33 -2.4273295357281e-33 1.30887815879807e-33 -5.31105075575244e-34 3.1181655257058e-34 9.3530802392396e-35 -3.78545687193083e-35 2.22545218873223e-35 -7.70991971360943e-34 2.83835631847741e-34 -1.82450758957759e-34 -1.14873920539843e-33 2.45999438054112e-33 6.29644586057932e-34 -8.61150999472689e-35 1.86244055619274e-34 4.74187083186614e-35 6.68003516780104e-36 -2.69947268041849e-36 1.58835640141617e-36 -5.77522974635874e-35 2.13985030983705e-35 -1.36836651123968e-35 3.5561389201599e-32 -8.79704077674053e-32 -2.08958851589122e-32 2.34845516178222e-32 -9.49219572035791e-33 5.57808667239533e-33 2.53402003854938e-33 -6.26856445944424e-33 -1.48899225566271e-33 1.673453214657e-33 -6.76392079723812e-34 3.9748150908891e-34 1.19246374764724e-34 -4.81981326932954e-35 2.83236034999303e-35 1.28668820365966e-35 -3.18296399018377e-35 -7.56058399192164e-36 1.80568370394323e-34 -4.46683543276144e-34 -1.06102125079615e-34 -4.80716556188569e-37 1.05553704752168e-36 2.66588957253415e-37 -3.21921146378735e-37 1.20437597148924e-37 -7.63486174604593e-38 -3.34625267062603e-38 8.14808532915909e-38 1.41934507525135e-38 3.40573391227934e-38 -1.37408095368877e-38 8.09296545776782e-39 4.76988057733424e-37 -1.92571883368599e-37 1.13374297632943e-37 -4.31820441446973e-36 1.60740596058746e-36 -1.02270192139471e-36 -6.44509304210665e-36 1.40464890392374e-35 3.56170926916587e-36 7.21979937342298e-37 -1.78255673909325e-36 -4.23818736777095e-37 7.4446068688189e-35 -3.01020961429378e-35 1.76857293027597e-35 1.12732978392323e-34 -2.79025779379653e-34 -6.62