<?xml version="1.0"?>
<VTKFile type="UnstructuredGrid" version="0.1" byte_order="LittleEndian">
<UnstructuredGrid>
<Piece NumberOfPoints="2400" NumberOfCells="800">
<Points>
<DataArray type="Float64" NumberOfComponents="3" format="ascii">
0 0 0 0 0.199999999999558 0 0.2 0.199999999999558 0 0 0 0 0.2 0.199999999999558 0 0.2 0 0 0 0.199999999999558 0 0 0.399999999998975 0 0.2 0.399999999998975 0 0 0.199999999999558 0 0.2 0.399999999998975 0 0.2 0.199999999999558 0 0 0.399999999998975 0 0.2 0.599999999998947 0 0.2 0.399999999998975 0 0.2 0.399999999998975 0 0.4 0.599999999998947 0 0.4 0.399999999998975 0 0.2 0.199999999999558 0 0.2 0.399999999998975 0 0.4 0.399999999998975 0 0.2 0.199999999999558 0 0.4 0.399999999998975 0 0.4 0.199999999999558 0 0.4 0.199999999999558 0 0.4 0.399999999998975 0 0.6 0.399999999998975 0 0.2 0 0 0.4 0.199999999999558 0 0.4 0 0 0.2 0 0 0.2 0.199999999999558 0 0.4 0.199999999999558 0 0.4 0 0 0.4 0.199999999999558 0 0.6 0.199999999999558 0 0.4 0 0 0.6 0.199999999999558 0 0.6 0 0 0.6 0 0 0.8 0.199999999999558 0 0.8 0 0 0.6 0 0 0.6 0.199999999999558 0 0.8 0.199999999999558 0 0.4 0.199999999999558 0 0.6 0.399999999998975 0 0.6 0.199999999999558 0 0.4 0.399999999998975 0 0.6 0.599999999998947 0 0.6 0.399999999998975 0 0.6 0.399999999998975 0 0.8 0.599999999998947 0 0.8 0.399999999998975 0 0.6 0.199999999999558 0 0.8 0.399999999998975 0 0.8 0.199999999999558 0 0.6 0.199999999999558 0 0.6 0.399999999998975 0 0.8 0.399999999998975 0 0.8 0.199999999999558 0 0.8 0.399999999998975 0 1 0.399999999998975 0 0.8 0.399999999998975 0 1 0.599999999998947 0 1 0.399999999998975 0 0.8 0.199999999999558 0 1 0.399999999998975 0 1 0.199999999999558 0 0.8 0 0 1 0.199999999999558 0 1 0 0 0.8 0 0 0.8 0.199999999999558 0 1 0.199999999999558 0 0.8 0.799999999999473 0 0.8 1 0 1 1 0 0.8 0.799999999999473 0 1 1 0 1 0.799999999999473 0 0.8 0.599999999998947 0 1 0.799999999999473 0 1 0.599999999998947 0 0.8 0.399999999998975 0 0.8 0.599999999998947 0 1 0.599999999998947 0 0.8 0.599999999998947 0 0.8 0.799999999999473 0 1 0.799999999999473 0 0.6 0.599999999998947 0 0.8 0.799999999999473 0 0.8 0.599999999998947 0 0.6 0.599999999998947 0 0.6 0.799999999999473 0 0.8 0.799999999999473 0 0.6 0.399999999998975 0 0.6 0.599999999998947 0 0.8 0.599999999998947 0 0.4 0.599999999998947 0 0.6 0.799999999999473 0 0.6 0.599999999998947 0 0.4 0.799999999999473 0 0.6 1 0 0.6 0.799999999999473 0 0.6 0.799999999999473 0 0.8 1 0 0.8 0.799999999999473 0 0.6 0.799999999999473 0 0.6 1 0 0.8 1 0 0.4 0.799999999999473 0 0.4 1 0 0.6 1 0 0.2 0.799999999999473 0 0.4 1 0 0.4 0.799999999999473 0 0.2 0.799999999999473 0 0.2 1 0 0.4 1 0 0.4 0.399999999998975 0 0.4 0.599999999998947 0 0.6 0.599999999998947 0 0.4 0.599999999998947 0 0.4 0.799999999999473 0 0.6 0.799999999999473 0 0.2 0.599999999998947 0 0.4 0.799999999999473 0 0.4 0.599999999998947 0 0.2 0.599999999998947 0 0.2 0.799999999999473 0 0.4 0.799999999999473 0 0.2 0.399999999998975 0 0.2 0.599999999998947 0 0.4 0.599999999998947 0 0 0.599999999998947 0 0.2 0.799999999999473 0 0.2 0.599999999998947 0 0 0.599999999998947 0 0 0.799999999999473 0 0.2 0.799999999999473 0 0 0.399999999998975 0 0 0.599999999998947 0 0.2 0.599999999998947 0 0 0.799999999999473 0 0.2 1 0 0.2 0.799999999999473 0 0 0.799999999999473 0 0 1 0 0.2 1 0 1.8 0.799999999999473 0 2 1 0 2 0.799999999999473 0 1.8 0.799999999999473 0 1.8 1 0 2 1 0 1.6 0.799999999999473 0 1.6 1 0 1.8 1 0 1.6 0.799999999999473 0 1.8 1 0 1.8 0.799999999999473 0 1.4 0.799999999999473 0 1.6 1 0 1.6 0.799999999999473 0 1.4 0.599999999998947 0 1.6 0.799999999999473 0 1.6 0.599999999998947 0 1.6 0.599999999998947 0 1.6 0.799999999999473 0 1.8 0.799999999999473 0 1.6 0.599999999998947 0 1.8 0.799999999999473 0 1.8 0.599999999998947 0 1.6 0.399999999998975 0 1.6 0.599999999998947 0 1.8 0.599999999998947 0 1.8 0.399999999998975 0 1.8 0.599999999998947 0 2 0.599999999998947 0 1.8 0.599999999998947 0 1.8 0.799999999999473 0 2 0.799999999999473 0 1.8 0.599999999998947 0 2 0.799999999999473 0 2 0.599999999998947 0 1.8 0.399999999998975 0 2 0.599999999998947 0 2 0.399999999998975 0 1.8 0.199999999999558 0 2 0.399999999998975 0 2 0.199999999999558 0 1.8 0.199999999999558 0 1.8 0.399999999998975 0 2 0.399999999998975 0 1.8 0 0 2 0.199999999999558 0 2 0 0 1.8 0 0 1.8 0.199999999999558 0 2 0.199999999999558 0 1.6 0 0 1.8 0.199999999999558 0 1.8 0 0 1.6 0 0 1.6 0.199999999999558 0 1.8 0.199999999999558 0 1.4 0 0 1.6 0.199999999999558 0 1.6 0 0 1.6 0.399999999998975 0 1.8 0.599999999998947 0 1.8 0.399999999998975 0 1.6 0.199999999999558 0 1.8 0.399999999998975 0 1.8 0.199999999999558 0 1.6 0.199999999999558 0 1.6 0.399999999998975 0 1.8 0.399999999998975 0 1.4 0.199999999999558 0 1.6 0.399999999998975 0 1.6 0.199999999999558 0 1.4 0.399999999998975 0 1.6 0.599999999998947 0 1.6 0.399999999998975 0 1.4 0.199999999999558 0 1.4 0.399999999998975 0 1.6 0.399999999998975 0 1.2 0.199999999999558 0 1.2 0.399999999998975 0 1.4 0.399999999998975 0 1.2 0.199999999999558 0 1.4 0.399999999998975 0 1.4 0.199999999999558 0 1.2 0.399999999998975 0 1.4 0.599999999998947 0 1.4 0.399999999998975 0 1.4 0 0 1.4 0.199999999999558 0 1.6 0.199999999999558 0 1.2 0 0 1.2 0.199999999999558 0 1.4 0.199999999999558 0 1.2 0 0 1.4 0.199999999999558 0 1.4 0 0 1 0 0 1.2 0.199999999999558 0 1.2 0 0 1 0 0 1 0.199999999999558 0 1.2 0.199999999999558 0 1 0.399999999998975 0 1.2 0.599999999998947 0 1.2 0.399999999998975 0 1 0.199999999999558 0 1.2 0.399999999998975 0 1.2 0.199999999999558 0 1 0.199999999999558 0 1 0.399999999998975 0 1.2 0.399999999998975 0 1 0.399999999998975 0 1 0.599999999998947 0 1.2 0.599999999998947 0 1 0.599999999998947 0 1.2 0.799999999999473 0 1.2 0.599999999998947 0 1 0.599999999998947 0 1 0.799999999999473 0 1.2 0.799999999999473 0 1 0.799999999999473 0 1 1 0 1.2 1 0 1 0.799999999999473 0 1.2 1 0 1.2 0.799999999999473 0 1.2 0.799999999999473 0 1.4 1 0 1.4 0.799999999999473 0 1.2 0.799999999999473 0 1.2 1 0 1.4 1 0 1.4 0.799999999999473 0 1.4 1 0 1.6 1 0 1.4 0.599999999998947 0 1.4 0.799999999999473 0 1.6 0.799999999999473 0 1.4 0.399999999998975 0 1.4 0.599999999998947 0 1.6 0.599999999998947 0 1.2 0.399999999998975 0 1.2 0.599999999998947 0 1.4 0.599999999998947 0 1.2 0.599999999998947 0 1.2 0.799999999999473 0 1.4 0.799999999999473 0 1.2 0.599999999998947 0 1.4 0.799999999999473 0 1.4 0.599999999998947 0 2.6 0.599999999998947 0 2.6 0.799999999999473 0 2.8 0.799999999999473 0 2.6 0.599999999998947 0 2.8 0.799999999999473 0 2.8 0.599999999998947 0 2.6 0.399999999998975 0 2.6 0.599999999998947 0 2.8 0.599999999998947 0 2.4 0.599999999998947 0 2.6 0.799999999999473 0 2.6 0.599999999998947 0 2.4 0.799999999999473 0 2.6 1 0 2.6 0.799999999999473 0 2.6 0.799999999999473 0 2.6 1 0 2.8 1 0 2.6 0.799999999999473 0 2.8 1 0 2.8 0.799999999999473 0 2.8 0.799999999999473 0 2.8 1 0 3 1 0 2.8 0.799999999999473 0 3 1 0 3 0.799999999999473 0 2.8 0.599999999998947 0 3 0.799999999999473 0 3 0.599999999998947 0 2.8 0.599999999998947 0 2.8 0.799999999999473 0 3 0.799999999999473 0 2.8 0.399999999998975 0 2.8 0.599999999998947 0 3 0.599999999998947 0 2.8 0.399999999998975 0 3 0.599999999998947 0 3 0.399999999998975 0 2.8 0.199999999999558 0 3 0.399999999998975 0 3 0.199999999999558 0 2.8 0.199999999999558 0 2.8 0.399999999998975 0 3 0.399999999998975 0 2.8 0 0 3 0.199999999999558 0 3 0 0 2.8 0 0 2.8 0.199999999999558 0 3 0.199999999999558 0 2.6 0 0 2.8 0.199999999999558 0 2.8 0 0 2.6 0 0 2.6 0.199999999999558 0 2.8 0.199999999999558 0 2.4 0 0 2.6 0.199999999999558 0 2.6 0 0 2.6 0.399999999998975 0 2.8 0.599999999998947 0 2.8 0.399999999998975 0 2.6 0.199999999999558 0 2.8 0.399999999998975 0 2.8 0.199999999999558 0 2.6 0.199999999999558 0 2.6 0.399999999998975 0 2.8 0.399999999998975 0 2.4 0.199999999999558 0 2.6 0.399999999998975 0 2.6 0.199999999999558 0 2.4 0.399999999998975 0 2.6 0.599999999998947 0 2.6 0.399999999998975 0 2.4 0.199999999999558 0 2.4 0.399999999998975 0 2.6 0.399999999998975 0 2.2 0.199999999999558 0 2.4 0.399999999998975 0 2.4 0.199999999999558 0 2.2 0.199999999999558 0 2.2 0.399999999998975 0 2.4 0.399999999998975 0 2.2 0.399999999998975 0 2.4 0.599999999998947 0 2.4 0.399999999998975 0 2.4 0 0 2.4 0.199999999999558 0 2.6 0.199999999999558 0 2.2 0 0 2.2 0.199999999999558 0 2.4 0.199999999999558 0 2.2 0 0 2.4 0.199999999999558 0 2.4 0 0 2 0 0 2.2 0.199999999999558 0 2.2 0 0 2 0 0 2 0.199999999999558 0 2.2 0.199999999999558 0 2 0.399999999998975 0 2.2 0.599999999998947 0 2.2 0.399999999998975 0 2 0.199999999999558 0 2.2 0.399999999998975 0 2.2 0.199999999999558 0 2 0.199999999999558 0 2 0.399999999998975 0 2.2 0.399999999998975 0 2 0.399999999998975 0 2 0.599999999998947 0 2.2 0.599999999998947 0 2 0.599999999998947 0 2 0.799999999999473 0 2.2 0.799999999999473 0 2 0.599999999998947 0 2.2 0.799999999999473 0 2.2 0.599999999998947 0 2.2 0.399999999998975 0 2.2 0.599999999998947 0 2.4 0.599999999998947 0 2.2 0.599999999998947 0 2.4 0.799999999999473 0 2.4 0.599999999998947 0 2.2 0.599999999998947 0 2.2 0.799999999999473 0 2.4 0.799999999999473 0 2.4 0.599999999998947 0 2.4 0.799999999999473 0 2.6 0.799999999999473 0 2.4 0.399999999998975 0 2.4 0.599999999998947 0 2.6 0.599999999998947 0 2.4 0.799999999999473 0 2.4 1 0 2.6 1 0 2.2 0.799999999999473 0 2.4 1 0 2.4 0.799999999999473 0 2.2 0.799999999999473 0 2.2 1 0 2.4 1 0 2 0.799999999999473 0 2.2 1 0 2.2 0.799999999999473 0 2 0.799999999999473 0 2 1 0 2.2 1 0 3.8 0.799999999999473 0 4 1 0 4 0.799999999999473 0 3.8 0.799999999999473 0 3.8 1 0 4 1 0 3.8 0.599999999998947 0 4 0.799999999999473 0 4 0.599999999998947 0 3.8 0.599999999998947 0 3.8 0.799999999999473 0 4 0.799999999999473 0 3.8 0.399999999998975 0 3.8 0.599999999998947 0 4 0.599999999998947 0 3.6 0.399999999998975 0 3.6 0.599999999998947 0 3.8 0.599999999998947 0 3.6 0.599999999998947 0 3.8 0.799999999999473 0 3.8 0.599999999998947 0 3.6 0.599999999998947 0 3.6 0.799999999999473 0 3.8 0.799999999999473 0 3.4 0.599999999998947 0 3.6 0.799999999999473 0 3.6 0.5999999999989
[...]
<PointData Scalars="conc_conc," Vectors="" Tensors="">
<DataArray type="Float64" Name="conc_conc" format="ascii">
-1.80931758992107e-06 -1.80931758992107e-06 1.94489704223251e-06 -3.57103435650527e-06 2.27636598129091e-06 5.2837716410522e-06 -1.81214181360618e-06 -1.81214181360619e-06 1.96730718594834e-06 -3.56720271187541e-06 2.2982048281498e-06 5.30872017321926e-06 -3.56842943396888e-06 2.31298993884593e-06 5.33004103417132e-06 2.32526949598948e-05 1.06163217868606e-05 -1.05468181177499e-05 8.07150821707254e-06 5.25826329940697e-06 8.21263923124317e-06 2.3185921184368e-05 1.06342897842799e-05 -1.04575089189053e-05 -2.4641063703831e-05 2.72462137022512e-05 -5.7917004004326e-05 2.31201158554462e-05 1.06917635593752e-05 -1.03613659271151e-05 8.03145794981085e-06 5.21441573280133e-06 8.25350001300287e-06 -2.4530866779771e-05 2.7359969091912e-05 -5.76963218019235e-05 -4.44107055162908e-05 -5.27466418294623e-06 -0.000290918224763435 -0.000899043630716921 0.000496567397497661 -0.000203172321023779 -0.000463231414029482 -9.74002568968174e-05 0.000269471471965927 -4.46729340917532e-05 -5.58465364601372e-06 -0.000290661540739841 -4.49528977006729e-05 -5.73298507650652e-06 -0.000290892696460712 -0.000898632907170665 0.0004971806531797 -0.000199217585972958 -0.000898028606731628 0.000496373456235768 -0.000200722651926721 -0.000462758466732598 -9.78177757198749e-05 0.000269769493145612 -0.000671891075613873 -1.29432799855176e-05 0.00388198332140279 -0.0018819386476643 0.00436254888561235 0.00401804756530893 -0.00188479825051021 0.0043601582618548 0.00401441224530031 -0.00189266109636661 0.00436660140061766 0.0040171828935944 -0.000675790490251486 -1.39999061077922e-05 0.00388659090978303 -0.00066382541793485 -9.79231986077502e-06 0.00388174725774627 -0.00187021272598683 0.00435588853634684 0.00402132311504793 -0.00187901120054361 0.00436463341455391 0.00402206339449723 -0.000670094405001055 -1.19717421508829e-05 0.00388482091953096 -0.000668280043578578 -1.09203730967969e-05 0.00388756532460058 -0.000899319746569457 0.000498086784702638 -0.000197790097942213 -0.000463513696040186 -9.84662660533325e-05 0.000271462743777769 -0.000463101150286178 -9.81808215564451e-05 0.000270567373426434 -4.5257308670831e-05 -5.8183620882637e-06 -0.000291183588177084 -4.56031704729773e-05 -5.92543010075046e-06 -0.000291089438924857 -0.000898440218726757 0.000498010472533467 -0.000195359672937023 -0.000463190800710708 -9.86267064470815e-05 0.000271992047856719 -2.50816706523223e-05 2.70943986572883e-05 -5.83474816912452e-05 2.3381294862773e-05 1.05623130345685e-05 -1.07568825838241e-05 8.1760261248847e-06 5.36313625243765e-06 8.14061194915712e-06 -2.47717791693002e-05 2.72118404705518e-05 -5.80944620107649e-05 -2.49175979225609e-05 2.71841924269344e-05 -5.82408811809243e-05 2.33190576580489e-05 1.06030068076869e-05 -1.06412459332782e-05 8.13701008457994e-06 5.32203195951618e-06 8.17990574914446e-06 8.1043525919822e-06 5.29038372985933e-06 8.19595260925231e-06 -3.56964538155596e-06 2.32760610321619e-06 5.35164582283482e-06 -1.81906325908543e-06 -1.81906302431782e-06 1.99760379573893e-06 -1.81559581779289e-06 -1.81560197933745e-06 1.9824170053418e-06 -3.56528720840179e-06 2.34825762145115e-06 5.37777674111996e-06 -1.82169802938811e-06 -1.82169532668733e-06 2.02019929873505e-06 0.0783574584017771 0.0792483485774575 0.0780732199190352 0.0764866135847107 0.0764828253899479 0.0800382496244536 0.0617899165721337 0.0601531086588885 0.0759557084319969 0.0636185490908626 0.0752755076908684 0.0757093679729596 0.0397036735849715 0.0591347054710832 0.061150998142934 0.0397945360913339 0.0594263461772297 0.0613451101111772 0.0619777668513214 0.0604528503859253 0.0763691077769802 0.063809588956923 0.0756939771702864 0.0759752529707561 0.0620529256233718 0.0605538032527716 0.0765258829894088 0.0768689660650364 0.0770736183016753 0.0807191680790436 0.0767501353202872 0.0769111144082596 0.0805225840803108 0.0786279044089581 0.0797328882933315 0.0783641755354988 0.078750274377983 0.0799294055820879 0.0785057335632067 0.0788842613693143 0.0801145711834288 0.0786599363275894 0.0769990864870938 0.0772262926635879 0.0809049969538377 0.0792050669848068 0.0805393769482455 0.0790059876803162 0.0773113216944779 0.0776014647163877 0.0813319790964406 0.0642012776206151 0.0763691460274203 0.0765356928146932 0.0623608403094371 0.0609075843361963 0.077040816140126 0.0399707999833492 0.0598711530321371 0.0617328474726102 0.0638861221038097 0.0758525194874601 0.0760946387484249 0.0639716556601666 0.0760016687177032 0.0762245486615805 0.0621366741839038 0.0606477383586658 0.0766741761417049 0.039854815811603 0.0596167349365987 0.0615071007638346 0.0398217187685758 0.0595248441942436 0.0614222951102147 0.0390180139218659 0.0367982918145891 0.0598587293285767 0.0168296647994554 0.0154441396140127 0.0362910422989469 0.0162067869380312 0.036570664256591 0.0388346877211764 0.0162074924857406 0.036533539585591 0.0387981069788344 0.0391351848196472 0.0369289057108978 0.0601091973005349 0.0168646187879089 0.0154830554453164 0.0364162003613913 0.0162346851759524 0.0367009414310916 0.0389557791635044 0.00190651959547113 0.0161386557569651 0.0172150274952943 0.00340290699366417 0.00345658766692493 0.0155735029174041 0.00192331767067454 0.0160904020151837 0.0171700796377864 0.00191502015663289 0.0160958954981888 0.0171754291163343 0.00340357446293345 0.00345394836573378 0.0155347012848116 0.00340847931000425 0.00345789902732639 0.0155307035146458 0.0019325837477894 0.0160832839623734 0.0171665643746641 0.00341414775984815 0.00346139965407171 0.0155256430616593 0.00341872408717689 0.00345585579382304 0.0154800945876952 0.00194607305269973 0.016031064049778 0.0171348461519365 0.0161964377458387 0.036340487510234 0.038662881274031 0.0168020891491197 0.0153859277880943 0.0360758044258922 0.0388598022186141 0.0365664084202083 0.0593907149200808 0.0389541402182074 0.0367211493791554 0.0596735542885106 0.038983385807886 0.0367620326992403 0.0597689287599063 0.0168264103845831 0.0154409034439715 0.036256274783075 0.0168257152794501 0.0154357217620515 0.0362185202938745 0.016211235706009 0.0364925048151959 0.038765844301125 0.0406093098216393 0.0415325994231771 0.027672254621173 0.0401457594523072 0.0278163312347523 0.027438257261273 0.0407007794807907 0.0416710321131495 0.0277738698449417 0.0558744423199954 0.0418535218025533 0.0407161410294599 0.0556485632000773 0.0415377087275086 0.0405583821347076 0.0404458793342073 0.041220924304006 0.0274433109665983 0.0399811627052932 0.0275928916754832 0.0273336283328484 0.0271355081441315 0.0272510732090155 0.016831878915958 0.0266131528525858 0.0170496230720852 0.0172778044699959 0.0267229082997673 0.0171964765954609 0.0173421348042777 0.0272449966183685 0.02746981546915 0.0169830371988758 0.0273085087174204 0.0275680916688244 0.0170503512844992 0.0267861388935404 0.0172625366370023 0.0173820181982224 0.0268572296066438 0.0173227294819851 0.0174284708200415 0.0273802065628647 0.0276588850992601 0.0171110399989669 0.0269989506818264 0.0174423169070227 0.0175198683849941 0.0275233761248672 0.0278419342318422 0.0172316899990499 0.0405460241157048 0.0281943208569189 0.0277131113609634 0.0410099578257099 0.0420653867454513 0.0280549357315809 0.0564063676434109 0.0423910291469426 0.0411116526701562 0.0402374611095696 0.0279162830914906 0.0275003397251368 0.0403392736933875 0.028008334924645 0.0275713909767888 0.0408026608496176 0.0418002411238456 0.0278669379591478 0.0561292737910928 0.0421233352527766 0.0409066724807644 0.0559956632632752 0.0419932414084663 0.0408058374885575 0.0562916925877814 0.0580618474098544 0.0421574838803298 0.0711876949217596 0.0581796064300844 0.0562097307610947 0.0707456226002984 0.0729080741372396 0.0584914867626299 0.0710313633603196 0.0580132419326246 0.0560788149392951 0.0565673598517845 0.0584128776130068 0.0424282711425354 0.0710765330995587 0.0733243832125803 0.0588472364016556 0.0715232452596356 0.0585313271853838 0.0564822711600452 0.0808964238450853 0.0730110950792203 0.0707188822294818 0.0796424611075967 0.0814062617127422 0.0736308589879034 0.0803806650823251 0.0724081458876496 0.0702392473820755 0.0805398032488178 0.0725972401675761 0.0703915063462928 0.0792934690673811 0.0809754905113936 0.0732131473087485 0.0791381653164401 0.0807870458733868 0.0730224336121244 0.0789958434892615 0.0805869953340514 0.0728197590234822 0.0802346660264851 0.0722069786541998 0.070100313690165 0.0705918042368223 0.0727173244577499 0.0583232916957497 0.0708882095379474 0.0578354214555572 0.0559606247823047 0.0704512293488068 0.0725145283993922 0.0581433336179205 0.0560391424710111 0.0577177465817313 0.0418840765730765 0.0561591258439618 0.0578957448171418 0.0420258832875072 0.0558161360394277 0.0573107708333835 0.0415619822971916 0.0706098192579017 0.0574266170658678 0.0557431824380164 0.0701778789834678 0.0720367004607522 0.0577287875090912 0.0799349504295521 0.07173154844704 0.0698313370571867 0.0787032233273005 0.0800955082702091 0.0723406239005954 0.00158526638148484 0.00069152111378916 0.000891493870610074 0.00166745080584236 0.00139992375562726 0.000638301042985995 0.00159101185237986 0.000699893069834384 0.000893927242576569 0.00167323878572272 0.00141517208006958 0.000647129963427222 0.00167729060812802 0.00142200690537144 0.000650901993144494 0.00317791223613252 0.00282999666681097 0.00137146856800649 0.00303050311394273 0.0014482089142127 0.00173332232348213 0.00317018399903267 0.00281718373761412 0.001364169392 0.00557897990889398 0.00288229003674629 0.00326301861579423 0.00315868707681112 0.00278874863268542 0.00134731780172088 0.0030190887547619 0.0014321449223787 0.00172817959680287 0.00555722866626063 0.00285249806437584 0.00325259588437283 0.00578104285830008 0.00532711587139518 0.00272571053113167 0.0101669336384993 0.00970834113200427 0.00526831408199429 0.00983362339043253 0.00544267600756482 0.00591671626052798 0.00580293628419808 0.00537810208341285 0.002756809460031 0.00581710363063406 0.0054012279409452 0.00277043462564739 0.0102313544313586 0.00983559958058918 0.00534796446649384 0.00987314474479213 0.00549583191562867 0.00593686263897116 0.0102066192707189 0.00979589018626168 0.00532354459315882 0.0166872857156554 0.00998903580212057 0.010383335466097 0.017177653352157 0.0169798511671536 0.00982028373901598 0.0171366737744609 0.0169154346299115 0.00977855746496703 0.0170686796176272 0.0167726156967119 0.00968478623915613 0.0166193494853016 0.00989834566578326 0.0103462758905139 0.0168644562515971 0.0101387185492805 0.0104915566394302 0.017316563569277 0.0171559643212993 0.00992970162329569 0.017224486556114 0.0170388334950641 0.00985719256441889 0.0167278095592093 0.0100299342387344 0.0104073919449063 0.0167739110674532 0.0100666451575184 0.0104359895761948 0.0102601067960347 0.00987140095475102 0.00536912354029463 0.00992558805683182 0.00554087857037152 0.00596732392707829 0.00989749191176745 0.00551976587760366 0.00595061620458778 0.00583383667110039 0.00542174266944536 0.00278197230913546 0.00586608085959011 0.00546159200845082 0.00280419148329693 0.0103159812332452 0.00994162337762605 0.00541028972775148 0.00998017302466843 0.0055819457243377 0.00599948081931945 0.00564043381453407 0.00292946910910651 0.00329769427013992 0.00320507271707813 0.0028627457233652 0.00138895970636605 0.00306428182766012 0.00147298455910379 0.00175182307257281 0.00559283954540473 0.00289562561165124 0.00327049305238074 0.005609123348811 0.00290719430176795 0.00327985527636347 0.00318725557855684 0.00284120288397388 0.00137748110786282 0.00304707294597161 0.00146141243181341 0.00174227736174301 0.00303804156243674 0.00145535023233121 0.00173723232581274 0.00168230168736905 0.0014278636903769 0.000653912772744485 0.00159976974479667 0.000706636973694079 0.000898531867099262 0.00159495086753047 0.000703577921972952 0.000895904529723551 0.00169179615493521 0.00143902979827929 0.000659613042706309 0.00160889464582924 0.000712426375003806 0.000903482722651838 0.000820085706831074 0.000332443161390039 0.000454096890538522 0.00086667066668707 0.000696527034272924 0.000300938301340243 0.000861771631073148 0.000690950685424845 0.000298205741384474 0.000812916148377646 0.000328151761255741 0.000450270122729117 0.000815400794719301 0.000329644630969337 0.000451598989803324 0.000430074650287596 0.000322951856675399 0.000130717040810899 0.000405010922839892 0.000148672068040495 0.000221907205857434 0.00040376486824616 0.000147966648536816 0.000221250839378636 0.000209782387770845 0.000146134015989597 5.50143885814997e-05 0.000210986029487079 0.000147395291646575 5.55848944981295e-05 0.000407350774566531 0.000149983549697042 0.000223137575226753 0.000432532950683615 0.000325644366520787 0.000131984512001404 0.000854317532000114 0.000676578053020448 0.000290369182836022 0.000808138039416671 0.000322072786565862 0.000448193268488875 0.000810922784653052 0.000326309735381367 0.00044929897518501 0.000857118018702262 0.00068448884256921 0.000294861140117121 0.000859174642087213 0.000687999707940748 0.000296747584717505 0.000428766595297861 0.000321514899790188 0.000130034777934958 0.000209140090026452 0.000145455247151695 5.47045651178589e-05 0.00020865568188439 0.000144606902452557 5.42686696219818e-05 0.000402787717049546 0.000147071247576641 0.000220786445726788 0.000427756090157186 0.000319763905600402 0.000129116388913904 0.000401483300742823 0.000144979988365477 0.000220304311240251 0.000208064428546684 0.000142648301498953 5.31865339027528e-05 0.000426446511925135 0.000315779583413021 0.000126886814091 9.94982898796556e-05 6.24558235594871e-05 2.12965172577357e-05 0.00019500072367097 6.31437835061764e-05 0.000106162766834865 9.28500324981513e-05 2.66081472706688e-05 5.02724482675901e-05 9.97570632788837e-05 6.3396940763696e-05 2.18114228693932e-05 9.31103129161379e-05 2.70852644625767e-05 5.03533467090917e-05 0.000195591532209373 6.41526919884191e-05 0.00010636462173404 9.99840058411124e-05 6.3798374964691e-05 2.20139748450015e-05 4.6960564072126e-05 2.71459294515069e-05 8.40860291929518e-06 4.35545897800651e-05 1.10550029344977e-05 2.34709838917238e-05 4.68567083526839e-05 2.69599108529539e-05 8.31625891158256e-06 4.34431245444644e-05 1.08331844443877e-05 2.34401836941409e-05 4.67467284015102e-05 2.65166634308065e-05 8.07538455142951e-06 0.00010086956782616 6.46851513649333e-05 2.24002586884901e-05 9.41646890249373e-05 2.76929149457418e-05 5.08839631014562e-05 0.000197810098709479 6.54992190517137e-05 0.000107492654139847 0.000196669335255989 6.49016021795986e-05 0.000106898985631374 0.000196060122566722 6.4577485314209e-05 0.000106581784904583 9.33286900575676e-05 2.72826101736537e-05 5.04524755072628e-05 9.36198980767855e-05 2.74275929774528e-05 5.06026378721225e-05 0.000100292375493995 6.41101317417596e-05 2.21507681458626e-05 4.71057429373793e-05 2.72855049347486e-05 8.46737054705069e-06 4.36542972182986e-05 1.11448620606191e-05 2.35153400989796e-05 4.37908673584722e-05 1.12081814067234e-05 2.35853263917884e-05 4.73773166851872e-05 2.75410213154718e-05 8.57340682135077e-06 4.40461701336865e-05 1.13230578765998e-05 2.37164419535263e-05 2.19064818681248e-05 1.13723264594759e-05 3.0696296032708e-06 2.02856193176055e-05 4.46448766428906e-06 1.09027108850522e-05 9.21491070109226e-06 1.68779153058246e-06 4.95088947856788e-06 9.98931928996067e-06 4.5465895799007e-06 9.9492498750873e-07 4.499105430621e-06 1.75360466822495e-06 2.67437391227981e-07 4.47335462081019e-06 1.73418432998478e-06 2.60633925455509e-07 9.93203211122177e-06 4.49963205249307e-06 9.7736279891812e-07 9.16158851412524e-06 1.66781017652825e-06 4.92358881135195e-06 9.13287411404908e-06 1.6564493569023e-06 4.90903181730656e-06 2.01049611607963e-05 4.38890226106913e-06 1.0810339224988e-05 2.01679984765291e-05 4.41596350029512e-06 1.08424756349976e-05 2.17808665308726e-05 1.12614452703758e-05 3.02582119273917e-06 2.17135840579057e-05 1.12004653058667e-05 3.00122225829646e-06 2.16670649493014e-05 1.11159091134689e-05 2.95980522127115e-06 2.00603090658046e-05 4.34866837180165e-06 1.07908187954099e-05 2.16218158096163e-05 1.09105221586405e-05 2.8488996045339e-06 2.00140073122944e-05 4.24715692008873e-06 1.07799420335838e-05 9.86289456825444e-06 4.34204684065162e-06 8.98648496165461e-07 9.09453593614737e-06 1.59287880835312e-06 4.89712859322148e-06 4.4437905388525e-06 1.66440921124947e-06 2.26046323292075e-07 9.90140037434575e-06 4.47345984053527e-06 9.67327785133756e-07 9.88084161923984e-06 4.43571550506228e-06 9.49054846425646e-07 9.11319258590189e-06 1.63869922783188e-06 4.9006004490084e-06 4.45066509580537e-06 1.706550561791e-06 2.48672340767797e-07 4.4595680805411e-06 1.72317189126875e-06 2.56623361849092e-07 4.08974262349357e-06 5.8478943448076e-07 2.20129097775239e-06 1.81547972090444e-06 1.93126828324677e-07 9.79100236941059e-07 1.98277117062745e-06 6.28500943344654e-07 3.20200032665951e-08 1.98656169659918e-06 6.35724564103592e-07 3.544947247969e-08 4.08245187181245e-06 5.64361738552055e-07 2.20038032737911e-06 1.81272569653179e-06 1.84117408915073e-07 9.78982044694395e-07 1.98024840013937e-06 6.09770476968225e-07 2.19770392520605e-08 8.73797128544729e-07 2.10382228500299e-07 -2.45639659167433e-08 7.97110260696095e-07 5.19869533841855e-08 4.31717021085824e-07 8.76257209853452e-07 2.21718691813655e-07 -1.86841867171153e-08 8.74667541121069e-07 2.18615888233167e-07 -2.01474960231867e-08 7.98104520114722e-07 5.59221703055688e-08 4.31644559998081e-07 7.996224822734e-07 5.73350498989998e-08 4.3226120171722e-07 8.78940078851239e-07 2.23532479446424e-07 -1.81116595869287e-08 8.02104107188435e-07 5.80574161424417e-08 4.33526585924055e-07 8.06755934351936e-07 5.92750630421349e-08 4.35916258872732e-07 8.83980227097186e-07 2.2666501200493e-07 -1.71965191195928e-08 2.00407596696362e-06 6.4814824949815e-07 3.95639028630447e-08 1.83533700604746e-06 2.01485822294123e-07 9.88895007179497e-07 4.13500443577976e-06 6.05252509179069e-07 2.22354065563803e-06 4.11107184218676e-06 5.97167554581523e-07 2.21135882906448e-06 4.09826122265733e-06 5.92518817882951e-07 2.20486570113872e-06 1.81909622117696e-06 1.96453118427538e-07 9.80590891102765e-07 1.99265827563536e-06 6.40244391468848e-07 3.69974529531301e-08 1.82474740018862e-06 1.98305534607912e-07 9.83465867616288e-07 1.67336591064863e-10 -6.5732609197344e-11 -6.22152332282137e-11 1.48288258517973e-10 -3.87759742821982e-11 8.42567505798742e-11 1.4990294015039e-10 -3.84835868139212e-11 8.5144519545556e-11 1.69231263203079e-10 -6.44057311390674e-11 -6.18336740533041e-11 1.69069300417122e-10 -6.48136268934724e-11 -6.20213498219334e-11 4.06276814488706e-10 -1.32723593915119e-10 -1.37074789885497e-10 3.61085826273852e-10 -8.23827818680247e-11 2.04008574025098e-10 4.06696983778573e-10 -1.31698989948389e-10 -1.36603668802847e-10 8.66680909296185e-10 -1.72050524833821e-10 4.87035501625081e-10 8.68902438278853e-10 -1.77426501939912e-10 4.89096092587904e-10 4.07575692176295e-10 -1.37484601937662e-10 -1.39785916357006e-10 3.63402304111112e-10 -8.33341856748629e-11 2.02169346740579e-10 1.52030283415231e-10 -3.86231756310168e-11 8.6292544839323e-11 1.71440165417182e-10 -6.48430046484767e-11 -6.24261022036993e-11 1.58701280336939e-10 -5.84031066744832e-11 -5.68842565768847e-11 1.40671812633024e-10 -3.48852513924862e-11 7.94817042019295e-11 1.50058529933574e-10 -3.83071791620992e-11 8.51976339224189e-11 3.61488398817321e-10 -8.19387958175261e-11 2.04149434182278e-10 8.67717623643598e-10 -1.70936632786383e-10 4.87404824063513e-10 8.6997317411197e-10 -1.68626873410851e-10 4.88218093262299e-10 4.07523473120955e-10 -1.29462698277273e-10 -1.35311364086046e-10 3.68214056036543e-10 -7.47329023585517e-11 1.91410444897074e-10 4.10387000914722e-10 -1.31784804154809e-10 -1.37262717398144e-10 8.75663067780638e-10 -1.71248823676795e-10 4.91690089619071e-10 3.64429244717376e-10 -8.25583932063137e-11 2.06763478616503e-10 2.093728340186e-09 -3.45090983382187e-10 1.16927832203935e-09 9.82616853027577e-10 -2.57777775605956e-10 -2.98426491622233e-10 2.34332626403172e-09 -4.72740362833886e