<?xml version="1.0"?>
<VTKFile type="UnstructuredGrid" version="0.1" byte_order="LittleEndian">
<UnstructuredGrid>
<Piece NumberOfPoints="2400" NumberOfCells="800">
<Points>
<DataArray type="Float64" NumberOfComponents="3" format="ascii">
0 0 0 0 0.199999999999558 0 0.2 0.199999999999558 0 0 0 0 0.2 0.199999999999558 0 0.2 0 0 0 0.199999999999558 0 0 0.399999999998975 0 0.2 0.399999999998975 0 0 0.199999999999558 0 0.2 0.399999999998975 0 0.2 0.199999999999558 0 0 0.399999999998975 0 0.2 0.599999999998947 0 0.2 0.399999999998975 0 0.2 0.399999999998975 0 0.4 0.599999999998947 0 0.4 0.399999999998975 0 0.2 0.199999999999558 0 0.2 0.399999999998975 0 0.4 0.399999999998975 0 0.2 0.199999999999558 0 0.4 0.399999999998975 0 0.4 0.199999999999558 0 0.4 0.199999999999558 0 0.4 0.399999999998975 0 0.6 0.399999999998975 0 0.2 0 0 0.4 0.199999999999558 0 0.4 0 0 0.2 0 0 0.2 0.199999999999558 0 0.4 0.199999999999558 0 0.4 0 0 0.4 0.199999999999558 0 0.6 0.199999999999558 0 0.4 0 0 0.6 0.199999999999558 0 0.6 0 0 0.6 0 0 0.8 0.199999999999558 0 0.8 0 0 0.6 0 0 0.6 0.199999999999558 0 0.8 0.199999999999558 0 0.4 0.199999999999558 0 0.6 0.399999999998975 0 0.6 0.199999999999558 0 0.4 0.399999999998975 0 0.6 0.599999999998947 0 0.6 0.399999999998975 0 0.6 0.399999999998975 0 0.8 0.599999999998947 0 0.8 0.399999999998975 0 0.6 0.199999999999558 0 0.8 0.399999999998975 0 0.8 0.199999999999558 0 0.6 0.199999999999558 0 0.6 0.399999999998975 0 0.8 0.399999999998975 0 0.8 0.199999999999558 0 0.8 0.399999999998975 0 1 0.399999999998975 0 0.8 0.399999999998975 0 1 0.599999999998947 0 1 0.399999999998975 0 0.8 0.199999999999558 0 1 0.399999999998975 0 1 0.199999999999558 0 0.8 0 0 1 0.199999999999558 0 1 0 0 0.8 0 0 0.8 0.199999999999558 0 1 0.199999999999558 0 0.8 0.799999999999473 0 0.8 1 0 1 1 0 0.8 0.799999999999473 0 1 1 0 1 0.799999999999473 0 0.8 0.599999999998947 0 1 0.799999999999473 0 1 0.599999999998947 0 0.8 0.399999999998975 0 0.8 0.599999999998947 0 1 0.599999999998947 0 0.8 0.599999999998947 0 0.8 0.799999999999473 0 1 0.799999999999473 0 0.6 0.599999999998947 0 0.8 0.799999999999473 0 0.8 0.599999999998947 0 0.6 0.599999999998947 0 0.6 0.799999999999473 0 0.8 0.799999999999473 0 0.6 0.399999999998975 0 0.6 0.599999999998947 0 0.8 0.599999999998947 0 0.4 0.599999999998947 0 0.6 0.799999999999473 0 0.6 0.599999999998947 0 0.4 0.799999999999473 0 0.6 1 0 0.6 0.799999999999473 0 0.6 0.799999999999473 0 0.8 1 0 0.8 0.799999999999473 0 0.6 0.799999999999473 0 0.6 1 0 0.8 1 0 0.4 0.799999999999473 0 0.4 1 0 0.6 1 0 0.2 0.799999999999473 0 0.4 1 0 0.4 0.799999999999473 0 0.2 0.799999999999473 0 0.2 1 0 0.4 1 0 0.4 0.399999999998975 0 0.4 0.599999999998947 0 0.6 0.599999999998947 0 0.4 0.599999999998947 0 0.4 0.799999999999473 0 0.6 0.799999999999473 0 0.2 0.599999999998947 0 0.4 0.799999999999473 0 0.4 0.599999999998947 0 0.2 0.599999999998947 0 0.2 0.799999999999473 0 0.4 0.799999999999473 0 0.2 0.399999999998975 0 0.2 0.599999999998947 0 0.4 0.599999999998947 0 0 0.599999999998947 0 0.2 0.799999999999473 0 0.2 0.599999999998947 0 0 0.599999999998947 0 0 0.799999999999473 0 0.2 0.799999999999473 0 0 0.399999999998975 0 0 0.599999999998947 0 0.2 0.599999999998947 0 0 0.799999999999473 0 0.2 1 0 0.2 0.799999999999473 0 0 0.799999999999473 0 0 1 0 0.2 1 0 1.8 0.799999999999473 0 2 1 0 2 0.799999999999473 0 1.8 0.799999999999473 0 1.8 1 0 2 1 0 1.6 0.799999999999473 0 1.6 1 0 1.8 1 0 1.6 0.799999999999473 0 1.8 1 0 1.8 0.799999999999473 0 1.4 0.799999999999473 0 1.6 1 0 1.6 0.799999999999473 0 1.4 0.599999999998947 0 1.6 0.799999999999473 0 1.6 0.599999999998947 0 1.6 0.599999999998947 0 1.6 0.799999999999473 0 1.8 0.799999999999473 0 1.6 0.599999999998947 0 1.8 0.799999999999473 0 1.8 0.599999999998947 0 1.6 0.399999999998975 0 1.6 0.599999999998947 0 1.8 0.599999999998947 0 1.8 0.399999999998975 0 1.8 0.599999999998947 0 2 0.599999999998947 0 1.8 0.599999999998947 0 1.8 0.799999999999473 0 2 0.799999999999473 0 1.8 0.599999999998947 0 2 0.799999999999473 0 2 0.599999999998947 0 1.8 0.399999999998975 0 2 0.599999999998947 0 2 0.399999999998975 0 1.8 0.199999999999558 0 2 0.399999999998975 0 2 0.199999999999558 0 1.8 0.199999999999558 0 1.8 0.399999999998975 0 2 0.399999999998975 0 1.8 0 0 2 0.199999999999558 0 2 0 0 1.8 0 0 1.8 0.199999999999558 0 2 0.199999999999558 0 1.6 0 0 1.8 0.199999999999558 0 1.8 0 0 1.6 0 0 1.6 0.199999999999558 0 1.8 0.199999999999558 0 1.4 0 0 1.6 0.199999999999558 0 1.6 0 0 1.6 0.399999999998975 0 1.8 0.599999999998947 0 1.8 0.399999999998975 0 1.6 0.199999999999558 0 1.8 0.399999999998975 0 1.8 0.199999999999558 0 1.6 0.199999999999558 0 1.6 0.399999999998975 0 1.8 0.399999999998975 0 1.4 0.199999999999558 0 1.6 0.399999999998975 0 1.6 0.199999999999558 0 1.4 0.399999999998975 0 1.6 0.599999999998947 0 1.6 0.399999999998975 0 1.4 0.199999999999558 0 1.4 0.399999999998975 0 1.6 0.399999999998975 0 1.2 0.199999999999558 0 1.2 0.399999999998975 0 1.4 0.399999999998975 0 1.2 0.199999999999558 0 1.4 0.399999999998975 0 1.4 0.199999999999558 0 1.2 0.399999999998975 0 1.4 0.599999999998947 0 1.4 0.399999999998975 0 1.4 0 0 1.4 0.199999999999558 0 1.6 0.199999999999558 0 1.2 0 0 1.2 0.199999999999558 0 1.4 0.199999999999558 0 1.2 0 0 1.4 0.199999999999558 0 1.4 0 0 1 0 0 1.2 0.199999999999558 0 1.2 0 0 1 0 0 1 0.199999999999558 0 1.2 0.199999999999558 0 1 0.399999999998975 0 1.2 0.599999999998947 0 1.2 0.399999999998975 0 1 0.199999999999558 0 1.2 0.399999999998975 0 1.2 0.199999999999558 0 1 0.199999999999558 0 1 0.399999999998975 0 1.2 0.399999999998975 0 1 0.399999999998975 0 1 0.599999999998947 0 1.2 0.599999999998947 0 1 0.599999999998947 0 1.2 0.799999999999473 0 1.2 0.599999999998947 0 1 0.599999999998947 0 1 0.799999999999473 0 1.2 0.799999999999473 0 1 0.799999999999473 0 1 1 0 1.2 1 0 1 0.799999999999473 0 1.2 1 0 1.2 0.799999999999473 0 1.2 0.799999999999473 0 1.4 1 0 1.4 0.799999999999473 0 1.2 0.799999999999473 0 1.2 1 0 1.4 1 0 1.4 0.799999999999473 0 1.4 1 0 1.6 1 0 1.4 0.599999999998947 0 1.4 0.799999999999473 0 1.6 0.799999999999473 0 1.4 0.399999999998975 0 1.4 0.599999999998947 0 1.6 0.599999999998947 0 1.2 0.399999999998975 0 1.2 0.599999999998947 0 1.4 0.599999999998947 0 1.2 0.599999999998947 0 1.2 0.799999999999473 0 1.4 0.799999999999473 0 1.2 0.599999999998947 0 1.4 0.799999999999473 0 1.4 0.599999999998947 0 2.6 0.599999999998947 0 2.6 0.799999999999473 0 2.8 0.799999999999473 0 2.6 0.599999999998947 0 2.8 0.799999999999473 0 2.8 0.599999999998947 0 2.6 0.399999999998975 0 2.6 0.599999999998947 0 2.8 0.599999999998947 0 2.4 0.599999999998947 0 2.6 0.799999999999473 0 2.6 0.599999999998947 0 2.4 0.799999999999473 0 2.6 1 0 2.6 0.799999999999473 0 2.6 0.799999999999473 0 2.6 1 0 2.8 1 0 2.6 0.799999999999473 0 2.8 1 0 2.8 0.799999999999473 0 2.8 0.799999999999473 0 2.8 1 0 3 1 0 2.8 0.799999999999473 0 3 1 0 3 0.799999999999473 0 2.8 0.599999999998947 0 3 0.799999999999473 0 3 0.599999999998947 0 2.8 0.599999999998947 0 2.8 0.799999999999473 0 3 0.799999999999473 0 2.8 0.399999999998975 0 2.8 0.599999999998947 0 3 0.599999999998947 0 2.8 0.399999999998975 0 3 0.599999999998947 0 3 0.399999999998975 0 2.8 0.199999999999558 0 3 0.399999999998975 0 3 0.199999999999558 0 2.8 0.199999999999558 0 2.8 0.399999999998975 0 3 0.399999999998975 0 2.8 0 0 3 0.199999999999558 0 3 0 0 2.8 0 0 2.8 0.199999999999558 0 3 0.199999999999558 0 2.6 0 0 2.8 0.199999999999558 0 2.8 0 0 2.6 0 0 2.6 0.199999999999558 0 2.8 0.199999999999558 0 2.4 0 0 2.6 0.199999999999558 0 2.6 0 0 2.6 0.399999999998975 0 2.8 0.599999999998947 0 2.8 0.399999999998975 0 2.6 0.199999999999558 0 2.8 0.399999999998975 0 2.8 0.199999999999558 0 2.6 0.199999999999558 0 2.6 0.399999999998975 0 2.8 0.399999999998975 0 2.4 0.199999999999558 0 2.6 0.399999999998975 0 2.6 0.199999999999558 0 2.4 0.399999999998975 0 2.6 0.599999999998947 0 2.6 0.399999999998975 0 2.4 0.199999999999558 0 2.4 0.399999999998975 0 2.6 0.399999999998975 0 2.2 0.199999999999558 0 2.4 0.399999999998975 0 2.4 0.199999999999558 0 2.2 0.199999999999558 0 2.2 0.399999999998975 0 2.4 0.399999999998975 0 2.2 0.399999999998975 0 2.4 0.599999999998947 0 2.4 0.399999999998975 0 2.4 0 0 2.4 0.199999999999558 0 2.6 0.199999999999558 0 2.2 0 0 2.2 0.199999999999558 0 2.4 0.199999999999558 0 2.2 0 0 2.4 0.199999999999558 0 2.4 0 0 2 0 0 2.2 0.199999999999558 0 2.2 0 0 2 0 0 2 0.199999999999558 0 2.2 0.199999999999558 0 2 0.399999999998975 0 2.2 0.599999999998947 0 2.2 0.399999999998975 0 2 0.199999999999558 0 2.2 0.399999999998975 0 2.2 0.199999999999558 0 2 0.199999999999558 0 2 0.399999999998975 0 2.2 0.399999999998975 0 2 0.399999999998975 0 2 0.599999999998947 0 2.2 0.599999999998947 0 2 0.599999999998947 0 2 0.799999999999473 0 2.2 0.799999999999473 0 2 0.599999999998947 0 2.2 0.799999999999473 0 2.2 0.599999999998947 0 2.2 0.399999999998975 0 2.2 0.599999999998947 0 2.4 0.599999999998947 0 2.2 0.599999999998947 0 2.4 0.799999999999473 0 2.4 0.599999999998947 0 2.2 0.599999999998947 0 2.2 0.799999999999473 0 2.4 0.799999999999473 0 2.4 0.599999999998947 0 2.4 0.799999999999473 0 2.6 0.799999999999473 0 2.4 0.399999999998975 0 2.4 0.599999999998947 0 2.6 0.599999999998947 0 2.4 0.799999999999473 0 2.4 1 0 2.6 1 0 2.2 0.799999999999473 0 2.4 1 0 2.4 0.799999999999473 0 2.2 0.799999999999473 0 2.2 1 0 2.4 1 0 2 0.799999999999473 0 2.2 1 0 2.2 0.799999999999473 0 2 0.799999999999473 0 2 1 0 2.2 1 0 3.8 0.799999999999473 0 4 1 0 4 0.799999999999473 0 3.8 0.799999999999473 0 3.8 1 0 4 1 0 3.8 0.599999999998947 0 4 0.799999999999473 0 4 0.599999999998947 0 3.8 0.599999999998947 0 3.8 0.799999999999473 0 4 0.799999999999473 0 3.8 0.399999999998975 0 3.8 0.599999999998947 0 4 0.599999999998947 0 3.6 0.399999999998975 0 3.6 0.599999999998947 0 3.8 0.599999999998947 0 3.6 0.599999999998947 0 3.8 0.799999999999473 0 3.8 0.599999999998947 0 3.6 0.599999999998947 0 3.6 0.799999999999473 0 3.8 0.799999999999473 0 3.4 0.599999999998947 0 3.6 0.799999999999473 0 3.6 0.5999999999989
[...]
<PointData Scalars="conc_conc," Vectors="" Tensors="">
<DataArray type="Float64" Name="conc_conc" format="ascii">
0.971152501798173 0.971152501798172 -0.0172543255626357 0.84741549857878 -0.0610964258614263 0.018914671571386 0.967026263093001 0.967026263093 -0.0204317710317484 0.842636670364952 -0.0621251483089522 0.0183778888980861 0.840327985741598 -0.0628093539516389 0.0180795857367745 -0.0170522618602686 0.0030671096184309 -0.000247580846115151 -0.0175536748999161 -0.0972491228315166 -0.00703231269178335 -0.0169361795950934 0.00296641533908569 -0.000204712602388676 0.000200730730170286 0.0045236292458151 0.000295477590411844 -0.0166058321531214 0.00278474394168399 -0.000108033152642313 -0.0170896860335893 -0.0972870207324281 -0.00749916592632532 0.000218639071208868 0.00445632086094735 0.000304077891768399 0.000111285894007149 -0.000107438819233389 -1.82794126746301e-05 1.06291258955768e-05 3.23143645009107e-06 9.62480878974093e-07 4.61525177936551e-06 -0.000152121993064246 -8.15350134769088e-06 0.000109168463551952 -0.000114780829104111 -1.17214762829066e-05 0.000107677864143147 -0.000119133932739779 -8.32511477283767e-06 1.17531460991132e-05 3.46483883165975e-06 5.64379964573763e-07 1.13561693407792e-05 3.37225418085895e-06 7.0678136209154e-07 6.61454455445649e-06 -0.000155309864369141 -8.47888430558445e-06 -6.31558270188853e-07 4.00890908888117e-06 2.20492180030324e-07 -7.78920157551999e-07 -5.60482333383029e-08 -2.28223698261975e-08 -7.55911525411567e-07 -5.6816531445288e-08 -2.69537315206104e-08 -7.14263331211493e-07 -5.89195889024386e-08 -3.39856038034978e-08 -5.32081537907919e-07 3.93685126027047e-06 1.86461245571971e-07 -6.6227051120406e-07 4.0241221635468e-06 2.22143170568208e-07 -7.65774594524106e-07 -5.70218408814865e-08 -2.36654552260938e-08 -7.82008375135801e-07 -5.63844240693035e-08 -2.17355234405833e-08 -6.8606200532337e-07 4.0488713662782e-06 2.3703288655142e-07 -6.95378329086442e-07 4.0594525413148e-06 2.37140926415247e-07 1.18266246147189e-05 3.51128837892846e-06 5.2565842849622e-07 7.83072124564227e-06 -0.000157726897584546 -8.45975925540977e-06 7.65317911907762e-06 -0.000157092318028116 -8.57730867216683e-06 0.00010682718681748 -0.00012126919135974 -7.37394011023446e-06 0.000103434842079392 -0.000121077910192529 -8.55068116347044e-06 1.164781571033e-05 3.49311309016617e-06 5.84670526567941e-07 7.30100483685062e-06 -0.00015689625312804 -8.15414234555891e-06 0.000194941378024536 0.00458317328021207 0.000276315050572859 -0.0168247168129218 0.00316258266241965 -0.000249824545338621 -0.0177049566869345 -0.0983394030560313 -0.00643709895406868 0.000192887168480462 0.00456125824303257 0.000289022180984578 0.000192724067701989 0.00458098242999765 0.000282677912241308 -0.0170466983687156 0.00312750154491563 -0.000258993482960061 -0.0178518693529688 -0.0976434326932869 -0.00659499043460706 -0.0177622868633929 -0.097371828218635 -0.00677919471324153 0.838022440440986 -0.0636479097032795 0.0179410327914283 0.963693026411159 0.963693049010166 -0.0237513212581138 0.965359532213928 0.965358913182256 -0.022092458566478 0.833205951538107 -0.0654306295257518 0.0181890548987871 0.959548575477196 0.959548843286651 -0.0268973333972419 -1.27446250177577e-14 -6.51638886443069e-15 2.43346380943661e-15 -1.93002689219019e-14 1.91873556940868e-13 2.94258071729039e-15 -1.10891634113857e-13 -5.51265603464562e-12 6.34206726492518e-14 -1.46588513426934e-13 2.43569814986145e-13 -7.29789427724429e-14 2.00135282813317e-11 -6.76084823971692e-12 1.85110658276056e-12 2.06581576427125e-11 -7.07277898230775e-12 1.94146080083972e-12 -1.14785756637899e-13 -5.6712357122738e-12 8.22979658981273e-14 -1.27971267431433e-13 2.80064732422723e-13 -1.51421616592418e-13 -1.17379534564985e-13 -5.65371118873539e-12 7.91522199866163e-14 -2.01350082445622e-14 1.97507077245063e-13 2.76818352305144e-15 5.04767927073196e-15 3.72816951597801e-13 -5.44514127380968e-14 -2.1493861318357e-15 -2.48303090572678e-14 9.54308578725531e-15 -1.30351798193782e-14 -6.81572655690237e-15 2.63612109567406e-15 -1.24324806748335e-14 -6.50794254237337e-15 2.39173830499132e-15 -1.86854244997851e-14 1.91403431000582e-13 2.99365288995506e-15 -1.14070297338777e-14 -5.9551043653366e-15 1.95192133043223e-15 -1.61111445308736e-14 1.80459120385184e-13 3.37001538495106e-15 -1.54719749042678e-13 2.17544348568028e-13 -5.94750712537949e-14 -1.3312593891077e-13 -5.13032663987418e-12 1.12140254195297e-14 1.92297749377001e-11 -5.88308232422476e-12 1.58864422358514e-12 -1.55481887529036e-13 2.53624822998563e-13 -7.74896522516192e-14 -1.55755766136065e-13 2.40640476731188e-13 -7.11177922014935e-14 -1.22768448728887e-13 -5.46433435178073e-12 5.44817455019412e-14 2.01725746730369e-11 -6.61335073523953e-12 1.81269502387176e-12 2.06795336588085e-11 -7.02388911738683e-12 1.93033844440292e-12 2.18523562461942e-11 1.1162406328634e-10 -4.4393888530701e-12 -9.73820742744697e-10 -8.1279695455902e-10 1.75287141631312e-10 -9.31807614530688e-10 1.28648933493259e-10 -4.24419822871423e-11 -9.57986268141385e-10 1.38813455459084e-10 -4.29907205651136e-11 2.01365363358622e-11 1.03630506935915e-10 -2.47762774510393e-12 -8.75690059558452e-10 -6.79219785950325e-10 1.09815801593604e-10 -8.84289975891156e-10 1.10387755411479e-10 -4.09007038351811e-11 2.90567905194575e-08 -5.94372553680684e-10 1.12854948672256e-09 2.5884452942237e-08 -6.17681189442935e-08 -4.32625606005686e-09 3.15729177344178e-08 -1.10287150256329e-09 9.4284571364412e-10 3.06756994799075e-08 -9.25313532842461e-10 1.01573798920242e-09 2.94687632139796e-08 -6.13297925764843e-08 -6.05503159079431e-09 3.14821915978891e-08 -6.10233705320767e-08 -6.96908836448449e-09 3.16559725811492e-08 -1.12698782100343e-09 9.22362080045932e-10 3.1784344238764e-08 -6.09297243854982e-08 -7.07549834188666e-09 3.037465931275e-08 -6.05005315200125e-08 -6.41257185622304e-09 3.08880626713203e-08 -1.02084142871611e-09 9.57484034567963e-10 -9.32812722936602e-10 1.33428518141901e-10 -4.22959193351998e-11 -9.91168079132542e-10 -8.6910830909596e-10 1.91041776192211e-10 2.19126865875764e-11 1.1365627337745e-10 -4.89772610774359e-12 2.29043239244948e-11 1.16848679486449e-10 -5.69129336794264e-12 2.28424099324217e-11 1.16221631538824e-10 -5.53917897978533e-12 -1.02970972943568e-09 -8.91097179252925e-10 2.11214152500623e-10 -1.03632000952008e-09 -9.05600326340322e-10 2.16228399802074e-10 -9.59143182503217e-10 1.40260606721082e-10 -4.28860206710319e-11 -1.26302164102918e-19 -7.49962760645318e-20 5.77393601055106e-20 -5.71439115367355e-20 1.44427004687614e-20 2.7588088976994e-21 -1.16433718047193e-19 -1.08586420903729e-19 5.891594873286e-20 2.04299609470741e-18 -1.11630986290047e-19 -2.49797255975853e-19 1.92376171571206e-18 -1.81706546828444e-19 -2.04779267662575e-19 -1.12790690648971e-19 -1.05190072813306e-19 5.70856095446757e-20 -5.09254438810321e-20 1.52951035142014e-20 1.83230257148865e-21 1.51979749784539e-21 3.62477929136981e-21 -1.13015098427253e-21 6.4072795312857e-22 -3.60636321584809e-22 4.14870897345267e-23 4.23374192644914e-22 -5.79518863666849e-22 1.58913010400131e-22 1.11525939109869e-21 7.30990030625492e-21 -1.53252934694616e-21 2.23357203680736e-21 7.94458429757413e-21 -1.95858400957569e-21 9.49239547175513e-22 -6.92529765904701e-22 1.27604250699497e-22 3.07509087782727e-22 -3.4623139047477e-22 1.14135737569045e-22 3.9108839442634e-22 5.90531385665441e-21 -4.87502588827809e-22 2.85302521455611e-22 -3.12545207785468e-22 1.01366263102385e-22 3.54747584806726e-22 5.46699781763214e-21 -4.10172299277009e-22 -2.41342529201299e-20 8.52472846130767e-21 -1.96947506493597e-21 -3.40297207780197e-20 -1.03535296005505e-19 1.68127866656042e-20 1.04118787770565e-18 -1.64676432129044e-19 1.67653907892191e-20 -5.26596605180187e-20 1.59828808659748e-20 1.40631988382335e-21 -2.59986745068452e-20 9.4767764213556e-21 -2.14781411684642e-21 -3.77441790235214e-20 -1.1245732455633e-19 1.97170706769626e-20 1.12041886837854e-18 -1.84759436071768e-19 1.45570575403504e-20 1.99017198181696e-18 -1.88332641723892e-19 -2.09757609650483e-19 1.64010859537367e-18 4.05232203588061e-19 -6.11633180947579e-19 -3.58341396679737e-17 1.13228937946525e-18 1.02736754469787e-18 -5.20455105924721e-17 8.6536901938926e-17 1.5226846956069e-17 -5.79389789575856e-17 -5.79239811661416e-18 1.03242631121222e-17 1.47427604983468e-18 3.2721299774036e-19 -5.26038630001949e-19 -4.6572729698422e-17 8.26637072847441e-17 1.32897561466816e-17 -3.3312658139072e-17 9.21513286315621e-19 7.46018776087537e-19 8.03074427963684e-16 9.95504135137588e-17 -5.06649179379475e-17 1.10704975766424e-15 -4.80438175202083e-15 -2.6302482225018e-16 1.21724668005996e-15 5.19190499560929e-16 -3.6563033791996e-16 8.65219808261553e-16 1.06430184569761e-16 -6.36978729476281e-17 1.24826330152487e-15 -5.07786247882458e-15 -2.88818518887306e-16 2.3769169371844e-15 -1.06734976974088e-14 6.07516800225091e-16 2.03892780229076e-15 -1.14226984299632e-14 8.62327606905305e-16 1.07127539262147e-15 5.98117185606295e-16 -3.75004824746062e-16 -1.19892235402609e-16 2.26991296704864e-16 1.29559108422678e-17 -5.63333547348669e-17 -8.57711135016376e-18 1.12243076824e-17 -1.15938273983561e-16 2.62497002423032e-16 5.78365522776841e-18 4.36506813657076e-18 -3.28221618899548e-18 -1.15665647673167e-18 4.25746365185927e-18 -2.05095292197656e-18 -1.30389351501114e-18 4.12802064791652e-18 -1.98309943030849e-18 -1.26098435360878e-18 -5.62094798543565e-17 -5.6760807283724e-18 1.00770987753325e-17 -1.16556195369556e-16 2.20579357474932e-16 1.23317275038982e-17 1.18749220307666e-15 5.07241589548993e-16 -3.56950142904728e-16 2.31864217954956e-15 -1.04058792869938e-14 6.01555980187571e-16 2.90698666892312e-29 -4.9839746406116e-30 -2.49092041539353e-30 6.5136896307047e-29 7.07127462619788e-31 -2.50580170763828e-29 3.50943770454903e-29 -1.2148160729092e-29 -6.5663727650199e-31 8.07450580034375e-29 8.9221188280704e-29 -4.44736603342981e-29 7.183172121305e-29 5.54675995484318e-31 -2.75982836255723e-29 -2.24638780647082e-27 2.85145276850086e-27 4.28411159740385e-28 -1.37790614775422e-27 1.67356869737109e-28 1.44781396779558e-28 -3.0669919209227e-27 9.53359452412059e-28 1.03208774857212e-27 4.16913979037041e-26 3.11924598833423e-27 -7.52522523285431e-27 -2.04062578053357e-27 2.59159717441895e-27 3.89400043016526e-28 -9.37988937742269e-28 -2.08275105555144e-29 1.50202175835865e-28 2.29532552820917e-26 6.35661038901681e-27 -5.92288406249408e-27 4.79741885366079e-26 -1.47490224068805e-25 3.94511736070881e-27 -5.99334282369716e-25 5.66483576098589e-24 -6.27607570699147e-25 -3.26611891852505e-25 -3.38329523223083e-25 1.79548017365996e-25 9.00657181807839e-26 -1.46639088491077e-25 -1.23569770727105e-26 5.26664812316205e-26 -1.61767662251265e-25 4.33423896064454e-27 -6.52967401857343e-25 6.19435516742754e-24 -6.8814860448929e-25 -9.33480206357712e-25 -3.50474140189852e-25 2.76323084029286e-25 -1.92286708166247e-24 7.32350818505449e-24 -3.70419740104578e-25 9.65105911287724e-24 1.6629937529104e-23 -7.85474031404498e-24 -1.75773058973295e-23 -1.82787127335298e-22 3.441151558505e-23 1.55397099470887e-23 -2.62981265801397e-22 3.38164777330684e-23 -1.58479070122722e-23 -1.67796461786771e-22 3.14535853003019e-23 -5.32537049305879e-24 1.25664663854801e-23 -4.02250003930801e-24 1.6975108240217e-23 2.09381810236519e-23 -1.06074028287561e-23 2.99675849578675e-23 -3.42890329519294e-22 4.0479751273594e-23 3.05567746387015e-23 -3.52969356763181e-22 4.18037755934541e-23 -5.98610373703186e-24 1.37429879740531e-23 -4.39417208786023e-24 1.72803963044492e-23 2.16131484272405e-23 -1.09372652023942e-23 -2.82077366286816e-24 9.45591742474587e-24 -3.51891928616603e-25 -1.35550517476336e-24 -4.27470797039434e-25 3.70312157755935e-25 -3.546559371329e-25 -3.71149679834584e-25 1.97077645049249e-25 1.24560463762913e-25 -1.76330482684664e-25 -2.10443751924626e-26 1.20468520913358e-25 -1.70084481300812e-25 -2.04341089103982e-26 -2.73782350650619e-24 9.1596617289881e-24 -3.38178714852045e-25 -1.31737970360182e-24 -4.12460691157218e-25 3.57949344207321e-25 5.55124546334539e-26 2.37993392476916e-27 -9.32750897823942e-27 -3.93816108950391e-27 4.77189835432216e-28 1.43864143108218e-27 -1.76117266424816e-27 2.66288854057074e-28 1.64764170839423e-28 2.51625273988856e-26 6.99463408194264e-27 -6.52031760809361e-27 5.73557573389883e-26 2.5244420831573e-27 -9.68369769252731e-27 -4.08357388440762e-27 5.21177737817822e-28 1.48766811924892e-27 -1.82580891291117e-27 2.73789117084017e-28 1.72055677529958e-28 -1.0319944269671e-27 -2.34236531961936e-29 1.65758546474928e-28 1.02982647518584e-28 1.41321439217392e-28 -6.09482700998676e-29 4.4443786065244e-29 -1.73763766703799e-29 -6.80668557535455e-32 3.20652863431066e-29 -5.4809864615869e-30 -2.75410107849411e-30 9.9006580814554e-29 1.37283874449167e-28 -5.88034154145698e-29 4.27045347763237e-29 -1.68007390299655e-29 -2.55189655565564e-32 -6.36948144851473e-31 6.601516037592e-31 -1.56814022589675e-31 -1.61578344048155e-30 -7.94143246613706e-30 1.82415764143455e-30 -1.68981845786658e-30 -8.21610794707807e-30 1.89469454310653e-30 -7.54545188476594e-31 3.22110138568641e-31 -9.74526604333805e-33 -6.68193093953875e-31 6.84932404675125e-31 -1.61955514603588e-31 -6.91102681643455e-33 3.12430976448955e-31 -4.47446117068255e-32 -6.31485243333704e-33 -2.06587283222494e-32 8.90666091470461e-33 1.0236064341666e-32 -1.23018657407294e-32 3.19468045152693e-33 2.00426698188266e-33 -9.14437346663427e-33 6.18231641583601e-34 1.93191785905003e-33 -8.78750674593701e-33 5.91272119847912e-34 -6.27970033108007e-33 -1.98545966267452e-32 8.57281021591851e-33 -6.98146162571323e-33 3.010818476227e-31 -4.29771607850356e-32 -7.75462814682381e-33 -7.77195664474723e-31 1.2103166864965e-31 4.59901789463684e-33 5.32994255025712e-32 -2.12067602562534e-32 -7.65582041940375e-33 5.44673651222716e-32 -1.98358683894136e-32 -3.36029009505598e-32 -7.62463757462079e-31 1.28770688644509e-31 -1.75346981976445e-30 -2.78619632401333e-30 1.09384759755474e-30 2.63774496603334e-32 1.51693167894867e-31 -3.30902878927807e-32 2.53579081802986e-34 -5.595294170493e-33 7.50712586414229e-34 2.35640941435617e-34 -5.99834219766954e-34 6.82984991286706e-37 -1.84252853267563e-33 -1.39156373289957e-33 8.25866188548869e-34 -3.65184087343222e-33 2.43422461680706e-32 -2.29716930959036e-33 -2.19385261062877e-33 -1.27581986951093e-33 8.2481925607317e-34 2.46196527971669e-34 -5.4522173465779e-34 -1.1709811924936e-35 -4.374498382372e-33 2.36957709462058e-32 -1.91972944883695e-33 -9.72827627881171e-37 9.59127579381332e-36 -1.08337124926391e-36 -9.60120593804007e-36 2.13028278274441e-35 -6.73717135541018e-36 -5.32264914059538e-37 -5.77045642757723e-37 3.03192988717601e-37 -9.32936554884963e-37 1.20485578757097e-35 -1.4721229771592e-36 -4.9969307813726e-37 -7.69693935610882e-37 3.90249922714132e-37 -1.96941725733583e-35 2.66571053495284e-35 -7.79115581186476e-36 -3.93500968683086e-35 1.59106099705815e-34 -9.03317414027509e-36 1.90495704333636e-36 -3.28554392651459e-36 -2.32078862694305e-37 4.73929458018996e-38 1.61303642988835e-38 -1.38905428728891e-38 1.00328454953946e-37 -3.36807389450121e-37 1.34121458598919e-38 3.83096757807247e-38 1.09865744147222e-38 -1.00636050370135e-38 8.01887472243746e-38 -2.51442011557598e-37 7.40472800876797e-39 -5.61455092890423e-35 2.03695195496318e-34 -9.33142047205775e-36 -2.71564427094833e-35 -9.53360866247002e-36 7.78201500561551e-36 3.08514185752914e-34 4.64059456202713e-34 -2.2510420216601e-34 9.87949791437676e-34 4.68168879113335e-34 -3.30055466177783e-34 1.69962786603198e-34 3.60821945564661e-34 -1.65138848117015e-34 -1.91789500107631e-35 -7.82464752229403e-36 5.93526779621787e-36 -4.78124523462023e-35 -5.67454692974729e-36 9.44668216993515e-36 -1.02667550771788e-34 1.9833869345907e-34 9.30461566840281e-36 3.67611042083266e-36 -2.02657815294848e-36 -1.10318298357318e-36 8.83628668933207e-37 7.87848486734753e-38 -1.64683321430924e-37 1.65913416217146e-36 -1.40757741162855e-37 -1.98040307629953e-37 2.56322304699218e-36 -3.9674063048742e-36 -3.82787497983415e-37 1.1841350260887e-36 7.41510050293927e-38 -2.08096095865254e-37 -8.58221727655221e-38 2.07065601375353e-38 2.98270983809688e-38 -3.84765115526413e-38 5.11118665822784e-39 3.87227767038038e-39 9.60548646219871e-40 -3.49816859010225e-40 -1.12915766722542e-41 2.21741251323787e-39 2.6802241714284e-39 -1.25846878479788e-39 -3.84785409371874e-41 -1.6598048557821e-40 3.99661288742854e-41 -1.24005993922883e-41 -2.68261659566917e-40 4.54692142242047e-41 2.0229273332218e-39 6.32895882834109e-39 -1.73670572981943e-39 8.35564617526918e-40 -5.81990862146474e-40 9.67057372041186e-41 7.71180273408647e-40 -2.54152960705574e-40 -1.90353667288954e-41 -2.97440045283138e-38 3.25792054472547e-39 3.26148275383902e-39 -4.45554189988425e-38 1.31435182003424e-38 1.71963391559398e-39 -1.01865693703307e-37 -8.02258521772479e-38 5.12643143142516e-38 -6.60523470012565e-38 2.5745983237722e-38 2.14128018170891e-38 -4.45684201426116e-39 6.46116311189164e-39 7.29182312300431e-40 -2.04549076838141e-39 -1.08161276620454e-40 3.61312634115469e-40 -3.44074320843141e-39 4.48995284452459e-39 6.39069311597082e-40 -1.57875929324233e-39 -4.40848827253647e-41 2.57426674384504e-40 1.10619220462861e-40 -2.9762079078669e-42 -4.20203753151273e-41 4.92989622740436e-41 -8.17462891591932e-42 -4.36158523923365e-42 -2.72533883317761e-42 -4.1618944882904e-42 1.67857744759933e-42 1.7679022934927e-39 1.76858422992724e-39 -9.45699316237582e-40 1.50902330089953e-40 -2.60233985226472e-41 -5.39639473607615e-41 6.79349370160476e-41 -9.78126821569031e-42 -6.57776198319144e-42 -3.86849329640517e-42 -5.07600753251516e-42 2.25557992826772e-42 -3.27706889969962e-41 -1.21426638728449e-40 3.09690246274795e-41 -1.70148863814346e-42 6.50881771603114e-43 5.50827490231544e-46 2.58440770257474e-44 -2.62063463291724e-44 6.58678636802498e-45 6.23523494813019e-44 3.07463689289437e-43 -7.06207087965022e-44 8.47207543634215e-44 4.92260872706808e-42 -7.7877022439761e-43 -1.17095791449876e-42 4.88775217326689e-43 -9.83950330687575e-45 1.64440356254818e-44 -1.88119486351787e-44 4.73917955169508e-45 4.22401613134864e-44 2.30093718566433e-43 -5.11685776759027e-44 3.19251103609357e-46 -8.55368527652219e-45 1.17669601647133e-45 2.30240059972569e-46 5.56265630008525e-46 -2.49292181595077e-46 2.69582715633993e-44 -1.51639203246717e-43 1.26558719646186e-44 4.33691722134021e-46 -1.1926322993403e-44 1.65516969949979e-45 2.26984955026289e-46 7.91480397953202e-46 -3.55224664142076e-46 1.35917992731332e-44 8.24310737719378e-45 -5.23813086666902e-45 5.43142985855825e-44 -1.0746948218873e-43 -4.51336230676994e-45 2.5287835377028e-44 3.18857045432879e-45 -5.08073470222298e-45 1.92515826429747e-44 1.01784187630127e-44 -6.83172359855507e-45 3.86540048821959e-44 -1.93584440141003e-43 1.45265588462734e-44 -3.14008564489711e-44 6.47461973244219e-42 -9.70370315376926e-43 -8.15797374679638e-44 -4.36146845369586e-43 1.79963725392836e-43 -1.54207625946789e-41 1.41620597588652e-41 -3.10242855711246e-42 2.95247200161484e-42 1.10637940558971e-41 -4.70463124171501e-42 -1.33710040646696e-41 1.07206735813855e-41 -2.10088879666959e-42 -1.29484910465152e-44 -3.40346837690706e-43 1.33075272303866e-43 -1.04310052096022e-42 4.89739531761721e-42 -3.4397919862689e-43 -5.15028826270986e-43 -2.53461145934642e-43 1.75971928197848e-43 -1.89089515543757e-61 -5.62203642032767e-61 1.5799587331303e-61 -7.87357035626077e-62 5.24688078384013e-62 -8.07033105269734e-63 -1.93867607344402e-60 5.28405964810934e-61 8.95497445942913e-62 -3.85645040520911e-59 -6.2806736740137e-59 2.43209984144099e-59 -4.38178884674009e-60 -2.81617698151312e-60 2.10930444142345e-60 1.52216621099933e-58 -9.97857924224523e-59 -4.32713518645427e-59 6.88581007542714e-59 -4.66770499718681e-60 -8.81935184002941e-60 1.59022034654645e-57 5.59894387412323e-59 -6.1843518412387e-58 -1.8722795773637e-57 -2.69770042387258e-58 3.98740816386641e-58 -3.91925255212616e-58 -7.69403566343853e-59 8.98211715193191e-59 3.27253733519637e-59 -3.01039686152938e-59 -7.99239265212962e-60 1.41379733810581e-59 -1.16507633119904e-60 -1.74722130