<?xml version="1.0"?>
<VTKFile type="UnstructuredGrid" version="0.1" byte_order="LittleEndian">
<UnstructuredGrid>
<Piece NumberOfPoints="2400" NumberOfCells="800">
<Points>
<DataArray type="Float64" NumberOfComponents="3" format="ascii">
0 0 0 0 0.199999999999558 0 0.2 0.199999999999558 0 0 0 0 0.2 0.199999999999558 0 0.2 0 0 0 0.199999999999558 0 0 0.399999999998975 0 0.2 0.399999999998975 0 0 0.199999999999558 0 0.2 0.399999999998975 0 0.2 0.199999999999558 0 0 0.399999999998975 0 0.2 0.599999999998947 0 0.2 0.399999999998975 0 0.2 0.399999999998975 0 0.4 0.599999999998947 0 0.4 0.399999999998975 0 0.2 0.199999999999558 0 0.2 0.399999999998975 0 0.4 0.399999999998975 0 0.2 0.199999999999558 0 0.4 0.399999999998975 0 0.4 0.199999999999558 0 0.4 0.199999999999558 0 0.4 0.399999999998975 0 0.6 0.399999999998975 0 0.2 0 0 0.4 0.199999999999558 0 0.4 0 0 0.2 0 0 0.2 0.199999999999558 0 0.4 0.199999999999558 0 0.4 0 0 0.4 0.199999999999558 0 0.6 0.199999999999558 0 0.4 0 0 0.6 0.199999999999558 0 0.6 0 0 0.6 0 0 0.8 0.199999999999558 0 0.8 0 0 0.6 0 0 0.6 0.199999999999558 0 0.8 0.199999999999558 0 0.4 0.199999999999558 0 0.6 0.399999999998975 0 0.6 0.199999999999558 0 0.4 0.399999999998975 0 0.6 0.599999999998947 0 0.6 0.399999999998975 0 0.6 0.399999999998975 0 0.8 0.599999999998947 0 0.8 0.399999999998975 0 0.6 0.199999999999558 0 0.8 0.399999999998975 0 0.8 0.199999999999558 0 0.6 0.199999999999558 0 0.6 0.399999999998975 0 0.8 0.399999999998975 0 0.8 0.199999999999558 0 0.8 0.399999999998975 0 1 0.399999999998975 0 0.8 0.399999999998975 0 1 0.599999999998947 0 1 0.399999999998975 0 0.8 0.199999999999558 0 1 0.399999999998975 0 1 0.199999999999558 0 0.8 0 0 1 0.199999999999558 0 1 0 0 0.8 0 0 0.8 0.199999999999558 0 1 0.199999999999558 0 0.8 0.799999999999473 0 0.8 1 0 1 1 0 0.8 0.799999999999473 0 1 1 0 1 0.799999999999473 0 0.8 0.599999999998947 0 1 0.799999999999473 0 1 0.599999999998947 0 0.8 0.399999999998975 0 0.8 0.599999999998947 0 1 0.599999999998947 0 0.8 0.599999999998947 0 0.8 0.799999999999473 0 1 0.799999999999473 0 0.6 0.599999999998947 0 0.8 0.799999999999473 0 0.8 0.599999999998947 0 0.6 0.599999999998947 0 0.6 0.799999999999473 0 0.8 0.799999999999473 0 0.6 0.399999999998975 0 0.6 0.599999999998947 0 0.8 0.599999999998947 0 0.4 0.599999999998947 0 0.6 0.799999999999473 0 0.6 0.599999999998947 0 0.4 0.799999999999473 0 0.6 1 0 0.6 0.799999999999473 0 0.6 0.799999999999473 0 0.8 1 0 0.8 0.799999999999473 0 0.6 0.799999999999473 0 0.6 1 0 0.8 1 0 0.4 0.799999999999473 0 0.4 1 0 0.6 1 0 0.2 0.799999999999473 0 0.4 1 0 0.4 0.799999999999473 0 0.2 0.799999999999473 0 0.2 1 0 0.4 1 0 0.4 0.399999999998975 0 0.4 0.599999999998947 0 0.6 0.599999999998947 0 0.4 0.599999999998947 0 0.4 0.799999999999473 0 0.6 0.799999999999473 0 0.2 0.599999999998947 0 0.4 0.799999999999473 0 0.4 0.599999999998947 0 0.2 0.599999999998947 0 0.2 0.799999999999473 0 0.4 0.799999999999473 0 0.2 0.399999999998975 0 0.2 0.599999999998947 0 0.4 0.599999999998947 0 0 0.599999999998947 0 0.2 0.799999999999473 0 0.2 0.599999999998947 0 0 0.599999999998947 0 0 0.799999999999473 0 0.2 0.799999999999473 0 0 0.399999999998975 0 0 0.599999999998947 0 0.2 0.599999999998947 0 0 0.799999999999473 0 0.2 1 0 0.2 0.799999999999473 0 0 0.799999999999473 0 0 1 0 0.2 1 0 1.8 0.799999999999473 0 2 1 0 2 0.799999999999473 0 1.8 0.799999999999473 0 1.8 1 0 2 1 0 1.6 0.799999999999473 0 1.6 1 0 1.8 1 0 1.6 0.799999999999473 0 1.8 1 0 1.8 0.799999999999473 0 1.4 0.799999999999473 0 1.6 1 0 1.6 0.799999999999473 0 1.4 0.599999999998947 0 1.6 0.799999999999473 0 1.6 0.599999999998947 0 1.6 0.599999999998947 0 1.6 0.799999999999473 0 1.8 0.799999999999473 0 1.6 0.599999999998947 0 1.8 0.799999999999473 0 1.8 0.599999999998947 0 1.6 0.399999999998975 0 1.6 0.599999999998947 0 1.8 0.599999999998947 0 1.8 0.399999999998975 0 1.8 0.599999999998947 0 2 0.599999999998947 0 1.8 0.599999999998947 0 1.8 0.799999999999473 0 2 0.799999999999473 0 1.8 0.599999999998947 0 2 0.799999999999473 0 2 0.599999999998947 0 1.8 0.399999999998975 0 2 0.599999999998947 0 2 0.399999999998975 0 1.8 0.199999999999558 0 2 0.399999999998975 0 2 0.199999999999558 0 1.8 0.199999999999558 0 1.8 0.399999999998975 0 2 0.399999999998975 0 1.8 0 0 2 0.199999999999558 0 2 0 0 1.8 0 0 1.8 0.199999999999558 0 2 0.199999999999558 0 1.6 0 0 1.8 0.199999999999558 0 1.8 0 0 1.6 0 0 1.6 0.199999999999558 0 1.8 0.199999999999558 0 1.4 0 0 1.6 0.199999999999558 0 1.6 0 0 1.6 0.399999999998975 0 1.8 0.599999999998947 0 1.8 0.399999999998975 0 1.6 0.199999999999558 0 1.8 0.399999999998975 0 1.8 0.199999999999558 0 1.6 0.199999999999558 0 1.6 0.399999999998975 0 1.8 0.399999999998975 0 1.4 0.199999999999558 0 1.6 0.399999999998975 0 1.6 0.199999999999558 0 1.4 0.399999999998975 0 1.6 0.599999999998947 0 1.6 0.399999999998975 0 1.4 0.199999999999558 0 1.4 0.399999999998975 0 1.6 0.399999999998975 0 1.2 0.199999999999558 0 1.2 0.399999999998975 0 1.4 0.399999999998975 0 1.2 0.199999999999558 0 1.4 0.399999999998975 0 1.4 0.199999999999558 0 1.2 0.399999999998975 0 1.4 0.599999999998947 0 1.4 0.399999999998975 0 1.4 0 0 1.4 0.199999999999558 0 1.6 0.199999999999558 0 1.2 0 0 1.2 0.199999999999558 0 1.4 0.199999999999558 0 1.2 0 0 1.4 0.199999999999558 0 1.4 0 0 1 0 0 1.2 0.199999999999558 0 1.2 0 0 1 0 0 1 0.199999999999558 0 1.2 0.199999999999558 0 1 0.399999999998975 0 1.2 0.599999999998947 0 1.2 0.399999999998975 0 1 0.199999999999558 0 1.2 0.399999999998975 0 1.2 0.199999999999558 0 1 0.199999999999558 0 1 0.399999999998975 0 1.2 0.399999999998975 0 1 0.399999999998975 0 1 0.599999999998947 0 1.2 0.599999999998947 0 1 0.599999999998947 0 1.2 0.799999999999473 0 1.2 0.599999999998947 0 1 0.599999999998947 0 1 0.799999999999473 0 1.2 0.799999999999473 0 1 0.799999999999473 0 1 1 0 1.2 1 0 1 0.799999999999473 0 1.2 1 0 1.2 0.799999999999473 0 1.2 0.799999999999473 0 1.4 1 0 1.4 0.799999999999473 0 1.2 0.799999999999473 0 1.2 1 0 1.4 1 0 1.4 0.799999999999473 0 1.4 1 0 1.6 1 0 1.4 0.599999999998947 0 1.4 0.799999999999473 0 1.6 0.799999999999473 0 1.4 0.399999999998975 0 1.4 0.599999999998947 0 1.6 0.599999999998947 0 1.2 0.399999999998975 0 1.2 0.599999999998947 0 1.4 0.599999999998947 0 1.2 0.599999999998947 0 1.2 0.799999999999473 0 1.4 0.799999999999473 0 1.2 0.599999999998947 0 1.4 0.799999999999473 0 1.4 0.599999999998947 0 2.6 0.599999999998947 0 2.6 0.799999999999473 0 2.8 0.799999999999473 0 2.6 0.599999999998947 0 2.8 0.799999999999473 0 2.8 0.599999999998947 0 2.6 0.399999999998975 0 2.6 0.599999999998947 0 2.8 0.599999999998947 0 2.4 0.599999999998947 0 2.6 0.799999999999473 0 2.6 0.599999999998947 0 2.4 0.799999999999473 0 2.6 1 0 2.6 0.799999999999473 0 2.6 0.799999999999473 0 2.6 1 0 2.8 1 0 2.6 0.799999999999473 0 2.8 1 0 2.8 0.799999999999473 0 2.8 0.799999999999473 0 2.8 1 0 3 1 0 2.8 0.799999999999473 0 3 1 0 3 0.799999999999473 0 2.8 0.599999999998947 0 3 0.799999999999473 0 3 0.599999999998947 0 2.8 0.599999999998947 0 2.8 0.799999999999473 0 3 0.799999999999473 0 2.8 0.399999999998975 0 2.8 0.599999999998947 0 3 0.599999999998947 0 2.8 0.399999999998975 0 3 0.599999999998947 0 3 0.399999999998975 0 2.8 0.199999999999558 0 3 0.399999999998975 0 3 0.199999999999558 0 2.8 0.199999999999558 0 2.8 0.399999999998975 0 3 0.399999999998975 0 2.8 0 0 3 0.199999999999558 0 3 0 0 2.8 0 0 2.8 0.199999999999558 0 3 0.199999999999558 0 2.6 0 0 2.8 0.199999999999558 0 2.8 0 0 2.6 0 0 2.6 0.199999999999558 0 2.8 0.199999999999558 0 2.4 0 0 2.6 0.199999999999558 0 2.6 0 0 2.6 0.399999999998975 0 2.8 0.599999999998947 0 2.8 0.399999999998975 0 2.6 0.199999999999558 0 2.8 0.399999999998975 0 2.8 0.199999999999558 0 2.6 0.199999999999558 0 2.6 0.399999999998975 0 2.8 0.399999999998975 0 2.4 0.199999999999558 0 2.6 0.399999999998975 0 2.6 0.199999999999558 0 2.4 0.399999999998975 0 2.6 0.599999999998947 0 2.6 0.399999999998975 0 2.4 0.199999999999558 0 2.4 0.399999999998975 0 2.6 0.399999999998975 0 2.2 0.199999999999558 0 2.4 0.399999999998975 0 2.4 0.199999999999558 0 2.2 0.199999999999558 0 2.2 0.399999999998975 0 2.4 0.399999999998975 0 2.2 0.399999999998975 0 2.4 0.599999999998947 0 2.4 0.399999999998975 0 2.4 0 0 2.4 0.199999999999558 0 2.6 0.199999999999558 0 2.2 0 0 2.2 0.199999999999558 0 2.4 0.199999999999558 0 2.2 0 0 2.4 0.199999999999558 0 2.4 0 0 2 0 0 2.2 0.199999999999558 0 2.2 0 0 2 0 0 2 0.199999999999558 0 2.2 0.199999999999558 0 2 0.399999999998975 0 2.2 0.599999999998947 0 2.2 0.399999999998975 0 2 0.199999999999558 0 2.2 0.399999999998975 0 2.2 0.199999999999558 0 2 0.199999999999558 0 2 0.399999999998975 0 2.2 0.399999999998975 0 2 0.399999999998975 0 2 0.599999999998947 0 2.2 0.599999999998947 0 2 0.599999999998947 0 2 0.799999999999473 0 2.2 0.799999999999473 0 2 0.599999999998947 0 2.2 0.799999999999473 0 2.2 0.599999999998947 0 2.2 0.399999999998975 0 2.2 0.599999999998947 0 2.4 0.599999999998947 0 2.2 0.599999999998947 0 2.4 0.799999999999473 0 2.4 0.599999999998947 0 2.2 0.599999999998947 0 2.2 0.799999999999473 0 2.4 0.799999999999473 0 2.4 0.599999999998947 0 2.4 0.799999999999473 0 2.6 0.799999999999473 0 2.4 0.399999999998975 0 2.4 0.599999999998947 0 2.6 0.599999999998947 0 2.4 0.799999999999473 0 2.4 1 0 2.6 1 0 2.2 0.799999999999473 0 2.4 1 0 2.4 0.799999999999473 0 2.2 0.799999999999473 0 2.2 1 0 2.4 1 0 2 0.799999999999473 0 2.2 1 0 2.2 0.799999999999473 0 2 0.799999999999473 0 2 1 0 2.2 1 0 3.8 0.799999999999473 0 4 1 0 4 0.799999999999473 0 3.8 0.799999999999473 0 3.8 1 0 4 1 0 3.8 0.599999999998947 0 4 0.799999999999473 0 4 0.599999999998947 0 3.8 0.599999999998947 0 3.8 0.799999999999473 0 4 0.799999999999473 0 3.8 0.399999999998975 0 3.8 0.599999999998947 0 4 0.599999999998947 0 3.6 0.399999999998975 0 3.6 0.599999999998947 0 3.8 0.599999999998947 0 3.6 0.599999999998947 0 3.8 0.799999999999473 0 3.8 0.599999999998947 0 3.6 0.599999999998947 0 3.6 0.799999999999473 0 3.8 0.799999999999473 0 3.4 0.599999999998947 0 3.6 0.799999999999473 0 3.6 0.5999999999989
[...]
<PointData Scalars="conc_conc," Vectors="" Tensors="">
<DataArray type="Float64" Name="conc_conc" format="ascii">
1.26332484003087 1.26332484003087 -0.609446872969296 0.621644749235962 -0.238491505696666 -0.030419622504793 1.2566632013214 1.2566632013214 -0.608978956123492 0.617562762594339 -0.236980102341287 -0.0311239780122581 0.615453420977659 -0.236495209004403 -0.0312545083368431 -0.0123802741635101 0.0130693466800245 -0.00245307656344721 -0.0364183999456947 -0.115626532534202 0.0388399900480372 -0.0123537970868418 0.0130904164468819 -0.00246182771255096 0.00010415019676946 0.00512376177620341 -0.00123334353783347 -0.0121894437937573 0.0131312800953073 -0.00249849814128998 -0.0362490061157113 -0.116561758480675 0.0388816244155767 9.08973037414872e-05 0.00514257539461697 -0.00123043724868069 -5.16495584124732e-05 -0.000454310617186274 0.000197445696101982 1.54336148216473e-05 1.12822747349356e-05 -8.38692133918444e-06 3.69239034293786e-05 -0.000160691761435842 2.34854134773277e-05 -4.27918559500778e-05 -0.000455069401570352 0.000196668453137478 -3.98436521090112e-05 -0.000454980259273333 0.00019643354094457 1.50891361167967e-05 1.1412924147787e-05 -8.40864946977446e-06 1.51877061179913e-05 1.13854586227304e-05 -8.40326518680795e-06 3.65214409830529e-05 -0.000161000166509823 2.37596055976898e-05 -2.11881418227301e-06 3.71578883667204e-06 -3.34542901876819e-08 -7.81694839246512e-07 -1.75434325703738e-07 2.65597571156638e-07 -7.83206990399463e-07 -1.7385171605444e-07 2.64809146843518e-07 -7.86227479621356e-07 -1.69032855864483e-07 2.62644621629772e-07 -2.12167557812187e-06 3.67768030593147e-06 -2.23437453921458e-08 -2.09815482060225e-06 3.66227717349377e-06 -2.7672904657325e-08 -7.75606511720214e-07 -1.70315725994807e-07 2.61441400699179e-07 -7.79521016439218e-07 -1.7452560213036e-07 2.64676154948058e-07 -2.11806299990867e-06 3.72567626663643e-06 -3.63429183851617e-08 -2.11204375909871e-06 3.71176260480948e-06 -3.49916872102361e-08 1.50571499082054e-05 1.1371714343752e-05 -8.38391886594099e-06 3.63397826296476e-05 -0.000160427603434703 2.37047841058268e-05 3.64095435565923e-05 -0.000160936683109686 2.38068194580893e-05 -4.03092246482083e-05 -0.000453668497152039 0.000196014278126903 -4.51831185650522e-05 -0.000450034903852568 0.000195202247658415 1.50889701186325e-05 1.1227308245669e-05 -8.31407559746803e-06 3.63224566325175e-05 -0.000159078902209883 2.33542804125482e-05 9.50184921664284e-05 0.00507221665588665 -0.00121846883361811 -0.0121338108262833 0.0129860597984211 -0.00246658676681197 -0.0358720122718221 -0.114703053341977 0.0385439187448084 0.00010668611395641 0.00511192515324229 -0.00123278364954278 0.000104751538353403 0.00509799728295138 -0.00122906642382956 -0.012326275072717 0.0130425910130818 -0.00245329921128758 -0.0362695929572556 -0.114974012634217 0.0387367795404992 -0.0363977372034113 -0.115233705703231 0.0388051561954971 0.61334523114893 -0.236301427626799 -0.0310908907843931 1.25088612941178 1.25088614218968 -0.608893787728403 1.25377289429809 1.25377254121159 -0.608935759358927 0.609217606153077 -0.236255923982904 -0.0302925642237003 1.24422582667615 1.244225979734 -0.608401019029577 -7.02886867742321e-15 -1.03242071422695e-14 6.03685582919377e-15 -1.50975818613753e-14 1.32365787538332e-13 -2.65003786650965e-14 -5.62204262882702e-13 -4.02316607635457e-12 1.2294451291986e-12 -1.33686138157724e-13 3.84501933029861e-13 -1.27047351383228e-13 1.55245269193227e-11 -1.11847267650311e-11 8.0795859605e-13 1.5881466679824e-11 -1.12605117706854e-11 7.50851327385332e-13 -5.87580564077669e-13 -4.05369908695852e-12 1.24809591252339e-12 -1.80786268386995e-13 3.50883951776587e-13 -2.32939790557361e-14 -5.91696186766822e-13 -4.06205220111847e-12 1.2521009776547e-12 -1.46879375377514e-14 1.34364525440034e-13 -2.72002689452351e-14 -3.19633173024234e-15 2.22487608555649e-14 -4.13877378614888e-15 -1.30932508577016e-15 -1.70778576853774e-15 1.0575783932248e-15 -6.8432628058433e-15 -1.05596775928951e-14 6.11091936321185e-15 -6.95887201121282e-15 -1.04682861432272e-14 6.09274116917499e-15 -1.49660546772815e-14 1.33677735187487e-13 -2.69100689226519e-14 -7.24463843581033e-15 -1.02706187396356e-14 6.06519733738867e-15 -1.57066673463029e-14 1.32251463362271e-13 -2.62304003442705e-14 -1.25477447594928e-13 3.8456075386921e-13 -1.28818207212076e-13 -5.43482531050439e-13 -4.04533276860105e-12 1.2273226923676e-12 1.53659972364484e-11 -1.12590008302332e-11 8.774665743219e-13 -1.43772966630229e-13 3.90069389173884e-13 -1.27051730238719e-13 -1.38398086246924e-13 3.88264538026165e-13 -1.27469041798153e-13 -5.77936660694495e-13 -4.05531174456327e-12 1.24457833797612e-12 1.57789450304301e-11 -1.12709134704274e-11 7.8063870378638e-13 1.59483672143286e-11 -1.12831068174254e-11 7.43646734410188e-13 5.03270715183686e-11 9.09485946547568e-11 -4.34011327814809e-11 -2.31079572313984e-09 -8.79127983057592e-10 1.17559531692e-09 -7.7284940143114e-10 2.34256421423707e-10 9.39994379477466e-11 -7.76574645586988e-10 2.33360536712158e-10 9.54848257730753e-11 4.92027817341457e-11 9.17238696847724e-11 -4.31181382939316e-11 -2.28372030226251e-09 -9.26995920632426e-10 1.17620449274394e-09 -7.63322383836442e-10 2.36980087527527e-10 9.01854080321779e-11 2.77990094029165e-08 -1.51633300379245e-09 -6.22148751431627e-09 7.93742652801981e-08 -4.619954139845e-08 -2.15022918531384e-08 2.79449212280236e-08 -1.31794681208951e-09 -6.37206411665299e-09 2.79098144498663e-08 -1.36928813697695e-09 -6.33044134403886e-09 7.9766795504597e-08 -4.78705402762537e-08 -2.12441132287607e-08 7.99192365501843e-08 -4.84168747221785e-08 -2.1172711789158e-08 2.78580398741783e-08 -1.32830734329007e-09 -6.34582427306315e-09 7.96604804636945e-08 -4.81430932005554e-08 -2.1144536239046e-08 7.8842266913158e-08 -4.67881537998003e-08 -2.11596078721828e-08 2.75938993220446e-08 -1.41159717483632e-09 -6.23339165366682e-09 -7.6281644688349e-10 2.33335640412783e-10 9.18670788715566e-11 -2.28021488356629e-09 -8.88679690293439e-10 1.16574425271134e-09 4.95235952179045e-11 9.04997366890765e-11 -4.29524014374167e-11 5.05632110110309e-11 9.05855691460477e-11 -4.34116148641679e-11 5.0778169729699e-11 9.07086235862726e-11 -4.35326082273822e-11 -2.3214930977111e-09 -8.62575756986841e-10 1.17601486869023e-09 -2.31314060202112e-09 -8.6474901252814e-10 1.17326443623224e-09 -7.73881970307791e-10 2.33102997504117e-10 9.49149947746117e-11 -7.39258952601163e-21 -8.59184872406636e-21 5.20313721053051e-21 -2.38277270709857e-21 1.24457107835916e-21 7.35739493096001e-23 -8.55890708301609e-21 -8.91864005581103e-21 5.76880046128325e-21 1.02543570957117e-19 -2.09484734572394e-20 -1.67842657520868e-20 1.01345929305252e-19 -2.2062117595257e-20 -1.59786748820086e-20 -7.1976062934021e-21 -8.94969203458141e-21 5.21064044389817e-21 -2.29309021448477e-21 1.2814205539104e-21 -2.59898011011566e-24 2.55742816390879e-24 1.96602692336354e-23 -5.9343842862985e-24 5.92598707570275e-25 -1.86680949221414e-24 6.31632865888276e-25 1.69882437459694e-24 -2.91256757065311e-24 8.2687010545062e-25 5.39131599543124e-24 2.94609176015411e-23 -9.28287345521332e-24 1.47949987990572e-22 5.00180824847779e-22 -1.85522117663049e-22 4.43219161654762e-23 -5.35936196143414e-23 1.14945961520247e-23 2.35136781293661e-22 -2.80686452635258e-22 5.86165951946157e-23 8.04068550755229e-22 2.62514503724225e-21 -9.85060132036955e-22 2.19818629159965e-22 -2.7711183760245e-22 6.08036209659797e-23 7.60825203703995e-22 2.62038151860993e-21 -9.65652557756433e-22 -1.45638561586e-20 7.10894317679022e-21 6.5120037133675e-22 -4.49869200270205e-20 -4.68386309531347e-20 3.03087732880263e-20 6.13906313609719e-19 -1.1194564642786e-19 -1.05525519196961e-19 -2.79205201791018e-21 1.35560089429536e-21 1.32482619787979e-22 -1.50481395665441e-20 7.10156793266216e-21 7.77796732577271e-22 -4.63684396356343e-20 -4.57690010104139e-20 3.06189618225585e-20 6.25613581060527e-19 -1.08225446190893e-19 -1.10316309885271e-19 1.1489528343763e-19 -2.13201338206331e-20 -2.00701193503546e-20 1.83949812931603e-18 -2.05262895400361e-19 -7.13607206613244e-19 -2.01847098242756e-17 -1.47187465297689e-18 5.62872863366738e-18 -5.70147194058095e-17 6.25058459218276e-17 8.19840728445982e-18 -3.73848780151217e-18 -2.40488303305044e-19 1.04898014042483e-18 1.80581849867671e-18 -1.40747374564409e-19 -7.15812983013594e-19 -5.65145960999156e-17 6.00512903092525e-17 8.61262467549117e-18 -2.00205944296126e-17 -1.27157777887678e-18 5.48849209875413e-18 4.99283875603683e-16 1.98520516538204e-16 -2.06237827923363e-16 1.32873118323821e-15 -3.37693156454044e-15 2.8435822026274e-16 9.18532420060864e-17 3.66329584069557e-17 -3.88098980121331e-17 4.96876338768332e-16 2.05760364673426e-16 -2.0923123555132e-16 1.32365843739112e-15 -3.44716021345681e-15 3.04442027310692e-16 2.51240697269371e-16 -6.14563752199268e-16 4.7965380294864e-17 2.34971552255692e-16 -5.48324883025111e-16 3.82525888169807e-17 8.7101293244923e-17 3.11409240636349e-17 -3.46916030456675e-17 -1.06894995827199e-17 1.10380924290292e-17 1.70570296974118e-18 -3.4025431326759e-18 -1.38086359937933e-19 9.04906848621162e-19 -9.67562809572722e-18 9.28391080883765e-18 1.72072724114371e-18 3.03139532945161e-19 2.76094181540628e-21 -1.26702623223656e-19 3.39311653216785e-19 -1.82243346057638e-20 -1.36504902049701e-19 2.99937027520473e-19 1.7408622381202e-20 -1.29052185603769e-19 -3.40868901926433e-18 -9.47161296526093e-20 8.86254177173907e-19 -9.6958497513538e-18 8.83582625219642e-18 1.84329822338857e-18 8.86571331252668e-17 2.98687288766693e-17 -3.44753387879589e-17 2.39332210784123e-16 -5.38377201155937e-16 3.38473232738501e-17 7.15049263292641e-32 -3.48975685525047e-32 -3.22574424418061e-33 2.20603575173037e-31 2.29991978313775e-31 -1.48725598161614e-31 1.14086872322055e-31 -4.99766902932027e-32 -7.50914192174609e-33 3.49662195628281e-31 3.03045060042316e-31 -2.20484399339932e-31 2.27149230108752e-31 2.17865361109857e-31 -1.48431819625713e-31 -8.95545694784593e-30 1.15989629314519e-30 3.43439483279026e-30 -4.62036598309604e-30 6.96063047416825e-31 8.57930133747648e-31 -1.35386652570875e-29 2.6792197898736e-30 4.96396491468503e-30 1.45847824867513e-28 1.41613782976688e-29 -4.2151475644844e-29 -8.83487459192558e-30 6.53554451881527e-31 3.51237267927599e-30 -3.00133520780751e-30 5.49805330037527e-31 5.17207800347382e-31 9.75840106659715e-29 6.11659800827553e-30 -2.68282787078114e-29 2.76206527673809e-28 -2.90952537896711e-28 -4.27872522758174e-29 -6.50486766757665e-27 1.63680326879469e-26 -1.34986461460497e-27 -2.43058326301767e-27 -9.62809535013653e-28 1.00642880236577e-27 4.10435933823862e-28 -4.91427470561554e-28 -4.87948640956705e-29 2.76147622171216e-28 -3.07838467096411e-28 -3.84345662764768e-29 -6.36843343337522e-27 1.68069634629142e-26 -1.52089590785044e-27 -3.48089478479112e-27 -1.59940960480465e-27 1.53209637516985e-27 -9.20464205059021e-27 2.5932107907179e-26 -2.60223875593192e-27 4.38727516473039e-26 7.84026772773548e-26 -4.3601366959609e-26 7.02714469276381e-26 -6.48587372612871e-25 1.31627988557087e-25 8.87228883620143e-26 -9.82656685335613e-25 2.06722615862575e-25 7.82619485360452e-26 -6.41279658267128e-25 1.26327741472455e-25 3.54258740684984e-26 4.98162984861692e-26 -2.96008611719588e-26 4.16385997234241e-26 4.72012412861104e-26 -2.99490922454109e-26 9.60942531968129e-26 -6.26957468747628e-25 1.15420633720576e-25 8.45553498525044e-26 -6.41976106206017e-25 1.24030686367286e-25 3.27906984344282e-26 5.10123684998177e-26 -2.94638699950997e-26 3.76823406090151e-26 4.94013928102865e-26 -2.9963560906589e-26 -6.66211667333619e-27 1.61917366384419e-26 -1.24571192586774e-27 -2.4837559282796e-27 -9.36019796339916e-28 1.00744787351222e-27 -2.38864952415074e-27 -1.01117092777234e-27 1.0167143596067e-27 2.78571588351642e-28 -2.81067412342275e-28 -4.60916507150917e-29 2.76147783028386e-28 -2.52199702906254e-28 -5.23034323794297e-29 -6.82135815750885e-27 1.53935571799446e-26 -9.78928610076416e-28 -2.53409663871554e-27 -8.52492661945667e-28 9.82408870976629e-28 9.72140343596302e-29 2.6771927713107e-30 -2.5198143278733e-29 -8.52772643776054e-30 -5.01213996224423e-31 3.66942403069837e-30 -2.88200329908597e-30 6.2865655405308e-31 4.52522356190308e-31 9.77288873537697e-29 7.62203211966108e-30 -2.7503395558209e-29 9.82692135413028e-29 5.09846134553154e-30 -2.65421267361843e-29 -8.81180920984896e-30 2.9938606918718e-31 3.58814713285856e-30 -2.98723090154155e-30 5.7728564719676e-31 5.01472061214072e-31 -3.04677580555027e-30 5.12102458545696e-31 5.44340459973019e-31 2.17193851610552e-31 2.39025050484432e-31 -1.49535051937141e-31 7.01521411905826e-32 -3.54110856231399e-32 -2.66316928475416e-33 7.38438855648152e-32 -3.4269068532403e-32 -4.06500157942151e-33 2.04097215779206e-31 2.54813846339398e-31 -1.47995726080386e-31 6.54589942667937e-32 -3.58826075538083e-32 -1.29207578613013e-33 -8.77097864829352e-34 1.34121105366903e-33 -3.40573683142444e-34 -3.14921237034713e-33 -1.31093097919968e-32 4.55790659888625e-33 -3.58835509322082e-33 -1.30184065442134e-32 4.71922364840037e-33 -1.17336826511415e-33 1.36419522590699e-33 -2.77712571136939e-34 -1.03101894485125e-33 1.36468570758085e-33 -3.12920345246512e-34 -5.68084848783865e-36 4.77400701681895e-34 -1.16007191522165e-34 -8.66078918157593e-36 -4.06506640580499e-35 1.91034638302733e-35 -4.46953422930491e-36 -4.16880768356501e-35 1.85217648661139e-35 3.55833812626708e-36 -1.36483887338797e-35 1.90510636423224e-36 3.753760139846e-36 -1.30115754769638e-35 1.66392606124019e-36 -1.25288295873257e-35 -3.89283513903653e-35 1.92961327998348e-35 -1.70035883279477e-35 4.67254439502892e-34 -1.08724021225652e-34 -1.24243217080557e-38 5.54897283169574e-38 -8.58037255078147e-39 -7.69004884486203e-39 -4.3010967172189e-39 5.56112273882007e-39 -1.30676117872528e-35 4.59150315119439e-36 4.64977245836548e-37 -1.76376750294321e-35 -8.43282933617143e-36 9.42269645561607e-36 -3.98807879642874e-33 -1.26861692966975e-32 4.80336108539207e-33 6.47179649206723e-36 4.79304978456737e-34 -1.21545525735093e-34 3.27917475696219e-36 -1.40599311457562e-35 2.1236440205367e-36 7.30880882197515e-39 -1.05170260787245e-37 2.30338736308861e-38 4.25484648620471e-37 -3.03514398822621e-37 8.70426222434018e-38 5.0677851313364e-37 1.69520346535268e-36 -6.3092197280956e-37 1.17761069307067e-39 -2.33598963235754e-40 -1.16968569096578e-40 -5.81177100059427e-41 -9.17083673162411e-41 4.68907777786895e-41 1.60293853579807e-39 -1.23747161515608e-39 -3.60057147798199e-40 1.27561359600178e-43 8.94636706379713e-42 -2.26949246891444e-42 -4.69788352068496e-41 2.54556624198481e-41 -5.16419694609455e-42 1.59570552896001e-42 -1.60246951387349e-42 7.99357630554801e-43 -8.3548285664499e-40 4.46802617497508e-39 -7.60328094906571e-40 -1.56844732019042e-40 -4.36634233091957e-40 3.07272306923251e-40 -1.19206709029372e-38 1.31472201578816e-38 -5.26798147122539e-39 -1.80957394841651e-37 3.15029138014068e-37 -2.91086855618757e-39 6.68088715101587e-39 -4.04057338090763e-39 -1.774713417656e-39 2.43135946410873e-41 9.1822869023799e-42 -1.19753447719475e-41 7.35378409403143e-41 -1.40704438618224e-40 4.42371081858858e-42 2.01192846317746e-44 5.80317148736438e-44 -4.64531262486213e-44 1.56292703758808e-43 -5.35455029947174e-43 6.76579283057129e-44 -1.81072326509451e-38 3.40868055201788e-37 -7.69446745601503e-38 -1.10721255930721e-38 -2.80070708450188e-38 1.43925589775511e-38 -5.75608897115182e-37 9.81176659033711e-37 -2.6551172491302e-37 1.39664962771219e-36 9.2918559203529e-37 -7.33312085854888e-37 1.30508810454451e-36 9.85836628945348e-37 -7.3646997713022e-37 -6.56166486259843e-38 -1.47442420824036e-38 2.24859108866952e-38 -6.6462568897556e-38 -1.27219378153914e-38 2.17997143004113e-38 -1.84110495153478e-37 2.94619818202506e-37 3.47124181975202e-39 6.59489563551952e-39 -3.34592118555448e-39 -1.9113802877309e-39 2.31707400147819e-39 -1.08809036091533e-40 -5.31155179058144e-40 2.27736701981848e-39 -1.62939369570659e-40 -4.97954642421661e-40 2.87729933264474e-39 -9.33137690600611e-39 1.11628730037975e-39 1.11000969682448e-39 6.0314516359656e-40 -5.25879417009593e-40 -1.36767362783219e-40 1.88327269796845e-40 1.01874987383199e-41 -4.90655581483069e-41 -6.76822180459274e-42 1.49711354398097e-41 1.60745736909224e-42 -1.85347965925462e-43 -3.21151694912377e-43 4.67680541108894e-42 -1.58288347526086e-42 -1.55201032546399e-42 -1.25209561180114e-43 -8.61060118455347e-44 7.33916399718862e-44 -3.94160398588854e-44 -3.32095521569609e-43 9.87236372396497e-44 3.87793045856258e-42 7.73284284469988e-42 -3.52905238227941e-42 1.20007301593073e-42 -9.28435143491051e-43 8.7962511382084e-44 1.31473111656667e-42 -9.26682479180267e-43 5.98194953817663e-44 -6.40699894682709e-41 1.92096202522865e-41 7.92143115021419e-42 -6.11998161747236e-41 2.0192683835816e-41 6.8056804298237e-42 -1.84784076769185e-40 -8.83132260230259e-41 9.86968645783865e-41 -1.92222168590121e-40 -7.05959131520133e-41 9.73964506720437e-41 -2.68549293279829e-42 2.20192410619839e-42 5.70517980333513e-43 -9.74114846122809e-43 -1.71299273985094e-44 2.83391508206779e-43 -1.17252073648626e-44 1.83674101636672e-44 3.25853384960933e-46 -3.35030309938772e-45 -1.40860066854584e-45 2.01489681520358e-45 5.9205210126024e-46 -3.93947478172953e-46 -1.48625848577516e-46 2.07599799280631e-46 1.26811911794971e-48 -6.54660100749999e-47 -2.25871839499777e-47 -3.36713227838302e-48 1.02278620584929e-47 4.19061170221776e-42 7.44136062638382e-42 -3.58695218260252e-42 9.69010385032711e-44 1.03519197391967e-44 -4.2849001904144e-44 3.68055809151835e-44 -8.79193340907197e-45 -5.39039575417955e-45 -2.52958679517628e-45 -3.50921741293018e-45 1.9215272768262e-45 -4.88237758644836e-44 -3.32619108929761e-43 1.02773312689435e-43 -9.9693373453923e-46 5.52951068502962e-46 -1.85733197578915e-47 1.54583951984711e-47 -2.25919501618182e-47 7.39785835116261e-48 3.51935554745257e-47 1.99790576602675e-46 -6.41594320507259e-47 -1.1903016885556e-45 1.09747378709692e-44 -2.22676473165913e-45 -8.84121266721975e-48 2.16519788045819e-48 1.3497882672232e-48 2.74496892777654e-49 -1.47160201928156e-49 6.01360112150794e-51 6.30717653331257e-49 8.65562761852564e-49 -4.76746718181726e-49 -8.99781150438441e-51 -5.31132871787053e-50 1.69007432677899e-50 -5.18254520434048e-51 6.57441773119174e-51 -2.32037052701072e-51 1.07491295227601e-46 -2.83369506148837e-46 2.55937799499065e-47 9.1052810187032e-49 -7.72642663480437e-48 1.43832730395461e-48 1.22058985795945e-49 6.31529391765771e-49 -3.58157661952941e-49 4.04719555540779e-47 1.69543027860804e-47 -1.70892062886601e-47 3.56051036414909e-48 -7.31967919158987e-48 3.35039979176582e-49 1.22164690385601e-48 4.2260864414984e-49 -4.98086526082222e-49 -2.00738076280378e-48 2.19069610081651e-47 -8.61480593781069e-48 -1.62816198125037e-47 -2.42259928567944e-46 6.68042726958182e-47 2.43383773482173e-45 6.01489249770266e-45 -2.50238821735457e-45 7.37485495838768e-46 -6.83295100694904e-46 1.01504441222197e-46 -4.11742848757154e-44 1.59875123599177e-44 3.55090108156998e-45 3.01297663222094e-47 8.9272894662901e-46 -3.67944187295877e-46 -1.17135192620014e-44 3.18809319768616e-44 -1.03620742410621e-44 -5.61463551540174e-46 -8.60138733582699e-46 4.97121280733363e-46 -6.02719117064348e-47 3.02748063900511e-46 -5.00142874729133e-47 -2.26127992220442e-47 -2.25968341286653e-47 1.51869156170079e-47 -1.37169559672086e-65 -9.24743185206321e-66 7.99570064546764e-66 -5.21002466585274e-66 1.63155164702004e-66 1.10045421590792e-66 -1.59708453332679e-63 5.25511952250055e-64 1.7551609483387e-64 -6.78493545058666e-62 -1.24098800936604e-61 5.8972645902699e-62 -4.60701456557872e-63 -2.19625063413318e-63 2.45964305029878e-63 1.56408488912372e-61 -7.56455082444635e-62 -4.62676534638717e-62 5.46268745366781e-62 -4.04643767073431e-63 -1.24172562911784e-62 3.14849226768363e-60 1.23322968240362e-60 -1.61437026194529e-60 -1.44700550738382e-60 -2.91088567022636e-61 5.14664723988446e-61 -1.01400701957189e-62 -4.57929826593388e-63 5.60164622653733e-63 1.59602944848003e-63 -1.33617507581282e-63 -3.3272987904357e-64 4.77432862396668e-64 -1.9773351393533e-65 -3.52920250771799e-65 -6.42784940860281e-65 1