<?xml version="1.0"?>
<VTKFile type="UnstructuredGrid" version="0.1" byte_order="LittleEndian">
<UnstructuredGrid>
<Piece NumberOfPoints="2400" NumberOfCells="800">
<Points>
<DataArray type="Float64" NumberOfComponents="3" format="ascii">
0 0 0 0 0.199999999999558 0 0.2 0.199999999999558 0 0 0 0 0.2 0.199999999999558 0 0.2 0 0 0 0.199999999999558 0 0 0.399999999998975 0 0.2 0.399999999998975 0 0 0.199999999999558 0 0.2 0.399999999998975 0 0.2 0.199999999999558 0 0 0.399999999998975 0 0.2 0.599999999998947 0 0.2 0.399999999998975 0 0.2 0.399999999998975 0 0.4 0.599999999998947 0 0.4 0.399999999998975 0 0.2 0.199999999999558 0 0.2 0.399999999998975 0 0.4 0.399999999998975 0 0.2 0.199999999999558 0 0.4 0.399999999998975 0 0.4 0.199999999999558 0 0.4 0.199999999999558 0 0.4 0.399999999998975 0 0.6 0.399999999998975 0 0.2 0 0 0.4 0.199999999999558 0 0.4 0 0 0.2 0 0 0.2 0.199999999999558 0 0.4 0.199999999999558 0 0.4 0 0 0.4 0.199999999999558 0 0.6 0.199999999999558 0 0.4 0 0 0.6 0.199999999999558 0 0.6 0 0 0.6 0 0 0.8 0.199999999999558 0 0.8 0 0 0.6 0 0 0.6 0.199999999999558 0 0.8 0.199999999999558 0 0.4 0.199999999999558 0 0.6 0.399999999998975 0 0.6 0.199999999999558 0 0.4 0.399999999998975 0 0.6 0.599999999998947 0 0.6 0.399999999998975 0 0.6 0.399999999998975 0 0.8 0.599999999998947 0 0.8 0.399999999998975 0 0.6 0.199999999999558 0 0.8 0.399999999998975 0 0.8 0.199999999999558 0 0.6 0.199999999999558 0 0.6 0.399999999998975 0 0.8 0.399999999998975 0 0.8 0.199999999999558 0 0.8 0.399999999998975 0 1 0.399999999998975 0 0.8 0.399999999998975 0 1 0.599999999998947 0 1 0.399999999998975 0 0.8 0.199999999999558 0 1 0.399999999998975 0 1 0.199999999999558 0 0.8 0 0 1 0.199999999999558 0 1 0 0 0.8 0 0 0.8 0.199999999999558 0 1 0.199999999999558 0 0.8 0.799999999999473 0 0.8 1 0 1 1 0 0.8 0.799999999999473 0 1 1 0 1 0.799999999999473 0 0.8 0.599999999998947 0 1 0.799999999999473 0 1 0.599999999998947 0 0.8 0.399999999998975 0 0.8 0.599999999998947 0 1 0.599999999998947 0 0.8 0.599999999998947 0 0.8 0.799999999999473 0 1 0.799999999999473 0 0.6 0.599999999998947 0 0.8 0.799999999999473 0 0.8 0.599999999998947 0 0.6 0.599999999998947 0 0.6 0.799999999999473 0 0.8 0.799999999999473 0 0.6 0.399999999998975 0 0.6 0.599999999998947 0 0.8 0.599999999998947 0 0.4 0.599999999998947 0 0.6 0.799999999999473 0 0.6 0.599999999998947 0 0.4 0.799999999999473 0 0.6 1 0 0.6 0.799999999999473 0 0.6 0.799999999999473 0 0.8 1 0 0.8 0.799999999999473 0 0.6 0.799999999999473 0 0.6 1 0 0.8 1 0 0.4 0.799999999999473 0 0.4 1 0 0.6 1 0 0.2 0.799999999999473 0 0.4 1 0 0.4 0.799999999999473 0 0.2 0.799999999999473 0 0.2 1 0 0.4 1 0 0.4 0.399999999998975 0 0.4 0.599999999998947 0 0.6 0.599999999998947 0 0.4 0.599999999998947 0 0.4 0.799999999999473 0 0.6 0.799999999999473 0 0.2 0.599999999998947 0 0.4 0.799999999999473 0 0.4 0.599999999998947 0 0.2 0.599999999998947 0 0.2 0.799999999999473 0 0.4 0.799999999999473 0 0.2 0.399999999998975 0 0.2 0.599999999998947 0 0.4 0.599999999998947 0 0 0.599999999998947 0 0.2 0.799999999999473 0 0.2 0.599999999998947 0 0 0.599999999998947 0 0 0.799999999999473 0 0.2 0.799999999999473 0 0 0.399999999998975 0 0 0.599999999998947 0 0.2 0.599999999998947 0 0 0.799999999999473 0 0.2 1 0 0.2 0.799999999999473 0 0 0.799999999999473 0 0 1 0 0.2 1 0 1.8 0.799999999999473 0 2 1 0 2 0.799999999999473 0 1.8 0.799999999999473 0 1.8 1 0 2 1 0 1.6 0.799999999999473 0 1.6 1 0 1.8 1 0 1.6 0.799999999999473 0 1.8 1 0 1.8 0.799999999999473 0 1.4 0.799999999999473 0 1.6 1 0 1.6 0.799999999999473 0 1.4 0.599999999998947 0 1.6 0.799999999999473 0 1.6 0.599999999998947 0 1.6 0.599999999998947 0 1.6 0.799999999999473 0 1.8 0.799999999999473 0 1.6 0.599999999998947 0 1.8 0.799999999999473 0 1.8 0.599999999998947 0 1.6 0.399999999998975 0 1.6 0.599999999998947 0 1.8 0.599999999998947 0 1.8 0.399999999998975 0 1.8 0.599999999998947 0 2 0.599999999998947 0 1.8 0.599999999998947 0 1.8 0.799999999999473 0 2 0.799999999999473 0 1.8 0.599999999998947 0 2 0.799999999999473 0 2 0.599999999998947 0 1.8 0.399999999998975 0 2 0.599999999998947 0 2 0.399999999998975 0 1.8 0.199999999999558 0 2 0.399999999998975 0 2 0.199999999999558 0 1.8 0.199999999999558 0 1.8 0.399999999998975 0 2 0.399999999998975 0 1.8 0 0 2 0.199999999999558 0 2 0 0 1.8 0 0 1.8 0.199999999999558 0 2 0.199999999999558 0 1.6 0 0 1.8 0.199999999999558 0 1.8 0 0 1.6 0 0 1.6 0.199999999999558 0 1.8 0.199999999999558 0 1.4 0 0 1.6 0.199999999999558 0 1.6 0 0 1.6 0.399999999998975 0 1.8 0.599999999998947 0 1.8 0.399999999998975 0 1.6 0.199999999999558 0 1.8 0.399999999998975 0 1.8 0.199999999999558 0 1.6 0.199999999999558 0 1.6 0.399999999998975 0 1.8 0.399999999998975 0 1.4 0.199999999999558 0 1.6 0.399999999998975 0 1.6 0.199999999999558 0 1.4 0.399999999998975 0 1.6 0.599999999998947 0 1.6 0.399999999998975 0 1.4 0.199999999999558 0 1.4 0.399999999998975 0 1.6 0.399999999998975 0 1.2 0.199999999999558 0 1.2 0.399999999998975 0 1.4 0.399999999998975 0 1.2 0.199999999999558 0 1.4 0.399999999998975 0 1.4 0.199999999999558 0 1.2 0.399999999998975 0 1.4 0.599999999998947 0 1.4 0.399999999998975 0 1.4 0 0 1.4 0.199999999999558 0 1.6 0.199999999999558 0 1.2 0 0 1.2 0.199999999999558 0 1.4 0.199999999999558 0 1.2 0 0 1.4 0.199999999999558 0 1.4 0 0 1 0 0 1.2 0.199999999999558 0 1.2 0 0 1 0 0 1 0.199999999999558 0 1.2 0.199999999999558 0 1 0.399999999998975 0 1.2 0.599999999998947 0 1.2 0.399999999998975 0 1 0.199999999999558 0 1.2 0.399999999998975 0 1.2 0.199999999999558 0 1 0.199999999999558 0 1 0.399999999998975 0 1.2 0.399999999998975 0 1 0.399999999998975 0 1 0.599999999998947 0 1.2 0.599999999998947 0 1 0.599999999998947 0 1.2 0.799999999999473 0 1.2 0.599999999998947 0 1 0.599999999998947 0 1 0.799999999999473 0 1.2 0.799999999999473 0 1 0.799999999999473 0 1 1 0 1.2 1 0 1 0.799999999999473 0 1.2 1 0 1.2 0.799999999999473 0 1.2 0.799999999999473 0 1.4 1 0 1.4 0.799999999999473 0 1.2 0.799999999999473 0 1.2 1 0 1.4 1 0 1.4 0.799999999999473 0 1.4 1 0 1.6 1 0 1.4 0.599999999998947 0 1.4 0.799999999999473 0 1.6 0.799999999999473 0 1.4 0.399999999998975 0 1.4 0.599999999998947 0 1.6 0.599999999998947 0 1.2 0.399999999998975 0 1.2 0.599999999998947 0 1.4 0.599999999998947 0 1.2 0.599999999998947 0 1.2 0.799999999999473 0 1.4 0.799999999999473 0 1.2 0.599999999998947 0 1.4 0.799999999999473 0 1.4 0.599999999998947 0 2.6 0.599999999998947 0 2.6 0.799999999999473 0 2.8 0.799999999999473 0 2.6 0.599999999998947 0 2.8 0.799999999999473 0 2.8 0.599999999998947 0 2.6 0.399999999998975 0 2.6 0.599999999998947 0 2.8 0.599999999998947 0 2.4 0.599999999998947 0 2.6 0.799999999999473 0 2.6 0.599999999998947 0 2.4 0.799999999999473 0 2.6 1 0 2.6 0.799999999999473 0 2.6 0.799999999999473 0 2.6 1 0 2.8 1 0 2.6 0.799999999999473 0 2.8 1 0 2.8 0.799999999999473 0 2.8 0.799999999999473 0 2.8 1 0 3 1 0 2.8 0.799999999999473 0 3 1 0 3 0.799999999999473 0 2.8 0.599999999998947 0 3 0.799999999999473 0 3 0.599999999998947 0 2.8 0.599999999998947 0 2.8 0.799999999999473 0 3 0.799999999999473 0 2.8 0.399999999998975 0 2.8 0.599999999998947 0 3 0.599999999998947 0 2.8 0.399999999998975 0 3 0.599999999998947 0 3 0.399999999998975 0 2.8 0.199999999999558 0 3 0.399999999998975 0 3 0.199999999999558 0 2.8 0.199999999999558 0 2.8 0.399999999998975 0 3 0.399999999998975 0 2.8 0 0 3 0.199999999999558 0 3 0 0 2.8 0 0 2.8 0.199999999999558 0 3 0.199999999999558 0 2.6 0 0 2.8 0.199999999999558 0 2.8 0 0 2.6 0 0 2.6 0.199999999999558 0 2.8 0.199999999999558 0 2.4 0 0 2.6 0.199999999999558 0 2.6 0 0 2.6 0.399999999998975 0 2.8 0.599999999998947 0 2.8 0.399999999998975 0 2.6 0.199999999999558 0 2.8 0.399999999998975 0 2.8 0.199999999999558 0 2.6 0.199999999999558 0 2.6 0.399999999998975 0 2.8 0.399999999998975 0 2.4 0.199999999999558 0 2.6 0.399999999998975 0 2.6 0.199999999999558 0 2.4 0.399999999998975 0 2.6 0.599999999998947 0 2.6 0.399999999998975 0 2.4 0.199999999999558 0 2.4 0.399999999998975 0 2.6 0.399999999998975 0 2.2 0.199999999999558 0 2.4 0.399999999998975 0 2.4 0.199999999999558 0 2.2 0.199999999999558 0 2.2 0.399999999998975 0 2.4 0.399999999998975 0 2.2 0.399999999998975 0 2.4 0.599999999998947 0 2.4 0.399999999998975 0 2.4 0 0 2.4 0.199999999999558 0 2.6 0.199999999999558 0 2.2 0 0 2.2 0.199999999999558 0 2.4 0.199999999999558 0 2.2 0 0 2.4 0.199999999999558 0 2.4 0 0 2 0 0 2.2 0.199999999999558 0 2.2 0 0 2 0 0 2 0.199999999999558 0 2.2 0.199999999999558 0 2 0.399999999998975 0 2.2 0.599999999998947 0 2.2 0.399999999998975 0 2 0.199999999999558 0 2.2 0.399999999998975 0 2.2 0.199999999999558 0 2 0.199999999999558 0 2 0.399999999998975 0 2.2 0.399999999998975 0 2 0.399999999998975 0 2 0.599999999998947 0 2.2 0.599999999998947 0 2 0.599999999998947 0 2 0.799999999999473 0 2.2 0.799999999999473 0 2 0.599999999998947 0 2.2 0.799999999999473 0 2.2 0.599999999998947 0 2.2 0.399999999998975 0 2.2 0.599999999998947 0 2.4 0.599999999998947 0 2.2 0.599999999998947 0 2.4 0.799999999999473 0 2.4 0.599999999998947 0 2.2 0.599999999998947 0 2.2 0.799999999999473 0 2.4 0.799999999999473 0 2.4 0.599999999998947 0 2.4 0.799999999999473 0 2.6 0.799999999999473 0 2.4 0.399999999998975 0 2.4 0.599999999998947 0 2.6 0.599999999998947 0 2.4 0.799999999999473 0 2.4 1 0 2.6 1 0 2.2 0.799999999999473 0 2.4 1 0 2.4 0.799999999999473 0 2.2 0.799999999999473 0 2.2 1 0 2.4 1 0 2 0.799999999999473 0 2.2 1 0 2.2 0.799999999999473 0 2 0.799999999999473 0 2 1 0 2.2 1 0 3.8 0.799999999999473 0 4 1 0 4 0.799999999999473 0 3.8 0.799999999999473 0 3.8 1 0 4 1 0 3.8 0.599999999998947 0 4 0.799999999999473 0 4 0.599999999998947 0 3.8 0.599999999998947 0 3.8 0.799999999999473 0 4 0.799999999999473 0 3.8 0.399999999998975 0 3.8 0.599999999998947 0 4 0.599999999998947 0 3.6 0.399999999998975 0 3.6 0.599999999998947 0 3.8 0.599999999998947 0 3.6 0.599999999998947 0 3.8 0.799999999999473 0 3.8 0.599999999998947 0 3.6 0.599999999998947 0 3.6 0.799999999999473 0 3.8 0.799999999999473 0 3.4 0.599999999998947 0 3.6 0.799999999999473 0 3.6 0.5999999999989
[...]
<PointData Scalars="conc_conc," Vectors="" Tensors="">
<DataArray type="Float64" Name="conc_conc" format="ascii">
0.000382026904123662 0.000382026904123662 -0.000448648178377878 0.000753708557446914 -0.000488187912041173 -0.00117495619497353 0.000381925704957049 0.000381925704957046 -0.000452330026819061 0.00075174496981201 -0.000491728910855485 -0.00117755424231014 0.000751313072329026 -0.000494127104928875 -0.00118062015753063 -0.00467055287872492 -0.000411233321037702 -0.00203537948661881 -0.0019420722969503 -0.00104069967616803 -0.00148006727234423 -0.00466231003832177 -0.000416820503149821 -0.00204543862879354 -0.00447860688681742 -0.0037482042595548 0.0186985897543101 -0.00465875669005906 -0.000425568708340346 -0.00206314970917874 -0.00193806004072932 -0.00103457670269858 -0.00148889757068567 -0.00450419782276861 -0.00376860737333583 0.0186990624266458 -0.0103904694944055 0.0208969494268957 0.0246149401626708 0.0238245883561487 0.0744177145764455 0.0808552841890647 0.0238068093809352 0.0191218495327663 0.0739127055367497 -0.0103373157020324 0.0208871560762908 0.0245921995955301 -0.0103136766013994 0.0209093691312635 0.0246105561648441 0.0238796181079979 0.0741383888377593 0.0805461440616992 0.023838261103667 0.0741899945615487 0.0806135269770387 0.0237985538212929 0.0191308550416805 0.0737019018859808 0.0826359415183172 0.0776648768867159 0.121380710941849 0.089152796364251 0.118931384085157 0.118762009940675 0.0892197159735951 0.119143637766264 0.118957569809848 0.0894716952093828 0.119690666582952 0.119433789506789 0.0828708122851551 0.0779048149596057 0.121922359491321 0.0823238264572062 0.0772673862202868 0.120355484873874 0.0888869155879758 0.118094098079215 0.118159491802067 0.0890960835887697 0.118707618925091 0.118579758436535 0.0825733280642675 0.0776117182624999 0.12117272141447 0.0825200382976226 0.0775502413629553 0.120955085016094 0.0239257604375931 0.0740793895924844 0.0804866888985041 0.0238544452452477 0.0191952618425147 0.0736107908236004 0.0238246063087778 0.0191645381786863 0.0736589625283181 -0.0102894208515497 0.0209292798990409 0.0246313505093339 -0.010232320682414 0.0209082423190307 0.024617542792159 0.0239592965575434 0.0738133166858691 0.0802750335278229 0.0238621060994183 0.019190074108068 0.0733709463508559 -0.00442583811606855 -0.00370969316313173 0.0187418250553067 -0.0046829809124466 -0.00039547334690104 -0.00200849998474915 -0.00195630742989819 -0.00105563271709422 -0.00146110257300772 -0.00446621986823686 -0.00373968699015522 0.0187237464872927 -0.0044535556601629 -0.00373094436061519 0.018747978545732 -0.00467899000885772 -0.000405309499504098 -0.00202561808004844 -0.00195195530036297 -0.00105016725222755 -0.00147091780060574 -0.00194696414547404 -0.00104549033857057 -0.00147559708696827 0.000750876595280101 -0.000496450565790761 -0.00118377371616627 0.00038253317001109 0.00038253316438699 -0.000457483575393508 0.000382229936580996 0.00038223003139194 -0.000454902768324797 0.000748821811558895 -0.000499567687040035 -0.00118672531979078 0.000382391643407769 0.000382391603719041 -0.000461165809574665 0.0230584757891793 0.0102541657167649 0.011634290990989 0.0243797237710412 0.0233949941602571 0.00958576540157906 0.0479198652258156 0.0487032999600456 0.0235650913804056 0.046170656129411 0.0242707174786086 0.0250300301454643 0.0804763220946232 0.0499834180418481 0.0484941052311246 0.0808305216055011 0.0504184991890478 0.0486915916824265 0.0481285322924228 0.0491253590911372 0.0238160599746975 0.0463773153283444 0.0245119807154858 0.0251260042025713 0.0482547856701575 0.049323095490535 0.0239322373000207 0.0245510438352148 0.0237330805162304 0.00976436554708092 0.0244835482006812 0.023624584236316 0.00970851872613277 0.023159892552207 0.0103712008484744 0.0116747520735951 0.023225317672748 0.0104257511499466 0.0117053163643195 0.0233001364320715 0.0104735715712288 0.0117430008069019 0.0246286806861414 0.0238317019875952 0.009812160817528 0.0234407255686007 0.0105611821730883 0.0118131254642617 0.0247749429160496 0.0240165834821477 0.0098995509845829 0.046907416891506 0.024920723786025 0.0254135642705156 0.0486679253087722 0.0498629846408117 0.0242318673026071 0.0816776830261687 0.051174902407016 0.0492207534493394 0.046501992294597 0.0246252108700179 0.0251914118068252 0.0466408557619639 0.0247278097857198 0.0252684247263094 0.0483959982963726 0.049507094411194 0.0240362889100895 0.0812463676611176 0.0508092696200218 0.0489532502515472 0.0810293468025357 0.0506210719223267 0.0488142550238767 0.0824265432649279 0.0867444553216099 0.0506627721386561 0.115287494376778 0.121221823743353 0.088815959127875 0.11682299568115 0.0875991408996058 0.0823409490616036 0.116559593850843 0.0873195698215961 0.0821302192306232 0.0828563247601522 0.0873112730411823 0.0510366045942532 0.115827928779932 0.12191671257419 0.0893993971809785 0.117380983742635 0.088169096725276 0.0827619710321669 0.127798294305236 0.120508813760864 0.114436220882555 0.122023822759453 0.124028045859947 0.123172192496436 0.127072805895634 0.119520920139916 0.113658116044248 0.127285653508702 0.119829174258787 0.113906296559015 0.12154257065329 0.123451371653007 0.122482399602388 0.121345367987266 0.123224928495119 0.122170243241765 0.126875553765192 0.119197436998462 0.113427626787342 0.121163009364978 0.122986021446937 0.121843979345818 0.120745228209108 0.122337924569745 0.121075186794755 0.126429391631867 0.118433837551431 0.112975050361255 0.115837546342917 0.0863694306750485 0.0815997581732523 0.114339155653106 0.119789275101949 0.0875589345502985 0.0816640757731909 0.0855186755496349 0.0498135071128817 0.0820148205119929 0.0861687494961082 0.0502624490808245 0.0822114405785118 0.0864649552272884 0.0504703051399519 0.115034469888981 0.120903986390506 0.0885298917198093 0.114799897076702 0.120570355584898 0.0882274250154094 0.116315121231411 0.0870234732818676 0.0819382990248941 0.000704419389654225 0.000397821692281221 5.66368711513789e-05 0.000633232385956394 0.000111644276895506 0.000287241874753478 0.000706348488847391 0.000400975260988727 5.78395544647491e-05 0.00169768276620896 0.000407921851005633 0.00077677718664255 0.00169164113105331 0.000399995192015762 0.000775207189895458 0.000702349834043201 0.000390642988394609 5.34846118021447e-05 0.000631232705913013 0.000108767790929466 0.000286813282141402 0.000254681144149979 0.000109424892586879 1.63786278160647e-06 0.000226747545888287 2.49266569331325e-05 0.000102848765098589 0.000227365914412738 2.59304970542732e-05 0.000102948700001843 0.000255315457270724 0.000112007556984918 2.75317926525038e-06 0.000255993281308426 0.000113107123623019 3.15403502979258e-06 0.000227990260802956 2.63326834116131e-05 0.000103173273468468 0.000228858804170409 2.6563290908299e-05 0.000103549723630778 0.000256955101603806 0.000113855418356628 3.32398885640468e-06 0.000230445676241421 2.69274573136578e-05 0.000104246563601586 0.000258716690924065 0.000115100997544878 3.56790846837709e-06 0.000641738213669964 0.000114945344561385 0.000290848071127405 0.000713722866049544 0.000407376417885293 5.95531220140992e-05 0.00172018670109082 0.000418143076348452 0.000786461706144895 0.00063502129134223 0.000112843755859664 0.000287903249949254 0.000637396460893415 0.000113634455742258 0.000288938478680032 0.000708952252640162 0.000403336341986473 5.85010782080667e-05 0.00170879740977672 0.0004138548336058 0.000781400491071356 0.0017025702129215 0.000411345474297735 0.000778653705570668 0.00188095600551376 0.00129350262288794 0.000291599206065645 0.00436610162026273 0.00134492891901628 0.00203302373471505 0.0047501952577216 0.00378170836606006 0.00109688212628883 0.00435068486394877 0.00133759035574501 0.00202604063218516 0.00189333026615609 0.00130559717283543 0.000295387688586711 0.00478062606118057 0.00381496946081669 0.00110893274260756 0.00439446534686345 0.00135779532177808 0.00204588886842145 0.0105588988950866 0.00398676943238245 0.00507016229754419 0.0113346290996557 0.0101165751352535 0.0035408985946214 0.0104573322080441 0.00393176446869528 0.005022300027607 0.0104929120811289 0.00395146287750668 0.00503909992996113 0.0112648363780033 0.010033511198531 0.00350655441035219 0.0112272831138433 0.00998807085728845 0.00348730387333297 0.011195715198228 0.00993653186819911 0.00346335434113751 0.0104271847069259 0.00390828390519245 0.00500936685188629 0.00473368712935498 0.00376312993355084 0.00108994246685723 0.00433808130519326 0.0013283158626516 0.00202096589092794 0.00472033324384448 0.00374118911362731 0.00108052808147211 0.00186897595321276 0.00127800802760641 0.000285882956483843 0.00187420343765203 0.0012866104567801 0.00028933923170196 0.00186270292516535 0.00125898577315929 0.000277304821528075 0.00432112467911953 0.00130751433607844 0.00201583075871148 0.00470273661170431 0.00369373258988665 0.00105828180336958 0.0103835022982421 0.00385696617228766 0.00499418288654764 0.0111506049373374 0.00982689932940043 0.00340903490436384 9.48195977732879e-07 -1.6051650501593e-07 4.472000927175e-07 1.10463645457549e-06 -2.34179175976671e-07 -3.25987124899643e-07 9.48593029960943e-07 -1.56881097470661e-07 4.46650423893562e-07 1.1048225631835e-06 -2.24141274169979e-07 -3.21626620913481e-07 1.10711062861178e-06 -2.20804950640851e-07 -3.20613254750164e-07 3.40537915327463e-06 -2.61349079546366e-07 -8.03455370314168e-07 2.93543125995317e-06 -3.36582320687918e-07 1.36734907912638e-06 3.39790862623751e-06 -2.7258706199749e-07 -8.06992663868666e-07 8.96063382565729e-06 -5.47340849723262e-07 4.13206723262784e-06 3.39584946890638e-06 -3.04279802346442e-07 -8.20642263083405e-07 2.93290292270344e-06 -3.48141541656468e-07 1.36852419893632e-06 8.94879217736639e-06 -5.836225032363e-07 4.133931382157e-06 1.0292354806257e-05 3.86150363264565e-07 -1.89999615051813e-06 3.06669901724113e-05 5.14595065292244e-06 -3.80582184292434e-06 2.68576666315179e-05 -2.4414298312012e-07 1.22996347429427e-05 1.03033454156534e-05 4.84634024540731e-07 -1.85783196751634e-06 1.03273039748245e-05 5.2163104992128e-07 -1.84579023707843e-06 3.07893004264496e-05 5.56471579010545e-06 -3.63760489442338e-06 2.69058618649387e-05 -1.32061020028926e-07 1.22995357853834e-05 3.07142372949747e-05 5.44630368899454e-06 -3.67755285015494e-06 7.91838213669586e-05 4.24154678294258e-06 3.59640311581444e-05 8.99129052212318e-05 2.80491332074429e-05 -4.89088357853927e-06 8.96834093001437e-05 2.76821342941122e-05 -5.01948316290008e-06 8.95031204752908e-05 2.67875306762528e-05 -5.40232538616005e-06 7.90049482627311e-05 3.9020100190244e-06 3.59471505017182e-05 8.02614678584775e-05 4.52231819265359e-06 3.64184583249906e-05 9.08840827895892e-05 2.86226765772091e-05 -4.81781770761864e-06 9.02556099806744e-05 2.82700520091578e-05 -4.85556409675344e-06 7.93938518784781e-05 4.37157882419888e-06 3.60379412972072e-05 7.9700500546914e-05 4.43294676245523e-06 3.61710372066352e-05 3.0907952794057e-05 5.62493893158954e-06 -3.63373012458908e-06 2.70795106702752e-05 -7.69459021350567e-08 1.2369212465182e-05 2.69742870827838e-05 -9.13531228941918e-08 1.23232706450877e-05 1.03673991758656e-05 5.36481995683393e-07 -1.84714115012843e-06 1.04415551073906e-05 5.55939413283532e-07 -1.85355711658812e-06 3.11262538302719e-05 5.71477136310564e-06 -3.63699619877356e-06 2.72726426524588e-05 -5.92787630428519e-08 1.24550968027172e-05 9.08274334905237e-06 -5.30563036599988e-07 4.18432955102497e-06 3.44342417014683e-06 -2.55364412560609e-07 -8.08557126137382e-07 2.97535749666089e-06 -3.33476484993543e-07 1.38463516651096e-06 8.98234203667076e-06 -5.34950184261882e-07 4.13950568361999e-06 9.01767134047285e-06 -5.32256999211701e-07 4.15507561803476e-06 3.41870149430718e-06 -2.58228598962972e-07 -8.0475381448578e-07 2.95382282211893e-06 -3.32692990996719e-07 1.37482972352788e-06 2.94217818346938e-06 -3.3290140265014e-07 1.36964556290032e-06 1.11146111121442e-06 -2.20363454191187e-07 -3.21298547843002e-07 9.54429129058591e-07 -1.55955610717973e-07 4.49051373740487e-07 9.50651903454206e-07 -1.55813637881737e-07 4.47351128272775e-07 1.11958230731e-06 -2.20573211568305e-07 -3.23060415705735e-07 9.61455051910322e-07 -1.56625617320984e-07 4.52292743035325e-07 3.07160394079331e-07 -6.47138639855302e-08 1.46097159882384e-07 3.59713037680224e-07 -1.12984772918672e-07 -1.21808132224721e-07 3.57079312622416e-07 -1.12561264158651e-07 -1.21082277539076e-07 3.03687944271443e-07 -6.42634080217423e-08 1.4448796494473e-07 3.04896683620654e-07 -6.43725319295371e-08 1.45038730426403e-07 1.13570799066048e-07 -4.83303135262416e-08 -4.37685826430222e-08 9.64705120642123e-08 -2.4665138646975e-08 4.63916313092237e-08 9.60877451097211e-08 -2.46113671749481e-08 4.62150345231159e-08 3.58129285740799e-08 -1.89336815643483e-08 -1.53272245702148e-08 3.60813894189447e-08 -1.90429939627038e-08 -1.54290735025871e-08 9.71923564726257e-08 -2.48112629896589e-08 4.67335541755774e-08 1.14415678386635e-07 -4.85738159182151e-08 -4.40472249545701e-08 3.55065161108614e-07 -1.16591387977104e-07 -1.22423419881151e-07 3.03062864446203e-07 -6.56823541476748e-08 1.44498699450286e-07 3.03057964636616e-07 -6.45476509977108e-08 1.44269214325744e-07 3.54973394158076e-07 -1.1344768303369e-07 -1.21041348473023e-07 3.55678066148572e-07 -1.12524241060149e-07 -1.20782637701216e-07 1.13124565725845e-07 -4.82638674477459e-08 -4.36494579536401e-08 3.56722104111729e-08 -1.8896293125404e-08 -1.52827031107149e-08 3.56095987213992e-08 -1.89672781920503e-08 -1.53003022825592e-08 9.59001149335822e-08 -2.46891227752089e-08 4.61491647513759e-08 1.12913910718194e-07 -4.85226047421662e-08 -4.37181828618006e-08 9.5941072180089e-08 -2.50401839105994e-08 4.62371780629985e-08 3.56463306387224e-08 -1.9267472821603e-08 -1.54356882591121e-08 1.12988209819237e-07 -4.94976987429834e-08 -4.41522846015751e-08 1.11623617053112e-08 -7.09289487777528e-09 -5.26478591439741e-09 3.01253671282877e-08 -9.09712712618692e-09 1.46682507586258e-08 9.39240187009024e-09 -3.19085414910477e-09 4.61800462443488e-09 1.1157357298366e-08 -6.9987134219182e-09 -5.22352243307245e-09 9.39054853155978e-09 -3.15746097016283e-09 4.61092186015966e-09 3.01266762037008e-08 -8.98734781514929e-09 1.46482397953584e-08 1.11658308055062e-08 -6.98213278251517e-09 -5.21849462608036e-09 3.47266895405176e-09 -2.47724826940991e-09 -1.7460884152311e-09 2.9093446994402e-09 -1.07929983807683e-09 1.44167479713892e-09 3.47045727534437e-09 -2.48166192445347e-09 -1.74743066079037e-09 2.91059128398364e-09 -1.08938176256672e-09 1.44411320506445e-09 3.47277313860778e-09 -2.51020733373547e-09 -1.76000894938603e-09 1.12944601936998e-08 -7.04244842249782e-09 -5.27038299230566e-09 9.50704314345829e-09 -3.18216932548342e-09 4.66536025409316e-09 3.05039744399917e-08 -9.048222087957e-09 1.48216991223169e-08 3.02758719418633e-08 -8.99115748418027e-09 1.47122914127604e-08 3.01557976773585e-08 -8.96862011798221e-09 1.46562123922061e-08 9.39812855241639e-09 -3.15246629018957e-09 4.61298358820777e-09 9.43548092432709e-09 -3.16113399864249e-09 4.6306352534046e-09 1.12098382786376e-08 -6.99867741022739e-09 -5.23445236574488e-09 3.4863356972452e-09 -2.48380496956413e-09 -1.75163035757222e-09 2.91132347360267e-09 -1.077972651745e-09 1.44221060219083e-09 2.92286987344202e-09 -1.08113040042653e-09 1.44773041869384e-09 3.51282483743189e-09 -2.50018185191084e-09 -1.76396401579529e-09 2.94517220054299e-09 -1.08857952737687e-09 1.4586710074444e-09 1.08643170140952e-09 -8.60982937762957e-10 -5.8051448118361e-10 9.07586748491077e-10 -3.64324928694489e-10 4.53343657655612e-10 2.7839080260849e-10 -1.19784695064901e-10 1.40140653125889e-10 3.34342141686242e-10 -2.89556264551531e-10 -1.88359261637573e-10 1.02438070800522e-10 -9.55494018561317e-11 -6.03865452602081e-11 1.01649420180915e-10 -9.48654677374023e-11 -5.99415906381017e-11 3.31787955505227e-10 -2.87528376690625e-10 -1.86992580743591e-10 2.7625839635697e-10 -1.18924468324668e-10 1.39071344979631e-10 2.75174269446845e-10 -1.18550568993204e-10 1.38545950762605e-10 8.9712508371223e-10 -3.60658650695214e-10 4.4820383138618e-10 9.00674068787664e-10 -3.61763241968047e-10 4.49915990851242e-10 1.07818942243212e-09 -8.5512620580401e-10 -5.76372619176625e-10 1.07396774050441e-09 -8.52693252770297e-10 -5.74494205347631e-10 1.07339388094861e-09 -8.53867917633851e-10 -5.74856089680522e-10 8.96607791073796e-10 -3.61011831254176e-10 4.48063543094827e-10 1.07433509021976e-09 -8.6245685021076e-10 -5.78664236533174e-10 8.97193533501599e-10 -3.64036220060603e-10 4.4888790827826e-10 3.30700919270366e-10 -2.89548084212852e-10 -1.87614616474411e-10 2.75276958611004e-10 -1.19546431331436e-10 1.38782430833051e-10 1.01345553217416e-10 -9.54180324007654e-11 -6.01097092255683e-11 3.30495752665423e-10 -2.86668282155253e-10 -1.86371452785629e-10 3.30343751671376e-10 -2.86980083891036e-10 -1.86467153852538e-10 2.75037745939882e-10 -1.1864440919844e-10 1.38509368722805e-10 1.01217236057013e-10 -9.46546451332797e-11 -5.97658347348482e-11 1.01257075399586e-10 -9.45718963856042e-11 -5.97404919280927e-11 8.40228709942752e-11 -3.84271173578234e-11 4.26109653189291e-11 2.55748502400146e-11 -1.22943898618608e-11 1.30517423066727e-11 3.089079129172e-11 -3.07419519582494e-11 -1.89604895379953e-11 3.09006392565444e-11 -3.07196415638877e-11 -1.89534343772303e-11 8.41128892421474e-11 -3.86948985428843e-11 4.26999286945328e-11 2.5607002731424e-11 -1.23736373005906e-11 1.30804533678058e-11 3.09352004636118e-11 -3.09678322548823e-11 -1.90631041047698e-11 9.40926772523308e-12 -9.923406362451e-12 -5.99258297529469e-12 7.77004128126051e-12 -3.91614050576796e-12 3.99119332954581e-12 9.39656324410371e-12 -9.85063594561681e-12 -5.96003319656011e-12 9.39419872906265e-12 -9.85674467063124e-12 -5.96201854351761e-12 7.75889740170648e-12 -3.89276304522028e-12 3.98204202393093e-12 7.76104927509227e-12 -3.8909006710757e-12 3.982550842799e-12 9.43282105642719e-12 -9.88267574055649e-12 -5.9806031290877e-12 7.79119112616384e-12 -3.90397854769653e-12 3.9976723360393e-12 7.85255888065585e-12 -3.93360909202272e-12 4.02901830136431e-12 9.50694954995733e-12 -9.95665363189976e-12 -6.02624610649736e-12 3.12615997750348e-11 -3.10431939695538e-11 -1.91609542478224e-11 2.58838493705755e-11 -1.24202050881638e-11 1.320538217879e-11 8.50424009395331e-11 -3.88083687807008e-11 4.31114581793405e-11 8.43855104789388e-11 -3.85250967017249e-11 4.27803375529447e-11 8.4058423567472e-11 -3.84017512081871e-11 4.2619721863844e-11 2.55835692172316e-11 -1.22874036546871e-11 1.30537170346673e-11 3.10192552252885e-11 -3.08168518283602e-11 -1.90175909928214e-11 2.56824645113681e-11 -1.23277902230223e-11 1.31031311982289e-11 3.99562723818503e-17 -6.27488315169005e-17 -3.34235401629257e-17 3.23144126154508e-17 -2.29477343896108e-17 1.76514621750704e-17 4.51870095151447e-17 -2.79895344238186e-17 2.3910951737648e-17 5.54877110324196e-17 -7.52584108311655e-17 -4.16232481110427e-17 5.54808259951161e-17 -7.52652246840964e-17 -4.16245033523709e-17 1.86459475523338e-16 -2.49732167973463e-16 -1.3871276583801e-16 1.51988188991286e-16 -9.31571479902428e-17 8.02979776300999e-17 1.8648228919723e-16 -2.49703377159148e-16 -1.38705986716582e-16 5.10537794801507e-16 -3.0917818572972e-16 2.69237598684184e-16 4.92075293215252e-16 -2.80753934415382e-16 2.55988969627759e-16 1.78620133292367e-16 -2.25987486816486e-16 -1.27344504066773e-16 1.53440695339925e-16 -7.71524847922814e-17 5.91832884277733e-17 4.32355153021079e-17 -2.77406827375444e-17 2.30529801372358e-17 5.31795141194424e-17 -7.4912181603168e-17 -4.10244952775736e-17 2.50932985849312e-17 -4.72913888339845e-17 -2.41867618328031e-17 2.00914128565968e-17 -1.70069616248141e-17 1.15037880884134e-17 4.51930601892788e-17 -2.79878621893147e-17 2.39131579358876e-17 1.52008343937705e-16 -9.31495946372565e-17 8.03052934175984e-17 5.10606018810468e-16 -3.09145768108918e-16 2.69260766546006e-16 4.71861276482124e-16 -2.37631513614042e-16 2.39226699677285e-16 1.69537831043358e-16 -1.89881491697599e-16 -1.10799175304074e-16 1.53541939893522e-16 -5.77200231365429e-17 3.83963392188975e-17 1.88872235179781e-16 -2.52765015908518e-16 -1.40425720239308e-