<?xml version="1.0"?>
<VTKFile type="UnstructuredGrid" version="0.1" byte_order="LittleEndian">
<UnstructuredGrid>
<Piece NumberOfPoints="2400" NumberOfCells="800">
<Points>
<DataArray type="Float64" NumberOfComponents="3" format="ascii">
0 0 0 0 0.199999999999558 0 0.2 0.199999999999558 0 0 0 0 0.2 0.199999999999558 0 0.2 0 0 0 0.199999999999558 0 0 0.399999999998975 0 0.2 0.399999999998975 0 0 0.199999999999558 0 0.2 0.199999999999558 0 0.2 0.399999999998975 0 0 0.399999999998975 0 0.2 0.399999999998975 0 0.2 0.599999999998947 0 0.2 0.399999999998975 0 0.4 0.399999999998975 0 0.4 0.599999999998947 0 0.2 0.199999999999558 0 0.2 0.399999999998975 0 0.4 0.399999999998975 0 0.2 0.199999999999558 0 0.4 0.399999999998975 0 0.4 0.199999999999558 0 0.4 0.399999999998975 0 0.4 0.199999999999558 0 0.6 0.399999999998975 0 0.2 0 0 0.4 0.199999999999558 0 0.4 0 0 0.2 0.199999999999558 0 0.2 0 0 0.4 0.199999999999558 0 0.4 0.199999999999558 0 0.4 0 0 0.6 0.199999999999558 0 0.4 0 0 0.6 0 0 0.6 0.199999999999558 0 0.6 0 0 0.8 0 0 0.8 0.199999999999558 0 0.6 0 0 0.6 0.199999999999558 0 0.8 0.199999999999558 0 0.4 0.199999999999558 0 0.6 0.199999999999558 0 0.6 0.399999999998975 0 0.4 0.399999999998975 0 0.6 0.399999999998975 0 0.6 0.599999999998947 0 0.6 0.399999999998975 0 0.8 0.399999999998975 0 0.8 0.599999999998947 0 0.6 0.199999999999558 0 0.8 0.399999999998975 0 0.8 0.199999999999558 0 0.6 0.199999999999558 0 0.6 0.399999999998975 0 0.8 0.399999999998975 0 0.8 0.399999999998975 0 0.8 0.199999999999558 0 1 0.399999999998975 0 0.8 0.399999999998975 0 1 0.399999999998975 0 1 0.599999999998947 0 0.8 0.199999999999558 0 1 0.199999999999558 0 1 0.399999999998975 0 0.8 0 0 1 0.199999999999558 0 1 0 0 0.8 0 0 0.8 0.199999999999558 0 1 0.199999999999558 0 0.8 0.799999999999473 0 0.8 1 0 1 1 0 0.8 0.799999999999473 0 1 1 0 1 0.799999999999473 0 0.8 0.599999999998947 0 1 0.599999999998947 0 1 0.799999999999473 0 0.8 0.399999999998975 0 0.8 0.599999999998947 0 1 0.599999999998947 0 0.8 0.799999999999473 0 0.8 0.599999999998947 0 1 0.799999999999473 0 0.8 0.799999999999473 0 0.8 0.599999999998947 0 0.6 0.599999999998947 0 0.8 0.799999999999473 0 0.6 0.599999999998947 0 0.6 0.799999999999473 0 0.6 0.399999999998975 0 0.8 0.599999999998947 0 0.6 0.599999999998947 0 0.6 0.599999999998947 0 0.6 0.799999999999473 0 0.4 0.599999999998947 0 0.6 0.799999999999473 0 0.4 0.799999999999473 0 0.6 1 0 0.8 0.799999999999473 0 0.6 0.799999999999473 0 0.8 1 0 0.6 0.799999999999473 0 0.6 1 0 0.8 1 0 0.4 0.799999999999473 0 0.4 1 0 0.6 1 0 0.4 0.799999999999473 0 0.2 0.799999999999473 0 0.4 1 0 0.2 0.799999999999473 0 0.2 1 0 0.4 1 0 0.4 0.399999999998975 0 0.6 0.599999999998947 0 0.4 0.599999999998947 0 0.6 0.799999999999473 0 0.4 0.799999999999473 0 0.4 0.599999999998947 0 0.4 0.799999999999473 0 0.4 0.599999999998947 0 0.2 0.599999999998947 0 0.4 0.799999999999473 0 0.2 0.599999999998947 0 0.2 0.799999999999473 0 0.2 0.399999999998975 0 0.4 0.599999999998947 0 0.2 0.599999999998947 0 0.2 0.599999999998947 0 0 0.599999999998947 0 0.2 0.799999999999473 0 0 0.599999999998947 0 0.2 0.799999999999473 0 0 0.799999999999473 0 0 0.399999999998975 0 0.2 0.599999999998947 0 0 0.599999999998947 0 0.2 0.799999999999473 0 0 0.799999999999473 0 0.2 1 0 0 0.799999999999473 0 0 1 0 0.2 1 0 1.8 0.799999999999473 0 2 0.799999999999473 0 2 1 0 1.8 1 0 1.8 0.799999999999473 0 2 1 0 1.6 1 0 1.8 1 0 1.6 0.799999999999473 0 1.8 1 0 1.8 0.799999999999473 0 1.6 0.799999999999473 0 1.6 1 0 1.6 0.799999999999473 0 1.4 0.799999999999473 0 1.6 0.799999999999473 0 1.6 0.599999999998947 0 1.4 0.599999999998947 0 1.8 0.799999999999473 0 1.6 0.799999999999473 0 1.6 0.599999999998947 0 1.8 0.799999999999473 0 1.6 0.599999999998947 0 1.8 0.599999999998947 0 1.6 0.599999999998947 0 1.8 0.599999999998947 0 1.6 0.399999999998975 0 1.8 0.599999999998947 0 1.8 0.399999999998975 0 2 0.599999999998947 0 1.8 0.799999999999473 0 1.8 0.599999999998947 0 2 0.799999999999473 0 1.8 0.599999999998947 0 2 0.599999999998947 0 2 0.799999999999473 0 1.8 0.399999999998975 0 2 0.399999999998975 0 2 0.599999999998947 0 1.8 0.199999999999558 0 2 0.199999999999558 0 2 0.399999999998975 0 1.8 0.399999999998975 0 1.8 0.199999999999558 0 2 0.399999999998975 0 1.8 0 0 2 0.199999999999558 0 2 0 0 1.8 0.199999999999558 0 1.8 0 0 2 0.199999999999558 0 1.8 0.199999999999558 0 1.8 0 0 1.6 0 0 1.8 0.199999999999558 0 1.6 0.199999999999558 0 1.6 0 0 1.6 0.199999999999558 0 1.6 0 0 1.4 0 0 1.8 0.599999999998947 0 1.8 0.399999999998975 0 1.6 0.399999999998975 0 1.8 0.399999999998975 0 1.8 0.199999999999558 0 1.6 0.199999999999558 0 1.8 0.399999999998975 0 1.6 0.199999999999558 0 1.6 0.399999999998975 0 1.6 0.199999999999558 0 1.6 0.399999999998975 0 1.4 0.199999999999558 0 1.6 0.599999999998947 0 1.6 0.399999999998975 0 1.4 0.399999999998975 0 1.6 0.399999999998975 0 1.4 0.399999999998975 0 1.4 0.199999999999558 0 1.4 0.399999999998975 0 1.2 0.199999999999558 0 1.2 0.399999999998975 0 1.4 0.399999999998975 0 1.4 0.199999999999558 0 1.2 0.199999999999558 0 1.4 0.399999999998975 0 1.2 0.399999999998975 0 1.4 0.599999999998947 0 1.6 0.199999999999558 0 1.4 0 0 1.4 0.199999999999558 0 1.4 0.199999999999558 0 1.2 0 0 1.2 0.199999999999558 0 1.4 0 0 1.4 0.199999999999558 0 1.2 0 0 1.2 0 0 1.2 0.199999999999558 0 1 0 0 1.2 0.199999999999558 0 1 0.199999999999558 0 1 0 0 1.2 0.399999999998975 0 1 0.399999999998975 0 1.2 0.599999999998947 0 1.2 0.199999999999558 0 1 0.199999999999558 0 1.2 0.399999999998975 0 1 0.199999999999558 0 1.2 0.399999999998975 0 1 0.399999999998975 0 1 0.399999999998975 0 1 0.599999999998947 0 1.2 0.599999999998947 0 1 0.599999999998947 0 1.2 0.599999999998947 0 1.2 0.799999999999473 0 1 0.599999999998947 0 1 0.799999999999473 0 1.2 0.799999999999473 0 1 1 0 1.2 1 0 1 0.799999999999473 0 1.2 1 0 1 0.799999999999473 0 1.2 0.799999999999473 0 1.4 1 0 1.2 0.799999999999473 0 1.4 0.799999999999473 0 1.2 1 0 1.4 1 0 1.2 0.799999999999473 0 1.4 1 0 1.6 1 0 1.4 0.799999999999473 0 1.6 0.799999999999473 0 1.4 0.799999999999473 0 1.4 0.599999999998947 0 1.6 0.599999999998947 0 1.4 0.399999999998975 0 1.4 0.599999999998947 0 1.2 0.399999999998975 0 1.2 0.599999999998947 0 1.4 0.599999999998947 0 1.2 0.599999999998947 0 1.2 0.799999999999473 0 1.4 0.799999999999473 0 1.2 0.599999999998947 0 1.4 0.799999999999473 0 1.4 0.599999999998947 0 2.6 0.599999999998947 0 2.6 0.799999999999473 0 2.8 0.799999999999473 0 2.6 0.599999999998947 0 2.8 0.799999999999473 0 2.8 0.599999999998947 0 2.6 0.599999999998947 0 2.8 0.599999999998947 0 2.6 0.399999999998975 0 2.6 0.599999999998947 0 2.6 0.799999999999473 0 2.4 0.599999999998947 0 2.6 0.799999999999473 0 2.4 0.799999999999473 0 2.6 1 0 2.6 0.799999999999473 0 2.6 1 0 2.8 1 0 2.6 0.799999999999473 0 2.8 0.799999999999473 0 2.8 1 0 2.8 0.799999999999473 0 2.8 1 0 3 1 0 2.8 0.799999999999473 0 3 0.799999999999473 0 3 1 0 3 0.799999999999473 0 2.8 0.599999999998947 0 3 0.599999999998947 0 2.8 0.799999999999473 0 3 0.799999999999473 0 2.8 0.599999999998947 0 2.8 0.599999999998947 0 3 0.599999999998947 0 2.8 0.399999999998975 0 3 0.599999999998947 0 3 0.399999999998975 0 2.8 0.399999999998975 0 3 0.399999999998975 0 3 0.199999999999558 0 2.8 0.199999999999558 0 3 0.399999999998975 0 2.8 0.399999999998975 0 2.8 0.199999999999558 0 3 0 0 3 0.199999999999558 0 2.8 0 0 3 0.199999999999558 0 2.8 0.199999999999558 0 2.8 0 0 2.8 0.199999999999558 0 2.8 0 0 2.6 0 0 2.8 0.199999999999558 0 2.6 0.199999999999558 0 2.6 0 0 2.6 0.199999999999558 0 2.6 0 0 2.4 0 0 2.8 0.599999999998947 0 2.8 0.399999999998975 0 2.6 0.399999999998975 0 2.8 0.399999999998975 0 2.8 0.199999999999558 0 2.6 0.199999999999558 0 2.8 0.399999999998975 0 2.6 0.199999999999558 0 2.6 0.399999999998975 0 2.6 0.199999999999558 0 2.6 0.399999999998975 0 2.4 0.199999999999558 0 2.6 0.599999999998947 0 2.6 0.399999999998975 0 2.4 0.399999999998975 0 2.6 0.399999999998975 0 2.4 0.399999999998975 0 2.4 0.199999999999558 0 2.4 0.399999999998975 0 2.4 0.199999999999558 0 2.2 0.199999999999558 0 2.4 0.399999999998975 0 2.2 0.199999999999558 0 2.2 0.399999999998975 0 2.4 0.399999999998975 0 2.2 0.399999999998975 0 2.4 0.599999999998947 0 2.6 0.199999999999558 0 2.4 0 0 2.4 0.199999999999558 0 2.4 0.199999999999558 0 2.2 0 0 2.2 0.199999999999558 0 2.4 0 0 2.4 0.199999999999558 0 2.2 0 0 2.2 0 0 2.2 0.199999999999558 0 2 0 0 2.2 0.199999999999558 0 2 0.199999999999558 0 2 0 0 2.2 0.399999999998975 0 2 0.399999999998975 0 2.2 0.599999999998947 0 2.2 0.199999999999558 0 2 0.199999999999558 0 2.2 0.399999999998975 0 2 0.199999999999558 0 2.2 0.399999999998975 0 2 0.399999999998975 0 2 0.399999999998975 0 2 0.599999999998947 0 2.2 0.599999999998947 0 2 0.599999999998947 0 2.2 0.799999999999473 0 2 0.799999999999473 0 2 0.599999999998947 0 2.2 0.599999999998947 0 2.2 0.799999999999473 0 2.2 0.399999999998975 0 2.2 0.599999999998947 0 2.4 0.599999999998947 0 2.2 0.599999999998947 0 2.4 0.599999999998947 0 2.4 0.799999999999473 0 2.2 0.599999999998947 0 2.4 0.799999999999473 0 2.2 0.799999999999473 0 2.6 0.799999999999473 0 2.4 0.599999999998947 0 2.4 0.799999999999473 0 2.6 0.599999999998947 0 2.4 0.399999999998975 0 2.4 0.599999999998947 0 2.4 0.799999999999473 0 2.4 1 0 2.6 1 0 2.4 0.799999999999473 0 2.2 0.799999999999473 0 2.4 1 0 2.2 0.799999999999473 0 2.2 1 0 2.4 1 0 2.2 0.799999999999473 0 2 0.799999999999473 0 2.2 1 0 2 0.799999999999473 0 2 1 0 2.2 1 0 3.8 0.799999999999473 0 4 0.799999999999473 0 4 1 0 3.8 1 0 3.8 0.799999999999473 0 4 1 0 3.8 0.599999999998947 0 4 0.799999999999473 0 4 0.599999999998947 0 3.8 0.799999999999473 0 3.8 0.599999999998947 0 4 0.799999999999473 0 3.8 0.599999999998947 0 3.8 0.399999999998975 0 4 0.599999999998947 0 3.8 0.599999999998947 0 3.6 0.599999999998947 0 3.6 0.399999999998975 0 3.8 0.799999999999473 0 3.8 0.599999999998947 0 3.6 0.599999999998947 0 3.8 0.799999999999473 0 3.6 0.599999999998947 0 3.6 0.799999999999473 0 3.6 0.599999999998947 0 3.6 0.799999999999473 0 3.4 0.5999999999989
[...]
<PointData Scalars="conc_conc," Vectors="" Tensors="">
<DataArray type="Float64" Name="conc_conc" format="ascii">
0.000619149296332287 0.000619149296332282 -0.0019347730254627 0.000671202265018662 -0.00180676053642515 -0.00337304419704382 0.000615993800668504 0.000615993800668505 -0.00194006608427007 0.000661889468596829 -0.00337227617472924 -0.00181080328542845 0.000656870049111874 -0.00337565916271369 -0.00181462695232474 -0.012121424278841 0.00368027891599507 0.00352240687288834 -0.00555624121961639 -0.00400711695573008 0.00115047493978217 -0.0121158986858197 0.0035010834141789 0.00365300718819853 -0.00122651122077621 0.000742086499928403 0.0485521952517981 -0.0121300269884238 0.00347480581987915 0.00362241099177715 -0.00400221489331168 -0.00555711342898326 0.00112193618702773 -0.00128069920186399 0.000694351667564064 0.0486155503171829 -0.0045521451524142 0.0592234703240775 0.0510267348958984 0.0671099447552525 0.122516452369102 0.11916692742807 0.0605970612047158 0.0530064599202797 0.120893318115202 -0.00446011042635413 0.0591013880502809 0.0509434451042587 -0.00440108867393643 0.0590946406885544 0.0509564018382827 0.067010437968589 0.121906783849749 0.118539802445622 0.067001217732078 0.118697109715131 0.122071869659552 0.0604901771442469 0.0529297276644948 0.120439983882181 0.125071118889858 0.125678147012563 0.141829491925768 0.134419095454254 0.131226679069941 0.137695186254768 0.134603322912482 0.131499612238139 0.138024017986259 0.135091868153714 0.138772844158021 0.13209386057004 0.126124511481142 0.125579464541697 0.142586691098254 0.124973114758451 0.124138407497777 0.140318039079536 0.133821881561585 0.136516512660157 0.130452918374898 0.134249744166765 0.130971547603399 0.137350507908393 0.125513510737063 0.124897698125756 0.141498361186359 0.124711782602764 0.125362885268208 0.141153002321399 0.118370927612259 0.121754078168368 0.067028474453643 0.12013658039408 0.0605029676942127 0.0529683646634105 0.0604928057307679 0.120292877754357 0.0529523064746903 0.0590937563678178 0.0509637181505636 -0.00433960622294622 0.058991750720641 -0.00423671643295292 0.0508542881458041 0.121356962685155 0.0669536105433515 0.117841466089681 0.0604252138154261 0.0528608836918073 0.119634244577406 0.000868575308116599 -0.00110921259948862 0.0485128371816167 0.00374010740506701 -0.0121127560040409 0.00356825328421429 -0.00556699786209901 -0.00402513312089472 0.00122017334182527 0.000777107194836983 0.048573834140412 -0.00119309892030508 0.0485924125129031 -0.00116036499881468 0.000813692894798745 0.00354350755923241 0.0037078763860095 -0.0121271204010057 0.00119120998883608 -0.00556778071895051 -0.0040218046427528 -0.00556196281951063 0.00117076845865395 -0.00401459430443089 -0.0033792339185104 0.000651830222977124 -0.00181825681646376 0.000613478864774834 -0.00194986467496105 0.000613478811382162 0.000614741108218643 -0.00194496310333328 0.000614741530287617 -0.0033791866957305 0.000642368223464166 -0.00182118839797687 0.000610230014108747 0.000610229794365668 -0.00195502972269888 0.0100177298960298 0.00452458368067326 0.00319118122270961 0.00924555769972577 0.0109075162948057 0.00265221984023203 0.0245831188233498 0.0088621626602373 0.0259203532097087 0.00972806936816547 0.0115026864879211 0.0242525683412223 0.0257075777357273 0.0267655833310567 0.0521212143658351 0.0259754533172687 0.0268687103584145 0.052360167557847 0.00898871426931148 0.0248361034814447 0.026032689420822 0.00984825769544463 0.0243613217979457 0.0115418179215815 0.0249571210255685 0.00904647085744481 0.0261073912419609 0.00940969168078797 0.0109839734578173 0.00272559560659409 0.00935694622181069 0.0109517881427062 0.00270331429397044 0.0100601253351848 0.00453749427234185 0.00323918344409189 0.0100905029781473 0.00454949494268727 0.00326110553486635 0.0101268455006249 0.00456560419759228 0.00327897700218596 0.00945558976127944 0.0110227954049369 0.0027427362527783 0.0101933587162853 0.00331022148819473 0.00459508127190434 0.00953788423703922 0.0110940056443749 0.00277246286071338 0.010041150517473 0.01168409916641 0.0246688632187678 0.00918190454051901 0.0252688625340985 0.0263544883575575 0.0264302623915153 0.0271863025317738 0.0529761912272749 0.00990467445916334 0.0115729588315637 0.0244331242000166 0.00995346737628937 0.0116121151637967 0.0245157330177998 0.00909497556808371 0.0261938352631125 0.0250666740420178 0.0270267843957336 0.0262175255127792 0.0526682488482715 0.0261026863599775 0.0269409751544464 0.0525059029072692 0.0252944470019504 0.0564975357133102 0.0550046266453171 0.0582249786727822 0.0971802184376044 0.103148990252177 0.058283103745744 0.0557226285488399 0.0957755729030671 0.0555601908528306 0.0955174973960302 0.0580602634086411 0.0255104960642653 0.0553198626697013 0.0569139999698151 0.058666357664996 0.0976876465671035 0.103825088215639 0.0560319130522099 0.058712626444753 0.0962867517984137 0.0973892509411944 0.104806915365398 0.137447899733726 0.106919176150686 0.141620226741818 0.134366542825829 0.0966454870482679 0.136516180594911 0.103798398686952 0.0968939848912705 0.13681182800779 0.104129494116209 0.133759261449393 0.106223199917058 0.140843098984371 0.133480388502866 0.140497640863869 0.105883248151726 0.136240163883555 0.0964177404047657 0.103448934334206 0.133220583767877 0.140135462098489 0.105525384073532 0.139268975079818 0.104738413032218 0.132694454381054 0.102679304910158 0.135687331002118 0.0960123906403647 0.0573121100918317 0.0948551351432806 0.0551875524427233 0.101696196044381 0.0572232546312478 0.0962722713974271 0.0555548996728258 0.0247673440201753 0.0544485874398984 0.025046815017903 0.0560468443067889 0.0546910172858234 0.0251777061993898 0.0548391208092615 0.0562803929035147 0.0969257643321665 0.102815976941167 0.0579959453084276 0.0966919163707278 0.102464435650028 0.057749043414035 0.0952799164849776 0.0578204999114329 0.0554165506152417 0.000168822566783409 4.92745572224508e-05 -1.38252129060608e-05 0.000147326861437031 4.88078439461386e-06 6.38234233598626e-05 4.99890726578235e-05 -1.35973166044112e-05 0.000169279970946531 0.000196064591520572 4.58819928539695e-05 0.000454348226413078 0.000195864289494864 0.000453026593036256 4.39332154760051e-05 0.000168463157547025 4.75551114210792e-05 -1.45127742618734e-05 0.000146977227028156 6.37950152529924e-05 4.27342062785807e-06 5.35411676619315e-05 6.79854945562619e-06 -8.39856045828511e-06 4.6273207302897e-05 2.02530217635964e-05 -1.65366176023668e-06 -1.4700558206923e-06 4.63578890838055e-05 2.02512390645779e-05 7.32981638189519e-06 -8.18681316886298e-06 5.36256606681458e-05 7.54183491386014e-06 -8.12236851579255e-06 5.37645580094022e-05 -1.40290534246096e-06 2.02922553868258e-05 4.64828133418999e-05 -1.38451414186358e-06 2.03732366214111e-05 4.66760333187404e-05 -8.12597775528979e-06 7.64057359385951e-06 5.39852184891071e-05 2.05244845759729e-05 -1.36882764771787e-06 4.70288993261897e-05 -8.1538406827004e-06 7.77742968868339e-06 5.43894489971419e-05 5.34814697314605e-06 6.46795891034222e-05 0.000149444950698564 -1.35352267586578e-05 5.10524166816779e-05 0.000171209452045776 4.77769188927629e-05 0.000198673232774588 0.000460811046197911 5.11517849241075e-06 6.39616713555618e-05 0.000147740936960941 5.21496612039182e-06 6.42132569682202e-05 0.000148345256103731 -1.35549908336632e-05 0.000169963080126269 5.04063825857876e-05 0.00019727528355643 4.71077130449595e-05 0.000457496193163828 4.66701545593169e-05 0.000196516652536206 0.000455668852176501 -2.40120702823657e-06 0.000233611840911391 0.000518691725866697 0.000235585818399971 0.000587187178213256 0.00135753470227433 0.000113795635664409 0.00152109728978213 0.000910589894878912 0.000584979658650464 0.00135225521988371 0.000233905197785434 -2.00575681858302e-06 0.000522404704842 0.000236197146289747 0.000115945401431777 0.00153168611221198 0.000919763473249343 0.00059123538493653 0.000238330403042884 0.00136711360918714 0.00169080537167192 0.000955958498200934 0.00385786130037758 0.00068192317182895 0.00314833147336401 0.00426466554909252 0.00167343671031912 0.00381728178333941 0.000940340039046409 0.00167957455484248 0.00383167836920302 0.000946128567010658 0.00423614927759386 0.00067319331383598 0.00311919009977888 0.00422050261123541 0.00310250266983228 0.000667952297120373 0.00420813583469969 0.000660172769861584 0.00308225959585604 0.00380577485259299 0.00166917696279325 0.000932612570230135 0.00151527347757646 0.000905193438020108 0.00011241528857827 0.00134823600133481 0.000583558113642249 0.000231368701201504 0.00151090586563336 0.000109889005832764 0.000898118755636089 -3.47581893230482e-06 0.00051520184751292 0.000229726553390598 -2.69961078887826e-06 0.000516649622927209 0.000232036382780822 0.000513823235502517 0.000224374878688842 -5.64345596175869e-06 0.000582607231958525 0.00134363782708545 0.000225362197140275 0.00150607971063738 0.000882290138968736 0.000103316010061315 0.00166542681632369 0.00379110601666949 0.000915045806178236 0.00419273911154537 0.00303844727385355 0.000641231371840682 1.08659972555892e-07 5.05498498680176e-08 -3.2890344487072e-08 -7.33558539793914e-08 1.30233571119796e-07 -5.71142991330459e-08 1.08593878960678e-07 -3.25306987559233e-08 5.04478694719592e-08 -7.22746846516888e-08 1.30126335357445e-07 -5.66582628578749e-08 -7.19822633163449e-08 1.30378795146401e-07 -5.65936950345228e-08 -1.72924253249718e-07 -1.92423473763868e-07 4.4665542396312e-07 -9.51073742661305e-08 1.7167495546366e-07 3.74103593879215e-07 -1.73206232543079e-07 4.45738351673325e-07 -1.93585594346612e-07 5.77907634714011e-07 -2.61056843346474e-07 1.27556934652335e-06 -1.97421771798728e-07 -1.74798626291079e-07 4.45924028015994e-07 -9.63860419027988e-08 1.71971620310863e-07 3.7417350992334e-07 -2.65566912692435e-07 5.78711501053387e-07 1.2752219350097e-06 -4.71606277219137e-07 -5.14340280272586e-07 1.51020222611475e-06 -8.72118970023429e-07 -1.43464761956534e-06 5.04761084608346e-06 -6.63994868830921e-07 1.92297077057126e-06 4.2920928758822e-06 -5.0882961176854e-07 -4.58131634941936e-07 1.51025166637702e-06 -5.07665022605945e-07 -4.536549421886e-07 1.5135545839422e-06 -1.41116873737904e-06 -8.0866582071438e-07 5.06195203998809e-06 -6.48250693432997e-07 1.92103682431202e-06 4.29538111112212e-06 -1.41577804779494e-06 5.0502267186618e-06 -8.25387915676045e-07 1.42452277917336e-05 6.29210696317479e-06 -1.32732093726455e-06 -2.06098831687033e-07 1.66606150507832e-05 -3.62019018639466e-06 -2.66592231249817e-07 1.66197244040214e-05 -3.63771979412484e-06 1.66025430581092e-05 -4.25952363331395e-07 -3.70148081913226e-06 1.4226895734679e-05 -1.38155591407125e-06 6.29570644654629e-06 1.44521618672253e-05 -1.31003271715401e-06 6.37735544116808e-06 1.68574358954992e-05 -1.65526832046817e-07 -3.64515583382619e-06 -1.86155580522533e-07 1.67298654083303e-05 -3.62632451377426e-06 1.42817810570027e-05 -1.30875290553475e-06 6.30398337216579e-06 1.43418600561641e-05 6.32942324936962e-06 -1.306974308116e-06 5.08319053540908e-06 -8.05852298923733e-07 -1.41448040194679e-06 4.32408577256364e-06 -6.43866907139487e-07 1.93224932951209e-06 -6.43277461965823e-07 4.30581603972249e-06 1.924419061519e-06 -4.53758785759144e-07 1.51994412823797e-06 -5.09057808114081e-07 -4.55792767032855e-07 1.53190160471757e-06 -5.1248297990578e-07 -8.06201680975517e-07 5.12259587903694e-06 -1.42315464235642e-06 4.35785517533902e-06 -6.47077518843119e-07 1.94714602716927e-06 1.29411522766181e-06 5.85782819157343e-07 -2.61858681889676e-07 4.52124911578561e-07 -1.93867167436563e-07 -1.74684937947269e-07 3.7953576534752e-07 1.74020233044705e-07 -9.566247568951e-08 -2.59766643540858e-07 1.27849369178452e-06 5.78858818265539e-07 1.28394905663021e-06 5.81228634343771e-07 -2.60258244544273e-07 4.48549574810445e-07 -1.92721475307379e-07 -1.73446197594978e-07 3.76517669231905e-07 -9.5015056664404e-08 1.72647719527374e-07 -9.47835967347862e-08 3.74912080258447e-07 1.71941084466358e-07 -7.21428562838254e-08 1.30932499174595e-07 -5.67754957949322e-08 1.09281795424174e-07 5.07301073814208e-08 -3.25429698929799e-08 1.08815307917963e-07 5.05219522818489e-08 -3.24522316534482e-08 1.31988819913482e-07 -7.26274038230066e-08 -5.7198521672745e-08 1.1016772857396e-07 5.11387225358654e-08 -3.27789361158552e-08 3.17038588432247e-08 1.48870890408606e-08 -1.07425372966306e-08 3.81787295399394e-08 -1.81609729601516e-08 -2.52557668074018e-08 3.78698802812446e-08 -2.50752251692184e-08 -1.80224021450469e-08 3.13121142008684e-08 1.47060783577501e-08 -1.06295605741914e-08 1.47667471192798e-08 3.14463298824233e-08 -1.06619138316439e-08 1.08679091687816e-08 -8.29310946968983e-09 -5.58340812810793e-09 8.9831470432038e-09 -3.38002472670292e-09 4.2631864244788e-09 8.94486469085557e-09 4.24566501814199e-09 -3.36915226631788e-09 -2.64595702304985e-09 3.09799560976994e-09 -1.69601001601343e-09 -2.66654369637222e-09 3.12373448630199e-09 -1.70963185310877e-09 9.05739522894004e-09 -3.4063726564162e-09 4.29829337365478e-09 1.09574149859113e-08 -8.35559318758123e-09 -5.62739570375575e-09 3.76908085703242e-08 -2.53773001444142e-08 -1.81047902031637e-08 3.12875935380744e-08 1.4720785503109e-08 -1.0747391735257e-08 -1.06447427383205e-08 3.12520471821919e-08 1.46851292265409e-08 -2.50693180657767e-08 -1.79717510567324e-08 3.76403634797233e-08 3.7709643816843e-08 -2.5008872566885e-08 -1.79620192886955e-08 1.08219652747596e-08 -8.2688016255944e-09 -5.56405843091797e-09 3.084922913592e-09 -2.63765347686321e-09 -1.68997597182113e-09 3.079917898602e-09 -2.64086387742018e-09 -1.6901937485779e-09 8.92876006634392e-09 4.23994883057059e-09 -3.37252318663538e-09 -8.28299913798318e-09 1.08033069162696e-08 -5.56579345917239e-09 8.94198621184257e-09 4.25116287103648e-09 -3.40111773103763e-09 3.0859529755601e-09 -1.70079354705143e-09 -2.66464885258663e-09 1.08213271331404e-08 -5.60344208787957e-09 -8.36878153655422e-09 8.74880301823058e-10 -5.08000533410105e-10 -8.26020599004281e-10 2.539636835089e-09 1.21879672749727e-09 -1.04975605684572e-09 7.17386210913119e-10 3.4719283106051e-10 -3.17614161652775e-10 -8.19450495243532e-10 8.7294600118577e-10 -5.05030057654216e-10 7.15911175953779e-10 3.46157998290943e-10 -3.15420764417168e-10 2.53510354953511e-09 -1.0418233202106e-09 1.21535654531082e-09 -8.18757865954886e-10 -5.05039412078996e-10 8.74283107616762e-10 -2.48764189561445e-10 2.46516699769453e-10 -1.48897585660207e-10 2.01224203940142e-10 9.80362646948644e-11 -9.39455427313829e-11 2.4615994550358e-10 -2.48903044568081e-10 -1.48876703075326e-10 2.0168684898509e-10 9.83426233332104e-11 -9.45503395031122e-11 2.46760430400482e-10 -1.49705762332327e-10 -2.5071241096571e-10 8.85332016023241e-10 -8.28012222954236e-10 -5.11016192595877e-10 7.2615337223717e-10 -3.18953483398687e-10 3.50925966139871e-10 2.57149662786462e-09 1.23208919146876e-09 -1.05295766934874e-09 2.55024322149809e-09 1.22193206165757e-09 -1.04462478287916e-09 2.53940178687289e-09 -1.04111709907062e-09 1.2169108721141e-09 -3.15286656406251e-10 7.17054513690253e-10 3.46580381210681e-10 7.2010641904795e-10 -3.16383924477685e-10 3.48008995993243e-10 8.77979138175414e-10 -8.21465668068369e-10 -5.06880822767852e-10 -2.49617781777452e-10 2.47555814956097e-10 -1.49449804871548e-10 2.01527805282016e-10 9.81508462876352e-11 -9.3924450847122e-11 2.02382548012399e-10 9.85551928257882e-11 -9.42599455662169e-11 -2.51644457689974e-10 2.49644184019642e-10 -1.5068518559494e-10 2.04093766286892e-10 9.93874460988721e-11 -9.50367563443105e-11 7.00781898923196e-11 -7.51655890051878e-11 -4.39269141422621e-11 5.71262998534702e-11 -2.79349331329763e-11 2.80066545392454e-11 1.59313367454536e-11 -8.11819770972212e-12 7.8566925736819e-12 -2.21351966439242e-11 1.95934709204359e-11 -1.26810462042517e-11 -6.44192020292472e-12 5.45875838779465e-12 -3.63035495221842e-12 5.41221696907417e-12 -6.38809449375725e-12 -3.59974539487748e-12 1.94274979949882e-11 -1.25750186140465e-11 -2.19520587159814e-11 1.57961683391742e-11 7.78997673573399e-12 -8.05037286046591e-12 7.75818538492967e-12 1.57299243221721e-11 -8.02068414849907e-12 2.76567176470715e-11 5.6405865595015e-11 -2.76031773678532e-11 5.66443483465484e-11 2.77705110870298e-11 -2.77038382802858e-11 6.94881789656382e-11 -4.35628899582396e-11 -7.45512067716406e-11 6.91971646208885e-11 -7.42887196845808e-11 -4.33995334683561e-11 6.91023330800367e-11 -7.43135125772759e-11 -4.33892994487182e-11 5.63253912545817e-11 2.76256316459962e-11 -2.76049331417283e-11 6.9284505850063e-11 -4.36198858006374e-11 -7.48106174623185e-11 5.6466867931426e-11 2.77152798147648e-11 -2.77713514587059e-11 1.93754731675475e-11 -1.25872990847651e-11 -2.20126735157254e-11 1.57509829968441e-11 7.77569880789704e-12 -8.0658232762557e-12 5.39899002372523e-12 -3.60230325961658e-12 -6.40205571746455e-12 1.93464447047703e-11 -2.18730072603742e-11 -1.25273595161092e-11 1.93211330359569e-11 -2.18763397637202e-11 -1.25233268140733e-11 1.57085733143196e-11 -8.02013685600312e-12 7.74977640284134e-12 -6.36474075647531e-12 5.38304261971714e-12 -3.58461342489042e-12 5.38977341373008e-12 -6.36470990995151e-12 -3.58601893411634e-12 4.36667627196813e-12 2.16532295722819e-12 -2.30791717990201e-12 1.21030375972444e-12 -6.58740756765079e-13 6.02824416955202e-13 1.49499213771871e-12 -1.83354995979374e-12 -1.01870046975881e-12 -1.83375199444639e-12 -1.01914967466793e-12 1.49676287688959e-12 4.37917708147569e-12 2.17274803600398e-12 -2.32043873747341e-12 1.2139384635942e-12 6.04937813597713e-13 -6.62169508778146e-13 1.49961226046704e-12 -1.02357964005159e-12 -1.84374704563336e-12 4.15330291984831e-13 -5.26575429610074e-13 -2.89048153075578e-13 3.35620966705625e-13 1.678819981553e-13 -1.87648128108812e-13 -5.23894292851396e-13 4.14466522088964e-13 -2.87842106586993e-13 -5.23789131819827e-13 4.14001586041787e-13 -2.87703469304254e-13 3.34573612380725e-13 1.67285376380539e-13 -1.86710806902907e-13 3.34961204829467e-13 1.67447535210483e-13 -1.86772566415734e-13 -5.25853344759091e-13 4.16195811658048e-13 -2.88957343157148e-13 3.36365189712103e-13 -1.87483921590148e-13 1.68135675728983e-13 3.39284249816736e-13 -1.89105021328462e-13 1.69596559341383e-13 4.19804225509292e-13 -5.30377263408027e-13 -2.91454575980878e-13 -1.03183955473748e-12 1.51595870916771e-12 -1.8562021709394e-12 6.11144698624364e-13 -6.67071408699275e-13 1.22736535393291e-12 4.428414319814e-12 2.19516822836531e-12 -2.33661993073727e-12 4.39071928508335e-12 2.1764571545921e-12 -2.31687727847739e-12 4.37231981017706e-12 -2.30831256015611e-12 2.16757145794019e-12 -6.58906033755642e-13 6.03423041657548e-13 1.21177956798478e-12 -1.02305273078451e-12 1.50299369100309e-12 -1.84050184682937e-12 -6.61384541262263e-13 6.05902870501968e-13 1.216851272613e-12 -1.44943794398355e-18 9.88745105832163e-19 -7.54692133917186e-19 7.91490693833811e-19 -4.97182528261459e-19 4.03055110175624e-19 7.88551754546975e-19 -4.95113841266114e-19 4.01512626499024e-19 -1.44430098381183e-18 9.85942964593426e-19 -7.52167199789255e-19 -1.44331882522619e-18 9.85052346718254e-19 -7.51608709013628e-19 -2.74935906245851e-18 3.61916153372098e-18 -5.2661412180228e-18 -1.81002678835297e-18 1.47476423896067e-18 2.898684330261e-18 -2.75136155195578e-18 -5.26960865102599e-18 3.62245676534365e-18 5.41054946740009e-18 -6.60459495624675e-18 1.06445580804259e-17 5.43116147616592e-18 -6.63272245999913e-18 1.0683495303365e-17 -2.76070379011399e-18 3.63261747041596e-18 -5.28871057668619e-18 -1.81765807947955e-18 1.48040962831949e-18 2.90939106132302e-18 7.99586127090197e-19 4.07101700086726e-19 -5.01882658085116e-19 9.98817668393961e-19 -1.46296579148808e-18 -7.61921192684573e-19 9.89977713291542e-19 -1.45006112239975e-18 -7.55189353577209e-19 7.92506521499728e-19 -4.97447993000024e-19 4.03496535520853e-19 7.89272505198833e-19 -4.95464765054436e-19 4.01859088026231e-19 -1.8112773123147e-18 1.47604340628012e-18 2.9013565538661e-18 -6.60902347667475e-18 5.41525555370796e-18 1.06544995941788e-17 -6.63533558224046e-18 5.43733933339328e-18 1.06983165637267e-17 -2.76240087056282e-18 -5.29056036600816e-18 3.63730426549422e-18 1.48205870174367e-18 -1.81850972670723e-18 2.9