<?xml version="1.0"?>
<VTKFile type="UnstructuredGrid" version="0.1" byte_order="LittleEndian">
<UnstructuredGrid>
<Piece NumberOfPoints="2400" NumberOfCells="800">
<Points>
<DataArray type="Float64" NumberOfComponents="3" format="ascii">
0 0 0 0 0.199999999999558 0 0.2 0.199999999999558 0 0 0 0 0.2 0.199999999999558 0 0.2 0 0 0 0.199999999999558 0 0 0.399999999998975 0 0.2 0.399999999998975 0 0 0.199999999999558 0 0.2 0.199999999999558 0 0.2 0.399999999998975 0 0 0.399999999998975 0 0.2 0.399999999998975 0 0.2 0.599999999998947 0 0.2 0.399999999998975 0 0.4 0.399999999998975 0 0.4 0.599999999998947 0 0.2 0.199999999999558 0 0.2 0.399999999998975 0 0.4 0.399999999998975 0 0.2 0.199999999999558 0 0.4 0.399999999998975 0 0.4 0.199999999999558 0 0.4 0.399999999998975 0 0.4 0.199999999999558 0 0.6 0.399999999998975 0 0.2 0 0 0.4 0.199999999999558 0 0.4 0 0 0.2 0.199999999999558 0 0.2 0 0 0.4 0.199999999999558 0 0.4 0.199999999999558 0 0.4 0 0 0.6 0.199999999999558 0 0.4 0 0 0.6 0 0 0.6 0.199999999999558 0 0.6 0 0 0.8 0 0 0.8 0.199999999999558 0 0.6 0 0 0.6 0.199999999999558 0 0.8 0.199999999999558 0 0.4 0.199999999999558 0 0.6 0.199999999999558 0 0.6 0.399999999998975 0 0.4 0.399999999998975 0 0.6 0.399999999998975 0 0.6 0.599999999998947 0 0.6 0.399999999998975 0 0.8 0.399999999998975 0 0.8 0.599999999998947 0 0.6 0.199999999999558 0 0.8 0.399999999998975 0 0.8 0.199999999999558 0 0.6 0.199999999999558 0 0.6 0.399999999998975 0 0.8 0.399999999998975 0 0.8 0.399999999998975 0 0.8 0.199999999999558 0 1 0.399999999998975 0 0.8 0.399999999998975 0 1 0.399999999998975 0 1 0.599999999998947 0 0.8 0.199999999999558 0 1 0.199999999999558 0 1 0.399999999998975 0 0.8 0 0 1 0.199999999999558 0 1 0 0 0.8 0 0 0.8 0.199999999999558 0 1 0.199999999999558 0 0.8 0.799999999999473 0 0.8 1 0 1 1 0 0.8 0.799999999999473 0 1 1 0 1 0.799999999999473 0 0.8 0.599999999998947 0 1 0.599999999998947 0 1 0.799999999999473 0 0.8 0.399999999998975 0 0.8 0.599999999998947 0 1 0.599999999998947 0 0.8 0.799999999999473 0 0.8 0.599999999998947 0 1 0.799999999999473 0 0.8 0.799999999999473 0 0.8 0.599999999998947 0 0.6 0.599999999998947 0 0.8 0.799999999999473 0 0.6 0.599999999998947 0 0.6 0.799999999999473 0 0.6 0.399999999998975 0 0.8 0.599999999998947 0 0.6 0.599999999998947 0 0.6 0.599999999998947 0 0.6 0.799999999999473 0 0.4 0.599999999998947 0 0.6 0.799999999999473 0 0.4 0.799999999999473 0 0.6 1 0 0.8 0.799999999999473 0 0.6 0.799999999999473 0 0.8 1 0 0.6 0.799999999999473 0 0.6 1 0 0.8 1 0 0.4 0.799999999999473 0 0.4 1 0 0.6 1 0 0.4 0.799999999999473 0 0.2 0.799999999999473 0 0.4 1 0 0.2 0.799999999999473 0 0.2 1 0 0.4 1 0 0.4 0.399999999998975 0 0.6 0.599999999998947 0 0.4 0.599999999998947 0 0.6 0.799999999999473 0 0.4 0.799999999999473 0 0.4 0.599999999998947 0 0.4 0.799999999999473 0 0.4 0.599999999998947 0 0.2 0.599999999998947 0 0.4 0.799999999999473 0 0.2 0.599999999998947 0 0.2 0.799999999999473 0 0.2 0.399999999998975 0 0.4 0.599999999998947 0 0.2 0.599999999998947 0 0.2 0.599999999998947 0 0 0.599999999998947 0 0.2 0.799999999999473 0 0 0.599999999998947 0 0.2 0.799999999999473 0 0 0.799999999999473 0 0 0.399999999998975 0 0.2 0.599999999998947 0 0 0.599999999998947 0 0.2 0.799999999999473 0 0 0.799999999999473 0 0.2 1 0 0 0.799999999999473 0 0 1 0 0.2 1 0 1.8 0.799999999999473 0 2 0.799999999999473 0 2 1 0 1.8 1 0 1.8 0.799999999999473 0 2 1 0 1.6 1 0 1.8 1 0 1.6 0.799999999999473 0 1.8 1 0 1.8 0.799999999999473 0 1.6 0.799999999999473 0 1.6 1 0 1.6 0.799999999999473 0 1.4 0.799999999999473 0 1.6 0.799999999999473 0 1.6 0.599999999998947 0 1.4 0.599999999998947 0 1.8 0.799999999999473 0 1.6 0.799999999999473 0 1.6 0.599999999998947 0 1.8 0.799999999999473 0 1.6 0.599999999998947 0 1.8 0.599999999998947 0 1.6 0.599999999998947 0 1.8 0.599999999998947 0 1.6 0.399999999998975 0 1.8 0.599999999998947 0 1.8 0.399999999998975 0 2 0.599999999998947 0 1.8 0.799999999999473 0 1.8 0.599999999998947 0 2 0.799999999999473 0 1.8 0.599999999998947 0 2 0.599999999998947 0 2 0.799999999999473 0 1.8 0.399999999998975 0 2 0.399999999998975 0 2 0.599999999998947 0 1.8 0.199999999999558 0 2 0.199999999999558 0 2 0.399999999998975 0 1.8 0.399999999998975 0 1.8 0.199999999999558 0 2 0.399999999998975 0 1.8 0 0 2 0.199999999999558 0 2 0 0 1.8 0.199999999999558 0 1.8 0 0 2 0.199999999999558 0 1.8 0.199999999999558 0 1.8 0 0 1.6 0 0 1.8 0.199999999999558 0 1.6 0.199999999999558 0 1.6 0 0 1.6 0.199999999999558 0 1.6 0 0 1.4 0 0 1.8 0.599999999998947 0 1.8 0.399999999998975 0 1.6 0.399999999998975 0 1.8 0.399999999998975 0 1.8 0.199999999999558 0 1.6 0.199999999999558 0 1.8 0.399999999998975 0 1.6 0.199999999999558 0 1.6 0.399999999998975 0 1.6 0.199999999999558 0 1.6 0.399999999998975 0 1.4 0.199999999999558 0 1.6 0.599999999998947 0 1.6 0.399999999998975 0 1.4 0.399999999998975 0 1.6 0.399999999998975 0 1.4 0.399999999998975 0 1.4 0.199999999999558 0 1.4 0.399999999998975 0 1.2 0.199999999999558 0 1.2 0.399999999998975 0 1.4 0.399999999998975 0 1.4 0.199999999999558 0 1.2 0.199999999999558 0 1.4 0.399999999998975 0 1.2 0.399999999998975 0 1.4 0.599999999998947 0 1.6 0.199999999999558 0 1.4 0 0 1.4 0.199999999999558 0 1.4 0.199999999999558 0 1.2 0 0 1.2 0.199999999999558 0 1.4 0 0 1.4 0.199999999999558 0 1.2 0 0 1.2 0 0 1.2 0.199999999999558 0 1 0 0 1.2 0.199999999999558 0 1 0.199999999999558 0 1 0 0 1.2 0.399999999998975 0 1 0.399999999998975 0 1.2 0.599999999998947 0 1.2 0.199999999999558 0 1 0.199999999999558 0 1.2 0.399999999998975 0 1 0.199999999999558 0 1.2 0.399999999998975 0 1 0.399999999998975 0 1 0.399999999998975 0 1 0.599999999998947 0 1.2 0.599999999998947 0 1 0.599999999998947 0 1.2 0.599999999998947 0 1.2 0.799999999999473 0 1 0.599999999998947 0 1 0.799999999999473 0 1.2 0.799999999999473 0 1 1 0 1.2 1 0 1 0.799999999999473 0 1.2 1 0 1 0.799999999999473 0 1.2 0.799999999999473 0 1.4 1 0 1.2 0.799999999999473 0 1.4 0.799999999999473 0 1.2 1 0 1.4 1 0 1.2 0.799999999999473 0 1.4 1 0 1.6 1 0 1.4 0.799999999999473 0 1.6 0.799999999999473 0 1.4 0.799999999999473 0 1.4 0.599999999998947 0 1.6 0.599999999998947 0 1.4 0.399999999998975 0 1.4 0.599999999998947 0 1.2 0.399999999998975 0 1.2 0.599999999998947 0 1.4 0.599999999998947 0 1.2 0.599999999998947 0 1.2 0.799999999999473 0 1.4 0.799999999999473 0 1.2 0.599999999998947 0 1.4 0.799999999999473 0 1.4 0.599999999998947 0 2.6 0.599999999998947 0 2.6 0.799999999999473 0 2.8 0.799999999999473 0 2.6 0.599999999998947 0 2.8 0.799999999999473 0 2.8 0.599999999998947 0 2.6 0.599999999998947 0 2.8 0.599999999998947 0 2.6 0.399999999998975 0 2.6 0.599999999998947 0 2.6 0.799999999999473 0 2.4 0.599999999998947 0 2.6 0.799999999999473 0 2.4 0.799999999999473 0 2.6 1 0 2.6 0.799999999999473 0 2.6 1 0 2.8 1 0 2.6 0.799999999999473 0 2.8 0.799999999999473 0 2.8 1 0 2.8 0.799999999999473 0 2.8 1 0 3 1 0 2.8 0.799999999999473 0 3 0.799999999999473 0 3 1 0 3 0.799999999999473 0 2.8 0.599999999998947 0 3 0.599999999998947 0 2.8 0.799999999999473 0 3 0.799999999999473 0 2.8 0.599999999998947 0 2.8 0.599999999998947 0 3 0.599999999998947 0 2.8 0.399999999998975 0 3 0.599999999998947 0 3 0.399999999998975 0 2.8 0.399999999998975 0 3 0.399999999998975 0 3 0.199999999999558 0 2.8 0.199999999999558 0 3 0.399999999998975 0 2.8 0.399999999998975 0 2.8 0.199999999999558 0 3 0 0 3 0.199999999999558 0 2.8 0 0 3 0.199999999999558 0 2.8 0.199999999999558 0 2.8 0 0 2.8 0.199999999999558 0 2.8 0 0 2.6 0 0 2.8 0.199999999999558 0 2.6 0.199999999999558 0 2.6 0 0 2.6 0.199999999999558 0 2.6 0 0 2.4 0 0 2.8 0.599999999998947 0 2.8 0.399999999998975 0 2.6 0.399999999998975 0 2.8 0.399999999998975 0 2.8 0.199999999999558 0 2.6 0.199999999999558 0 2.8 0.399999999998975 0 2.6 0.199999999999558 0 2.6 0.399999999998975 0 2.6 0.199999999999558 0 2.6 0.399999999998975 0 2.4 0.199999999999558 0 2.6 0.599999999998947 0 2.6 0.399999999998975 0 2.4 0.399999999998975 0 2.6 0.399999999998975 0 2.4 0.399999999998975 0 2.4 0.199999999999558 0 2.4 0.399999999998975 0 2.4 0.199999999999558 0 2.2 0.199999999999558 0 2.4 0.399999999998975 0 2.2 0.199999999999558 0 2.2 0.399999999998975 0 2.4 0.399999999998975 0 2.2 0.399999999998975 0 2.4 0.599999999998947 0 2.6 0.199999999999558 0 2.4 0 0 2.4 0.199999999999558 0 2.4 0.199999999999558 0 2.2 0 0 2.2 0.199999999999558 0 2.4 0 0 2.4 0.199999999999558 0 2.2 0 0 2.2 0 0 2.2 0.199999999999558 0 2 0 0 2.2 0.199999999999558 0 2 0.199999999999558 0 2 0 0 2.2 0.399999999998975 0 2 0.399999999998975 0 2.2 0.599999999998947 0 2.2 0.199999999999558 0 2 0.199999999999558 0 2.2 0.399999999998975 0 2 0.199999999999558 0 2.2 0.399999999998975 0 2 0.399999999998975 0 2 0.399999999998975 0 2 0.599999999998947 0 2.2 0.599999999998947 0 2 0.599999999998947 0 2.2 0.799999999999473 0 2 0.799999999999473 0 2 0.599999999998947 0 2.2 0.599999999998947 0 2.2 0.799999999999473 0 2.2 0.399999999998975 0 2.2 0.599999999998947 0 2.4 0.599999999998947 0 2.2 0.599999999998947 0 2.4 0.599999999998947 0 2.4 0.799999999999473 0 2.2 0.599999999998947 0 2.4 0.799999999999473 0 2.2 0.799999999999473 0 2.6 0.799999999999473 0 2.4 0.599999999998947 0 2.4 0.799999999999473 0 2.6 0.599999999998947 0 2.4 0.399999999998975 0 2.4 0.599999999998947 0 2.4 0.799999999999473 0 2.4 1 0 2.6 1 0 2.4 0.799999999999473 0 2.2 0.799999999999473 0 2.4 1 0 2.2 0.799999999999473 0 2.2 1 0 2.4 1 0 2.2 0.799999999999473 0 2 0.799999999999473 0 2.2 1 0 2 0.799999999999473 0 2 1 0 2.2 1 0 3.8 0.799999999999473 0 4 0.799999999999473 0 4 1 0 3.8 1 0 3.8 0.799999999999473 0 4 1 0 3.8 0.599999999998947 0 4 0.799999999999473 0 4 0.599999999998947 0 3.8 0.799999999999473 0 3.8 0.599999999998947 0 4 0.799999999999473 0 3.8 0.599999999998947 0 3.8 0.399999999998975 0 4 0.599999999998947 0 3.8 0.599999999998947 0 3.6 0.599999999998947 0 3.6 0.399999999998975 0 3.8 0.799999999999473 0 3.8 0.599999999998947 0 3.6 0.599999999998947 0 3.8 0.799999999999473 0 3.6 0.599999999998947 0 3.6 0.799999999999473 0 3.6 0.599999999998947 0 3.6 0.799999999999473 0 3.4 0.5999999999989
[...]
<PointData Scalars="conc_conc," Vectors="" Tensors="">
<DataArray type="Float64" Name="conc_conc" format="ascii">
0.632864773046029 0.632864773046028 0.410694852525063 0.825658304859332 0.223413033620735 0.156955574576418 0.631089086724715 0.631089086724714 0.406110506063433 0.821999302165701 0.155853043506706 0.220244945725504 0.820426581880006 0.1551151193516 0.218652950245082 0.0395357083368427 0.00364607709405992 -0.0325402124368925 0.100310674050779 0.0848817748663818 -0.0875901670275454 0.0399912088140411 -0.0327271128018272 0.00373362030224222 -0.015531271820995 -0.00166742209256015 0.00357322434966707 0.0408114888547856 -0.033113677361354 0.00396554291460334 0.0867765195315921 0.101531986001527 -0.0882980297778966 -0.015769304128157 -0.00157869915531428 0.00354350892602094 -0.000542406151810288 -0.000551654500500587 0.00162042763644295 -5.81706213532248e-05 2.72929096497716e-05 -4.93933683649406e-05 -0.000104284589017544 0.00077744008342904 -7.54035824459349e-05 -0.000594214476177571 -0.000549154102454646 0.00162350735347321 -0.000612482895521951 -0.000548379681532119 0.00162403768911476 -5.54167850384038e-05 2.77174221634646e-05 -5.02609900733516e-05 -5.62462160449469e-05 -5.00011269384205e-05 2.75690436681152e-05 -0.000101561620175851 0.000777449013809457 -7.71252178052838e-05 -2.35144408688404e-05 8.4981932095146e-06 -2.67342007725922e-08 4.30975564235097e-06 -9.43524542635068e-07 9.14407407867977e-07 4.3130529458417e-06 -9.345656396731e-07 9.05978054910622e-07 4.32343819643076e-06 8.85621225603629e-07 -9.17084716841189e-07 8.47275672134048e-06 -2.32424082387786e-05 -5.31001566872294e-08 8.49400888457313e-06 -2.33465375014482e-05 -4.18602779140703e-08 4.30404661885088e-06 8.97618840189618e-07 -9.32413076593448e-07 4.30720585991194e-06 -9.43509013011892e-07 9.1337380754237e-07 8.5180780521989e-06 -2.36217149770822e-05 -1.86425937804806e-08 -2.35899139941329e-05 8.51682339579476e-06 -2.00946154091248e-08 -5.02175712355985e-05 2.77170490093596e-05 -5.53807179776781e-05 -7.78099930605125e-05 -0.000100532142222603 0.000774769276144005 -0.00010051856661852 -7.78475457529954e-05 0.000776674095643037 -0.000548104998130974 0.00162140630293541 -0.000607940405480237 -0.00054848728820514 -0.000575633322317735 0.00161256297446104 2.75367381816288e-05 -5.62678469540037e-05 -4.97193603095367e-05 -0.000101957197656407 0.000770227013495899 -7.66251274836625e-05 -0.00162656789146897 -0.0152757450129317 0.00355078786159717 0.00374048032154873 0.0388754258566766 -0.0323499774224517 0.0981601151154508 0.0802356035911434 -0.0866473392388205 -0.0016970911137055 0.00358399220204704 -0.0154085192681165 0.00357953455707184 -0.0153328355753279 -0.0016879238432286 -0.0324310584548814 0.0036415869892333 0.0391899597876414 -0.0869720728556291 0.0989603394301539 0.0826163514599432 0.0995918041396801 -0.0872385972193609 0.0837991437061056 0.154424877600803 0.818854945524913 0.21702013009788 0.629953033934424 0.401687603900828 0.629953096580604 0.630521778593773 0.403898452945576 0.630521216725976 0.153514279061734 0.815157080629042 0.213676431411402 0.628152463967985 0.628152752955687 0.39711562566027 6.28058606745366e-14 -3.14479324578771e-14 6.1440358578352e-14 -1.09663604627057e-12 1.11436976670172e-13 1.00380072795888e-13 3.15862023370845e-11 -5.1653658319936e-12 2.81123307749424e-12 -2.25897562199393e-12 7.13303962664599e-13 1.08429414780477e-12 6.32862347046489e-11 -7.97274258874272e-12 -1.22714960317953e-10 6.41852850098403e-11 -7.94760690491179e-12 -1.25119393285864e-10 -5.27976834400092e-12 3.20019275090767e-11 2.92316697771139e-12 -2.30099003465653e-12 1.13514603660396e-12 7.23230234231972e-13 3.19936043848673e-11 -5.28290816556785e-12 2.94090224205884e-12 -1.1162801284936e-12 1.10816975818411e-13 1.03624724557924e-13 -9.38258331707854e-13 9.27523661961343e-14 1.28192331787456e-13 5.43729311940434e-14 -3.27651358371168e-14 6.52505596662953e-14 6.24866859843321e-14 -3.20645285647052e-14 6.29463167978103e-14 6.17930685955443e-14 -3.14354115164399e-14 6.18074028693138e-14 -1.09981667815626e-12 1.09181782522475e-13 1.01552206823599e-13 6.10074935115197e-14 5.96474439342809e-14 -3.03233071155346e-14 -1.06947544757632e-12 1.07214519946294e-13 9.73858804259875e-14 -2.19542044100637e-12 6.88404599063677e-13 1.06738352094452e-12 -5.01168383895225e-12 3.08946073832682e-11 2.77029514738687e-12 6.1628301703039e-11 -7.66986493971142e-12 -1.20647983293116e-10 -2.30110234815266e-12 7.21933776628236e-13 1.1435512458039e-12 -2.26372741236968e-12 7.09354069459363e-13 1.12229860257528e-12 -5.18936821831428e-12 2.89194802412045e-12 3.15950319526612e-11 -7.7929816517611e-12 6.3231175083163e-11 -1.23825883405801e-10 6.41475103215e-11 -7.9024405221359e-12 -1.25323491514916e-10 1.84739676296552e-10 -6.4106657322533e-10 -2.68077765897532e-10 -4.97539040679515e-09 1.17594866989519e-08 3.88407476300412e-09 -1.22309541342173e-09 -2.74852500217474e-10 5.64835128231825e-09 -2.79429351348173e-10 5.6977471995939e-09 -1.23787016822899e-09 1.79384277904215e-10 -2.60719145765858e-10 -6.31689775123044e-10 -4.859440608955e-09 1.15159368674508e-08 3.97941021977417e-09 -2.64139805774307e-10 -1.20005272089643e-09 5.54875141860038e-09 2.19136902146225e-08 4.76455747447286e-09 -1.8155649801055e-07 8.78667692183078e-08 3.88196091085187e-07 -3.66938041655193e-07 2.27883310933115e-08 -1.84224467783955e-07 4.64736167164399e-09 2.24997985730923e-08 -1.83315431916976e-07 4.63452090670019e-09 -3.72006265424694e-07 8.91441379288719e-08 3.98238595074742e-07 -3.74725939220923e-07 4.02300180750491e-07 8.99963017926929e-08 -1.84137394143781e-07 2.27739725942113e-08 4.69197263144786e-09 -3.74663072252328e-07 4.01754172976769e-07 9.00930288437513e-08 3.94137999638796e-07 8.95874105435959e-08 -3.71311525830827e-07 4.89269061103651e-09 -1.82779434798777e-07 2.23734661530504e-08 -1.22937346654868e-09 5.62187183854751e-09 -2.69322325746685e-10 3.98813558933244e-09 -4.9821135099561e-09 1.17135493933108e-08 -6.43044471856044e-10 1.84507861681237e-10 -2.65884586700992e-10 1.87687755512359e-10 -6.47702732000488e-10 -2.7126264682709e-10 1.87655990293954e-10 -2.71650692901821e-10 -6.47187187518107e-10 1.18840866088474e-08 3.87340506155004e-09 -5.04138360574214e-09 1.18782044568584e-08 3.88950853830847e-09 -5.04467184961531e-09 5.69366375522913e-09 -1.23954178183745e-09 -2.7837307382283e-10 3.65040193042787e-19 4.18230529181574e-19 -2.03928978168403e-19 1.58708754917647e-19 -5.65729218432182e-20 -2.5073610925062e-21 3.56639488382526e-19 -1.93358759522677e-19 3.65334027483117e-19 6.44209276551134e-19 7.88148838790945e-19 -6.13713695383979e-18 6.48893144027674e-19 -5.75290943182207e-18 6.3976676866014e-19 3.52063629724914e-19 3.52068182007368e-19 -1.87146947612513e-19 1.5332122533528e-19 -4.3063833855663e-21 -5.03852274411907e-20 -7.1085739611493e-21 -2.41894597477415e-20 5.2511789889984e-21 -3.18636976722028e-21 -2.78253956152634e-22 1.7682041287607e-21 2.32203478592904e-21 -3.60231355420756e-21 -5.96177338612835e-22 -2.50150046110927e-20 6.64844242779213e-21 -7.57548646079731e-21 -2.49603562417924e-20 6.49987949007894e-21 -7.08320470539348e-21 2.24599034466701e-21 -4.1690808881014e-22 -2.90317996207948e-21 2.17327223294063e-21 -5.77616583646747e-22 -1.86993903352299e-21 5.44806975182669e-21 -2.82487525610029e-20 -4.42888513895809e-21 -5.52950431715998e-22 2.07021880877011e-21 -1.75913698680587e-21 5.16348049957458e-21 -2.71407115724507e-20 -4.1698849179972e-21 -5.45992346734681e-20 3.28259855072516e-21 1.321446492007e-19 -1.73857144248585e-19 5.00959695477531e-19 2.85653705494708e-19 9.48478034212897e-19 3.79113948321262e-19 -5.63245319140182e-18 -5.18738910177159e-20 -4.67455565279433e-21 1.59174631276161e-19 -5.7015502310473e-20 3.26953792922898e-21 1.38241247044117e-19 -1.82416448156658e-19 2.99641090350136e-19 5.17168762649924e-19 4.02106179640872e-19 9.82923178125759e-19 -5.8513708542848e-18 6.47090475274826e-19 6.76349031997564e-19 -5.92719063621268e-18 4.68096816385023e-18 -1.63075922781013e-19 -1.22756163334689e-17 2.93911301219758e-18 -2.57658022925979e-17 1.87050459433878e-16 -7.69333329297145e-17 3.82248691074107e-16 -5.18513621354648e-16 -3.26768515319536e-17 1.72225326926562e-16 1.47308325761292e-17 4.48652784176925e-18 -1.17751348395808e-17 -3.00775019681236e-19 -7.43841277805135e-17 3.6860204518145e-16 -4.97282739765012e-16 -2.45725502397082e-17 2.5919449877832e-18 1.81096374198972e-16 9.89327593390153e-16 -1.11362552991055e-15 -4.39465436782618e-15 -3.96131280812811e-16 2.82025197193417e-14 -8.6308400650588e-15 1.13277419788696e-15 -3.9191528380375e-15 -1.39940494030159e-15 1.03107153808331e-15 -4.50994614682982e-15 -1.16171563737793e-15 -8.89805009907242e-15 -4.34589284332365e-16 2.91645153349064e-14 -8.01000273655871e-15 2.58689874495986e-14 -1.47498055095741e-15 -8.37467691142823e-15 -1.4460407646061e-15 2.78897672611422e-14 -4.0351514664943e-15 1.19064968313491e-15 -1.4393944515477e-15 3.72481466482498e-16 -5.64160005201529e-16 -4.59905039629992e-17 1.81565005585313e-16 -3.32175820731073e-17 1.24992928919812e-17 3.94235427067151e-16 -5.64111613301707e-17 -5.89004118941835e-16 4.68543169758039e-18 -1.36862447736219e-17 3.54006515797245e-18 4.25590280600129e-18 -1.32048154992525e-17 4.42303357133056e-18 -1.28107767385108e-17 4.07541960146947e-18 4.15028054075721e-18 -3.15991613348562e-17 1.68300369722496e-16 1.38691249592501e-17 3.63661920066052e-16 -5.44544609147332e-16 -4.58194916921634e-17 1.10276886031224e-15 -3.86046277599908e-15 -1.35347006207767e-15 -7.88273518786663e-15 2.52411348646236e-14 -1.40440343771614e-15 -9.25524874583713e-29 7.24318141359854e-30 1.69553649240788e-29 -3.285617516492e-29 -2.06516881354415e-28 8.15249977173553e-29 -1.04743969867703e-28 4.7529865907265e-29 -3.04524815437188e-30 -4.24055737538345e-28 -2.42150625899211e-28 1.57953922367157e-28 -5.10055880243676e-29 -2.27163561238443e-28 9.06770731315207e-29 -1.65545556244401e-27 -8.11991946822668e-27 7.69521095705238e-27 -8.50217093469588e-28 -3.55208340674518e-28 4.71486604472602e-27 -4.15026590104736e-27 1.04653552085776e-26 -3.14487862853291e-28 2.3900602536864e-26 -3.37971327310526e-27 -1.55604369692488e-25 -7.80088050513254e-27 -1.43193077647653e-27 6.87817983126123e-27 7.88274693096851e-30 -4.6212741700833e-28 3.2020824785067e-27 -1.93662077870578e-26 1.93402963243462e-26 -8.83477375867833e-26 5.23565695397463e-25 -4.9485935493896e-27 -1.80532366972496e-25 -2.38014917950692e-23 1.96170022790221e-24 2.97762931479752e-24 1.1785975038065e-24 -6.44594186643409e-25 1.63497561663136e-24 6.57697477736094e-26 5.06562938621537e-25 -3.35874072620804e-25 -1.52629861533429e-27 5.78694739338183e-25 -2.09460300465615e-25 2.05333421652501e-24 -2.7697911120315e-23 3.82875063617116e-24 1.16275336161513e-24 -9.93020671524618e-25 3.56687061617036e-24 8.92954025848285e-25 7.48596066588478e-24 -2.93398041832013e-23 -1.81699084781596e-23 3.04862443528293e-23 -6.39898477709155e-23 1.07798708912376e-21 2.93123220262499e-23 -1.32592578545861e-22 1.09032970279712e-21 -3.35182562348034e-23 -1.30685788776176e-22 4.17172790914239e-23 8.69714421311977e-22 -1.18699092061617e-22 1.08666793414735e-23 -5.0792692059218e-23 1.70850936986701e-23 -1.70617147460664e-23 -6.20877125154928e-23 2.92839512399149e-23 -2.73963949035135e-23 8.65569852170513e-22 -1.33326858190464e-22 9.12398480381727e-22 -2.76568601028149e-23 -1.38975689381441e-22 2.6184660643719e-24 -5.87783841225765e-23 2.04506380429098e-23 -1.74262222840488e-23 3.03969242289359e-23 -6.47440763218182e-23 7.18811863427976e-24 -2.84222610782531e-23 1.53602698331329e-24 3.39108815881315e-24 1.38957297456693e-24 -1.10480512588048e-24 1.30338065376668e-24 2.09819511339272e-24 -7.31085251874985e-25 5.87435089750139e-25 -3.57814908538364e-25 5.31012395976366e-26 5.63397763211534e-25 -3.45629348968129e-25 5.16637682803925e-26 -2.71963195944557e-23 6.94418577617464e-24 1.47003239954386e-24 3.2733360151703e-24 1.33453795737332e-24 -1.06572296149639e-24 -1.58113322258555e-25 2.87454598927843e-26 -1.04515311835896e-26 1.18219397454172e-26 -3.20533210480057e-27 -4.19953292779363e-27 5.28362555985666e-27 -5.2197982676881e-28 -7.34908921614899e-28 -2.04681571677118e-26 -1.02948704832723e-25 2.13437525472491e-26 -1.63709064053486e-25 2.9825926035167e-26 -1.10207188739593e-26 1.22480089737764e-26 -3.40974699932716e-27 -4.33807079276574e-27 5.47330925989511e-27 -7.55059464858468e-28 -5.43834137533423e-28 -1.88526951706251e-29 3.58851353815844e-27 -5.02594560731318e-28 -3.88310652845845e-28 -3.15398588196664e-28 1.83198406429486e-28 -1.36532103773085e-28 7.72702832873707e-31 5.14753706318141e-29 -1.01733766653628e-28 7.77595585629896e-30 1.91737676693869e-29 -3.03782298310242e-28 -3.77494389408511e-28 1.76964857130538e-28 -1.31511565028718e-28 6.25043158069193e-31 4.98210879533383e-29 2.01821142974552e-30 4.66169118454517e-31 -1.99245544632137e-30 5.05993258346302e-30 -5.54945578052859e-30 2.34861598508866e-29 5.28367876329519e-30 2.42700252694913e-29 -5.75877490526546e-30 2.26030837832476e-30 4.68450201570785e-32 -1.02331753917701e-30 4.79890420866582e-31 2.11013170255481e-30 -2.06437380544944e-30 1.64490432070197e-32 -9.40807012503523e-31 1.36833574947882e-31 1.68499645024676e-32 6.26650092126688e-32 -2.68146499191858e-32 -2.86936347083736e-32 -9.98201008012705e-33 3.78114583132422e-32 2.77417816689899e-32 -5.96983407270766e-33 -1.91303858911805e-33 2.6700404765243e-32 -5.78928208906275e-33 -1.82138751915417e-33 1.69584905659762e-32 6.03103754487252e-32 -2.58938731074915e-32 1.72809582146123e-32 -9.08060435556447e-31 1.31405330220188e-31 5.67305580965329e-30 8.236573469202e-30 -2.78974155974532e-30 2.9322884611264e-30 9.03083271997998e-32 -8.12878830361123e-31 -1.23628787624292e-30 1.77709790133929e-30 3.19949233385815e-31 2.42303483852923e-29 -3.18580992377737e-30 3.64782104256674e-30 5.28876083603349e-30 9.79766821302714e-30 -3.40803934865755e-30 -7.60725299030019e-32 -4.83713302729461e-31 1.00780492060079e-31 -8.60168164667368e-34 1.72052807167206e-32 -2.26358318202683e-33 -2.68767081472075e-33 1.19227441445555e-32 -3.24087061977293e-36 1.89079038500266e-32 -1.03026318798158e-32 2.35164315363234e-32 -6.47528546735701e-31 3.05571343623907e-32 4.00743732498849e-32 -2.12846499597291e-32 -6.75306803264941e-33 2.13094574370209e-32 -1.07948235504018e-33 -5.01263290704995e-34 1.09866340215436e-32 -4.33754631486749e-32 5.10857523382021e-32 -4.30555885808736e-31 6.04236871613273e-35 -7.44679754915427e-36 -1.85453315961304e-34 -5.75397206806958e-34 2.02202909070784e-34 -3.70339294820114e-34 3.06711830310667e-35 -4.17593739393619e-36 2.83568084170319e-36 -1.34519160464827e-34 8.44684935181132e-35 -1.92385536550526e-35 4.29681734237445e-35 -3.82294198887965e-36 -7.19700542056792e-37 -1.42794621393049e-33 -2.83686088316045e-34 2.30894550421819e-34 -4.81388084637113e-34 2.70780497099906e-35 1.19999091018044e-34 9.86532148433209e-36 -5.74466116804733e-36 7.01712827600553e-37 -9.33121296881087e-37 3.1869740350009e-38 1.78337852203235e-37 -1.9191583045091e-36 -6.54249364272176e-37 7.74703813845207e-37 -8.51859999953443e-37 5.21018354753571e-38 9.67776072741857e-38 -1.73291291745195e-36 5.78469493307481e-37 1.30945109542831e-36 2.98087372643184e-34 -5.79331472865829e-34 -2.68550704857621e-35 1.38858398364509e-34 1.64928942941809e-35 -2.74309037533854e-35 -2.85514576345605e-33 9.60491031373007e-34 -1.36638089749386e-33 -2.94216182366902e-33 9.98253219690567e-34 -1.42534395835156e-33 -5.68085728377324e-34 -1.09317965695339e-33 5.02495050381578e-34 2.35466568597528e-35 5.85425993234737e-35 -1.79204006071792e-35 1.43858164398652e-34 1.73994235015722e-35 -2.86120327550361e-35 3.09085896171372e-34 -6.04480637312116e-34 -2.72564401307332e-35 6.25168942565144e-36 -1.10995362913107e-35 3.32323617909136e-36 -2.66088398948853e-36 4.96225818389364e-37 -2.35500869690693e-37 -5.0068255051205e-36 6.00056263138722e-37 4.21839490626916e-37 5.90220761635569e-36 -1.06658480434188e-35 3.20664131711845e-36 -4.8147559020225e-36 5.72331012409567e-37 4.12397610315764e-37 2.94757734886975e-37 2.34191453079345e-37 -1.48828561421841e-37 1.28901606310884e-37 -3.82677897755414e-38 -4.86221904037768e-39 -2.40144750245962e-39 1.68870177263452e-39 -2.84124131924751e-40 -1.84066768173832e-38 -5.82232635158303e-39 5.03044052484401e-39 7.7778656815341e-40 3.44060682622061e-41 -1.31279310919898e-40 3.74443686662764e-41 8.1100260505839e-40 -1.37702835837419e-40 -6.11544636547604e-39 5.25672088189261e-39 -1.91086704969058e-38 -2.52369290494551e-39 -2.92938180879402e-40 1.76116552177603e-39 5.84731175348221e-41 -2.31570924680679e-39 7.66603124671801e-40 -9.83931979288157e-39 8.92589470361597e-38 -9.85008071608777e-39 1.34578231044381e-37 -5.21056608553946e-39 -3.97285098858007e-38 3.07876408040339e-37 -1.5497742869274e-37 2.4029999000826e-37 1.98733618053336e-37 -7.66065023753556e-38 -6.46073922770237e-38 3.27041330328694e-38 9.42079140639761e-38 -2.21746711893051e-38 1.48500917696064e-38 9.34578503955108e-40 -7.20883949071092e-39 3.48803738182046e-38 -1.99007194201166e-38 5.0335118370871e-38 1.64497454017456e-38 4.31927173947418e-40 -5.83054713141059e-39 -3.87397498887372e-40 5.03070192464361e-40 -2.85536924967585e-39 -1.63739043739553e-40 -5.69543474857654e-41 1.94960311526634e-40 -6.95334122075974e-42 -9.17879786340985e-42 9.1969443342282e-41 -5.32604429817965e-39 -5.33036707411682e-39 2.85749817501168e-39 -2.61045417102068e-40 -3.57174580967825e-39 5.15308872882082e-40 -8.64183701827546e-41 2.1292878543711e-40 -6.58796848736379e-41 1.00375495770933e-40 -9.92339098285868e-42 -9.18016055784464e-42 9.92557118875017e-41 3.65804301143411e-40 -9.38173941537526e-41 -5.69231337768101e-42 2.59603725587371e-42 -5.13544218708046e-42 3.40259052562376e-43 9.31483553945959e-44 -8.12925536033739e-44 6.90064142195558e-43 -2.29539446400289e-42 6.06744586248019e-44 -1.48599670378867e-41 2.36452414236914e-42 -2.72606345576034e-43 -3.92988275507422e-42 2.43710748816811e-42 -4.8931073071814e-42 3.09349347500078e-43 -7.63766379152706e-44 8.65672816995713e-44 6.33950242418598e-43 5.50731570225214e-44 -2.21525488278984e-42 -2.61877165458488e-44 3.6485379464973e-44 4.92974318512806e-45 -1.22153672051964e-44 1.86208518373052e-45 -2.97674661253445e-46 4.5871703015215e-43 -8.11473972914922e-44 -3.85194236128221e-44 3.82735883641279e-44 -2.76964938844617e-44 4.70379458132107e-45 -1.29226348299977e-44 2.06342216780814e-45 -5.28634002714258e-46 -4.08845844710866e-44 1.5844170617725e-44 -2.49649657602631e-44 5.5119678995508e-43 -2.29153947345429e-43 2.11122296502181e-44 -1.11839433290705e-43 -1.27516885863933e-44 1.8952105460991e-44 -1.11148629424916e-43 -2.28059812091114e-44 2.563416387217e-44 -2.35277237385154e-43 6.00196811180329e-43 -7.96561315989847e-46 2.32639693945818e-42 3.71176169710578e-42 -2.47123700126221e-41 -8.25130673753312e-43 1.39208569931119e-42 1.91371000178063e-42 7.16215228235416e-42 2.01454566903333e-41 -5.52860509284934e-41 1.19433047429678e-41 2.29991290011362e-41 -6.2091385783583e-41 4.04388589966198e-41 -3.24090348881941e-41 6.32619522251892e-42 1.0305411083666e-42 -4.02447841584884e-43 3.07165173745399e-44 1.5779481395553e-42 4.62055196609276e-42 -3.00065841873004e-41 1.20397080963344e-42 -7.48078146137779e-43 2.40893241624145e-42 5.0962239783722e-59 1.37178124118948e-60 -8.27791304165304e-60 7.64483676973604e-62 -3.56151700474368e-60 1.35618839588933e-60 1.83640010026651e-60 -4.28888931468719e-60 1.35039815615503e-60 1.93554238405055e-58 1.1679258754424e-58 -7.43110923728499e-59 5.62185638580183e-59 5.5256600100383e-60 -1.08242043647617e-59 3.82642842070816e-58 -5.06897327096364e-58 -1.21264641608757e-57 1.21624757575058e-58 -1.35015354994785e-59 -2.10563688667954e-58 1.89475343555962e-57 -2.36500414493115e-58 -4.83470389423964e-57 -6.12420729595511e-58 -2.48975445446662e-57 9.99482042438344e-57 -2.36569439887793e-58 -2.5972748422857e-57 8.1023524929572e-57 3.24465453403843e-58 -3.53078532761717e-58 -1.24239930994757e-57 1.11014991021191e-58 -2.06701553937633e-59 -1.44132428685266e-58 1.4520524199596e-59 8.01712381651815e-60 -2.67444350