<?xml version="1.0"?>
<VTKFile type="UnstructuredGrid" version="0.1" byte_order="LittleEndian">
<UnstructuredGrid>
<Piece NumberOfPoints="142" NumberOfCells="198">
<Points>
<DataArray type="Float64" NumberOfComponents="3" format="ascii">
0.000000000000000e+00 0.000000000000000e+00 0.000000000000000e+00 5.000000000000000e+00 0.000000000000000e+00 0.000000000000000e+00 5.000000000000000e+00 1.000000000000000e+00 0.000000000000000e+00 0.000000000000000e+00 1.000000000000000e+00 0.000000000000000e+00 1.000000000000000e+01 0.000000000000000e+00 5.000000000000000e+00 1.000000000000000e+01 0.000000000000000e+00 -5.000000000000000e+00 1.000000000000000e+01 1.000000000000000e+00 5.000000000000000e+00 1.000000000000000e+01 1.000000000000000e+00 -5.000000000000000e+00 0.000000000000000e+00 5.000000000020591e-01 0.000000000000000e+00 4.999999999995947e-01 0.000000000000000e+00 0.000000000000000e+00 9.999999999984134e-01 0.000000000000000e+00 0.000000000000000e+00 1.499999999996955e+00 0.000000000000000e+00 0.000000000000000e+00 1.999999999995513e+00 0.000000000000000e+00 0.000000000000000e+00 2.499999999996205e+00 0.000000000000000e+00 0.000000000000000e+00 2.999999999996966e+00 0.000000000000000e+00 0.000000000000000e+00 3.499999999997728e+00 0.000000000000000e+00 0.000000000000000e+00 3.999999999998489e+00 0.000000000000000e+00 0.000000000000000e+00 4.499999999999245e+00 0.000000000000000e+00 0.000000000000000e+00 5.000000000000000e+00 4.999999999986940e-01 0.000000000000000e+00 4.499999999999999e+00 1.000000000000000e+00 0.000000000000000e+00 3.999999999999998e+00 1.000000000000000e+00 0.000000000000000e+00 3.499999999999997e+00 1.000000000000000e+00 0.000000000000000e+00 2.999999999999996e+00 1.000000000000000e+00 0.000000000000000e+00 2.499999999999995e+00 1.000000000000000e+00 0.000000000000000e+00 1.999999999999994e+00 1.000000000000000e+00 0.000000000000000e+00 1.499999999999992e+00 1.000000000000000e+00 0.000000000000000e+00 9.999999999999911e-01 1.000000000000000e+00 0.000000000000000e+00 4.999999999999956e-01 1.000000000000000e+00 0.000000000000000e+00 5.333333333333189e+00 0.000000000000000e+00 3.333333333331895e-01 5.666666666666361e+00 0.000000000000000e+00 6.666666666663608e-01 5.999999999999208e+00 0.000000000000000e+00 9.999999999992081e-01 6.333333333332055e+00 0.000000000000000e+00 1.333333333332055e+00 6.666666666664903e+00 0.000000000000000e+00 1.666666666664903e+00 6.999999999997760e+00 0.000000000000000e+00 1.999999999997760e+00 7.333333333331314e+00 0.000000000000000e+00 2.333333333331314e+00 7.666666666664901e+00 0.000000000000000e+00 2.666666666664901e+00 7.999999999998488e+00 0.000000000000000e+00 2.999999999998488e+00 8.333333333332074e+00 0.000000000000000e+00 3.333333333332074e+00 8.666666666665659e+00 0.000000000000000e+00 3.666666666665659e+00 8.999999999999245e+00 0.000000000000000e+00 3.999999999999245e+00 9.333333333332829e+00 0.000000000000000e+00 4.333333333332829e+00 9.666666666666416e+00 0.000000000000000e+00 4.666666666666416e+00 1.000000000000000e+01 4.999999999986940e-01 5.000000000000000e+00 9.666666666666666e+00 1.000000000000000e+00 4.666666666666666e+00 9.333333333333332e+00 1.000000000000000e+00 4.333333333333331e+00 8.999999999999996e+00 1.000000000000000e+00 3.999999999999997e+00 8.666666666666663e+00 1.000000000000000e+00 3.666666666666663e+00 8.333333333333329e+00 1.000000000000000e+00 3.333333333333328e+00 7.999999999999993e+00 1.000000000000000e+00 2.999999999999993e+00 7.666666666666659e+00 1.000000000000000e+00 2.666666666666659e+00 7.333333333333325e+00 1.000000000000000e+00 2.333333333333325e+00 6.999999999999991e+00 1.000000000000000e+00 1.999999999999991e+00 6.666666666666659e+00 1.000000000000000e+00 1.666666666666659e+00 6.333333333333328e+00 1.000000000000000e+00 1.333333333333328e+00 5.999999999999996e+00 1.000000000000000e+00 9.999999999999956e-01 5.666666666666663e+00 1.000000000000000e+00 6.666666666666634e-01 5.333333333333331e+00 1.000000000000000e+00 3.333333333333313e-01 5.333333333333189e+00 1.000000000000000e+00 -3.333333333331895e-01 5.666666666666361e+00 1.000000000000000e+00 -6.666666666663608e-01 5.999999999999208e+00 1.000000000000000e+00 -9.999999999992081e-01 6.333333333332055e+00 1.000000000000000e+00 -1.333333333332055e+00 6.666666666664903e+00 1.000000000000000e+00 -1.666666666664903e+00 6.999999999997760e+00 1.000000000000000e+00 -1.999999999997760e+00 7.333333333331314e+00 1.000000000000000e+00 -2.333333333331314e+00 7.666666666664901e+00 1.000000000000000e+00 -2.666666666664901e+00 7.999999999998488e+00 1.000000000000000e+00 -2.999999999998488e+00 8.333333333332074e+00 1.000000000000000e+00 -3.333333333332074e+00 8.666666666665659e+00 1.000000000000000e+00 -3.666666666665659e+00 8.999999999999245e+00 1.000000000000000e+00 -3.999999999999245e+00 9.333333333332829e+00 1.000000000000000e+00 -4.333333333332829e+00 9.666666666666416e+00 1.000000000000000e+00 -4.666666666666416e+00 1.000000000000000e+01 5.000000000020591e-01 -5.000000000000000e+00 9.666666666666666e+00 0.000000000000000e+00 -4.666666666666666e+00 9.333333333333332e+00 0.000000000000000e+00 -4.333333333333331e+00 8.999999999999996e+00 0.000000000000000e+00 -3.999999999999997e+00 8.666666666666663e+00 0.000000000000000e+00 -3.666666666666663e+00 8.333333333333329e+00 0.000000000000000e+00 -3.333333333333328e+00 7.999999999999993e+00 0.000000000000000e+00 -2.999999999999993e+00 7.666666666666659e+00 0.000000000000000e+00 -2.666666666666659e+00 7.333333333333325e+00 0.000000000000000e+00 -2.333333333333325e+00 6.999999999999991e+00 0.000000000000000e+00 -1.999999999999991e+00 6.666666666666659e+00 0.000000000000000e+00 -1.666666666666659e+00 6.333333333333328e+00 0.000000000000000e+00 -1.333333333333328e+00 5.999999999999996e+00 0.000000000000000e+00 -9.999999999999956e-01 5.666666666666663e+00 0.000000000000000e+00 -6.666666666666634e-01 5.333333333333331e+00 0.000000000000000e+00 -3.333333333333313e-01 7.172619047612346e-01 5.069444444443194e-01 0.000000000000000e+00 1.754629629626973e+00 4.976851851849655e-01 0.000000000000000e+00 4.282738095237837e+00 4.970238095238522e-01 0.000000000000000e+00 3.249999999999996e+00 5.000000000005678e-01 0.000000000000000e+00 2.265689300409039e+00 5.024434156380889e-01 0.000000000000000e+00 1.249999999998182e+00 4.791666666661778e-01 0.000000000000000e+00 3.753637566137116e+00 5.205026455027371e-01 0.000000000000000e+00 2.761574074072416e+00 5.243055555554663e-01 0.000000000000000e+00 3.281084656080592e-01 3.513271604940242e-01 0.000000000000000e+00 4.625000000000250e+00 6.249999999999233e-01 0.000000000000000e+00 3.060515873017599e-01 6.905092592594075e-01 0.000000000000000e+00 4.693948412698078e+00 3.100198412695943e-01 0.000000000000000e+00 5.861111111110660e+00 4.928823381205197e-01 -8.611111111106604e-01 6.499999999998960e+00 4.793871252207152e-01 -1.499999999998961e+00 9.490193318318170e+00 5.198278635778559e-01 -4.490193318318169e+00 8.833333333333030e+00 5.251322751321874e-01 -3.833333333333029e+00 7.138888888887410e+00 4.835600907032339e-01 -2.138888888887410e+00 8.167708333332827e+00 5.160396628862836e-01 -3.167708333332826e+00 7.544179894178556e+00 5.093285357700812e-01 -2.544179894178557e+00 5.458333333332905e+00 5.000000000000361e-01 -4.583333333329067e-01 6.829629629628093e+00 6.220437557742058e-01 -1.829629629628094e+00 6.166666666665766e+00 6.269841269844294e-01 -1.166666666665768e+00 9.165359109108968e+00 3.790105581771999e-01 -4.165359109108969e+00 8.499999999999845e+00 3.730158730157659e-01 -3.499999999999846e+00 7.845833333332569e+00 3.672157622740088e-01 -2.845833333332569e+00 9.775880463797179e+00 3.477509652513446e-01 -4.775880463797178e+00 5.229166666666209e+00 6.666666666667829e-01 -2.291666666662104e-01 7.833333333331693e+00 7.471737726101467e-01 -2.833333333331693e+00 5.213222789116165e+00 3.120748299321744e-01 -2.132227891161662e-01 9.787243493493261e+00 6.855265980269214e-01 -4.787243493493260e+00 6.166666666666266e+00 2.982804232806429e-01 -1.166666666666266e+00 6.833333333333326e+00 2.440476190479305e-01 -1.833333333333326e+00 8.499999999999263e+00 7.050705467371435e-01 -3.499999999999264e+00 9.166666666666039e+00 7.559523809524369e-01 -4.166666666666038e+00 5.861111111110699e+00 5.122826908540230e-01 8.611111111106995e-01 6.499696816997433e+00 5.216658463555216e-01 1.499696816997433e+00 9.490193318318186e+00 4.801721364221469e-01 4.490193318318185e+00 8.833333333333037e+00 4.712301587302444e-01 3.833333333333036e+00 7.139380196521613e+00 5.154023624950602e-01 2.139380196521612e+00 8.167708333332810e+00 4.760826181248823e-01 3.167708333332809e+00 7.546825396823996e+00 4.891057585825364e-01 2.546825396823997e+00 5.458333333332906e+00 4.999999999999639e-01 4.583333333329067e-01 6.829695137312588e+00 3.750695213482688e-01 1.829695137312588e+00 6.166666666665769e+00 3.730158730155729e-01 1.166666666665769e+00 9.165359109108971e+00 6.205044330044479e-01 4.165359109108970e+00 8.500138888888626e+00 6.199591638981748e-01 3.500138888888626e+00 7.845833333332568e+00 6.327842377259916e-01 2.845833333332568e+00 9.777446196196189e+00 6.497586872584651e-01 4.777446196196188e+00 5.229166666666224e+00 6.666666666668231e-01 2.291666666662238e-01 7.841382275130933e+00 2.973384243877372e-01 2.841382275130933e+00 5.213222789116173e+00 3.120748299322519e-01 2.132227891161742e-01 9.790902986319461e+00 3.159227084224798e-01 4.790902986319460e+00 6.166666666666666e+00 7.559523809520526e-01 1.166666666666666e+00 6.829169620110882e+00 7.069358243438703e-01 1.829169620110881e+00 8.500157407406590e+00 2.903187984496386e-01 3.500157407406589e+00 9.165184768100985e+00 2.909367701034320e-01 4.165184768100985e+00 
</DataArray>
</Points>
<Cells>
<DataArray type="Int32" Name="connectivity" format="ascii">
13 14 93 26 91 25 15 16 92 13 93 90 87 25 91 86 91 26 89 15 92 88 92 16 89 93 14 87 12 90 87 90 24 12 13 90 23 24 90 24 25 87 9 10 86 26 27 86 11 12 87 15 89 14 17 88 16 19 20 88 22 89 21 86 10 91 87 91 11 88 20 92 89 92 21 89 22 93 23 90 93 21 92 20 11 91 10 23 93 22 86 27 96 88 17 97 0 94 8 2 95 18 86 94 9 0 9 94 2 19 95 88 95 19 95 88 97 86 96 94 3 96 27 1 97 17 3 8 96 18 97 1 8 94 96 95 97 18 58 98 105 84 105 98 79 102 104 63 104 102 57 58 105 84 85 105 64 104 63 78 79 104 79 80 102 81 82 99 58 59 98 83 84 98 66 103 65 60 61 99 67 68 101 73 100 72 69 70 100 75 101 74 63 102 62 77 103 76 59 107 98 60 99 107 61 106 99 73 108 100 75 109 101 74 101 108 62 102 106 76 103 109 81 99 117 67 101 118 83 98 116 69 100 119 68 119 101 82 116 99 66 118 103 80 117 102 65 103 113 77 110 103 78 104 110 70 115 100 60 107 59 73 74 108 75 76 109 61 62 106 72 100 111 99 106 117 109 118 101 107 116 98 100 108 119 101 119 108 107 99 116 109 103 118 102 117 106 64 113 104 77 78 110 110 113 103 5 111 71 5 72 111 57 105 112 85 114 105 2 112 18 2 57 112 110 104 113 18 114 1 71 115 7 1 114 85 7 115 70 65 113 64 83 116 82 81 117 80 67 118 66 68 69 119 100 115 111 105 114 112 71 111 115 18 112 114 29 127 120 55 120 127 50 126 124 124 126 34 29 28 127 55 127 56 34 126 35 50 49 126 51 50 124 53 52 121 29 120 30 55 54 120 36 125 37 32 31 121 38 123 39 43 122 44 40 122 41 45 123 46 34 33 124 48 47 125 30 120 129 31 129 121 32 121 128 44 122 130 123 45 130 124 33 128 123 131 46 125 47 131 52 139 121 123 38 140 54 138 120 122 40 141 123 141 39 53 121 138 125 140 37 51 124 139 125 36 135 48 125 132 49 132 126 122 137 41 44 130 45 30 129 31 47 46 131 33 32 128 43 133 122 128 121 139 123 140 131 129 120 138 122 141 130 123 130 141 125 131 140 129 138 121 124 128 139 126 135 35 49 48 132 132 125 135 6 42 133 43 6 133 56 127 134 28 136 127 2 134 18 2 56 134 132 135 126 18 136 1 42 4 137 1 136 28 41 137 4 36 35 135 54 53 138 52 51 139 37 140 38 40 39 141 122 133 137 127 136 134 133 42 137 18 134 136 
</DataArray>
<DataArray type="Int32" Name="offsets" format="ascii">
3 6 9 12 15 18 21 24 27 30 33 36 39 42 45 48 51 54 57 60 63 66 69 72 75 78 81 84 87 90 93 96 99 102 105 108 111 114 117 120 123 126 129 132 135 138 141 144 147 150 153 156 159 162 165 168 171 174 177 180 183 186 189 192 195 198 201 204 207 210 213 216 219 222 225 228 231 234 237 240 243 246 249 252 255 258 261 264 267 270 273 276 279 282 285 288 291 294 297 300 303 306 309 312 315 318 321 324 327 330 333 336 339 342 345 348 351 354 357 360 363 366 369 372 375 378 381 384 387 390 393 396 399 402 405 408 411 414 417 420 423 426 429 432 435 438 441 444 447 450 453 456 459 462 465 468 471 474 477 480 483 486 489 492 495 498 501 504 507 510 513 516 519 522 525 528 531 534 537 540 543 546 549 552 555 558 561 564 567 570 573 576 579 582 585 588 591 594 
</DataArray>
<DataArray type="UInt8" Name="types" format="ascii">
5 5 5 5 5 5 5 5 5 5 5 5 5 5 5 5 5 5 5 5 5 5 5 5 5 5 5 5 5 5 5 5 5 5 5 5 5 5 5 5 5 5 5 5 5 5 5 5 5 5 5 5 5 5 5 5 5 5 5 5 5 5 5 5 5 5 5 5 5 5 5 5 5 5 5 5 5 5 5 5 5 5 5 5 5 5 5 5 5 5 5 5 5 5 5 5 5 5 5 5 5 5 5 5 5 5 5 5 5 5 5 5 5 5 5 5 5 5 5 5 5 5 5 5 5 5 5 5 5 5 5 5 5 5 5 5 5 5 5 5 5 5 5 5 5 5 5 5 5 5 5 5 5 5 5 5 5 5 5 5 5 5 5 5 5 5 5 5 5 5 5 5 5 5 5 5 5 5 5 5 5 5 5 5 5 5 5 5 5 5 5 5 5 5 5 5 5 5 
</DataArray>
</Cells>
<PointData Scalars="pressure_p1," Vectors="" Tensors="">
<DataArray type="Float64" Name="pressure_p1" format="ascii">
9.859805573417345e+00 5.590695151037637e+00 5.592708782296527e+00 9.865121862352417e+00 -4.778130118709363e+00 5.013563136548745e+00 -4.770294523586290e+00 5.013174401462637e+00 9.896386337934668e+00 9.556333636141980e+00 9.129872433225430e+00 8.686867531041901e+00 8.246817000577577e+00 7.808331153202694e+00 7.372956507900689e+00 6.936983730348810e+00 6.494076138220703e+00 6.064840049299114e+00 5.600085551574297e+00 6.076170615120112e+00 6.494404750240144e+00 6.936705431877288e+00 7.373283061540715e+00 7.808038806824509e+00 8.246751930819457e+00 8.686615308199789e+00 9.130261171204937e+00 9.560013625281510e+00 4.916621616740940e+00 4.213604690003385e+00 3.487793353821798e+00 2.793427408258221e+00 2.083034008486764e+00 1.388239720426525e+00 6.589210636508603e-01 -6.468539352109269e-02 -7.513808507626947e-01 -1.461027620288541e+00 -2.164613614740347e+00 -2.876601494589171e+00 -3.576865973734980e+00 -4.273740259125566e+00 -4.828542073690596e+00 -4.268573535865696e+00 -3.577520084383112e+00 -2.876269044270385e+00 -2.165017874362994e+00 -1.460500322715908e+00 -7.533721663306810e-01 -6.584348335194593e-02 6.595814249098227e-01 1.389029273522524e+00 2.082749590579656e+00 2.794450464902878e+00 3.486617184912502e+00 4.213295989907646e+00 4.910242945138325e+00 5.582845248664146e+00 5.541870472267024e+00 5.499190887819015e+00 5.458342827751570e+00 5.416567760698947e+00 5.375718884764933e+00 5.332884507877832e+00 5.290467342295111e+00 5.250087249636413e+00 5.208136874652181e+00 5.166758687263407e+00 5.124814752823097e+00 5.083696177631740e+00 5.042794782639060e+00 5.010202238906313e+00 5.043050780815555e+00 5.083659803091641e+00 5.124903792277273e+00 5.166737747820959e+00 5.208169917821012e+00 5.249749288127070e+00 5.290249628293036e+00 5.332922507836662e+00 5.375703153803933e+00 5.416419789247118e+00 5.458367495776154e+00 5.499150263489150e+00 5.541859951020281e+00 5.583220393699122e+00 9.382371733534663e+00 8.465631176822683e+00 6.245419480670228e+00 7.154990997724867e+00 8.023633627989101e+00 8.908385831269641e+00 6.714666384529445e+00 7.587814607508463e+00 9.724082221614481e+00 5.919865886349678e+00 9.730935734289037e+00 5.898479372567301e+00 5.516241465005016e+00 5.437447636883878e+00 5.063924955788250e+00 5.145819027984893e+00 5.358589256436085e+00 5.228952101040137e+00 5.306765609568332e+00 5.566746020507310e+00 5.396329800596340e+00 5.478712295639249e+00 5.104348312293466e+00 5.187450283085958e+00 5.269464828395840e+00 5.027114073758412e+00 5.598133991979422e+00 5.270022140583393e+00 5.598838678090617e+00 5.026614761133555e+00 5.478709757688619e+00 5.396163228643592e+00 5.187446974123487e+00 5.104291066284272e+00 3.777869046473392e+00 2.438742741951650e+00 -3.913540745438894e+00 -2.520507575350081e+00 1.097028970358914e+00 -1.108202314442223e+00 2.119384174520201e-01 4.636504689732205e+00 1.739737142959019e+00 3.139685844363049e+00 -3.225407319178983e+00 -1.812928891483772e+00 -4.206853665593268e-01 -4.541369417794117e+00 5.170200731411236e+00 -4.173541620063040e-01 5.182182660710768e+00 -4.551438277461748e+00 3.139677891226192e+00 1.740134514131800e+00 -1.812971946668052e+00 -3.225234364999741e+00 
</DataArray>
</PointData>
<CellData Scalars="pressure_p0," Vectors="velocity_p0," Tensors="">
<DataArray type="Float64" Name="pressure_p0" format="ascii">
7.590305077908267e+00 8.906218611994889e+00 6.717594848746495e+00 7.804485178234396e+00 8.686111987001922e+00 9.134523774729614e+00 6.936351126347326e+00 6.489289686011261e+00 7.371548800305943e+00 8.244023254526175e+00 8.244023254524860e+00 8.026617324317916e+00 8.026617324315509e+00 8.467355709400231e+00 9.353280052330817e+00 9.353280052330227e+00 8.467355709402455e+00 7.156168391186365e+00 6.271594395647131e+00 6.271594395646465e+00 7.156168391184872e+00 9.134523774730102e+00 8.686111987002837e+00 6.489289686010835e+00 6.936351126346688e+00 7.371548800305111e+00 7.804485178233305e+00 6.717594848745430e+00 8.906218611996305e+00 7.590305077906350e+00 9.555687481142334e+00 6.069186966834483e+00 9.904298951218889e+00 5.734252586776389e+00 9.549254040350732e+00 9.758461432818276e+00 5.880090105177292e+00 6.089297497645321e+00 6.032727587233969e+00 9.605823950761959e+00 9.764894873609876e+00 5.859979574366468e+00 9.910732392010608e+00 5.714142055965338e+00 9.815031343229489e+00 5.823520194765937e+00 5.542136442365326e+00 5.542136442365333e+00 5.332583088027302e+00 5.332583088027387e+00 5.564122765534587e+00 5.564122765534584e+00 5.310596764857905e+00 5.310596764857754e+00 5.355252695425563e+00 5.437412113585106e+00 5.519571531744237e+00 5.519571531744237e+00 5.229077236867829e+00 5.437412113585205e+00 5.145804037862709e+00 5.062895974451885e+00 5.062895974451896e+00 5.145804037862614e+00 5.355252695425739e+00 5.229077236867729e+00 5.498742383478630e+00 5.458241261850937e+00 5.416737255306604e+00 5.083779593338432e+00 5.166633186128656e+00 5.125029360217059e+00 5.376236133678703e+00 5.208248088601772e+00 5.416582965319320e+00 5.166633186128736e+00 5.498742383478652e+00 5.083725122718017e+00 5.124974889596666e+00 5.458241261850932e+00 5.208248088601851e+00 5.376081843691392e+00 5.249906385133795e+00 5.249385656427070e+00 5.289246887885310e+00 5.043986850400960e+00 5.479070410116655e+00 5.104200211951014e+00 5.187462334394676e+00 5.395908107040880e+00 5.044460214861566e+00 5.409794205884606e+00 5.173576235550692e+00 5.491799334056736e+00 5.090722642760479e+00 5.118086310795072e+00 5.465184311272819e+00 5.201305039179807e+00 5.383179183100550e+00 5.289767616592055e+00 5.270258198751894e+00 5.256328705849107e+00 5.009336438097835e+00 5.023222536941970e+00 5.582348270267021e+00 5.583012465045861e+00 5.615327755020772e+00 5.601441656177095e+00 5.282303838463419e+00 5.615991949799624e+00 5.008863073637232e+00 5.602105850955954e+00 5.022749172481335e+00 5.270778927458665e+00 5.479070410116726e+00 5.395753817053493e+00 5.187462334394803e+00 5.104145741330655e+00 5.039437189654691e+00 5.587351870934542e+00 5.018199511735054e+00 5.606445256844602e+00 4.218062368291609e+00 4.218062368291397e+00 6.527597960674527e-01 6.527597960688679e-01 4.591900543312667e+00 4.591900543312335e+00 2.792696265095547e-01 2.792696265068973e-01 1.040089875148827e+00 2.437626865673423e+00 3.834386346559532e+00 3.834386346558786e+00 -1.104950540908894e+00 2.437626865675524e+00 -2.520862628803397e+00 -3.930566237760661e+00 -3.930566237760110e+00 -2.520862628804666e+00 1.040089875151810e+00 -1.104950540910858e+00 3.480223864960876e+00 2.791789347274042e+00 2.086041409137991e+00 -3.575477580502417e+00 -2.874098934744998e+00 1.396829381812126e+00 -2.166798525672325e+00 -1.459211400977008e+00 2.086413646089351e+00 -2.166811642800143e+00 3.480223864959735e+00 -3.575354090413978e+00 -2.873975444656378e+00 2.791789347272559e+00 -1.459224518104654e+00 1.397201618763144e+00 -7.564893257131441e-01 -7.596421213510797e-01 -8.374691713179457e-02 -4.254674245372679e+00 -3.228261416344495e+00 3.145737076784564e+00 -1.812636044073273e+00 1.731664175451289e+00 -4.245142465004022e+00 1.970936510618768e+00 -2.048855860734716e+00 3.362169704427312e+00 -3.456373754222299e+00 -2.991103429531073e+00 -1.577377057105564e+00 2.909843507806199e+00 1.517832804358689e+00 -8.059412149369519e-02 -4.047418012489002e-01 -6.472892272205880e-01 -4.842359585110940e+00 -4.606251264044718e+00 4.901792714711819e+00 4.913086161190825e+00 5.462549977243247e+00 5.226441656177274e+00 -2.075023440674621e-01 5.473843423722126e+00 -4.851891365479779e+00 5.237735102656258e+00 -4.615783044413378e+00 -4.015890056097214e-01 3.145737076782587e+00 1.732036412401111e+00 -1.812649161200180e+00 -3.228137926255503e+00 -4.333142151550018e+00 4.986870011524159e+00 -4.694250950590719e+00 5.311518952989582e+00 
</DataArray>
<DataArray type="Float64" Name="velocity_p0" NumberOfComponents="3" format="ascii">