<?xml version="1.0"?>
<VTKFile type="UnstructuredGrid" version="0.1" byte_order="LittleEndian">
<UnstructuredGrid>
<Piece NumberOfPoints="2087" NumberOfCells="4016">
<Points>
<DataArray type="Float64" NumberOfComponents="3" format="ascii">
-1 -1 0 -1 -0.94871794871809101 0 -0.96231019297531495 -0.95993805568407309 0 -0.94871794871780613 -1 0 -0.92001209504468784 -0.96115518241711606 0 -0.8974358974356127 -1 0 -0.8844793882345432 -0.87519915795476311 0 -0.90207339073243586 -0.92036956687175275 0 -0.94515305845053099 -0.88174967077862798 0 -0.93873113682106035 -0.92857756671100888 0 -0.96900972397211826 -0.92306647310053258 0 -1 -0.89743589743618213 0 -1 -0.84615384615427314 0 -0.95666845656136124 -0.82432700830726402 0 -1 -0.79487179487236426 0 -0.96210215986506864 -0.78289567958482909 0 -0.93391489497227753 -0.75160615481209936 0 -0.91972110610330715 -0.7991498742154165 0 -0.88956547136720865 -0.77198190118619092 0 -0.9136688324209159 -0.84017385392312816 0 -0.86321209074572114 -0.81961189299351045 0 -0.8208368577100339 -0.83834118688580073 0 -0.8341688472737987 -0.87164247912505322 0 -0.84427634768465454 -0.75683639638801714 0 -0.80083177965321017 -0.80073983143542415 0 -0.75153350963121435 -0.7659881738398826 0 -0.78518295667946869 -0.86100695706623431 0 -0.75994755980658257 -0.90287041146478897 0 -0.79951474746397777 -0.91736069166770529 0 -0.75518041218764831 -0.94385922674120892 0 -0.79487179487122539 -1 0 -0.78359542847295605 -0.96419570315456105 0 -0.82488284844822513 -0.95963111062856354 0 -0.84615384615341904 -1 0 -0.87331268125582673 -0.95941030468966226 0 -0.85275882158695959 -0.91714916798757551 0 -0.88938242057896899 -0.52266875970778703 0 -0.97084530123167534 -0.51868654608699682 0 -1 -0.53846153846281952 0 -0.94628113349140242 -0.55587531289238157 0 -1 -0.58974358974472851 0 -0.96367514844212232 -0.60835409129993745 0 -0.91724007128959628 -0.60833836556661447 0 -0.89264243199645854 -0.56702092518814118 0 -0.88337952399693809 -0.63392047406483354 0 -0.88233672941564267 -0.68012552450629782 0 -0.9151087204985634 -0.65041374176707445 0 -0.95543838771456224 -0.64709874880626017 0 -1 -0.64102564102663739 0 -0.93823660394683428 -0.68312344412319237 0 -0.95845434011444752 -0.7167770774125124 0 -1 -0.69230769230854627 0 -1 -0.74358974359045527 0 -0.91997208533362052 -0.71269006820210212 0 -0.8870043047717957 -0.73141345344909825 0 -0.85283519447657996 -0.71395847652342215 0 -0.82276083755058216 -0.71868130740946656 0 -0.79430499657388487 -0.74158775351856998 0 -0.75075441364815043 -0.70788310934144127 0 -0.79542124210994414 -0.7013115376692457 0 -0.78129674198787435 -0.65645037162026343 0 -0.83694061336894499 -0.634531641348269 0 -0.82834169746816333 -0.68363219937456776 0 -0.86677762160902772 -0.59717189992619479 0 -0.82688146744165059 -0.59010451173939882 0 -0.79175644548025825 -0.60547956480840093 0 -0.76288468284850108 -0.57926738563294855 0 -0.79516618381736626 -0.56365603751436877 0 -0.79392647489348189 -0.5203092280477154 0 -0.8432914234242358 -0.5508528539364419 0 -0.62793263084570872 -0.50288254379844521 0 -0.63220975656022782 -0.53833719104396305 0 -0.66668760251805992 -0.52234551749313318 0 -0.71101741818921915 -0.50630190998983293 0 -0.74975184778192516 -0.54110046839647785 0 -0.70135889103851978 -0.55038879174165911 0 -0.73077367456958231 -0.57614564075567609 0 -0.74669367533405584 -0.61154931288204428 0 -0.69364298276420322 -0.60065357833481892 0 -0.65978733422274738 -0.56347012196440138 0 -0.6466522547160366 -0.59976324126444558 0 -0.65338230774642703 -0.6527197828474226 0 -0.72014445741070676 -0.65462526950514821 0 -0.69436714695290691 -0.70008957173831921 0 -0.71461318748846203 -0.73998743130426325 0 -0.67307669275704407 -0.74172730393231012 0 -0.65250208357525918 -0.70500761926188094 0 -0.62103242353773025 -0.73962187403212842 0 -0.61921237126120654 -0.69290057075004596 0 -0.57800693149156201 -0.70826186823295045 0 -0.53253287227871049 -0.72610500508171338 0 -0.53565526994518087 -0.67373328752956252 0 -0.59158832775295322 -0.65906022858798197 0 -0.60879303541783047 -0.61275041987421963 0 -0.6201590327195029 -0.57146088715199694 0 -0.585804769298784 -0.57988640745424669 0 -0.55600255713773949 -0.61419008187418556 0 -0.51708960259738446 -0.57674463090866324 0 -0.55645325912087862 -0.56544558420048241 0 -0.53323481833233954 -0.5196489150906396 0 -0.59098668626571038 -0.53729319963594313 0 -0.6797281498886627 -0.93470162121266631 0 -0.65639996276941437 -0.88472041387660316 0 -0.64907251348000183 -0.96533654308813255 0 -0.64102564102464443 -1 0 -0.69230769230683809 -1 0 -0.74358974358903174 -1 0 -0.71903047757395533 -0.95940528319979046 0 -0.7243492550462538 -0.91768184354178395 0 -0.69739666480138307 -0.89095880678634964 0 -0.73441876109680937 -0.87331701038526599 0 -0.74431391511193001 -0.82174768463787273 0 -0.69147474645648666 -0.84333586018312856 0 -0.70054276474256139 -0.78623703685904522 0 -0.66947943042432667 -0.81186348706710387 0 -0.65063772605423287 -0.78391698540800236 0 -0.63361556506837657 -0.83467909445748079 0 -0.58692925157717568 -0.82651565143782935 0 -0.59105912340946665 -0.85680209730345236 0 -0.60311113650720671 -0.79082487147938696 0 -0.56899895411256896 -0.75654326804103966 0 -0.55674156419792109 -0.80190880966706302 0 -0.52338504359228444 -0.76973823115343554 0 -0.54952579314552252 -0.84734788854660659 0 -0.50880461791791065 -0.81503468200652607 0 -0.50807124518108526 -0.85395805409319192 0 -0.52523022791677254 -0.88006569594458406 0 -0.52198149050965537 -0.91683523833465785 0 -0.56978360448107446 -0.89409357640741705 0 -0.62084304252137323 -0.92517031963274698 0 -0.61442042120223594 -0.87912177493223409 0 -0.61309278325855776 -0.96831184912472035 0 -0.56589107742790201 -0.95201864466447617 0 -0.589743589742451 -1 0 -0.53846153846025735 -1 0 -0.50975437378915156 -0.95985660052187327 0 -0.48717948717808152 -1 0 -0.46230122105370519 -0.95997991703715868 0 -0.47814463959262321 -0.88473779693311883 0 -0.48402798947046449 -0.92927929437260737 0 -0.4506001209033747 -0.92273144568324628 0 -0.42189365005084389 -0.89189864696507848 0 -0.38110826586583663 -0.9043399306906551 0 -0.43589743589595908 -1 0 -0.40735702899800907 -0.94727610886376168 0 -0.38461538461383649 -1 0 -0.33333333333171411 -1 0 -0.31901486824186831 -0.95294234074773798 0 -0.36118867978631358 -0.96661319401277579 0 -0.36126153868337568 -0.93305457081046395 0 -0.33569525281762208 -0.89633634194302825 0 -0.28672852654478481 -0.91553356055317126 0 -0.2569095528328515 -0.88135828540722172 0 -0.27145158163991989 -0.95985873726571391 0 -0.28205128204959168 -1 0 -0.30452573422829782 -0.79821209257072667 0 -0.27943209609220571 -0.75064785664403022 0 -0.26076886355862777 -0.80024540423294399 0 -0.27728979793691638 -0.83871254479555757 0 -0.29636453220175329 -0.87464734641845687 0 -0.32453623959727268 -0.84298833486101699 0 -0.35398459285454692 -0.80235586901830969 0 -0.33208676865329417 -0.7577659246546854 0 -0.38646044376045358 -0.75624455012515546 0 -0.39788459160090273 -0.80675061190274922 0 -0.43545888553269541 -0.78569944052170437 0 -0.37882120137024561 -0.85425789717858269 0 -0.43658571124869672 -0.83938897030119075 0 -0.47920883920382218 -0.84136780399337463 0 -0.4675770284859711 -0.81145065182385945 0 -0.47903912223821138 -0.77526711541834525 0 -0.49544178856418658 -0.74012470020601739 0 -0.44694154579578182 -0.72556844229983197 0 -0.49617017027394178 -0.70199132068155423 0 -0.4995035526462332 -0.67037733998517279 0 -0.49821788691136171 -0.63200340439870295 0 -0.44096696150920001 -0.62927675564772712 0 -0.46832624244351412 -0.6729938652093973 0 -0.42920711234530629 -0.67499352976514093 0 -0.40195358322713082 -0.65102883896824926 0 -0.38802090641140052 -0.69541190847766621 0 -0.48283196815412921 -0.50880522859075195 0 -0.48895188951100987 -0.54505551915196393 0 -0.44100592037738429 -0.53568614172871032 0 -0.46958374537903891 -0.58398574909907408 0 -0.38802190899913303 -0.60333124289468509 0 -0.40578249947161832 -0.56290751164924457 0 -0.42999734606685458 -0.58384800753811128 0 -0.37644889198859988 -0.56065963532421559 0 -0.39117367875927328 -0.52959370121728699 0 -0.3449396867676906 -0.53114798299926758 0 -0.34966185660462329 -0.57459302110190191 0 -0.33430446878298131 -0.61152222200698914 0 -0.27931741406165123 -0.62216133886470204 0 -0.25228503523731938 -0.5698305074667499 0 -0.30389824795603482 -0.56562594141891565 0 -0.26897680539746771 -0.53591415118165453 0 -0.25544048566100402 -0.50086293036955232 0 -0.29730805746143502 -0.51417240315346247 0 -0.33769296678097199 -0.68776113999676247 0 -0.31745712999026532 -0.72100563556319441 0 -0.35230033306959541 -0.72339362782587269 0 -0.36181084871301328 -0.65014416090434768 0 -0.32000861275253728 -0.65171053562583847 0 -0.28609995981489061 -0.68725772259081896 0 -0.19615627049177731 -0.74067611645185538 0 -0.23418108629062601 -0.71856652966098189 0 -0.23355111053965519 -0.66205889804822571 0 -0.18996383691721699 -0.64161641790802648 0 -0.15842956104804889 -0.66269200472478673 0 -0.12593973102115341 -0.65352201655458608 0 -0.13500059400844719 -0.69931203825032451 0 -0.15851162154636739 -0.74123932955548422 0 -0.18710024857530519 -0.6954971976240083 0 -0.21024040424418841 -0.50218804716575893 0 -0.23730731205845471 -0.53231503163456051 0 -0.20075892265920309 -0.5562637428121161 0 -0.22333293558889841 -0.60794727768530066 0 -0.18257424535947411 -0.59990625666572117 0 -0.15268501828214739 -0.62347225060099343 0 -0.1459334563298452 -0.5723226868563499 0 -0.15504486346449239 -0.51535419779624814 0 -0.092145723390917741 -0.5067879465884082 0 -0.1224061689009342 -0.53991159020399726 0 -0.096986220119345032 -0.56613100791027671 0 -0.11276712840168671 -0.61195871470201202 0 -0.062073047621867931 -0.61259824713737521 0 -0.009455469341724719 -0.59534280449706578 0 -0.047130634046926898 -0.55539564722993284 0 -0.024652974008395261 -0.50167808598187269 0 -0.090048453689243815 -0.71450424178358651 0 -0.1197663209281931 -0.74256523672588615 0 -0.1007280676071312 -0.67738399822022
[...]
<CellData Scalars="pressure_p0," Vectors="velocity_p0," Tensors="">
<DataArray type="Float64" Name="pressure_p0" format="ascii">
0.0052977060413314202 0.0055552606239457399 0.015802336860898301 0.035443341960112153 0.018444944207899307 0.012412664472580843 0.060351862865885515 0.031636744847366498 0.12096031538270929 0.090432817683986991 0.057332633467675906 0.070731314128272826 0.10266284250433846 0.049778387353192038 0.032404331105433767 0.0099410893748178436 0.033257057790431491 0.025435320004762216 0.027109780389384386 0.098204662255344105 0.052336156038143455 0.082079663032075048 0.029176289325655635 0.055989663834299305 0.10867799701205037 0.1345154603290375 0.18683273114708163 0.21480628745743802 0.22635491531085333 0.12090957526811089 0.12846359813832431 0.18164104935273762 0.17691513023372013 0.20031760868962567 0.2921861752080272 0.24404524305492131 0.25620906592646114 0.27485073602342974 0.3161510146404013 0.2880340773167358 0.39108476377492363 0.44106353779280638 0.42228269064164115 0.30723780645926302 0.34998240880647169 0.33117693491325512 0.27136019735011957 0.22010415084341242 0.2230962031527135 0.17440430458840056 0.12674961473481211 0.02740711275649492 0.072321171477083626 0.052430533514757537 0.10639100027088841 0.025418902151552347 0.019541958841605339 0.044613596190686361 0.087005414408684284 0.16287890472512201 0.16866504525534107 0.12303029149421486 0.28917249124062655 0.44791067132100248 0.33127822844072574 0.18872393310481159 0.039188436046075539 0.067225333079745681 0.10686637626148092 0.20126542405101011 0.10829636996290212 0.042443846568372599 0.18162681441859585 0.28608885719295951 0.36499019418390011 0.36015115564511424 0.31972093105246008 0.30114701498607133 0.19503412766038855 0.25840227811156236 0.22678443284046323 0.089694018018719068 0.047180502199281792 0.10737407715064642 0.091590875572490404 0.098503368482128956 0.16878380051808634 0.038071713685592118 0.16241721566496078 0.21740618757574592 0.24195265731715848 0.27501185295188763 0.33287767527146983 0.3284779825674819 0.39028342719426223 0.47127880910876729 0.42325054308138976 0.38389528911137727 0.41348285879354552 0.47115356803111719 0.52049458612787691 0.5253410362673272 0.57496568539752313 0.52819397612191921 0.65223117850658763 0.58224768482025469 0.52169071308062498 0.42912977581653555 0.39553109501564682 0.43219036288680857 0.5169763991694476 0.45567673796274061 0.59825803291408886 0.49860781803476883 0.56623655220787361 0.66806585323127021 0.71677938448466927 0.69305166210299474 0.62982629960656289 0.65301135297295476 0.74896019874080566 0.75661195414100857 0.81367003422591178 0.63061699731507703 0.52616841563873418 1.1426186154623901 1.1413132513236852 1.0947876521867814 1.0853845328362643 1.0230964709335646 1.0677527661858928 1.0072386466836352 0.89904775651486468 0.92518838912935786 0.87683598971886156 0.89694336151787069 0.78208691369594052 0.80998170148098936 0.79909442999539237 0.8299230386244314 0.93009681258440069 0.96112830427126816 0.97724971767342628 1.0488025236199479 1.0557097918153124 0.98170488143822754 0.84759385656226716 0.79768680349219356 0.84540041848013425 0.78668802545264649 0.70329033137569863 0.68948547597721799 0.64288615594774123 0.56908947372696073 0.66718229084944503 0.72604856963934505 0.80303272482269072 0.73806479347869147 0.83954681227883476 0.8121040713044807 0.86387084981754458 0.95082928606515871 0.87598536933565074 0.99367625605042309 0.95062052964344079 1.1171473326897847 1.0580372238642046 1.1339304767630167 1.0621199355791529 1.0651077402296019 0.97670324413032361 0.91576042954025394 0.9175119579495129 0.97816041662920783 1.1100113580357198 1.1697176201394768 1.1893949059276094 1.123822169872134 1.2192426221673813 1.234192297442342 1.2906387726561546 1.3131732587787166 1.3688785703436903 1.4362658211262427 1.4753530920996432 1.3200565063415226 1.2172399028556606 1.1612117644422733 1.1939563323456346 1.2598883318175049 0.27708436549469789 0.32752588089951529 0.26071762902133683 0.10139774287670004 0.15539681438093508 0.18333855456393239 0.073330489373234331 0.03663821038845947 0.10102331972704573 0.037361430595645936 0.082271682116281802 0.15261861315757724 0.18994535142893626 0.23392293474862597 0.17101824156802461 0.27242365115211808 0.24757532143805899 0.37746556729894681 0.45354384823314342 0.340571223410364 0.54848765017524959 0.48011459872545759 0.60605137212378768 0.6065714301609948 0.55509795907371395 0.58664144185622769 0.5433363001187872 0.67969665493186415 0.42084893267636048 0.35363291681770515 0.49168332842378404 0.47848805859999066 0.41093012578895366 0.45528395522421927 0.51401396683526213 0.57207028999592779 0.59145174261271405 0.52633952862246058 0.46137597221946625 0.67225427122107728 0.73047444285536067 0.70082798014244052 0.62914203751302522 0.75055875049096143 0.8313473895161656 0.76695872570866264 0.71420214415040006 0.45157690664872657 0.62670320163959303 0.58519244487692657 0.50980645419565684 0.4826932434038822 0.40645648264108969 0.25514763922700762 0.28926720754824886 0.37923264682663094 0.41273289444015593 0.26552708330004215 0.33574688095748528 0.036775417893778001 0.17787741847609667 0.095085046148349103 0.059716504288180372 0.11306137876929917 0.21805615799012085 0.053934054860022146 0.11038018302171469 0.20497701920214162 0.24134155338813679 0.057154232363399435 0.35518430612697266 0.35310342842835368 0.25916955584538187 0.41119835873151445 0.33735839478571283 0.37010223212378751 0.31908696804115755 0.49939416524732572 0.13446798982389718 0.078653434844844883 0.23100453958284281 0.13055018739681334 0.052245448999558478 0.12679653650113384 0.22776227157890111 0.39788863289801402 0.50488103641607485 0.3644841675659154 0.33301905422879241 0.48109195552809791 0.51065532246364986 0.31116615834015632 0.43185664563001813 0.066729247364003236 0.075648860375193944 0.14113982145436535 0.27305428644642882 0.94685457049487831 0.9857755579251033 0.98983139730450764 0.83418967273454192 0.79030754510392975 0.62162161783772873 0.67879491782756252 0.66653415620461132 0.76783448906559038 0.80201545578181088 0.57927062804986096 0.59561542179080207 0.71653515302058213 0.90707350349462246 0.93877432433860575 0.86511217040247379 0.75529360613011753 0.86430597958754951 0.94060196472655289 0.7483528884801085 0.68566070442534754 0.57483620568863125 0.56958725004330946 0.51900073675701197 0.65789926086071093 0.66746842655742866 0.60969957379763851 0.53738817600155753 0.89179866470765912 0.7932710856761982 0.73261973799513591 0.74011275187731074 0.84790717665734139 0.98512421352906621 0.91917307406531434 1.1123143040083614 1.0599116197897513 1.0892300074686028 1.149914553178621 1.212353763153811 1.2049048824794677 1.2110296361724275 1.3350933796701474 1.2529074119680432 1.3476299597140429 1.2598674560769387 1.0839885380606449 1.0519104820067045 1.1208236869944797 1.5527156959215804 1.4801578541741547 1.4333685192795258 1.4349729437037015 1.360820578079017 1.2869528724196178 1.289852994799346 1.3601848536990517 1.3818303823548554 1.4969714535855028 1.4537400905865818 1.602400079124537 1.4833880023692907 1.5445375190017931 1.5557894564153474 1.6612461032743306 1.5924953828676038 1.7414671813929505 1.729336508220245 1.6655767116358879 1.6081661715361291 1.5895018608417639 1.613850831619267 1.6839936240072064 1.5483134060405013 1.5110398994392049 1.4833600039910926 1.4098223820855318 1.5287411839746718 1.5766856825982789 1.5933207443104429 1.7076306540101824 1.7244940504547961 1.6746634628844883 1.7778760638621003 1.7822583912936776 1.1654039988272389 1.2225439146391586 1.0889520752279047 1.030647988117795 1.1723995728938288 1.2452569009272989 1.3881882119574971 1.2959922065869489 1.3116322950366976 1.3921616181427745 1.3802229433247861 1.4418697486139536 1.2985291798248626 1.1667222856970128 1.187769881679634 1.0750924471600172 1.0958066410969327 1.1226396010571049 1.2249517563438084 1.309571634850655 1.4900427130924778 1.4906628636457642 1.4039763555356199 1.3597910116173801 1.4167783622076295 1.5012958081690528 1.5586211111530992 1.4980442866518229 1.4160561698171108 1.2180150651840906 1.2091287938247537 1.2672446949188929 1.8297951290077139 1.795665713809802 1.8274614319392417 1.7255053512723277 1.6475884546645716 1.6598032604729203 1.5655394728922265 1.6411086196001845 1.5632854798360309 1.6398336705237679 1.6977318454721559 1.781347892013462 1.810741037735506 1.8773287725628827 1.7728866642230536 1.8400881106830225 1.8334649897768602 1.735617449088688 1.7046953604935235 1.5920398662690824 1.6737884916379735 1.6228563992101914 1.7758670433212913 1.7118048607411751 1.8971391073188184 1.8632312503354274 1.3205908002621267 1.3759517365271332 1.2092062441565847 1.2578092925000328 1.1840569416695645 1.3384040670049184 1.471525772542408 1.406071664435609 1.5420966017256981 1.5303364738982497 1.4554970054623055 1.537254625567104 1.4670446512876749 1.4530381162514665 1.2750612500384035 1.3543625476212378 1.1620428962719773 0.94560308905116863 1.0147185677831749 0.92685561241461367 1.1299532239821546 0.98976692127399279 1.0796836204663967 0.86301579872709266 0.76990497209547215 0.62908095720517732 0.72801572434419848 0.62473438615499599 0.80936471269021082 0.75443905250345522 0.5766538499224918 0.54961299475673142 0.3464628350719724 0.45048647612324733 0.44712826272002543 0.076264768175244052 0.12899750441682056 0.24436396100928251 0.23922636290198016 0.053460543101954652 0.12386408682256705 0.31816964611664883 0.070996848371781995 0.16043453118636891 0.56484267910309738 0.34488819033383289 0.57552296872578268 0.39981603779664088 0.42449349023324273 0.49708517698572563 0.09056075961197016 0.30179696527014349 0.16962454461869925 0.1795255327616081 0.19316009481403834 0.080337539319320223 0.50018273175132855 0.45819171417666982 0.35035158685206724 0.32957161110544286 0.42543752194164502 0.47434219496378566 0.61040454534908895 0.68333357626615565 0.61212194399883435 0.79672158494799805 0.88260520381857477 0.88610448109104678 1.0650861014531501 0.98338222070504033 0.97002269776367089 1.0567603474994123 1.116589830591652 1.0999177064679471 0.81049951338579018 0.66406247880450886 0.61111435453532903 0.87088415977710221 2.4542356219470713 2.4691204554858537 2.4623380298177269 2.4306359031055429 2.4049970144975465 2.4214996285377861 2.3430053040113057 2.3649412753692181 2.2957509898149446 2.3658530772566939 2.3459167289026817 2.4043856795462628 2.4194448312466834 2.4515256874032998 2.4090963875292686 2.3987841170181463 2.4385004561442072 2.4423892707289392 2.4212901645821394 2.4864135208767557 2.466344051823615 2.4601992007024585 2.4257780393816888 2.4545610915457847 2.468409658771014 2.4953992907377227 2.5092040216724136 2.5254599612265158 2.5092151729836374 2.5116995104237496 2.5417851356034213 2.4841629951578703 2.5228829998517139 2.4990800946955742 2.5053610248430314 2.5359849099537795 2.5429779048542986 2.5497568554766303 2.5661526159157346 2.5439595779084749 2.5532919303900283 2.5691278312656673 2.5752003004264932 2.5833735456167943 2.5844312598324697 2.5625177149497831 2.5631262203072644 2.5327440431894028 2.545855283951612 2.5112835364742856 2.5121071255217178 2.5018105412863898 2.5346588279733386 2.4911827995535702 2.4910145118863642 2.5128106497023626 2.426511061241309 2.4583602556256419 2.4524591301993195 2.4749728599798617 2.4899420842060347 2.4374313189022789 2.4673592221201037 2.407021561686145 2.3689512211572548 2.361533933897213 2.2931286223291218 2.2511198949848907 2.2485998533560432 2.3314393530854418 2.2956372600321626 2.3225460226105401 2.2812066421385975 2.2430961385649968 2.2276204259289996 2.2703841077125562 2.3035296283552507 2.3416001928544734 2.3875332786108885 2.3812824867892535 2.4144643056373503 1.9734712750740089 2.0312155192376546 2.0264236452167719 2.0804935189347185 2.1319466286134023 2.1661989340670784 2.2206534367710402 2.2054544390765103 2.115202328871344 2.1254465709718287 2.1501202988991377 2.0027032768988189 2.0156888747653299 2.0741527140448199 1.9344222230954262 1.9117419939742457 1.9538025919144828 2.0234607252151902 2.0553943431980004 2.108554428219005 2.0486841447678987 2.1431492272954391 2.127350765064516 2.0943872655180407 2.0902742974477007 2.0301505652315304 2.0073820987032134 1.8904950581842104 1.940335405688983 2.3354006034869785 2.345349387962278 2.301064288953814 2.200115565665191 2.2144349037807043 2.2587978283253189 2.1933662273728625 2.2450273710040971 2.1762938020895577 2.148385275802132 2.2772962977002851 2.2598967901307381 2.2006867081722694 2.2270585026520804 2.1896436859977988 2.1474382261358609 2.0894285886435089 2.0722422381885819 2.0135575490220154 1.9820015627793359 2.0397011443724531 2.1112304350285345 2.1486575125405496 2.0920467296305638 2.141801139606752 1.8126229563089082 1.89227182534961 1.8251813200047537 1.9402554659993054 1.856980964628085 1.9175347459684489 1.9450487449886074 1.9990237953443719 2.0399677256455506 2.0294858275711829 2.0086665082429529 1.9887553183169129 1.9311151667270781 1.8899052621731012 1.8981362622556683 1.844243617511486 1.8215505623672599 1.7731429093663114 1.7873695884081195 1.6810943498755841 1.71077331457074 1.7228902440367038 1.8011138309382484 1.9062241685552306 1.844275890035632 1.8380004089952813 1.7879229950488296 1.703010904582559 1.6799154661324183 1.7223063232578877 1.6891475103334721 1.6086308762356847 1.5582669872589234 2.0051412215185485 2.0516991541368492 1.8940987322884619 1.988578805284213 1.9322684217991843 1.8948278983539548 1.9268283911578483 1.8075594349504476 1.7698067712726004 1.7662935725078841 1.8700851730073584 1.9307500623059035 1.79238044242505 1.8824116330525662 1.9500922081351706 1.9545422843486921 1.9358772366595713 2.0147020539641938 2.0026291731498045 2.076572287582783 2.180858935369149 2.1311462265807086 2.0142816279268492 2.0325146517349495 2.0720023894874053 2.1090662699509757 2.0883731114840449 2.1631495669327792 2.120096142085488 2.1985864680706708 2.2041607084674437 2.2421821840178797 2.1542897002735675 2.1875931211870676 2.2262905047168453 2.2637543251676107 2.234454145247069 2.2653336757520859 2.3095492988915911 2.2980621675625978 2.3243840877329331 2.3526914919978457 2.3439937403806832 2.3637285597480648 2.3010898812175489 2.2738803351467309 2.2843896260975201 2.3837493345370349 2.4067501043767772 2.3944543237847746 2.3910210894373103 2.3827579533833845 2.3245775308267458 2.3687632957272742 2.2961099615301372 2.3055265743841429 2.235842070649225 2.2656779081703924 2.3075620830095231 2.3415531054214229 2.2616571834759744 2.2215750511258978 2.1795568558044671 2.2205717787437234 2.17453498870338 2.1184426395884426 2.13409234299291 2.2065156066124816 2.0996296173679165 2.1426616276229939 2.1069268880368157 2.0445722296016724 2.0369258549520346 1.9878676615962632 2.07997195572645 2.0693243623165962 2.0013866443036283 1.971068981820141 1.9518880969475889 1.8869244749870977 1.8424416573133411 1.729282066187682 1.7780040826897605 1.7719222729555959 1.6332043158814105 1.6104641156150885 1.6622108849475987 1.6316553529720019 1.6858565168409818 1.6945192602850538 1.741955923232998 1.8018874020648994 1.8562547728922416 1.8424715146738218 1.9092405623156961 1.9250101484512947 1.8812781962402756 1.883520756632945 1.7495795600734776 1.8366508555666261 1.819706509212526 1.804993064993671 1.8103032057067563 1.7381591878087834 1.6463319080395569 1.572186473283161 1.6882655850969996 1.6814809221360776 1.596100220895027 1.5155213999098884 1.4264356595019181 1.4472842801009904 1.4869815101851387 1.3403531962657171 1.4219939232742393 1.3542356718279061 1.2692314492979346 1.168388676260808 1.3008754891868481 1.3422381911607297 1.2667399322710298 1.1762669146459312 1.1833375114296047 1.3484452259399731 1.292920870121437 1.1930851254102377 1.1855857143194728 1.319223453391648 1.3431917837758756 1.2772235701277752 1.4196543919489204 1.4480843457201036 1.4131346051714986 1.5442862801588237 1.5582734333115065 1.5211013416758532 1.4940233625314985 1.5444551882247177 1.4724652523889643 1.2755233382838576 1.349895568860263 1.4072503632380899 1.3935112476108915 1.4588527082322498 1.5145628471395556 1.5812894133347963 1.4792661307849304 1.5171788380672937 1.6193496382815451 1.590935807667049 1.6469874128571891 1.4785462895687485 1.5045979611878402 1.4028879687156059 1.3501235757000312 1.3698842487180398 1.4255027447753177 1.4265211066953967 1.519215430572928 1.5824979221308779 1.5689509239883164 1.6406627913279657 1.6942235266594365 1.6563959407458519 1.7125983299651588 1.7128126193001902 1.488475304326494 1.6267802902445423 1.5219630879803798 1.4473367924837219 1.3190323279416725 1.3644044508850519 1.3138614077811339 1.2270194319091534 1.1449863811423415 1.224064269140261 1.1683338512479824 1.1942829469852334 1.0781205357118016 1.0533493703455457 1.1277581099330718 1.1310491786423427 1.2895309051188135 1.3320346679724586 1.2630036364071877 1.3952981715999495 1.3673937936460345 1.2766365259773496 1.2927438660412782 1.2246842809531133 1.2238376976699583 1.0588964049875305 1.0433915663435012 0.95778275262920798 1.1166227542001133 0.95604968341731877 1.0432854358476813 1.1171233274619037 1.2081485263623739 1.207700999696123 0.50317813266058542 0.59642794353333783 0.56866727779849557 0.70361027582177427 0.71540855310942886 0.80211394851301132 0.89441094676526878 0.89462040766916151 0.79100820041534425 0.81235552555036894 0.91130823963826024 0.97024571120998249 0.741887870695775 0.62993671480311253 0.54868582234490915 0.57524758607528725 0.57758899464645452 0.69017825309528147 0.68781004239480481 0.77393568221563236 0.88035190607015446 0.96754293704093064 0.89416860982676427 1.0073344146272853 1.0274572252717855 0.92014443635022158 0.79550072134189698 0.7898681468600075 0.698882230661937 0.57361806708218677 0.51538444520257176 0.51696975616016716 0.36835658187165221 0.30173793983826797 0.064873068217366048 0.13940160413011465 0.075560047134385896 0.28133510964051955 0.12462703455013995 0.050111679794581206 0.21898508507720466 0.22457014909868922 0.40189682614425187 0.32630338683177651 0.50517576596890823 0.44466156230518045 0.33711862215083654 0.32015708614825839 0.11946173188276564 0.12429707522612518 0.06967705730128182 0.24178106625400775 0.1233081830485627 0.13959903086508196 0.25607219125795688 0.055372473388415194 0.36119321017969108 0.45483101182043684 0.38289337041038501 0.82713153666572459 0.6439142733189982 0.71204878598794408 0.65464724201159497 0.67860632755991457 0.71833833658247181 0.83324500426730408 0.85506052932242782 0.88496073167601597 0.99272257172786527 1.0662465827960217 1.0843511297538395 1.0086635992222985 0.89237480464236441 0.90387511633839024 1.1076788056652491 1.0998652617305233 0.94565145909603388 0.98964758010052611 1.1052378907062472 0.99657478652547749 0.90754947890838833 0.74895296227922881 0.78670620374458711 0.70370578816281748 0.60014684324107259 0.78872874952982075 0.81877760985240577 0.6396206899980974 0.68170636597742629 0.57359666387066743 0.56522587330360374 0.45750187376366958 0.35130373321091263 0.33055884543716463 0.57440763609912349 0.47066693772756313 0.38379127287397224 0.40311039979712177 0.15940187312586224 0.27794761208957386 0.06032073096187314 0.1551384335597692 0.17878146899721326 0.25838883890673836 0.13529300582275341 0.075886836230395799 0.1045806971855926 0.16755390640748863 0.4459417996457119 0.42965401675648174 0.48664291167336859 0.49192254131470781 0.5301041411981916 0.36409749435244415 0.27240089517179833 0.29978259897677395 0.064032706132642128 0.1394106233835635 0.076284514825496613 0.12903098862300216 0.053474718487567775 0.24443884649293074 0.239298125030912 0.16046444546376401 0.071013269697488085 0.12389439331874416 0.31824970842324329 0.34499636665937067 0.56509926896621543 0.57563528453402579 0.34660672339789356 0.44734830985441426 0.45067387430016315 0.57704418009852554 0.54998925464358062 0.75512628705026841 0.80984469418062366 0.62513734524046949 0.72862147504344688 0.62928328533236066 0.86303016217921236 0.77012990171592421 0.98956046419968002 1.0788041550544261 1.1296814133282527 0.94620240829678903 0.9273532315450668