<?xml version="1.0"?>
<VTKFile type="UnstructuredGrid" version="0.1" byte_order="LittleEndian">
<UnstructuredGrid>
<Piece NumberOfPoints="2400" NumberOfCells="800">
<Points>
<DataArray type="Float64" NumberOfComponents="3" format="ascii">
1.000000000000000e+00 0.000000000000000e+00 0.000000000000000e+00 1.000000000000000e+00 4.999999999989965e-02 0.000000000000000e+00 9.500000000000000e-01 4.999999999989965e-02 0.000000000000000e+00 1.000000000000000e+00 0.000000000000000e+00 0.000000000000000e+00 9.500000000000000e-01 4.999999999989965e-02 0.000000000000000e+00 9.500000000000000e-01 0.000000000000000e+00 0.000000000000000e+00 9.500000000000000e-01 0.000000000000000e+00 0.000000000000000e+00 9.500000000000000e-01 4.999999999989965e-02 0.000000000000000e+00 9.000000000000000e-01 4.999999999989965e-02 0.000000000000000e+00 9.500000000000000e-01 0.000000000000000e+00 0.000000000000000e+00 9.000000000000000e-01 4.999999999989965e-02 0.000000000000000e+00 9.000000000000000e-01 0.000000000000000e+00 0.000000000000000e+00 9.000000000000000e-01 0.000000000000000e+00 0.000000000000000e+00 9.000000000000000e-01 4.999999999989965e-02 0.000000000000000e+00 8.500000000000000e-01 4.999999999989965e-02 0.000000000000000e+00 9.000000000000000e-01 0.000000000000000e+00 0.000000000000000e+00 8.500000000000000e-01 4.999999999989965e-02 0.000000000000000e+00 8.500000000000000e-01 0.000000000000000e+00 0.000000000000000e+00 8.500000000000000e-01 0.000000000000000e+00 0.000000000000000e+00 8.500000000000000e-01 4.999999999989965e-02 0.000000000000000e+00 8.000000000000000e-01 4.999999999989965e-02 0.000000000000000e+00 8.500000000000000e-01 0.000000000000000e+00 0.000000000000000e+00 8.000000000000000e-01 4.999999999989965e-02 0.000000000000000e+00 8.000000000000000e-01 0.000000000000000e+00 0.000000000000000e+00 8.000000000000000e-01 0.000000000000000e+00 0.000000000000000e+00 8.000000000000000e-01 4.999999999989965e-02 0.000000000000000e+00 7.500000000000000e-01 4.999999999989965e-02 0.000000000000000e+00 8.000000000000000e-01 0.000000000000000e+00 0.000000000000000e+00 7.500000000000000e-01 4.999999999989965e-02 0.000000000000000e+00 7.500000000000000e-01 0.000000000000000e+00 0.000000000000000e+00 7.500000000000000e-01 0.000000000000000e+00 0.000000000000000e+00 7.500000000000000e-01 4.999999999989965e-02 0.000000000000000e+00 7.000000000000000e-01 4.999999999989965e-02 0.000000000000000e+00 7.500000000000000e-01 0.000000000000000e+00 0.000000000000000e+00 7.000000000000000e-01 4.999999999989965e-02 0.000000000000000e+00 7.000000000000000e-01 0.000000000000000e+00 0.000000000000000e+00 7.000000000000000e-01 0.000000000000000e+00 0.000000000000000e+00 7.000000000000000e-01 4.999999999989965e-02 0.000000000000000e+00 6.500000000000000e-01 4.999999999989965e-02 0.000000000000000e+00 7.000000000000000e-01 0.000000000000000e+00 0.000000000000000e+00 6.500000000000000e-01 4.999999999989965e-02 0.000000000000000e+00 6.500000000000000e-01 0.000000000000000e+00 0.000000000000000e+00 6.500000000000000e-01 0.000000000000000e+00 0.000000000000000e+00 6.500000000000000e-01 4.999999999989965e-02 0.000000000000000e+00 6.000000000000000e-01 4.999999999989965e-02 0.000000000000000e+00 6.500000000000000e-01 0.000000000000000e+00 0.000000000000000e+00 6.000000000000000e-01 4.999999999989965e-02 0.000000000000000e+00 6.000000000000000e-01 0.000000000000000e+00 0.000000000000000e+00 6.000000000000000e-01 0.000000000000000e+00 0.000000000000000e+00 6.000000000000000e-01 4.999999999989965e-02 0.000000000000000e+00 5.500000000000000e-01 4.999999999989965e-02 0.000000000000000e+00 6.000000000000000e-01 0.000000000000000e+00 0.000000000000000e+00 5.500000000000000e-01 4.999999999989965e-02 0.000000000000000e+00 5.500000000000000e-01 0.000000000000000e+00 0.000000000000000e+00 5.500000000000000e-01 0.000000000000000e+00 0.000000000000000e+00 5.500000000000000e-01 4.999999999989965e-02 0.000000000000000e+00 5.000000000000000e-01 4.999999999989965e-02 0.000000000000000e+00 5.500000000000000e-01 0.000000000000000e+00 0.000000000000000e+00 5.000000000000000e-01 4.999999999989965e-02 0.000000000000000e+00 5.000000000000000e-01 0.000000000000000e+00 0.000000000000000e+00 5.000000000000000e-01 0.000000000000000e+00 0.000000000000000e+00 5.000000000000000e-01 4.999999999989965e-02 0.000000000000000e+00 4.500000000000000e-01 4.999999999989965e-02 0.000000000000000e+00 5.000000000000000e-01 0.000000000000000e+00 0.000000000000000e+00 4.500000000000000e-01 4.999999999989965e-02 0.000000000000000e+00 4.500000000000000e-01 0.000000000000000e+00 0.000000000000000e+00 4.500000000000000e-01 0.000000000000000e+00 0.000000000000000e+00 4.500000000000000e-01 4.999999999989965e-02 0.000000000000000e+00 4.000000000000000e-01 4.999999999989965e-02 0.000000000000000e+00 4.500000000000000e-01 0.000000000000000e+00 0.000000000000000e+00 4.000000000000000e-01 4.999999999989965e-02 0.000000000000000e+00 4.000000000000000e-01 0.000000000000000e+00 0.000000000000000e+00 4.000000000000000e-01 0.000000000000000e+00 0.000000000000000e+00 4.000000000000000e-01 4.999999999989965e-02 0.000000000000000e+00 3.500000000000000e-01 4.999999999989965e-02 0.000000000000000e+00 4.000000000000000e-01 0.000000000000000e+00 0.000000000000000e+00 3.500000000000000e-01 4.999999999989965e-02 0.000000000000000e+00 3.500000000000000e-01 0.000000000000000e+00 0.000000000000000e+00 3.500000000000000e-01 0.000000000000000e+00 0.000000000000000e+00 3.500000000000000e-01 4.999999999989965e-02 0.000000000000000e+00 3.000000000000000e-01 4.999999999989965e-02 0.000000000000000e+00 3.500000000000000e-01 0.000000000000000e+00 0.000000000000000e+00 3.000000000000000e-01 4.999999999989965e-02 0.000000000000000e+00 3.000000000000000e-01 0.000000000000000e+00 0.000000000000000e+00 3.000000000000000e-01 0.000000000000000e+00 0.000000000000000e+00 3.000000000000000e-01 4.999999999989965e-02 0.000000000000000e+00 2.500000000000000e-01 4.999999999989965e-02 0.000000000000000e+00 3.000000000000000e-01 0.000000000000000e+00 0.000000000000000e+00 2.500000000000000e-01 4.999999999989965e-02 0.000000000000000e+00 2.500000000000000e-01 0.000000000000000e+00 0.000000000000000e+00 2.500000000000000e-01 0.000000000000000e+00 0.000000000000000e+00 2.500000000000000e-01 4.999999999989965e-02 0.000000000000000e+00 2.000000000000000e-01 4.999999999989965e-02 0.000000000000000e+00 2.500000000000000e-01 0.000000000000000e+00 0.000000000000000e+00 2.000000000000000e-01 4.999999999989965e-02 0.000000000000000e+00 2.000000000000000e-01 0.000000000000000e+00 0.000000000000000e+00 2.000000000000000e-01 0.000000000000000e+00 0.000000000000000e+00 2.000000000000000e-01 4.999999999989965e-02 0.000000000000000e+00 1.500000000000000e-01 4.999999999989965e-02 0.000000000000000e+00 2.000000000000000e-01 0.000000000000000e+00 0.000000000000000e+00 1.500000000000000e-01 4.999999999989965e-02 0.000000000000000e+00 1.500000000000000e-01 0.000000000000000e+00 0.000000000000000e+00 1.500000000000000e-01 0.000000000000000e+00 0.000000000000000e+00 1.500000000000000e-01 4.999999999989965e-02 0.000000000000000e+00 9.999999999999998e-02 4.999999999989965e-02 0.000000000000000e+00 1.500000000000000e-01 0.000000000000000e+00 0.000000000000000e+00 9.999999999999998e-02 4.999999999989965e-02 0.000000000000000e+00 9.999999999999998e-02 0.000000000000000e+00 0.000000000000000e+00 9.999999999999998e-02 0.000000000000000e+00 0.000000000000000e+00 9.999999999999998e-02 4.999999999989965e-02 0.000000000000000e+00 5.000000000000004e-02 4.999999999989965e-02 0.000000000000000e+00 9.999999999999998e-02 0.000000000000000e+00 0.000000000000000e+00 5.000000000000004e-02 4.999999999989965e-02 0.000000000000000e+00 5.000000000000004e-02 0.000000000000000e+00 0.000000000000000e+00 5.000000000000004e-02 0.000000000000000e+00 0.000000000000000e+00 5.000000000000004e-02 4.999999999989965e-02 0.000000000000000e+00 0.000000000000000e+00 4.999999999989965e-02 0.000000000000000e+00 5.000000000000004e-02 0.000000000000000e+00 0.000000000000000e+00 0.000000000000000e+00 4.999999999989965e-02 0.000000000000000e+00 0.000000000000000e+00 0.000000000000000e+00 0.000000000000000e+00 1.000000000000000e+00 4.999999999989965e-02 0.000000000000000e+00 1.000000000000000e+00 9.999999999981467e-02 0.000000000000000e+00 9.500000000000000e-01 9.999999999981467e-02 0.000000000000000e+00 1.000000000000000e+00 4.999999999989965e-02 0.000000000000000e+00 9.500000000000000e-01 9.999999999981467e-02 0.000000000000000e+00 9.500000000000000e-01 4.999999999989965e-02 0.000000000000000e+00 9.500000000000000e-01 4.999999999989965e-02 0.000000000000000e+00 9.500000000000000e-01 9.999999999981467e-02 0.000000000000000e+00 9.000000000000000e-01 9.999999999981467e-02 0.000000000000000e+00 9.500000000000000e-01 4.999999999989965e-02 0.000000000000000e+00 9.000000000000000e-01 9.999999999981467e-02 0.000000000000000e+00 9.000000000000000e-01 4.999999999989965e-02 0.000000000000000e+00 9.000000000000000e-01 4.999999999989965e-02 0.000000000000000e+00 9.000000000000000e-01 9.999999999981467e-02 0.000000000000000e+00 8.500000000000000e-01 9.999999999981467e-02 0.000000000000000e+00 9.000000000000000e-01 4.999999999989965e-02 0.000000000000000e+00 8.500000000000000e-01 9.999999999981467e-02 0.000000000000000e+00 8.500000000000000e-01 4.999999999989965e-02 0.000000000000000e+00 8.500000000000000e-01 4.999999999989965e-02 0.000000000000000e+00 8.500000000000000e-01 9.999999999981467e-02 0.000000000000000e+00 8.000000000000000e-01 9.999999999981467e-02 0.000000000000000e+00 8.500000000000000e-01 4.999999999989965e-02 0.000000000000000e+00 8.000000000000000e-01 9.999999999981467e-02 0.000000000000000e+00 8.000000000000000e-01 4.999999999989965e-02 0.000000000000000e+00 8.000000000000000e-01 4.999999999989965e-02 0.000000000000000e+00 8.000000000000000e-01 9.999999999981467e-02 0.000000000000000e+00 7.500000000000000e-01 9.999999999981467e-02 0.000000000000000e+00 8.000000000000000e-01 4.999999999989965e-02 0.0000000000000
[...]
<PointData Scalars="tracer_conc," Vectors="" Tensors="">
<DataArray type="Float64" Name="tracer_conc" format="ascii">
5.741031471295884e+00 5.893228063227674e+00 5.686117581515990e+00 5.717928046021512e+00 5.706440712945817e+00 5.531245144489243e+00 5.542937842386959e+00 5.695495265371331e+00 5.512208581530554e+00 5.527814966249403e+00 5.526206766354284e+00 5.359140344039863e+00 5.368595694616274e+00 5.516536937409368e+00 5.349023014572105e+00 5.356436590364865e+00 5.360513094832526e+00 5.201104727414873e+00 5.209323061649256e+00 5.351915133988767e+00 5.196977484315884e+00 5.198982121733970e+00 5.206821261009725e+00 5.054557154434302e+00 5.061952705385855e+00 5.199000312570812e+00 5.054594629987836e+00 5.052828168478207e+00 5.063318459521268e+00 4.917783193525031e+00 4.924570423871455e+00 5.056093055305860e+00 4.920874261732907e+00 4.916300716213293e+00 4.928805656641820e+00 4.789619911890558e+00 4.795936984715136e+00 4.922049922836782e+00 4.795110282699386e+00 4.788280437276527e+00 4.802472711424105e+00 4.669283702835473e+00 4.675230696063626e+00 4.796090406917290e+00 4.676824857051248e+00 4.668006184327556e+00 4.683789042930460e+00 4.556264390147556e+00 4.561922372269613e+00 4.677698538020728e+00 4.565739380076748e+00 4.554975689881817e+00 4.572453494455625e+00 4.450275492678894e+00 4.455718655991055e+00 4.566577001248513e+00 4.461770632229016e+00 4.448899232183807e+00 4.468382002559003e+00 4.351241986739876e+00 4.356547432388863e+00 4.462635939700236e+00 4.365051325632352e+00 4.349687744511587e+00 4.371726319125676e+00 4.259318755474616e+00 4.264576640474615e+00 4.366010561673561e+00 4.275978492759382e+00 4.257469175205710e+00 4.282925326282442e+00 4.174941210533771e+00 4.180267762664577e+00 4.277108886642994e+00 4.195298198639248e+00 4.172634222578994e+00 4.202797804808267e+00 4.098916984381940e+00 4.104473930552248e+00 4.196697217863459e+00 4.124242423360687e+00 4.095918833532328e+00 4.132695089155694e+00 4.032577386488512e+00 4.038604355733718e+00 4.126038585734716e+00 4.064746204686991e+00 4.028538530950925e+00 4.074748109723249e+00 3.978024055149265e+00 3.984898223369847e+00 4.067110971922470e+00 4.019795499678480e+00 3.972401286859054e+00 4.032274574058239e+00 3.938539553357652e+00 3.946897713440418e+00 4.022951296118613e+00 3.994000401647342e+00 3.930444808110074e+00 4.010480076962477e+00 3.919305192883024e+00 3.930325408234765e+00 3.998203892394233e+00 3.994582589336674e+00 3.907172442287794e+00 4.017753644389967e+00 3.928756016082703e+00 3.944890637021733e+00 4.000019101994007e+00 4.033191180016969e+00 3.909388926644191e+00 4.068372634017562e+00 3.981419914925361e+00 4.008327649090895e+00 4.040130127677942e+00 4.129837370726947e+00 3.948780642046640e+00 4.187261093171169e+00 4.105456394726893e+00 5.898557434716296e+00 6.023944683166110e+00 5.823357143894395e+00 5.883806410799025e+00 5.837035300781738e+00 5.695069785350456e+00 5.702544700594663e+00 5.831069142800340e+00 5.646268903439029e+00 5.690053017370246e+00 5.657767387533151e+00 5.516161803290783e+00 5.523863274029710e+00 5.650990604298339e+00 5.479769304250540e+00 5.513058225088201e+00 5.489966906685303e+00 5.351631998415399e+00 5.359034207229641e+00 5.483172670370678e+00 5.323614292682426e+00 5.349524534435398e+00 5.332721334754179e+00 5.198787953578360e+00 5.205790753671875e+00 5.326143355059125e+00 5.176770695875844e+00 5.197248664311111e+00 5.185029981814583e+00 5.055925375902262e+00 5.062550862619054e+00 5.178717403993368e+00 5.038443553197396e+00 5.054733094050819e+00 5.046054221550466e+00 4.921911987967823e+00 4.928209662942779e+00 5.039996160787712e+00 4.908034443309645e+00 4.920931332846633e+00 4.915156920009716e+00 4.795973817418689e+00 4.802000562919944e+00 4.909318439710192e+00 4.785119308849245e+00 4.795111798123213e+00 4.791889442888985e+00 4.677598496646420e+00 4.683416155594333e+00 4.786221446956941e+00 4.669436757063217e+00 4.676783206229706e+00 4.675980361297094e+00 4.566490906494519e+00 4.572169824726572e+00 4.670419688543639e+00 4.560891321614404e+00 4.565658758609794e+00 4.567338341187331e+00 4.462562735914646e+00 4.468188708566068e+00 4.561802658718619e+00 4.459574116116485e+00 4.461649133857088e+00 4.466073848122808e+00 4.365950507086935e+00 4.371635372498608e+00 4.460452028507020e+00 4.365804765665604e+00 4.364881401138073e+00 4.372544367685091e+00 4.277063615497683e+00 4.282961378910034e+00 4.366681002435479e+00 4.280201179853997e+00 4.275746384155874e+00 4.287430525239182e+00 4.196670090762495e+00 4.203002443072344e+00 4.281101262524618e+00 4.203787603518067e+00 4.194982652000901e+00 4.211854873591069e+00 4.126035405457991e+00 4.133134050700468e+00 4.204726277179328e+00 4.138156673778403e+00 4.123813188313322e+00 4.147561067676735e+00 4.067141147652905e+00 4.075521479952352e+00 4.139123449618272e+00 4.085707447260430e+00 4.064164297075230e+00 4.097177098636102e+00 4.023029004652793e+00 4.033524221828023e+00 4.086630064685548e+00 4.049984260700111e+00 4.019023511926604e+00 4.064582290788945e+00 3.998344602540464e+00 4.012357089853225e+00 4.050643072341137e+00 4.036120301899143e+00 3.993059097940989e+00 4.055335710976536e+00 4.000188903382039e+00 4.020157938142869e+00 4.035950000889994e+00 4.051253151274064e+00 3.993806048262823e+00 4.076800571301153e+00 4.039342459674324e+00 4.069325897643029e+00 4.049061149812886e+00 4.104364512252305e+00 4.037281825482242e+00 4.134444333750315e+00 4.132292870058737e+00 6.028514536132136e+00 6.132580286678109e+00 5.937510439544216e+00 6.017008461611799e+00 5.948411682073886e+00 5.830698333626531e+00 5.836148853068785e+00 5.943836433552930e+00 5.760198499767971e+00 5.825618139171482e+00 5.770133290157461e+00 5.650866188219169e+00 5.656912050248819e+00 5.764743233895303e+00 5.592115430035684e+00 5.647089384451708e+00 5.601482317936423e+00 5.483065187731223e+00 5.489329931837307e+00 5.595723838530415e+00 5.433377496258134e+00 5.480298939724978e+00 5.442069554774389e+00 5.326062241400874e+00 5.332282506539305e+00 5.436234892279588e+00 5.283321746356676e+00 5.323952038389793e+00 5.291400935859564e+00 5.178659458342534e+00 5.184736440572557e+00 5.285621784106374e+00 5.141397946212368e+00 5.176986261287202e+00 5.148959407301336e+00 5.039956125748059e+00 5.045865008553551e+00 5.143285767758054e+00 5.007152530858831e+00 5.038578864301249e+00 5.014294553517743e+00 4.909292150797707e+00 4.915045289982091e+00 5.008731812188515e+00 4.880236782304499e+00 4.908115396413772e+00 4.887054815858844e+00 4.786206192156006e+00 4.791839656349053e+00 4.881579295559693e+00 4.760412060432727e+00 4.785162084828777e+00 4.767001590623372e+00 4.670414039447039e+00 4.675984991863722e+00 4.761565033512355e+00 4.647559233291952e+00 4.669451621890975e+00 4.654022477767488e+00 4.561806301007629e+00 4.567396735588971e+00 4.648549786670853e+00 4.541696733452618e+00 4.560885020503252e+00 4.548151806942398e+00 4.460465688987552e+00 4.466191506322380e+00 4.542533314057556e+00 4.443010812314792e+00 4.459551669572045e+00 4.449603469343378e+00 4.366706455960767e+00 4.372732838109767e+00 4.443681204369362e+00 4.351901669924998e+00 4.365771437988754e+00 4.358820248036035e+00 4.281141318979987e+00 4.287707085751009e+00 4.352366266769095e+00 4.269049267472419e+00 4.280165751723100e+00 4.276543204472872e+00 4.204784419669716e+00 4.212240157862317e+00 4.269226666425430e+00 4.195501351743799e+00 4.203769278815462e+00 4.203901764566994e+00 4.139202013528913e+00 4.148069458705539e+00 4.195240422126316e+00 4.132780110247453e+00 4.138201160251691e+00 4.142514343975529e+00 4.086723171625039e+00 4.097785369272182e+00 4.131807539177324e+00 4.082984033246938e+00 4.085926008777236e+00 4.094556096653077e+00 4.050711728513212e+00 4.065138351767501e+00 4.080807642431878e+00 4.048805219370942e+00 4.050649614094079e+00 4.062658342338494e+00 4.035849183677085e+00 4.055329487591776e+00 4.044535373391737e+00 4.033231670724303e+00 4.037851458198356e+00 4.049298630739028e+00 4.048201288476505e+00 4.074802197342009e+00 4.025518894920899e+00 4.038538632610670e+00 4.058166296718253e+00 4.052954226434103e+00 4.095369465368448e+00 6.136559403444013e+00 6.222373023247118e+00 6.031901476642755e+00 6.127051546453853e+00 6.040988313389031e+00 5.943555938099285e+00 5.947924753754330e+00 6.037196364581136e+00 5.855534074232922e+00 5.938886526580405e+00 5.864188224198004e+00 5.764628404379901e+00 5.769605257992700e+00 5.859674900892981e+00 5.687005830290982e+00 5.760790288414181e+00 5.695488722129830e+00 5.595629821978513e+00 5.600993982592397e+00 5.690531562930300e+00 5.526753358916522e+00 5.592587410924479e+00 5.534879748602139e+00 5.436159469766538e+00 5.441674919104624e+00 5.529706499432670e+00 5.374453130153590e+00 5.433716645293064e+00 5.382183239107698e+00 5.285563266504447e+00 5.291097726449032e+00 5.376933287729405e+00 5.229778800075012e+00 5.283563348743188e+00 5.237128382192194e+00 5.143241382086040e+00 5.148731943099026e+00 5.231876632559451e+00 5.092418617061725e+00 5.141571226173070e+00 5.099427819054999e+00 5.008698739195270e+00 5.014127155977831e+00 5.094204309811080e+00 4.962099551679278e+00 5.007279755411875e+00 4.968819612519118e+00 4.881555226548880e+00 4.886935158836957e+00 4.963621134042341e+00 4.838602104593003e+00 4.880335116296594e+00 4.845091116355884e+00 4.761548263866015e+00 4.766920955890782e+00 4.839885877832647e+00 4.721771893715609e+00 4.760495741731906e+00 4.728095247625268e+00 4.648539125929886e+00 4.653975097790184e+00 4.722822121433830e+00 4.611532093697372e+00 4.647641751217228e+00 4.617765466572037e+00 4.542527901545170e+00 4.548133791727544e+00 4.612328522074001e+00 4.507899017892798e+00 4.541793292328839e+00 4.514132731111563e+00 4.443680183014801e+00 4.449611050996211e+00 4.508390982199300e+00 4.411001592781666e+00 4.443141735406448e+00 4.417345215538439e+00 4.352368113510041e+00 4.358846368508809e+00 4.411096989541210e+00 4.321103199769475e+00 4.352097938693024e+00 4.327688208711174e+00 4.269227675767778e+00 4.276570257588774e+00 4.320649554722721e+00 4.238619670287805e+00 4.269362428920594e+00 4.245594989276001e+00 4.195231162825436e+00 4.203885946852413e+00 4.237372855771320e+00 4.164116992792414e+00 4.196021969555557e+00 4.171625427023963e+00 4.131764695223930e+00 4.142353064572344e+00 4.161690917156521e+00 4.098250723986492e+00 4.133671899731306e+00 4.106360466230639e+00 4.080676802788637e+00 4.094026573791618e+00 4.094039408196303e+00 4.041566666977520e+00 4.084540958851899e+00 4.050108922678279e+00 4.044208557175462e+00 4.061336167031456e+00 4.034632123059520e+00 3.994005302870633e+00 4.051462940028640e+00 4.002269692331761e+00 4.024603836707564e+00 4.046483029348084e+00 3.983232585661861e+00 3.953997737020915e+00 4.040259738974084e+00 3.957957864135135e+00 4.024067949319484e+00 6.225978575452567e+00 6.295555291237658e+00 6.108897160898332e+00 6.217806756989080e+00 6.116754571752868e+00 6.036988093323723e+00 6.040755216428455e+00 6.113396353943083e+00 5.933810332595415e+00 6.032818508446376e+00 5.941489138195693e+00 5.859582832585590e+00 5.863879599895645e+00 5.937522973716117e+00 5.765426918741969e+00 5.855921840913276e+00 5.773146930275001e+00 5.690451755080755e+00 5.695160932754004e+00 5.768754183596444e+00 5.604360915989581e+00 5.687368074862427e+00 5.611933168073553e+00 5.529639100562829e+00 5.534580973910102e+00 5.607280035427713e+00 5.450532189605239e+00 5.527044091963722e+00 5.457873422395207e+00 5.376877359211492e+00 5.381928258551621e+00 5.453079960791155e+00 5.303792507173842e+00 5.374680743861036e+00 5.310869165552017e+00 5.231830651333586e+00 5.236916558310448e+00 5.306012966993402e+00 5.163948784450179e+00 5.229958879075715e+00 5.170756054291618e+00 5.094166391476347e+00 5.099252485999320e+00 5.165878656981149e+00 5.030791574052365e+00 5.092567354061988e+00 5.037340753670391e+00 4.963589342436568e+00 4.968672358406482e+00 5.032453475565711e+00 4.904112130237795e+00 4.962232631239826e+00 4.910423631790493e+00 4.839858324502607e+00 4.844963174481947e+00 4.905510608997279e+00 4.783712038158160e+00 4.838735425937895e+00 4.789811767138786e+00 4.722796876591363e+00 4.727977347543233e+00 4.784829792023739e+00 4.669407886752691e+00 4.721923220961052e+00 4.675325236999245e+00 4.612303352407654e+00 4.617646622380995e+00 4.670200440133324e+00 4.561031581915767e+00 4.611723556484058e+00 4.566797513073682e+00 4.508362853553883e+00 4.513997817559917e+00 4.561418976519925e+00 4.458424746529740e+00 4.508160837005574e+00 4.464068101834518e+00 4.411061158932720e+00 4.417170607503883e+00 4.458278646441843e+00 4.361422549200785e+00 4.411377819323113e+00 4.366961656904954e+00 4.320597904106570e+00 4.327434067213129e+00 4.360546728332380e+00 4.269817103448624e+00 4.321660735368673e+00 4.275241378773968e+00 4.237290888718566e+00 4.245192004584926e+00 4.267918771550892e+00 4.183281618667512e+00 4.239462234514976e+00 4.188513893531033e+00 4.161552742924573e+00 4.170953757261133e+00 4.179930950396593e+00 4.101221809205698e+00 4.165405009474992e+00 4.106046765418707e+00 4.093801057114139e+00 4.105222717925541e+00 4.095798859752986e+00 4.022499913920523e+00 4.100220759538286e+00 4.026441100706310e+00 4.034229562880810e+00 4.048224183612973e+00 4.014138009152240e+00 3.944950634689832e+00 4.044458417607214e+00 3.947107990997675e+00 3.982327455471376e+00 3.999322963003605e+00 3.932791349008649e+00 3.864710222706939e+00 4.000575651350208e+00 3.861269485556200e+00 3.937012768104390e+00 6.298954415677822e+00 6.353694017899746e+00 6.170127970005910e+00 6.291715931241312e+00 6.177123941583215e+00 6.113236035951137e+00 6.116669016812791e+00 6.173992650551622e+00 5.996298438787375e+00 6.109541763716449e+00 6.003249817624680e+00 5.937452892922115e+00 5.941323307635732e+00 5.999617502397527e+00 5.828307367398683e+00 5.934049516076803e+00 5.835412961126906e+00 5.768689274989596e+00 5.772940248478225e+00 5.831404835214334e+00 5.666848779925665e+00 5.765683965056262e+00 5.673936344376852e+00 5.607221870231382e+00 5.611721050840433e+00 5.669674222594955e+00 5.511999706305724e+00 5.604588227981099e+00 5.518971077475952e+00 5.453028580163886e+00 5.457672062572137e+00 5.514552631388000e+00 5.363738430071501e+00 5.450726695431429e+00 5.370532420520808e+00 5.305967625816397e+00 5.310683573545464e+00 5.366029096270386e+00 5.221960315833853e+00 5.303960870536811e+00 5.228540495082985e+00 5.165838063656289e+00 5.170584450338913e+00 5.223997761406363e+00 5.086502391510994e+00 5.164101923856754e+00 5.092847493847230e+00 5.032415972176388e+00 5.037177356932967e+00 5.088286776125054e+00 4.957157531883047e+00 5.030942899609661e+00 4.963254116195607e+00 4.905474212963633e+00 4.910259821928627e+00 4.958674339596949e+00 4.833679328489232e+00 4.904277594674251e+00 4.839515934980196e+00 4.784792080774212e+00 4.789635954644865e+00 4.834893731787825e+00 4.715778183026218e+00 4.783911346919377e+00 4.721339869793785e+00 4.670158262272978e+00 4.675121627384565e+00 4.716628178368124e+00 4.603107627799027e+00 4.669666704242839e+00 4.608369525260763e+00 4.561367940481858e+00 4.566543670808652e+00 4.603494707900655e+00 4.495237829316325e+00 4.561384867067162e+00 4.500155920903366e+00 4.458212289786545e+00 4.463730943785515e+00 4.495013975486039e+00 4.391610365057035e+00 4.458921542473311e+00 4.396106898076393e+00 4.360455231561406e+00 4.366491310179657e+00 4.390560132291736e+00 4.291464188997247e+00 4.362132590290495e+00 4.295403869114065e+00 4.267787119564659e+00 4.274562467053740e+00 4.289280850500711e+00 4.193716778486622e+00 4.270839220583734e+00 4.196868447836975e+00 4.179736761580853e+00 4.187514979883627e+00 4.189972375266494e+00 4.096776974738208e+00 4.184752243146625e+00 4.098754970188185e+00 4.095511001751371e+00 4.104572876386512e+00 4.090888871009259e+00 3.998259032355949e+00 4.103314577614927e+00 3.998442049412883e+00 4.013716961379336e+00 4.024311807088537e+00 3.989466446107307e+00 3.894563306861319e+00 4.025330784259528e+00 3.892014595537247e+00 3.931919013616534e+00 3.944189194753622e+00 3.882202518110985e+00 3.780378197833789e+00 3.950938126289818e+00 3.771569482203397e+00 3.846912245483009e+00 6.357004779874009e+00 6.397894114393903e+00 6.216745418020704e+00 6.350428754105216e+00 6.223132122448240e+00 6.173866043659418e+00 6.177130990463942e+00 6.220093661770195e+00 6.043979195554659e+00 6.170591455793728e+00 6.050400557996532e+00 5.999565579365819e+00 6.003181352299014e+00 6.046955849720689e+00 5.876426179273238e+00 5.996430266986110e+00 5.883061260772334e+00 5.831353730634554e+00 5.835296167091799e+00 5.879303222200319e+00 5.714805242784602e+00 5.828475339285424e+00 5.721500404416927e+00 5.669625545344996e+00 5.673795663732085e+00 5.717521466414470e+00 5.559289246957577e+00 5.667012086413018e+00 5.565943340288184e+00 5.514506871088252e+00 5.518819594113763e+00 5.561822815670896e+00 5.409939180064031e+00 5.512152450620249e+00 5.416476265311695e+00 5.365985964158399e+00 5.370375968412048e+00 5.412277701668140e+00 5.266710230459634e+00 5.363882966166765e+00 5.273072759296280e+00 5.223956345038380e+00 5.228379177675574e+00 5.268842212212863e+00 5.129469356934173e+00 5.222103995013528e+00 5.135611316083450e+00 5.088245636304698e+00 5.092676892414821e+00 5.131377568972231e+00 4.998004242892127e+00 5.086656354343967e+00 5.003884329666953e+00 4.958631497061726e+00 4.963065778128949e+00 4.999659778302781e+00 4.872022371679924e+00 4.957336707623946e+00 4.877597100348681e+00 4.834846530263644e+00 4.839297021562343e+00 4.873378497779225e+00 4.751139071286324e+00 4.833903396372498e+00 4.756355187419948e+00 4.716573007843432e+00 4.721071941618737e+00 4.752123952362953e+00 4.634852306939987e+00 4.716073392057583e+00 4.639637499991801e+00 4.603426563720588e+00 4.608026405222413e+00 4.635359717546921e+00 4.522500378820901e+00 4.603509470893480e+00 4.526750904618640e+00 4.494925825629810e+00 4.499700532976636e+00 4.522377605709310e+00 4.413196504799226e+00 4.495794580882563e+00 4.416759891348017e+00 4.390442092997592e+00 4.395487060917366e+00 4.412228823102498e+00 4.305731506800067e+00 4.392387324032265e+00 4.308382102912367e+00 4.289119281961886e+00 4.294547424402007e+00 4.303623085103939e+00 4.198432689426618e+00 4.292547930160891e+00 4.199837794811075e+00 4.189749279913330e+00 4.195679181941407e+00 4.194784840710428e+00 4.088964382825281e+00 4.195217307637988e+00 4.088639951556422e+00 4.090582214265877e+00 4.097113435024784e+00 4.083254501892442e+00 3.974055508908203e+00 4.098820168218689e+00 3.971314460089145e+00 3.989048026185382e+00 3.996226783014256e+00 3.965629977762617e+00 3.849142169794416e+00 4.000896414304664e+00 3.843055090801766e+00 3.881376252376084e+00 3.889176413554087e+00 3.837469230246536e+00 3.707971252683967e+00 3.899926972635409e+00 3.695321324314703e+00 3.762906512017080e+00 6.401206623797796e+00 6.428927253167663e+00 6.249556242673028e+00 6.395093762463869e+00 6.255521965808289e+00 6.219992555402379e+00 6.223203773965825e+00 6.252480187681340e+00 6.077573536810942e+00 6.217076315514940e+00 6.083626489724092e+00 6.046918733877005e+00 6.050402387685400e+00 6.080262738629489e+00 5.910387214474490e+00 6.044029867606558e+00 5.916684392812684e+00 5.879264304853012e+00 5.883012525256639e+00 5.913073519112616e+00 5.748711975836065e+00 5.876519795583021e+00 5.755114660698297e+00 5.717481891760785e+00 5.721417536746354e+00 5.751330474029178e+00 5.592776132124770e+00 5.714908617529486e+00 5.599184188581606e+00 5.561783119652537e+00 5.565835713595382e+00 5.595292642118175e+00 5.442690562023754e+00 5.559397071669951e+00 5.449020359337064e+00 5.412237810629627e+00 5.416348764433238e+00 5.445077982647873e+00 5.298447113185168e+00 5.410052176256148e+00 5.304627584942955e+00 5.268801465789895e+00 5.272925883229258e+00 5.300679819235754e+00 5.159929570438824e+00 5.266833507430411e+00 5.165897170462857e+00 5.131334733314307e+00 5.135441314403905e+00 5.161978373123736e+00 5.026917416200442e+00 5.129611937226413e+00 5.032609893426137e+00 4.999612984601700e+00 5.003683073738401e+00 5.028744370114818e+00 4.899079667873059e+00 4.998179263621480e+00 4.904428743690298e+00 4.873325092531870e+00 4.877351477305157e+00 4.900632296990168e+00 4.775956475218990e+00 4.87224793788886