<?xml version="1.0"?>
<VTKFile type="UnstructuredGrid" version="0.1" byte_order="LittleEndian">
<UnstructuredGrid>
<Piece NumberOfPoints="6397" NumberOfCells="2159">
<Points>
<DataArray type="Float64" NumberOfComponents="3" format="ascii">
0 0 0 0 0 3.999999999999964 2.66344351959326 0 2.7043277307795819 0 0 0 2.66344351959326 0 2.7043277307795819 4.0000000000284359 0 0 8.0000000000568576 0 0 4.0000000000284359 0 0 6.5707172755705248 0 2.7646612833128712 4.0000000000284359 0 0 2.66344351959326 0 2.7043277307795819 6.5707172755705248 0 2.7646612833128712 4.6209038898330013 0 5.4801965510881789 6.5707172755705248 0 2.7646612833128712 2.66344351959326 0 2.7043277307795819 4.6209038898330013 0 5.4801965510881789 2.66344351959326 0 2.7043277307795819 2.07684632842173 0 5.9999999999999467 0 0 7.9999999999999289 2.07684632842173 0 5.9999999999999467 0 0 3.999999999999964 0 0 3.999999999999964 2.07684632842173 0 5.9999999999999467 2.66344351959326 0 2.7043277307795819 12.00000000008531 0 0 8.0000000000568576 0 0 9.7693469607982983 0 3.7481879779097791 12.00000000008531 0 0 9.7693469607982983 0 3.7481879779097791 13.38972239314738 0 2.6999177402855641 8.0000000000568576 0 0 6.5707172755705248 0 2.7646612833128712 9.7693469607982983 0 3.7481879779097791 7.8296048838167076 0 7.2849290530216786 10.475932525657869 0 6.5236477926518619 9.7693469607982983 0 3.7481879779097791 7.8296048838167076 0 7.2849290530216786 6.5707172755705248 0 2.7646612833128712 4.6209038898330013 0 5.4801965510881789 9.7693469607982983 0 3.7481879779097791 6.5707172755705248 0 2.7646612833128712 7.8296048838167076 0 7.2849290530216786 13.00967717205546 0 5.6551885328941403 9.7693469607982983 0 3.7481879779097791 10.475932525657869 0 6.5236477926518619 13.00967717205546 0 5.6551885328941403 13.38972239314738 0 2.6999177402855641 9.7693469607982983 0 3.7481879779097791 7.8296048838167076 0 7.2849290530216786 11.30969053719768 0 9.1676850296155816 10.475932525657869 0 6.5236477926518619 13.00967717205546 0 5.6551885328941403 10.475932525657869 0 6.5236477926518619 11.30969053719768 0 9.1676850296155816 7.8296048838167076 0 7.2849290530216786 3.8041353317600799 0 9.4838326041714431 7.9090244117951407 0 10.95102642914321 7.8296048838167076 0 7.2849290530216786 7.9090244117951407 0 10.95102642914321 11.30969053719768 0 9.1676850296155816 14.32798837506134 0 12.48911227050972 11.30969053719768 0 9.1676850296155816 10.704055794530859 0 12.6223006550824 10.704055794530859 0 12.6223006550824 11.30969053719768 0 9.1676850296155816 7.9090244117951407 0 10.95102642914321 0 0 7.9999999999999289 3.8041353317600799 0 9.4838326041714431 2.07684632842173 0 5.9999999999999467 4.6209038898330013 0 5.4801965510881789 2.07684632842173 0 5.9999999999999467 3.8041353317600799 0 9.4838326041714431 7.8296048838167076 0 7.2849290530216786 4.6209038898330013 0 5.4801965510881789 3.8041353317600799 0 9.4838326041714431 5.4255954274940468 0 12.775317011400031 7.9090244117951407 0 10.95102642914321 3.8041353317600799 0 9.4838326041714431 5.4255954274940468 0 12.775317011400031 3.8041353317600799 0 9.4838326041714431 2.640550250250365 0 13.30343526213797 0 0 11.99999999999994 2.640550250250365 0 13.30343526213797 3.8041353317600799 0 9.4838326041714431 0 0 11.99999999999994 3.8041353317600799 0 9.4838326041714431 0 0 7.9999999999999289 0 0 15.99999999999995 2.640550250250365 0 13.30343526213797 0 0 11.99999999999994 0 0 15.99999999999995 3.973020491997699 0 16.258026695118499 2.640550250250365 0 13.30343526213797 0 0 19.999999999999961 4.5806639609469997 0 19.862710269054769 3.973020491997699 0 16.258026695118499 0 0 19.999999999999961 3.973020491997699 0 16.258026695118499 0 0 15.99999999999995 8.3266277160981126 0 17.7004192385895 3.973020491997699 0 16.258026695118499 4.5806639609469997 0 19.862710269054769 5.4255954274940468 0 12.775317011400031 2.640550250250365 0 13.30343526213797 3.973020491997699 0 16.258026695118499 5.4255954274940468 0 12.775317011400031 3.973020491997699 0 16.258026695118499 7.7404602345423204 0 14.54380321958984 5.4255954274940468 0 12.775317011400031 7.7404602345423204 0 14.54380321958984 7.9090244117951407 0 10.95102642914321 10.704055794530859 0 12.6223006550824 7.9090244117951407 0 10.95102642914321 7.7404602345423204 0 14.54380321958984 14.32798837506134 0 12.48911227050972 10.704055794530859 0 12.6223006550824 11.75402814782707 0 15.52236706552506 10.704055794530859 0 12.6223006550824 7.7404602345423204 0 14.54380321958984 11.75402814782707 0 15.52236706552506 8.3266277160981126 0 17.7004192385895 13.52887381105845 0 19.07917103906707 11.75402814782707 0 15.52236706552506 8.3266277160981126 0 17.7004192385895 7.7404602345423204 0 14.54380321958984 3.973020491997699 0 16.258026695118499 8.3266277160981126 0 17.7004192385895 11.75402814782707 0 15.52236706552506 7.7404602345423204 0 14.54380321958984 8.3266277160981126 0 17.7004192385895 7.3734437617054036 0 20.587411399876569 10.178007277726421 0 21.724671481347961 8.3266277160981126 0 17.7004192385895 4.5806639609469997 0 19.862710269054769 7.3734437617054036 0 20.587411399876569 8.3266277160981126 0 17.7004192385895 10.178007277726421 0 21.724671481347961 13.52887381105845 0 19.07917103906707 12.706931992858721 0 26.37471591010971 14.320961795774391 0 23.32619268761443 10.178007277726421 0 21.724671481347961 9.5697619165960202 0 25.659496374512631 12.706931992858721 0 26.37471591010971 10.178007277726421 0 21.724671481347961 6.1768732550549936 0 23.87473028151155 10.178007277726421 0 21.724671481347961 7.3734437617054036 0 20.587411399876569 6.1768732550549936 0 23.87473028151155 9.5697619165960202 0 25.659496374512631 10.178007277726421 0 21.724671481347961 6.1768732550549936 0 23.87473028151155 4.5806639609469997 0 19.862710269054769 3.191276734414644 0 22.850474519006632 6.1768732550549936 0 23.87473028151155 3.191276734414644 0 22.850474519006632 2.3692638314996421 0 25.57295210895003 0 0 23.999999999999961 2.3692638314996421 0 25.57295210895003 3.191276734414644 0 22.850474519006632 0 0 23.999999999999961 3.191276734414644 0 22.850474519006632 0 0 19.999999999999961 0 0 19.999999999999961 3.191276734414644 0 22.850474519006632 4.5806639609469997 0 19.862710269054769 6.1768732550549936 0 23.87473028151155 7.3734437617054036 0 20.587411399876569 4.5806639609469997 0 19.862710269054769 18.189362734038401 0 18.146622260735661 19.3670580238695 0 21.362300660710609 22.065959340448551 0 19.437990615481549 21.978233404233009 0 23.15428695841441 22.065959340448551 0 19.437990615481549 19.3670580238695 0 21.362300660710609 21.978233404233009 0 23.15428695841441 25.850420345530981 0 21.055002092136121 22.065959340448551 0 19.437990615481549 25.329272956002221 0 17.272042519131851 22.065959340448551 0 19.437990615481549 25.850420345530981 0 21.055002092136121 21.978233404233009 0 23.15428695841441 23.656620175023871 0 26.516952020808031 24.93874764187542 0 23.98167172788246 21.978233404233009 0 23.15428695841441 24.93874764187542 0 23.98167172788246 25.850420345530981 0 21.055002092136121 21.978233404233009 0 23.15428695841441 18.12566666875647 0 24.807977381442431 20.850945221766889 0 25.693946049239369 21.978233404233009 0 23.15428695841441 19.3670580238695 0 21.362300660710609 18.12566666875647 0 24.807977381442431 18.12566666875647 0 24.807977381442431 19.3670580238695 0 21.362300660710609 16.476067971871089 0 21.26462608747898 14.320961795774391 0 23.32619268761443 18.12566666875647 0 24.807977381442431 16.476067971871089 0 21.26462608747898 14.320961795774391 0 23.32619268761443 16.476067971871089 0 21.26462608747898 13.52887381105845 0 19.07917103906707 14.320961795774391 0 23.32619268761443 13.52887381105845 0 19.07917103906707 10.178007277726421 0 21.724671481347961 18.189362734038401 0 18.146622260735661 13.52887381105845 0 19.07917103906707 16.476067971871089 0 21.26462608747898 18.189362734038401 0 18.146622260735661 16.476067971871089 0 21.26462608747898 19.3670580238695 0 21.362300660710609 18.189362734038401 0 18.146622260735661 18.07077599594691 0 14.35233389632198 15.304671521166791 0 16.081754755268189 18.189362734038401 0 18.146622260735661 15.304671521166791 0 16.081754755268189 13.52887381105845 0 19.07917103906707 13.52887381105845 0 19.07917103906707 15.304671521166791 0 16.081754755268189 11.75402814782707 0 15.52236706552506 14.32798837506134 0 12.48911227050972 11.75402814782707 0 15.52236706552506 15.304671521166791 0 16.081754755268189 14.32798837506134 0 12.48911227050972 15.304671521166791 0 16.081754755268189 18.07077599594691 0 14.35233389632198 20.805575156043471 0 12.76286797642741 18.07077599594691 0 14.35233389632198 21.645419707662882 0 16.026045520337629 20.805575156043471 0 12.76286797642741 18.151638481708599 0 10.60760059465326 18.07077599594691 0 14.35233389632198 18.189362734038401 0 18.146622260735661 22.065959340448551 0 19.437990615481549 21.645419707662882 0 16.026045520337629 18.189362734038401 0 18.146622260735661 21.645419707662882 0 16.026045520337629 18.07077599594691 0 14.35233389632198 25.329272956002221 0 17.272042519131851 21.645419707662882 0 16.026045520337629 22.065959340448551 0 19.437990615481549 20.805575156043471 0 12.76286797642741 21.645419707662882 0 16.026045520337629 24.597882896029191 0 13.513174052093371 25.329272956002221 0 17.272042519131851 24.597882896029191 0 13.513174052093371 21.645419707662882 0 16.026045520337629 24.597882896029191 0 13.513174052093371 26.400761617221551 0 9.9352243108510194 22.300015122859559 0 9.3990893396401489 20.805575156043471 0 12.76286797642741 24.597882896029191 0 13.513174052093371 22.300015122859559 0 9.3990893396401489 20.805575156043471 0 12.76286797642741 22.300015122859559 0 9.3990893396401489 18.151638481708599 0 10.60760059465326 18.7518341141303 0 6.5935947010293026 18.151638481708599 0 10.60760059465326 22.300015122859559 0 9.3990893396401489 18.7518341141303 0 6.5935947010293026 22.300015122859559 0 9.3990893396401489 22.915953587178709 0 4.522588068116459 24.986842191109989 0 7.1296693
[...]
<PointData Scalars="I_conc," Vectors="" Tensors="">
<DataArray type="Float64" Name="I_conc" format="ascii">
6.0670136104852029e-17 1.4160498739300822e-13 1.0634159383039038e-13 4.2226769047645288e-14 7.0135751325519192e-14 4.3795160139610426e-14 4.6390061800043987e-14 4.5762247796681898e-14 7.6984264179704439e-14 1.83178387985775e-14 9.6020284468087825e-14 1.0701021325977495e-13 2.9442364513107871e-13 9.3738492319982853e-14 9.3185376741839776e-14 3.7048201765293223e-13 1.1468487439494268e-14 4.3791237692922057e-13 1.0725825779071662e-12 5.3892623609084639e-13 -4.3120401417708016e-14 1.772699437922315e-13 3.8851763715951783e-13 5.85510531507046e-14 4.081517528177312e-14 3.8529217565904248e-14 1.0113600350734276e-13 3.2794633686954118e-15 1.5739637927369865e-13 1.2199518661600334e-13 1.5007001845789328e-14 1.1061611009290809e-13 1.5816346288197272e-13 1.0030571669593674e-12 8.0698194677781322e-13 -9.1025609229101773e-14 8.1388437827619559e-13 -1.0886253768848888e-13 4.5040269541086181e-13 1.7992664024308931e-13 -1.6491545267655312e-16 6.5237927953209448e-13 5.480655260839643e-13 5.3460193026466388e-14 6.6823047841044864e-13 3.8646016279429863e-13 6.857385503778949e-14 1.9205939245688951e-13 1.2303103126727321e-12 2.3575806022342492e-12 5.8988936949209669e-13 3.8821468596347834e-13 6.5749747397480529e-13 2.0254285064080435e-12 -1.9515531840975099e-13 3.4167933874532287e-12 5.221402289807399e-12 -2.1689407718425578e-13 5.284225295860918e-12 3.487104253859464e-12 1.6651741468510106e-11 -2.2500040286495756e-12 1.6038638022157593e-11 1.3567325904742594e-11 6.0652817671803777e-13 7.8300720059571447e-12 1.508873043717828e-12 2.4796758039279861e-12 7.8498320317839234e-14 1.7673866932253851e-13 4.59556966720311e-13 1.8498301999899633e-12 1.2445150003632983e-12 -5.0994246008809984e-14 2.1850438236762238e-12 1.2947943762504649e-11 7.6598824979384843e-12 8.104389138561187e-13 1.5437670872586352e-11 -2.4623546512484815e-12 1.8182305167438767e-11 1.0445707157735336e-11 1.6522869232668206e-11 -5.2401435309973181e-13 6.9401130523295617e-12 3.5513284994729231e-12 -4.583580980704908e-15 5.4491534937231149e-11 2.4366055688144169e-11 1.499963354340346e-14 7.8912977139977721e-11 8.8365775754208921e-11 7.6563496237804865e-12 5.824571404918191e-10 5.1248352166130172e-10 -1.0055924311161684e-10 3.3292838681219437e-10 1.0437299642665318e-10 1.6650629230612756e-11 2.2995006944786443e-10 -1.0058464981180101e-11 4.1196058004912914e-10 9.4501405951684388e-12 1.9903925255531557e-11 6.4119965850710107e-11 1.5587018316894285e-12 7.5975221034125523e-11 4.6757600798956331e-11 1.7400286562081175e-11 3.3414910210600192e-11 1.7967790334113052e-12 1.984175824398761e-11 -4.3170787322773052e-13 3.4307786379073414e-11 1.5505068639479301e-11 1.383533780356903e-11 5.3413127152594598e-11 5.2043361037147245e-12 4.9665132028014723e-11 6.7353836245063821e-11 2.5184677222494948e-10 3.8645259448418312e-10 3.7548593286787836e-12 1.6290945236276536e-10 2.2097780122825091e-11 9.8508750073520543e-11 1.6601372134926458e-10 9.4067963033501808e-11 1.4605836710390367e-11 -2.0080117563199913e-10 9.5839158187570115e-10 1.424249109205789e-09 8.0648025924040326e-11 6.0681399706153314e-10 7.4898796816319693e-10 -2.9602820845702633e-11 1.1543048802671112e-09 5.681161009640974e-10 1.1320150387277967e-08 4.0625279559857939e-09 -5.249601364506348e-10 1.1468839088004647e-08 1.4865638295512197e-08 -3.7018180927473968e-09 3.412678394875615e-09 1.7913758693748976e-09 5.5794233918602731e-10 5.0293628411249399e-09 8.4597877537539577e-09 -5.8135407439747122e-10 3.7973823831546773e-09 -5.5923825706359467e-10 2.7749353544353955e-09 4.8181651351219252e-09 1.9999927312570831e-09 8.4709943892611361e-09 4.3455399189254675e-09 8.2646330256067229e-09 2.1254247058277556e-09 3.5092536640242612e-09 2.7591664244368118e-09 -5.6260599584722592e-10 5.3673716168970532e-10 1.8191138443314069e-09 4.2147933557614459e-10 2.8009215550707106e-09 7.9704441990075344e-10 2.5504448879995607e-10 1.4620377273376341e-10 1.2801883417706355e-09 6.9862338963433501e-10 3.2609039644960993e-09 1.6327161499221109e-12 1.8364725656283625e-09 3.1458730597851601e-09 1.7941959264932145e-09 -1.2746961283226683e-10 -1.469365149890663e-11 7.6476014804069854e-10 1.1882305715664669e-09 3.0567993605020478e-09 1.746801690027451e-08 6.3910880083587121e-09 4.8638914374828754e-09 5.9257409274731866e-09 4.9006602312589268e-10 3.2174703092474745e-09 9.490034838859824e-09 1.3484324743804833e-08 4.9426589572114007e-09 -3.2949155528636476e-11 7.3009737779773033e-09 5.7586587320848843e-09 1.2293344227377103e-09 1.2054824815223909e-09 4.5564756604573867e-09 7.3002350455640832e-09 3.1195273431513103e-10 3.0712348426308951e-09 1.6019324903986835e-09 -2.0443218913270932e-10 3.0772273740841284e-09 -1.1799657144333337e-10 1.882766030023793e-09 2.3620887580200926e-10 4.7252380984943405e-10 1.1221860112840784e-09 -4.2867312906489542e-11 1.4483687996037677e-09 1.4972962013952422e-09 2.3771685858530816e-10 -3.0739250093591362e-12 1.2415204400251951e-10 3.5353750246668136e-10 2.2065752629062152e-11 4.188029939240916e-10 3.0582833978038491e-10 9.5686232026445912e-11 4.4183065430202873e-11 -6.5029370858177114e-12 7.6702558367687257e-11 9.0557252128546839e-11 1.5848572132763873e-12 8.3313252060806355e-11 5.0474223568300264e-11 9.3002523777271618e-12 5.3411272652627975e-11 9.2642022005446849e-11 2.5051795805790894e-11 -2.3024946967332983e-12 3.8072155267261617e-11 3.6684015862244612e-10 5.1909143450475817e-10 3.4897412675969118e-13 2.3375085492154769e-10 1.3433939538345828e-10 -4.4565821373619764e-12 2.7599972897824166e-10 2.5735319364358544e-11 4.9122239589195816e-10 1.2251830390655001e-11 8.3779313286610422e-11 3.7569931914144784e-11 1.8678671606204819e-10 -1.7283791640253406e-11 1.3430609670002312e-10 1.9275597450550108e-11 4.3832635862777616e-12 1.9718535300015055e-12 2.2999488727722538e-11 2.9357684512910577e-11 -5.9620141056661362e-12 1.6400338127534013e-11 1.7106122984049333e-12 7.6252004651142382e-12 -7.9935289550200456e-13 5.7194143676195693e-12 4.4865675960828884e-12 1.1118277406929529e-12 2.4360080836615451e-12 -2.6355479887500778e-13 1.542137618741026e-12 -5.8574480208018953e-13 2.7876696335905786e-12 7.938456358491864e-13 4.2080481337985103e-12 4.8630356667719377e-12 9.9778499425250389e-12 3.1357876927890966e-13 3.0139209105206399e-12 1.2783015359932679e-11 8.3040093313167517e-12 -1.5451870245026715e-12 1.9600208455959809e-11 3.4375512695293394e-11 1.2772249385823208e-14 6.0524422090822455e-14 2.2157805704032285e-12 4.8713018391840055e-12 1.0456449158036412e-12 -1.420002145482477e-13 1.5948572808375376e-12 5.4960531125129078e-14 2.6481178743672781e-12 2.003911574131793e-12 4.236134240146619e-13 2.7659702215632355e-13 7.4990252899317319e-14 5.5103744153452969e-13 1.3421922495335712e-12 1.2168119547820478e-14 6.6822764932370273e-13 1.3069919932960561e-13 2.4896199264788515e-13 5.0909777115305915e-14 5.9169208258625112e-14 1.0833921778788946e-13 -2.5750683973732842e-14 2.0794043234206429e-13 1.9260395160009089e-13 -1.2880192475257743e-14 1.3409853108535934e-13 1.925331932518207e-13 5.5629736664686148e-14 4.8437929750234975e-14 8.3653719659308054e-14 8.7341861074755005e-13 1.8870379370926008e-13 2.3514216402881423e-13 7.4653866098820192e-13 3.9059793067232202e-13 1.4502771836755146e-13 6.9813788405428935e-14 5.2778665842232341e-14 1.155482825137492e-13 -5.1435021544905979e-14 2.676416155026391e-13 2.372673379600573e-13 -4.3119733735683225e-14 2.1324627831464284e-13 2.7011863037352998e-13 5.204241291012601e-14 5.6120887666205533e-14 1.3212965924294859e-13 4.7000323691539532e-13 6.6444463205063676e-14 1.1450108371379456e-12 1.2260553586754635e-12 1.3818830014404228e-12 -2.2919815386396422e-13 4.2403688908801401e-13 1.102666913307144e-13 2.5379329310634726e-13 4.6645143112560637e-13 3.1322806866018337e-13 7.3183894908046696e-14 6.2160625651885526e-14 5.8497700626010228e-14 9.4820933621574616e-14 -2.4096595474285042e-15 1.8929236295343219e-13 1.4612955616722274e-13 -1.0463570558620883e-14 1.5155919588321797e-13 2.1686953712533792e-13 5.8448279834520105e-14 6.3047956010530784e-14 9.3811378305706141e-14 5.9508032004297704e-15 2.0030287017830888e-13 1.3665122211608579e-13 1.6123652345505297e-14 1.3162570268644701e-13 1.662373064893179e-13 3.9458109624277405e-13 1.9432948727499942e-13 9.2935980566824957e-14 5.7383557145200109e-13 8.8358009457001691e-13 -1.7836134909642311e-14 5.9615294577537528e-13 1.2305230867635783e-12 1.1853802880884463e-13 5.2144201896423392e-13 9.8357398389782912e-14 1.1344738004382552e-12 4.2819907923175358e-13 8.1777093860460514e-14 2.7262205083579995e-13 3.954828452207617e-12 5.6118676971581748e-13 1.7806418980759065e-12 1.4924491685301356e-12 1.1594270365752785e-12 3.887242929451896e-13 1.1436549405323421e-11 1.9951018094803518e-11 3.7549430493423271e-12 8.5556522636924805e-12 6.2880276486969309e-12 -8.6947972103743115e-13 1.1410336011520275e-11 4.1002470344586443e-13 2.4872577414032562e-11 8.2528353484163958e-12 -1.7640584991605624e-13 5.5992616075046492e-12 2.0062172729213283e-11 2.9667283746858268e-11 -3.208463862045083e-12 1.4524160964167271e-11 3.689966394660057e-12 5.4450341317107812e-12 2.0879300335436805e-11 -1.950874949647807e-12 2.8293951590253602e-11 1.0146827837948455e-12 4.1157718606147514e-12 1.4520588530470417e-12 4.9063975332820146e-12 7.8719358690744914e-13 5.2747320684844862e-12 -3.8356793578652931e-13 1.8391107198949311e-12 3.4895574476284918e-12 -3.5808455243020007e-13 3.3039825302211912e-12 1.890707523737356e-12 6.2052731306222518e-13 1.0804195673153737e-12 2.388142810433903e-13 4.8465803917678765e-13 3.7385424671806691e-13 2.762696924739065e-14 -3.79523455606304e-14 1.3272287461825197e-12 1.4577339610260106e-12 6.6149208529990642e-15 1.53761228677461e-13 2.5229999073705297e-13 8.0491887510328395e-14 5.6018637404256267e-14 1.7637249174010708e-13 2.1787854903681682e-14 1.7432657192489624e-13 1.4564042311185021e-13 7.6722778899001203e-14 7.3078000658550307e-14 1.0465820481699808e-13 4.4137116711576761e-13 8.4622862593037494e-14 2.2073858246923859e-13 -1.2663019293795014e-13 7.0797613642012033e-13 1.1919525477584914e-12 6.7111530799817523e-13 -7.2307150996852709e-14 1.1533610347173507e-12 6.3159901626574538e-14 5.6887597105800884e-14 1.1971056741270116e-13 -1.0234585597787855e-14 1.783339198691736e-13 1.8818861681815761e-13 5.5022207062051416e-14 5.7940636249367227e-14 1.1173308771063372e-13 1.8248265690357976e-13 1.8006366404500651e-13 4.9079766758551292e-13 -5.3894999755972329e-14 9.0971610615219746e-13 6.780233037214609e-13 2.2381077886811129e-12 2.7257866092579645e-13 4.154534413195132e-12 1.7897011582862307e-12 5.5986641815398514e-13 1.0949116144019774e-12 1.8230446161252292e-11 7.4434345610865185e-12 4.3266913054647994e-12 7.599464536740915e-13 6.0671669258263762e-12 6.6614119588903332e-12 2.335061554790385e-11 -1.3020606779479967e-13 2.3551559443711646e-11 8.4483141105849956e-12 -8.6214669089296827e-13 7.5601800825486377e-12 2.4801599055829586e-11 2.7544994871780126e-11 1.7833780527136941e-12 9.7290891966861845e-12 5.8436104312234777e-12 2.2782007218441035e-11 1.8274518961415031e-12 5.6258416667283372e-12 1.2678248348449319e-12 1.8818708946160426e-12 1.6577460658223485e-12 4.4355359531162043e-13 1.6280817611943315e-13 1.7086395381552232e-12 2.6830783320770756e-12 1.0880003858681897e-13 2.5803775930367881e-12 1.4398558391366949e-12 7.1639117916126961e-12 3.641968350292277e-12 2.5027572000103103e-13 5.6524570391378716e-12 3.1651510134749384e-11 1.4968564768043053e-11 1.0125296277899689e-11 1.2564328357664533e-11 1.1173849580841376e-12 -1.1263739332415105e-12 1.5741024907592561e-11 2.1717067412325008e-11 4.5856678452925529e-12 2.5702202214275241e-12 1.0724631956006255e-11 4.2169661386093661e-12 7.2495797132426292e-13 3.5828177559022707e-12 3.7407839312639415e-12 1.653418188516443e-12 1.0288424913148511e-12 4.9754508943280675e-10 4.8717884390868644e-10 1.1577586584988086e-10 4.3926879152575823e-10 1.7430408106689679e-10 1.981192012835197e-10 1.6814788447470297e-12 1.9346753308614881e-10 1.8322320951925493e-10 8.7996709965872887e-11 1.9612805209187227e-10 3.8729432213917522e-10 4.2936781069400194e-11 2.8607975542585726e-11 1.0100269165277984e-11 2.0875262740770536e-11 1.675290038202867e-10 1.3227462843980788e-10 5.298681319958056e-11 9.7541811613891896e-11 1.1318304358138604e-11 4.7319191455051374e-11 2.9865225109518816e-11 1.4417949728120294e-10 4.6632914642775067e-11 7.3781829797740714e-12 4.2502463934867627e-11 1.2716061865906366e-10 1.7220913544965408e-10 3.2675018919134293e-12 1.0502961201682149e-10 2.9988684414922095e-10 2.0648892023062013e-10 5.4471468117435052e-10 7.2095122974161551e-11 7.2481191852477288e-10 1.1936945153899665e-10 3.4174803871083885e-10 6.7544408784073953e-10 7.5558082085654741e-10 2.9815932340588371e-10 3.177594799523512e-10 5.7284188108446986e-11 2.577680911626296e-10 1.2215924815693028e-10 7.5743370257433129e-11 3.2033453218167494e-10 3.251342808109328e-10 9.2026466693011587e-11 3.9369499265680665e-11 2.30961119001393e-11 2.5279368388733036e-12 3.0895578296627179e-11 3.6739357263750633e-11 1.0726225169703447e-10 1.0906100590457992e-11 8.3057985760780229e-11 2.0722421353755087e-11 6.5035596889264001e-11 2.9562583973218035e-11 6.6977142286391062e-11 2.2496660804054169e-11 2.1463472772114369e-11 8.6231157680992942e-11 7.9876414426347613e-11 4.8805485826684904e-12 1.6284658668541066e-11 3.9584069017710224e-10 2.4509443836562124e-10 1.7717197953965225e-10 4.9023301019729492e-10 5.2074731860680352e-10 9.0183772970517091e-11 1.9193385504477788e-10 7.2924120822771409e-11 2.3419639208625784e-10 2.9619326508213744e-10 2.1592235394363502e-11 2.1311639542556421e-10 4.9446197259958336e-10 3.301822420561505e-10 1.0267606167354489e-09 5.3108361666488468e-10 4.5843052075307958e-10 1.2410068370759993e-09 1.9117329009475175e-10 1.5743333867944192e-09 1.1436457699637131e-09 1.0162423432482546e-09 4.4220365451465703e-10 8.7831076576350356e-10 2.9013454740712895e-09 2.2582580180972016e-09 9.9197049641815181e-10 1.843578363713596e-09 2.8219326997992272e-09 4.3822459088699038e-09 3.3019970458712709e-09 1.3315192722858189e-09 5.0020346830903341e-09 7.71314337836147e-09 2.6418853021199671e-09 4.0315865090491324e-09 9.0009846525101556e-09 1.2582517054660913e-08 5.2233740894079779e-09 2.4306702989164736e-09 7.7665143082468882e-09 4.6042666774838658e-09 1.9657896371512633e-09 3.2300630896696276e-09 4.536644106706803e-09 2.8044796598280845e-09 2.0551256241045174e-09 5.1461484269778616e-09 7.5025950195463897e-09 1.9909607883233664e-09 3.9130186898520376e-09 1.2644547006958519e-08 8.6677826799768927e-09 2.0264183931891452e-08 6.5986528066780841e-09 1.4600672275288964e-08 5.4704837332824737e-09 8.6093739566457846e-09 1.4170477144980075e-08 6.3219707468413877e-09 1.6821990522287604e-09 7.8310931613089551e-09 4.6299485264342063e-10 2.6032745330473974e-09 2.3892116964731781e-09 7.9497428148035513e-10 9.8382849906549171e-10 2.2650762634550715e-09 2.6184165159401603e-09 6.8451662262174747e-10 2.223713013476212e-09 1.2084072392926341e-09 1.9888448594034118e-09 9.2905074727534176e-10 2.4644352109537572e-10 5.5041691886566311e-10 8.9359178779477901e-10 8.8936122131293309e-10 1.854694522880002e-10 9.5392930240493252e-10 8.7733251322864725e-10 1.9673376159884446e-09 7.5395474450990025e-10 8.5035702640307516e-10 8.3732350280995853e-10 2.0910599260518604e-10 2.6793194077373222e-09 3.3058623267424762e-10 2.3792581298962563e-09 5.3236682969859527e-09 2.1748805936362258e-09 2.7506353012251869e-09 5.9705035334400252e-09 5.8657531524910479e-09 1.4810302652657577e-09 1.4728168748581618e-08 9.0192843930275268e-09 1.5621559085416954e-08 5.2602769119891742e-09 1.4354417022940732e-08 9.7856287323712929e-09 6.150455785722235e-09 9.2137251473548037e-09 5.9080845416182197e-09 1.3552505634486803e-08 5.0399915230712333e-09 9.8187342139231336e-09 1.3014629426260806e-08 7.6201420268043232e-09 5.5032378004257658e-09 2.8756524629188874e-09 2.173390321964108e-09 5.2454443761479114e-09 1.9939200356717124e-09 6.1349214820086883e-09 7.1236867907007115e-09 2.5694478760996181e-09 6.40116364701626e-09 3.4947647856748695e-09 1.5242391118148921e-08 1.967800109961607e-08 4.9737138538715338e-09 1.0515260348074992e-08 5.9370056218102396e-09 1.8482836105430705e-08 9.3556060187265598e-09 2.2623005953897934e-09 7.5878230119918289e-09 1.484361922096223e-09 1.2191461288736275e-09 2.9783260509861031e-09 2.8695908593642612e-09 3.3078059257475727e-09 8.7551571733921045e-10 2.3479398843995987e-09 1.3119611481756764e-09 6.266870866361108e-10 4.58075482534116e-10 8.7137397487242196e-10 1.1789211793078899e-09 5.0095747916134995e-10 1.084689760066329e-09 4.5969562330118451e-10 1.4308654827204101e-09 2.361506002935818e-10 1.30734128864689e-09 1.6611271861247078e-10 6.3040176048008329e-11 3.4586664142186882e-10 -4.5554731796107441e-11 5.1301047556414412e-10 8.1378034007991756e-10 2.4747502421584862e-10 3.7285254235391614e-10 4.9453999210219567e-11 1.7171105931798864e-10 1.0645839788144544e-10 -8.6595289261540972e-12 1.0447480109189364e-11 3.6807409975975842e-11 7.0694432888450801e-11 7.5810304985402249e-12 7.3769790587137674e-11 4.0409070081423787e-11 1.3640227734958248e-10 1.0504649044567509e-11 1.0447399103389816e-10 -4.6581343450660798e-12 3.9952688443788424e-11 5.840269472663092e-11 1.2900901468520567e-10 8.2178146331863812e-11 1.9456207618148153e-11 8.2120423338375318e-11 8.4551492506500641e-12 7.2407641985325978e-11 1.5469737628216074e-12 5.2056230840770305e-11 2.6440777876825596e-11 -1.0467691877753509e-12 3.3894294646778961e-10 2.0740598768764246e-10 4.7651678925272027e-10 1.695499108697704e-10 4.2487598469058413e-10 2.6002894690194192e-11 2.0797545404943584e-10 3.8199239212972904e-10 9.1571301056262972e-11 6.1579260335034458e-11 1.6329744336655676e-10 -1.7481163265296565e-11 8.1607570876865207e-10 4.6996248354200039e-10 1.6162187686208872e-10 3.1867030146278939e-10 2.8803351441925897e-11 2.1487170143039503e-09 1.9974266393721437e-10 4.5963055455170947e-09 1.6380807810469854e-09 1.995137880311751e-10 1.1276422870750053e-09 1.3513215299623869e-09 4.7113533202983491e-10 2.9497547886584933e-10 1.8830867100221345e-09 1.7152437117112623e-09 3.6685407920846554e-11 1.9552369590545678e-09 4.0037243532986288e-09 1.6412363269824331e-09 7.4983922499499124e-10 6.7696988483299971e-09 5.012293256983778e-09 3.4385826123256524e-09 7.8705079850105411e-09 1.5027195890001118e-08 2.6336833195418485e-09 1.5557737404344672e-08 9.3520338358965706e-09 6.6537995366718439e-10 6.6787019190520299e-09 7.025044958954582e-09 6.0210109315756238e-09 5.0725337003072492e-09 1.7924303489896109e-08 4.6159338142613265e-10 5.8641095635559506e-09 6.3890584206735949e-09 1.5212730326099808e-09 1.1037034378580787e-09 2.9718745018003638e-10 1.8966512094416906e-09 4.4890282665820212e-09 3.5475166726222044e-10 1.6284316091416809e-09 1.2512042945620043e-10 1.592667398945297e-09 1.1168946833827039e-11 1.0672042231985877e-09 5.0661787282289578e-10 -1.8039147351667632e-10 6.3927859279888465e-09 6.0024540612001832e-09 1.5765385342526541e-09 1.3894025676651783e-09 4.5452308530404912e-09 1.4435953751646063e-08 5.2779792381627975e-09 7.0177912948968341e-09 1.7604338993631403e-08 3.5145425237101191e-09 2.1701577853262301e-08 1.2165675897748857e-08 2.5195288521622927e-08 5.0885435255369268e-08 1.1265666845456851e-08 5.0995113239382827e-08 2.6137562198675096e-08 1.5032904498066245e-07 2.5004820014757455e-07 5.0637509470936977e-08 9.0266566936766742e-08 8.1973367484822687e-09 6.9349079711923771e-08 1.0955957549692472e-07 3.4808613551012769e-08 2.2768038207415183e-07 4.3729263435707979e-08 3.1365308017739195e-07 3.537792285215078e-07 4.2046043650606108e-08 1.4636697864220996e-08 8.2426703342293514e-08 1.7136621049831029e-08 2.2413444357364044e-08 2.1730824037575457e-09 2.5306854125092843e-08 6.6878189276160793e-09 4.9015875514261684e-09 3.3004031567852419e-08 -1.8790123605261298e-09 2.560385441011706e-08 3.1557113949907927e-08 2.0379670506830944e-08 1.5203498090163241e-09 4.1228617633553359e-08 5.9161713173379348e-08 1.1