<?xml version="1.0"?>
<VTKFile type="UnstructuredGrid" version="0.1" byte_order="LittleEndian">
<UnstructuredGrid>
<Piece NumberOfPoints="6397" NumberOfCells="2159">
<Points>
<DataArray type="Float64" NumberOfComponents="3" format="ascii">
100 0 20 96.2500000000255 0 20.7499999999949 96.2500000000255 0 20.7499999999949 92.500000000051 0 21.4999999999898 92.500000000051 0 21.4999999999898 88.7500000000765 0 22.2499999999847 88.7500000000765 0 22.2499999999847 85.000000000102 0 22.9999999999796 85.000000000102 0 22.9999999999796 81.2500000001276 0 23.7499999999745 81.2500000001276 0 23.7499999999745 77.5000000001531 0 24.4999999999694 77.5000000001531 0 24.4999999999694 73.7500000001786 0 25.2499999999643 73.7500000001786 0 25.2499999999643 70.0000000002015 0 25.9999999999597 70.0000000002015 0 25.9999999999597 66.2500000001442 0 26.7499999999711 66.2500000001442 0 26.7499999999711 62.5000000001031 0 27.4999999999794 62.5000000001031 0 27.4999999999794 58.7500000000859 0 28.2499999999828 58.7500000000859 0 28.2499999999828 55.0000000000687 0 28.9999999999863 55.0000000000687 0 28.9999999999863 51.2500000000515 0 29.7499999999897 51.2500000000515 0 29.7499999999897 47.5000000000343 0 30.4999999999931 47.5000000000343 0 30.4999999999931 43.7500000000172 0 31.2499999999966 43.7500000000172 0 31.2499999999966 40 0 32 0 0 40 3.63636363636075 0 39.2727272727278 3.63636363636075 0 39.2727272727278 7.27272727271708 0 38.5454545454566 7.27272727271708 0 38.5454545454566 10.9090909090705 0 37.8181818181859 10.9090909090705 0 37.8181818181859 14.5454545454239 0 37.0909090909152 14.5454545454239 0 37.0909090909152 18.1818181817863 0 36.3636363636427 18.1818181817863 0 36.3636363636427 21.8181818181552 0 35.636363636369 21.8181818181552 0 35.636363636369 25.4545454545242 0 34.9090909090952 25.4545454545242 0 34.9090909090952 29.0909090908931 0 34.1818181818214 29.0909090908931 0 34.1818181818214 32.7272727272621 0 33.4545454545476 32.7272727272621 0 33.4545454545476 36.363636363631 0 32.7272727272738 36.363636363631 0 32.7272727272738 40 0 32 40 0 32 43.7499999999556 0 32 43.7499999999556 0 32 47.4999999999112 0 32 47.4999999999112 0 32 51.2499999998668 0 32 51.2499999998668 0 32 54.9999999998237 0 32 54.9999999998237 0 32 58.7499999998668 0 32 58.7499999998668 0 32 62.4999999999112 0 32 62.4999999999112 0 32 66.2499999999556 0 32 66.2499999999556 0 32 70 0 32 80 0 50 78.3333333333333 0 47 78.3333333333333 0 47 76.6666666666667 0 44 76.6666666666667 0 44 75 0 41 75 0 41 73.3333333333333 0 38 73.3333333333333 0 38 71.6666666666667 0 35 71.6666666666667 0 35 70 0 32 0 0 60 3.84615384613873 0 60.3846153846139 3.84615384613873 0 60.3846153846139 7.69230769227705 0 60.7692307692277 7.69230769227705 0 60.7692307692277 11.5384615384111 0 61.1538461538411 11.5384615384111 0 61.1538461538411 15.3846153845452 0 61.5384615384545 15.3846153845452 0 61.5384615384545 19.2307692306913 0 61.9230769230691 19.2307692306913 0 61.9230769230691 23.0769230768389 0 62.3076923076839 23.0769230768389 0 62.3076923076839 26.9230769229866 0 62.6923076922987 26.9230769229866 0 62.6923076922987 30.7692307691342 0 63.0769230769134 30.7692307691342 0 63.0769230769134 34.6153846153013 0 63.4615384615301 34.6153846153013 0 63.4615384615301 38.461538461476 0 63.8461538461476 38.461538461476 0 63.8461538461476 42.3076923076507 0 64.2307692307651 42.3076923076507 0 64.2307692307651 46.1538461538253 0 64.6153846153825 46.1538461538253 0 64.6153846153825 50 0 65 100 0 70 96.1538461538705 0 69.615384615387 96.1538461538705 0 69.615384615387 92.3076923077409 0 69.2307692307741 92.3076923077409 0 69.2307692307741 88.4615384616114 0 68.8461538461611 88.4615384616114 0 68.8461538461611 84.6153846154819 0 68.4615384615482 84.6153846154819 0 68.4615384615482 80.7692307693523 0 68.0769230769352 80.7692307693523 0 68.0769230769352 76.9230769232228 0 67.6923076923223 76.9230769232228 0 67.6923076923223 73.0769230770932 0 67.3076923077093 73.0769230770932 0 67.3076923077093 69.2307692309637 0 66.9230769230964 69.2307692309637 0 66.9230769230964 65.3846153847559 0 66.5384615384756 65.3846153847559 0 66.5384615384756 61.5384615385509 0 66.1538461538551 61.5384615385509 0 66.1538461538551 57.6923076923673 0 65.7692307692367 57.6923076923673 0 65.7692307692367 53.8461538461836 0 65.3846153846184 53.8461538461836 0 65.3846153846184 50 0 65 90 0 85 86 0 85 86 0 85 82 0 85 82 0 85 78 0 85 78 0 85 74 0 85 74 0 85 70 0 85 50 0 65 52.5000000000134 0 67.5000000000134 52.5000000000134 0 67.5000000000134 55.0000000000267 0 70.0000000000267 55.0000000000267 0 70.0000000000267 57.5000000000401 0 72.5000000000401 57.5000000000401 0 72.5000000000401 60.0000000000534 0 75.0000000000534 60.0000000000534 0 75.0000000000534 62.5000000000668 0 77.5000000000668 62.5000000000668 0 77.5000000000668 65.0000000000621 0 80.0000000000621 65.0000000000621 0 80.0000000000621 67.500000000031 0 82.500000000031 67.500000000031 0 82.500000000031 70 0 85 21.675917966806 0 58.293993672197 25.0145825120559 0 59.7621078184101 25.4563858642169 0 55.1406601798004 25.0145825120559 0 59.7621078184101 27.5467286234625 0 58.1094694967092 25.4563858642169 0 55.1406601798004 49.9419155678007 0 78.1885408663585 47.766010514731 0 75.1016448555653 45.1924641448198 0 76.7261131796381 96.0000000000284 0 0 92.0000000000569 0 0 96.0863676990316 0 3.5195506878408 92.0000000000569 0 0 91.6524216937743 0 3.47954008374637 96.0863676990316 0 3.5195506878408 34.311254982409 0 50.0989498882131 38.0762372722905 0 50.5603991268075 35.9740654918131 0 48.1041898350216 39.5057970784499 0 20.2458990997172 40.4723884107421 0 18.7054590840531 37.3401026548388 0 18.5731004353766 70 0 85 74 0 85 72.3396268234904 0 81.4876396019497 34.7008612312251 0 81.7680227277384 38.2868665422914 0 80.9385435284514 36.8483085474196 0 78.0690064396272 26.9109737460383 0 80.9205067127261 25.3603413849876 0 76.3301262136477 22.8880111407408 0 80.1786086664231 43.7499999999556 0 32 41.8749999999778 0 32.9736584671644 43.3951198859422 0 33.0043378455136 36.8725029393543 0 91.6195011029065 41.1420256418033 0 94.5071733357392 41.6540914287177 0 91.0922462373955 12.8462104276392 0 54.3976505008619 9.6545166402941 0 51.8316666831948 9.81977900269509 0 57.0138470504211 88.7500000000765 0 22.2499999999847 85.000000000102 0 22.9999999999796 88.0682728739904 0 26.5358160249556 11.5384615384111 0 61.1538461538411 11.7077711626653 0 65.7786968815283 15.0171713611185 0 65.0066681164643 37.4187223337057 0 10.0219947944455 37.6468828187685 0 6.74727366365042 33.8431137362003 0 7.5306290288939 36.8725029393543 0 91.6195011029065 37.6841976813499 0 96.2666229949884 41.1420256418033 0 94.5071733357392 84.113602263638 0 42.2225272435147 88.2764464407751 0 42.0797431589015 87.250974773525 0 39.2425326369365 7.5177597777497 0 96.6904494624551 8.00000000005686 0 100 12.0000000000853 0 100 34.7008612312251 0 81.7680227277384 36.8483085474196 0 78.0690064396272 33.506011410249 0 78.1127437112994 82 0 85 78 0 85 81.0515106250016 0 88.9755925871098 24.5978828960292 0 13.5131740520934 26.4007616172216 0 9.93522431085102 22.3000151228596 0 9.39908933964015 4.81025145869752 0 33.9684074701317 7.27272727271708 0 38.5454545454566 8.05404049231867 0 35.1949063117734 32.7272727272621 0 33.4545454545476 29.0739346493591 0 37.5187434811517 33.1356683143134 0 37.5588999411378 53.9930872535813 0 87.2019655410669 49.1919583721205 0 88.0174095199274 52.6827316193392 0 91.5362380185792 6.78795892144982 0 93.4226745623084 10.8820338662222 0 91.8965331115229 7.63324200476208 0 89.9332564458413 7.27272727271708 0 38.5454545454566 10.188115019852 0 42.2084920353402 10.9090909090705 0 37.8181818181859 0 0 52 4.06618231825297 0 49.9170379535964 0 0 48 12.7069319928587 0 26.3747159101097 14.3209617957744 0 23.3261926876144 10.1780072777264 0 21.724671481348 44.1219958760207 0 23.3599793799693 42.4908127324576 0 24.0023383765472 44.3789578125687 0 25.1878048115586 55.9290463644077 0 42.0086470064677 57.6223061798543 0 44.137331252795 59.0426729119356 0 41.4007107928424 52.5579325619535 0 48.3465433858771 50.9167489761398 0 45.5114961526132 49.4723816188714 0 47.2501081954944 0 0 32 2.98003072887789 0 36.3454204022568 4.81025145869752 0 33.9684074701317 6.43913901582024 0 53.629060289644 9.81977900269509 0 57.0138470504211 9.6545166402941 0 51.8316666831948 41.8381759952109 0 28.5962158683151 39.7430548528196 0 29.0534788680084 41.7435524749295 0 30.0715960120841 52.5000000000134 0 67.5000000000134 51.383870739564 0 70.836836133141 55.0000000000267 0 70.0000000000267 84.113602263638 0 42.2225272435147 81.0910871601693 0 44.9762139849501 84.0715162116443 0 46.807430176734 84.113602263638 0 42.2225272435147 84.0715162116443 0 46.807430176734 86.5625249214669 0 44.7621857010387 10.9287826801162 0 95.5532822128902 7.5177597777497 0 96.6904494624551 12.0000000000853 0 100 34.7008612312251 0 81.7680227277384 34.288858415674 0 87.3491385806091 38.3892720651929 0 84.5574172207502 92.1627113433145 0 29.0026615342966 94.95514000599 0 26.0982689586129 91.2872248446845 0 25.0773493035679 13.802175819838 0 49.6085781459401 16.2805100639604 0 46.225526696013 12.1986605598629 0 45.9511153686245 46.4124650824814 0 79.5349827707462 49.9419155678007 0 78.1885408663585 45.1924641448198 0 76.7261131796381 100 0 27.6923076922923 94.95514000599 0 26.0982689586129 96.1841374724307 0 29.86264300504 19.2307692306913 0 61.9230769230691 23.0769230768389 0 62.3076923076839 21.675917966806 0 58.293993672197 85.000000000102 0 22.9999999999796 83.5374765952866 0 26.3372812903618 88.0682728739904 0 26.5358160249556 38.4437091124965 0 54.3206555713126 38.0762372722905 0 50.5603991268075 35.1771539129461 0 52.7624253223453 62.5000000001031 0 27.4999999999794 64.1164308283144 0 23.1878742474634 60.8459992531889 0 23.6245461029884 39.4617118136333 0 17.0918902836073 37.3401026548388 0 18.5731004353766 40.4723884107421 0 18.7054590840531 24.493726856401 0 43.514547236196 27.023803047341 0 39.4406690016693 22.883969777218 0 39.8005305421315 2.9
[...]
<PointData Scalars="I_conc," Vectors="" Tensors="">
<DataArray type="Float64" Name="I_conc" format="ascii">
4.40730636712356e-07 4.66183667002256e-07 4.68953673854312e-07 5.33475232320686e-07 5.34680810132166e-07 6.24318713676299e-07 6.25220977933527e-07 7.33954152932581e-07 7.35120933285032e-07 8.63757800043121e-07 8.64848976257654e-07 1.01510339569035e-06 1.01589884906535e-06 1.1858330857781e-06 1.18713431348277e-06 1.38010466000328e-06 1.38152705834055e-06 1.60028589734031e-06 1.60153165327086e-06 1.84228538976196e-06 1.84405054961158e-06 2.10523648463783e-06 2.10656113329581e-06 2.38364337031579e-06 2.38460343313275e-06 2.67033443324521e-06 2.67073791957095e-06 2.95371447163334e-06 2.95402353271801e-06 3.22402929661007e-06 3.22475875135737e-06 3.46910737611636e-06 7.30694566611428e-08 1.1997563512631e-06 1.21134811588225e-06 2.11507633261335e-06 2.13692523663991e-06 2.83663303942198e-06 2.84981261984695e-06 3.38352232767396e-06 3.39283718284772e-06 3.74970750993624e-06 3.76047862910689e-06 3.95282310190185e-06 3.9616985951924e-06 4.02686141021747e-06 4.03026718496504e-06 3.99630221403333e-06 4.00106668689624e-06 3.87257141315149e-06 3.8761328638965e-06 3.68814559920502e-06 3.68730271086951e-06 3.45840771590797e-06 3.46903002279924e-06 3.05332653532917e-06 3.04839627538359e-06 2.55087717950226e-06 2.54901803550077e-06 2.04214006674704e-06 2.03792739760323e-06 1.56492885831947e-06 1.55922472181089e-06 1.15474703747736e-06 1.15209044297207e-06 8.19691383366112e-07 8.1609796200819e-07 5.68601855270705e-07 5.71227358119272e-07 3.83486008676906e-07 4.05786350339592e-09 3.25753255914632e-09 3.41501344761744e-09 7.21701295108705e-09 6.7948668196119e-09 2.1835347689467e-08 2.07981102507267e-08 6.16006097918417e-08 6.18000022805931e-08 1.56422991657823e-07 1.60283542875962e-07 3.59524972341081e-07 8.49637469843755e-08 1.22654308426624e-06 1.24144130752258e-06 2.18483131241164e-06 2.20470930628725e-06 2.91405346266599e-06 2.92754263365776e-06 3.45068761481329e-06 3.45853908298851e-06 3.80848707870985e-06 3.81644136403829e-06 3.98793946282425e-06 3.99435328857723e-06 4.03334269535651e-06 4.03776511293242e-06 3.96814138976968e-06 3.97205760482016e-06 3.82089847545182e-06 3.82332706942107e-06 3.61258101407182e-06 3.61332833900102e-06 3.36255850984396e-06 3.36317698500311e-06 3.08617355633021e-06 3.08521174193898e-06 2.796015622475e-06 4.82996791965445e-07 5.10960127330072e-07 5.13438130643268e-07 5.84076177892049e-07 5.85262150219282e-07 6.81897563771142e-07 6.83018950228138e-07 8.01304490659365e-07 8.02522286474291e-07 9.41928531974803e-07 9.43382220907575e-07 1.10562223153312e-06 1.10671490922343e-06 1.29115245064217e-06 1.29236895415092e-06 1.49929051033081e-06 1.50060452816001e-06 1.72856585937315e-06 1.73041209054865e-06 1.98092300192197e-06 1.98219269796911e-06 2.25052039527136e-06 2.25184135776634e-06 2.53254506701799e-06 2.53329204466315e-06 2.80430267204066e-06 3.72852838608616e-09 3.94907408454399e-09 3.87126957240045e-09 4.4365856391749e-09 4.41745836460632e-09 5.26516588266652e-09 5.19019055086628e-09 6.75148971855564e-09 6.70366500268811e-09 1.08257060398975e-08 2.80420995330802e-06 1.97164577911955e-06 1.94068634673299e-06 1.20702477764e-06 1.20173251533507e-06 6.43242110254103e-07 6.35310125290072e-07 3.25942294546513e-07 3.20283903110265e-07 1.48233241431617e-07 1.49313090465028e-07 6.44925455242355e-08 6.57031404142841e-08 2.78422678481501e-08 2.85304470067503e-08 1.08639070861011e-08 3.57300805160533e-06 3.75231220929829e-06 1.72882689972976e-06 3.74266031675556e-06 2.75650954525748e-06 1.74638348248278e-06 1.00027265115319e-07 2.73254033490777e-07 1.89810351410748e-07 6.70692913959193e-10 8.49809121788918e-10 1.04938818189928e-09 3.13387299859993e-10 1.39113700092033e-09 1.6782273849179e-09 3.57849115218316e-07 2.70026536995289e-07 2.4724423919921e-07 2.36403330078357e-07 1.56326733646999e-07 1.4485761429981e-07 1.08259061007862e-08 6.70378080733729e-09 1.81812915716883e-08 4.15658529137004e-08 5.31316328076593e-08 1.16759876528851e-07 5.22161513637549e-08 2.36025772040208e-07 9.85683861101378e-08 3.03969252725721e-06 2.91257585755857e-06 2.70278612962708e-06 1.25091158620565e-09 1.03699600867823e-10 1.23609563771942e-09 3.25484874891618e-06 2.70551831757723e-06 4.59695004026363e-06 6.2521983427066e-07 7.33952144560152e-07 1.00986079785951e-07 4.69725248994755e-06 4.38509648008412e-06 4.10245272636827e-06 5.88202456678799e-09 1.74498621159884e-09 3.19510944644401e-09 8.67324295336202e-10 6.09301904157571e-11 4.22566331647521e-10 3.23098342956245e-09 1.28089551558816e-09 4.21782598149856e-09 2.36233084360397e-10 1.68307693120789e-10 2.10247515463265e-10 1.77566918235161e-08 1.42213666971691e-07 1.46185187852681e-07 4.41737595048162e-09 5.26505823947787e-09 -3.09541610883826e-10 1.76656442157291e-08 6.5519966837793e-09 4.40466313988536e-09 4.72221347158827e-06 4.02560035647348e-06 4.54440160925751e-06 4.13118856500354e-06 3.06660221718577e-06 2.56045586682361e-06 4.90401491761977e-09 4.22935907744573e-09 -3.89100693765476e-10 8.66156608119068e-10 2.17615246560422e-09 3.74539882904634e-09 2.13694356552974e-06 6.21660291636745e-06 2.83663951200182e-06 3.17906235713049e-06 3.40044933630712e-06 3.12418559966565e-06 9.71283317320003e-07 5.23276497848797e-07 2.44239895982925e-07 6.29497394427835e-07 7.62727911285457e-07 1.00764872767813e-06 1.0124182247474e-07 3.6936964931794e-08 9.11834512206282e-08 4.42643474135851e-08 6.46958256302919e-08 6.93438523511315e-08 3.6182305735113e-06 4.93230511054796e-06 4.26714661520073e-06 3.73266019199166e-06 4.51475475767811e-06 2.77027670893562e-06 2.14982360796077e-06 2.328939236926e-06 2.76514874886169e-06 1.94066129146859e-06 8.88367883148934e-07 1.20701682254497e-06 2.6399062133811e-09 2.84628009829027e-09 9.81537918244917e-10 2.26442149017375e-09 1.29917081371445e-09 1.16136728351542e-09 4.45099428956265e-10 4.06330380679537e-10 1.94489364652149e-11 3.20329780127815e-08 -4.71124929995249e-10 1.73132841244572e-08 5.16431960171868e-08 1.32699348196812e-07 2.09327185205757e-07 1.65354659636232e-06 2.06788696328727e-06 2.72503557136191e-06 6.3047770944538e-08 1.25415259372638e-07 1.66394606773268e-07 6.49949107464071e-08 1.0608175546654e-07 2.85731128750166e-08 3.81644960334277e-06 3.9879408302383e-06 4.51377136153129e-06 6.45656245376056e-07 3.81203730584088e-07 1.66709306272242e-07 5.91499041679902e-07 1.92142246372943e-07 5.58320396189045e-07 1.64984289474077e-06 6.52297610577856e-07 7.52849358200324e-07 8.44392589443209e-08 1.48090205188407e-07 1.54466420797394e-07 1.46999499093402e-06 2.77652831554467e-06 3.28541079693762e-06 3.80693866492355e-06 3.02174095931784e-06 5.33410590891139e-06 1.97165946438719e-06 2.53329195060589e-06 2.804294815878e-06 4.91721085501355e-07 2.6806834492832e-07 3.48927036129708e-07 3.30113181589803e-08 2.74514041547789e-08 7.07759402734345e-08 6.48945060683308e-07 4.91722271948894e-07 2.20967909591535e-07 9.41308240487513e-07 1.11973790337868e-06 1.03416205101245e-07 1.86519874782041e-09 6.53140045530262e-10 8.19928769368389e-10 1.05973061980803e-09 1.06489732328734e-08 1.59320247853694e-08 7.59109296888487e-08 2.5563017968208e-08 1.12307765853196e-07 4.17294335008731e-08 1.97848868382006e-07 1.28902298437697e-07 4.58703050627298e-06 3.8730938130897e-06 4.15742457498847e-06 1.39096299682605e-09 1.71868691599612e-10 1.71833322817491e-09 7.00364015217295e-09 7.37175117997691e-09 2.2126996410617e-08 2.87733686590267e-12 5.89507863393225e-11 6.95599457506622e-11 4.37042723370908e-07 8.51371654329581e-08 2.26388735935893e-07 1.48120916610762e-06 2.43970034776855e-06 2.91656920333988e-06 -1.01130862250241e-09 2.39482237764632e-08 3.08003484737417e-08 3.20277095325167e-07 8.95373722224552e-08 1.48233286556746e-07 4.52689951283866e-06 2.88221324755212e-06 3.41965448575132e-06 9.17310770370475e-08 2.95621186887207e-07 4.19644050797187e-07 2.70281103438886e-09 8.4010368341565e-10 1.84686486684556e-09 1.25368238389624e-06 5.1678802329879e-07 6.56522257900031e-07 1.74837538342153e-08 8.90597745590981e-09 1.62742682255298e-08 2.95625742692439e-06 1.69792839006699e-06 2.92923299438822e-06 1.82008970741333e-08 2.17973185541932e-07 2.81383738710715e-07 1.66062120792604e-07 1.98821482657937e-07 3.34286548781884e-08 1.04697554163647e-07 8.5425163763828e-08 1.81995726504995e-07 6.18013731815368e-08 2.6259200176009e-07 1.5122224726133e-07 1.18581920639693e-10 2.17788003252366e-10 1.20664888973992e-10 3.88580167086848e-11 8.71294370115338e-11 5.86035625016115e-11 6.87623384100632e-08 2.38759343266636e-07 3.41840934048536e-07 6.16982805838546e-08 2.90690110334549e-07 4.35820568414523e-07 2.51217117047011e-06 2.56062678007311e-06 2.06397796351403e-06 4.23636160402588e-07 2.8943309574996e-07 6.17064757612431e-08 1.28140625537831e-06 1.79165660948036e-06 1.95553767732613e-06 1.53906218613225e-06 6.1885002209636e-07 9.78140486302708e-07 1.28521658675198e-08 7.31420631370957e-09 2.75865235306422e-09 2.40786464556173e-09 2.66392770680062e-09 5.20558262887956e-11 4.52672973704834e-06 3.81288709525663e-06 3.2920258104387e-06 1.68992426329238e-07 1.80606470265717e-07 4.31818971226372e-07 2.13182473379215e-11 6.72321876126094e-10 7.68141485935845e-10 3.05967444827078e-08 2.23332846027775e-08 1.22659668950785e-08 3.93107691368452e-09 1.42812143108626e-09 9.42983340994736e-10 5.84866352442088e-10 8.67821803578882e-10 -3.44202794318004e-11 1.75007260947084e-06 1.7777894739974e-06 1.12235156896699e-06 4.00107071240152e-06 3.39520224349022e-06 3.87256826106741e-06 3.99789005706881e-13 6.08125030097579e-11 5.66965012817564e-11 1.70526084467187e-07 1.57810508686074e-07 1.17647428439506e-08 2.83785493736673e-09 2.42921283098924e-09 1.14002483635617e-09 6.57623152328084e-09 2.17453021393911e-08 3.49195274785831e-08 3.53984734106562e-09 1.16927105975333e-08 6.42918724271672e-09 3.7604884471559e-06 3.9528225177455e-06 4.54703013785752e-06 1.87872734917919e-08 2.27351603865013e-08 1.16280964953955e-10 1.38727024772549e-06 5.33268740010291e-07 1.62077746735988e-06 1.65496937658561e-10 1.82210058808565e-09 1.56772642447895e-09 6.39795784030293e-08 2.47554294159029e-07 1.47387656315381e-07 4.38015310437322e-10 3.20720099547366e-11 8.01040167716291e-10 1.09796607663276e-07 1.41504649109845e-07 2.50182822087173e-07 5.13436962331276e-07 1.03384600607094e-07 5.84074795595867e-07 1.32071020217533e-06 9.20055446473204e-07 4.49928006988855e-07 4.01844351864153e-06 4.89049997263034e-06 3.08108029047079e-06 3.49667877161595e-10 2.65353458333593e-10 3.80897722053038e-10 6.18970046674774e-10 2.56526750859659e-10 1.52696889899684e-09 3.5443156594963e-06 4.37390953501677e-06 4.65835728546274e-06 1.82951108067022e-09 5.80486305169297e-09 6.56198069506577e-09 3.0153363430101e-09 1.48504629757905e-08 1.89550288590206e-08 3.56503333573278e-08 2.40824008492627e-08 -2.71578720504654e-09 2.68954241615995e-08 7.66216836348777e-08 4.97472153725358e-08 4.89127132768299e-08 4.62953472586457e-08 1.42448075752516e-08 4.82996006571787e-07 1.06048955951504e-07 5.10958863732556e-07 2.09417595639318e-06 2.94173839175513e-06 2.47768743832053e-06 9.98108589775704e-10 4.29508431738737e-09 6.07245574442609e-09 1.69900363007098e-08 1.3388494070594e-08 3.53525465823133e-09 3.72336176407582e-08 1.33530915611834e-07 9.51158122505416e-08 2.45189572001844e-11 2.01729826899048e-10 2.44279554561487e-10 4.727174304095e-08 7.4341220814166e-08 3.86649141684398e-08 1.20602054157578e-07 1.95282509803367e-07 2.70467415747933e-08 8.16939174957797e-09 1.13834325545933e-09 6.904527352306e-09 4.69329716511065e-10 7.72778546941592e-10 1.3598791207484e-09 4.29229199331982e-07 5.51119992506529e-07 6.68031923550999e-07 3.72857874336482e-09 3.949095654013e-09 -3.63690949826449e-12 3.69833502523066e-08 1.43763756222203e-09 3.99625115648887e-08 2.10763501081579e-11 3.40101563122641e-11 3.00471224050485e-11 6.65328240737268e-07 1.84350966266204e-07 7.53178984417032e-07 1.39155079704845e-06 1.67122294628147e-06 3.03250236783128e-06 5.57499096589448e-09 5.90932691236374e-09 1.65735795708418e-08 4.03828390249585e-08 1.83233437692365e-07 9.13149626614363e-08 6.62950855263883e-08 4.42367831408227e-08 9.61665995431117e-09 4.7493760507097e-10 1.40171600788653e-09 1.26064478571016e-09 1.25842092212824e-06 3.98729231673599e-07 7.79032122882323e-07 4.28567137357684e-08 2.04290036034288e-08 2.00126801360956e-08 2.06281065894246e-08 4.92276826830709e-09 2.56907479228626e-08 6.43622229309852e-06 1.22654929064546e-06 8.49914648829093e-08 9.32182771912438e-10 4.54230362212298e-09 1.65680587148135e-09 3.07008785400629e-07 1.08428367959437e-07 2.96885895964546e-07 6.24416293214048e-08 7.86745878111593e-08 1.98562617814098e-08 1.63754220449967e-06 1.56833807548191e-06 2.63107729440629e-06 7.33112917850255e-08 4.28209541670178e-09 7.98190544111779e-08 3.41513090393317e-09 2.44187756588238e-09 7.21707116716722e-09 5.02895871244601e-07 1.78875927806321e-07 2.45026124188437e-07 7.84626832915778e-07 4.40470650677623e-07 8.62071652735507e-07 1.21963771342083e-07 5.63303424552715e-08 3.33366693043769e-08 2.10034685972855e-08 8.30584065026548e-08 7.89001068818229e-08 1.59446705068955e-10 2.11856202119281e-08 2.24080243054134e-08 2.2544969287442e-06 2.56511068382526e-06 1.99110325849949e-06 1.1245696337488e-06 3.27299339086752e-06 3.09681700659697e-06 7.87324031457116e-07 7.09098341130101e-07 4.18723163105e-07 1.07564336643109e-07 2.31935184168792e-07 2.89269798718158e-07 2.68891368588555e-07 2.85304456064716e-07 6.61091870127698e-07 2.42388616001693e-08 1.96582107686836e-08 7.97252442653395e-09 1.57786855132148e-09 6.83466458284286e-10 6.68720370817426e-10 1.81476172276987e-09 4.73252127106646e-11 1.16238060568345e-09 2.55387649093231e-06 2.25816637921435e-06 2.77458379043487e-06 5.08954379286909e-08 6.3623733920519e-08 6.80947587254141e-08 3.82421621789132e-07 6.29241486773419e-07 3.62829309641688e-07 3.06977374395852e-06 1.95872068150716e-06 1.83826004795057e-06 1.37475885220996e-10 1.9571355142319e-08 2.44575805625263e-08 5.31635129486368e-08 1.29033474933144e-08 2.28803416466647e-08 1.24146193770253e-06 6.01564193403477e-06 2.18483825295332e-06 2.0573539053824e-08 4.36355036300734e-08 6.98028443870944e-08 1.89276113309955e-08 1.54645107259242e-08 7.23583517886936e-09 1.01578439513394e-08 9.42339147823074e-10 9.32562773726647e-09 2.15048802212501e-08 8.89799362392158e-09 7.84312664449381e-09 1.13388516882354e-07 3.13659034924487e-08 9.98823122906148e-08 9.43648927179208e-07 6.18923959563641e-07 1.31139636716353e-06 1.73844277672656e-08 2.58793023820638e-09 1.53232301062915e-08 7.61890632949636e-09 3.59805154890648e-08 2.89859251191609e-08 4.83094011012685e-07 8.04957095770335e-07 6.82345028810244e-07 2.46869107828093e-11 3.31538121164066e-11 2.09418792274524e-11 4.61940977274476e-07 8.52992770297061e-08 3.32504465201342e-07 3.22078348960172e-12 4.92078120556803e-10 4.57497949522925e-10 2.13431735292707e-10 1.65111407672196e-10 2.91359938556963e-10 3.66136701114854e-06 3.68588141621995e-06 2.98509108012724e-06 1.66915770061587e-07 7.40989784802182e-07 7.04995082842155e-07 4.67551383811122e-09 6.76501592040171e-09 1.66542046101042e-08 2.247767557051e-09 5.08403978005808e-09 7.78329402225034e-09 2.79601312963839e-06 3.08520815254979e-06 1.86722838824379e-06 1.26842020372156e-08 1.45235271367061e-08 1.08126182737562e-08 3.0197260430835e-09 6.39718909330177e-09 1.03557984333072e-08 2.02847503392145e-08 3.57937160922707e-08 1.36082429301645e-08 1.19690472579896e-06 1.04395091085008e-06 7.22041459404867e-07 2.92173147726228e-10 6.80734076956647e-10 7.37726371748478e-10 4.30670317041336e-06 4.27257937114319e-06 4.20375831007784e-06 2.83803600867122e-06 1.93027191861114e-06 3.93154934818553e-06 4.03027067916756e-06 3.77725268346782e-06 3.99630293522003e-06 2.92755259076852e-06 5.55737450921609e-06 3.45069433310944e-06 1.08636398749204e-08 3.27844865003399e-08 2.8531023832443e-08 2.74749413695127e-07 8.27103299296367e-07 7.50466554212038e-07 6.1800963500679e-08 9.02678776311548e-08 1.56425604435542e-07 1.88879707115175e-06 3.55760711954564e-06 2.71188047546825e-06 3.21516920440757e-06 3.90309150852281e-06 1.96246265551962e-06 1.28640157282483e-10 1.56795422341231e-09 1.87699604989508e-09 2.8362712373797e-09 7.03454599781617e-10 1.12967723722985e-09 2.97066979638571e-06 2.55819666443882e-06 2.54665405743685e-06 4.50264915574309e-07 2.54547839821932e-07 7.9912667262244e-08 4.29899365866261e-06 4.02476656850249e-06 4.54833377164404e-06 3.17897828130577e-07 2.51323549223585e-07 7.5722459009755e-08 2.10348278670629e-07 9.62379455362117e-08 1.99503829334735e-07 9.43380551726825e-07 3.03527415605843e-07 1.10561953756291e-06 1.83062140305816e-06 2.67567926052706e-06 1.05645718562263e-06 4.75535951161461e-09 2.49272364545455e-08 3.71593559396046e-08 3.74806129280364e-08 5.89406111736925e-08 7.14255261092097e-08 1.74130144690903e-07 2.00307920900426e-07 2.32983478508516e-07 4.65356866892359e-06 3.36847178009868e-06 2.86464353431747e-06 4.57526888741551e-07 3.48666107619525e-07 8.64105264417664e-07 3.87143942337577e-09 1.30808599735514e-08 4.43680301673103e-09 2.91825137882404e-09 5.20592628906775e-09 1.20283869996431e-09 1.66157354531889e-08 2.5839101911793e-08 4.82812654694992e-09 4.14813524635434e-08 2.50793036089547e-08 1.6574167475574e-08 4.63877244342438e-06 3.63633289036171e-06 3.62490021376566e-06 1.75786927508432e-08 9.22491286807463e-09 6.77071921649656e-09 3.29374608419523e-06 4.4141808375743e-06 2.82226140055306e-06 5.77719430706588e-09 3.67611406784035e-10 6.02935741316345e-09 3.54349827461167e-11 7.93720032073624e-10 5.49522938487381e-10 1.21451473702384e-08 4.05751315044139e-09 2.13283334246246e-08 5.15073823436799e-07 3.20899897971593e-07 1.89472016526939e-07 2.87748927629913e-08 1.21052136474828e-08 9.51199659791523e-09 2.19271145213177e-06 6.51589639305468e-07 1.47434003072869e-06 1.42641395941772e-06 1.41307648330903e-06 5.85194644713712e-07 5.73247145040452e-08 7.6616575563552e-09 8.22556298866624e-08 1.16172189693696e-06 2.22571926346443e-06 2.45454907813211e-06 1.56161545669765e-06 1.55617325247487e-06 8.14929469415974e-07 4.21631709143447e-10 7.22834331866083e-10 8.36125523582868e-11 6.14112517550839e-09 3.92108456835166e-09 8.78325247185024e-10 1.5413951154108e-07 1.1740701959686e-07 4.61962644084972e-08 1.37001273973278e-07 4.0093466377215e-08 2.00750663881726e-07 3.59819120753934e-07 1.00581149374421e-06 1.01212695680029e-06 1.01676884584764e-06 1.60104985606751e-06 1.0229390707439e-06 1.94668765684868e-06 2.61187009777862e-06 1.15474237186153e-06 9.49307181784488e-09 5.89092953320713e-09 5.12258103326952e-09 1.84326482320311e-06 9.12458439117638e-07 9.61856324123384e-07 4.99916066110712e-10 2.67603852368281e-10 1.92009547675689e-10 1.91081300477189e-06 1.84044911756836e-06 8.10200385237926e-07 1.02954841766659e-06 3.66806037763422e-07 4.74295995927764e-07 7.49941789007062e-08 2.56087108055148e-07 1.46885151761168e-07 6.48324955101933e-07 3.7692052170743e-07 7.40222306966053e-07 1.18713213332478e-06 3.05403539187277e-07 1.38010165176723e-06 6.71643390401916e-08 2.84093643844448e-08 8.57754997332038e-08 1.88214520453331e-07 2.14317411883186e-07 2.34928338676364e-08 2.03879393303845e-08 4.20070227198208e-09 2.0523691916427e-08 1.93760869680719e-06 5.49728075582459e-07 2.27242280201009e-06 2.65570233453373e-08 2.33832265082508e-07 2.26928464742961e-07 1.29189128530991e-06 1.944822023581e-06 1.83996800600416e-06 -7.02885976779745e-11 5.61067302959738e-09 6.48430723482857e-09 2.70234971465551e-07 3.72900046111861e-07 1.1192786336707e-07 1.01129780650091e-08 7.97358845095378e-09 8.64674135260933e-10 9.12503823586901e-08 3.20563706552587e-07 1.65193298892827e-07 8.84534469337583e-10 1.41876476217692e-09 3.04367217042464e-09 1.91216468338458e-07 5.33773442293652e-07 7.10978065268192e-07 1.08252931011957e-08 1.90688623810632e-09 6.7036334576077e-09 1.50248462889011e-11 9.12921246350007e-11 1.14196978537417e-10 2.02372646409089e-06 1.02862429105973e-06 2.70267028948417e-06 2.13430930867739e-09 1.07843636622923e-09 5.12150669131504e-09 3.27594379072219e-06 2.85399228803544e-06