<?xml version="1.0"?>
<VTKFile type="UnstructuredGrid" version="0.1" byte_order="LittleEndian">
<UnstructuredGrid>
<Piece NumberOfPoints="6397" NumberOfCells="2159">
<Points>
<DataArray type="Float64" NumberOfComponents="3" format="ascii">
100 0 20 96.2500000000255 0 20.7499999999949 96.2500000000255 0 20.7499999999949 92.500000000051 0 21.4999999999898 92.500000000051 0 21.4999999999898 88.7500000000765 0 22.2499999999847 88.7500000000765 0 22.2499999999847 85.000000000102 0 22.9999999999796 85.000000000102 0 22.9999999999796 81.2500000001276 0 23.7499999999745 81.2500000001276 0 23.7499999999745 77.5000000001531 0 24.4999999999694 77.5000000001531 0 24.4999999999694 73.7500000001786 0 25.2499999999643 73.7500000001786 0 25.2499999999643 70.0000000002015 0 25.9999999999597 70.0000000002015 0 25.9999999999597 66.2500000001442 0 26.7499999999711 66.2500000001442 0 26.7499999999711 62.5000000001031 0 27.4999999999794 62.5000000001031 0 27.4999999999794 58.7500000000859 0 28.2499999999828 58.7500000000859 0 28.2499999999828 55.0000000000687 0 28.9999999999863 55.0000000000687 0 28.9999999999863 51.2500000000515 0 29.7499999999897 51.2500000000515 0 29.7499999999897 47.5000000000343 0 30.4999999999931 47.5000000000343 0 30.4999999999931 43.7500000000172 0 31.2499999999966 43.7500000000172 0 31.2499999999966 40 0 32 0 0 40 3.63636363636075 0 39.2727272727278 3.63636363636075 0 39.2727272727278 7.27272727271708 0 38.5454545454566 7.27272727271708 0 38.5454545454566 10.9090909090705 0 37.8181818181859 10.9090909090705 0 37.8181818181859 14.5454545454239 0 37.0909090909152 14.5454545454239 0 37.0909090909152 18.1818181817863 0 36.3636363636427 18.1818181817863 0 36.3636363636427 21.8181818181552 0 35.636363636369 21.8181818181552 0 35.636363636369 25.4545454545242 0 34.9090909090952 25.4545454545242 0 34.9090909090952 29.0909090908931 0 34.1818181818214 29.0909090908931 0 34.1818181818214 32.7272727272621 0 33.4545454545476 32.7272727272621 0 33.4545454545476 36.363636363631 0 32.7272727272738 36.363636363631 0 32.7272727272738 40 0 32 40 0 32 43.7499999999556 0 32 43.7499999999556 0 32 47.4999999999112 0 32 47.4999999999112 0 32 51.2499999998668 0 32 51.2499999998668 0 32 54.9999999998237 0 32 54.9999999998237 0 32 58.7499999998668 0 32 58.7499999998668 0 32 62.4999999999112 0 32 62.4999999999112 0 32 66.2499999999556 0 32 66.2499999999556 0 32 70 0 32 80 0 50 78.3333333333333 0 47 78.3333333333333 0 47 76.6666666666667 0 44 76.6666666666667 0 44 75 0 41 75 0 41 73.3333333333333 0 38 73.3333333333333 0 38 71.6666666666667 0 35 71.6666666666667 0 35 70 0 32 0 0 60 3.84615384613873 0 60.3846153846139 3.84615384613873 0 60.3846153846139 7.69230769227705 0 60.7692307692277 7.69230769227705 0 60.7692307692277 11.5384615384111 0 61.1538461538411 11.5384615384111 0 61.1538461538411 15.3846153845452 0 61.5384615384545 15.3846153845452 0 61.5384615384545 19.2307692306913 0 61.9230769230691 19.2307692306913 0 61.9230769230691 23.0769230768389 0 62.3076923076839 23.0769230768389 0 62.3076923076839 26.9230769229866 0 62.6923076922987 26.9230769229866 0 62.6923076922987 30.7692307691342 0 63.0769230769134 30.7692307691342 0 63.0769230769134 34.6153846153013 0 63.4615384615301 34.6153846153013 0 63.4615384615301 38.461538461476 0 63.8461538461476 38.461538461476 0 63.8461538461476 42.3076923076507 0 64.2307692307651 42.3076923076507 0 64.2307692307651 46.1538461538253 0 64.6153846153825 46.1538461538253 0 64.6153846153825 50 0 65 100 0 70 96.1538461538705 0 69.615384615387 96.1538461538705 0 69.615384615387 92.3076923077409 0 69.2307692307741 92.3076923077409 0 69.2307692307741 88.4615384616114 0 68.8461538461611 88.4615384616114 0 68.8461538461611 84.6153846154819 0 68.4615384615482 84.6153846154819 0 68.4615384615482 80.7692307693523 0 68.0769230769352 80.7692307693523 0 68.0769230769352 76.9230769232228 0 67.6923076923223 76.9230769232228 0 67.6923076923223 73.0769230770932 0 67.3076923077093 73.0769230770932 0 67.3076923077093 69.2307692309637 0 66.9230769230964 69.2307692309637 0 66.9230769230964 65.3846153847559 0 66.5384615384756 65.3846153847559 0 66.5384615384756 61.5384615385509 0 66.1538461538551 61.5384615385509 0 66.1538461538551 57.6923076923673 0 65.7692307692367 57.6923076923673 0 65.7692307692367 53.8461538461836 0 65.3846153846184 53.8461538461836 0 65.3846153846184 50 0 65 90 0 85 86 0 85 86 0 85 82 0 85 82 0 85 78 0 85 78 0 85 74 0 85 74 0 85 70 0 85 50 0 65 52.5000000000134 0 67.5000000000134 52.5000000000134 0 67.5000000000134 55.0000000000267 0 70.0000000000267 55.0000000000267 0 70.0000000000267 57.5000000000401 0 72.5000000000401 57.5000000000401 0 72.5000000000401 60.0000000000534 0 75.0000000000534 60.0000000000534 0 75.0000000000534 62.5000000000668 0 77.5000000000668 62.5000000000668 0 77.5000000000668 65.0000000000621 0 80.0000000000621 65.0000000000621 0 80.0000000000621 67.500000000031 0 82.500000000031 67.500000000031 0 82.500000000031 70 0 85 21.675917966806 0 58.293993672197 25.0145825120559 0 59.7621078184101 25.4563858642169 0 55.1406601798004 25.0145825120559 0 59.7621078184101 27.5467286234625 0 58.1094694967092 25.4563858642169 0 55.1406601798004 49.9419155678007 0 78.1885408663585 47.766010514731 0 75.1016448555653 45.1924641448198 0 76.7261131796381 96.0000000000284 0 0 92.0000000000569 0 0 96.0863676990316 0 3.5195506878408 92.0000000000569 0 0 91.6524216937743 0 3.47954008374637 96.0863676990316 0 3.5195506878408 34.311254982409 0 50.0989498882131 38.0762372722905 0 50.5603991268075 35.9740654918131 0 48.1041898350216 39.5057970784499 0 20.2458990997172 40.4723884107421 0 18.7054590840531 37.3401026548388 0 18.5731004353766 70 0 85 74 0 85 72.3396268234904 0 81.4876396019497 34.7008612312251 0 81.7680227277384 38.2868665422914 0 80.9385435284514 36.8483085474196 0 78.0690064396272 26.9109737460383 0 80.9205067127261 25.3603413849876 0 76.3301262136477 22.8880111407408 0 80.1786086664231 43.7499999999556 0 32 41.8749999999778 0 32.9736584671644 43.3951198859422 0 33.0043378455136 36.8725029393543 0 91.6195011029065 41.1420256418033 0 94.5071733357392 41.6540914287177 0 91.0922462373955 12.8462104276392 0 54.3976505008619 9.6545166402941 0 51.8316666831948 9.81977900269509 0 57.0138470504211 88.7500000000765 0 22.2499999999847 85.000000000102 0 22.9999999999796 88.0682728739904 0 26.5358160249556 11.5384615384111 0 61.1538461538411 11.7077711626653 0 65.7786968815283 15.0171713611185 0 65.0066681164643 37.4187223337057 0 10.0219947944455 37.6468828187685 0 6.74727366365042 33.8431137362003 0 7.5306290288939 36.8725029393543 0 91.6195011029065 37.6841976813499 0 96.2666229949884 41.1420256418033 0 94.5071733357392 84.113602263638 0 42.2225272435147 88.2764464407751 0 42.0797431589015 87.250974773525 0 39.2425326369365 7.5177597777497 0 96.6904494624551 8.00000000005686 0 100 12.0000000000853 0 100 34.7008612312251 0 81.7680227277384 36.8483085474196 0 78.0690064396272 33.506011410249 0 78.1127437112994 82 0 85 78 0 85 81.0515106250016 0 88.9755925871098 24.5978828960292 0 13.5131740520934 26.4007616172216 0 9.93522431085102 22.3000151228596 0 9.39908933964015 4.81025145869752 0 33.9684074701317 7.27272727271708 0 38.5454545454566 8.05404049231867 0 35.1949063117734 32.7272727272621 0 33.4545454545476 29.0739346493591 0 37.5187434811517 33.1356683143134 0 37.5588999411378 53.9930872535813 0 87.2019655410669 49.1919583721205 0 88.0174095199274 52.6827316193392 0 91.5362380185792 6.78795892144982 0 93.4226745623084 10.8820338662222 0 91.8965331115229 7.63324200476208 0 89.9332564458413 7.27272727271708 0 38.5454545454566 10.188115019852 0 42.2084920353402 10.9090909090705 0 37.8181818181859 0 0 52 4.06618231825297 0 49.9170379535964 0 0 48 12.7069319928587 0 26.3747159101097 14.3209617957744 0 23.3261926876144 10.1780072777264 0 21.724671481348 44.1219958760207 0 23.3599793799693 42.4908127324576 0 24.0023383765472 44.3789578125687 0 25.1878048115586 55.9290463644077 0 42.0086470064677 57.6223061798543 0 44.137331252795 59.0426729119356 0 41.4007107928424 52.5579325619535 0 48.3465433858771 50.9167489761398 0 45.5114961526132 49.4723816188714 0 47.2501081954944 0 0 32 2.98003072887789 0 36.3454204022568 4.81025145869752 0 33.9684074701317 6.43913901582024 0 53.629060289644 9.81977900269509 0 57.0138470504211 9.6545166402941 0 51.8316666831948 41.8381759952109 0 28.5962158683151 39.7430548528196 0 29.0534788680084 41.7435524749295 0 30.0715960120841 52.5000000000134 0 67.5000000000134 51.383870739564 0 70.836836133141 55.0000000000267 0 70.0000000000267 84.113602263638 0 42.2225272435147 81.0910871601693 0 44.9762139849501 84.0715162116443 0 46.807430176734 84.113602263638 0 42.2225272435147 84.0715162116443 0 46.807430176734 86.5625249214669 0 44.7621857010387 10.9287826801162 0 95.5532822128902 7.5177597777497 0 96.6904494624551 12.0000000000853 0 100 34.7008612312251 0 81.7680227277384 34.288858415674 0 87.3491385806091 38.3892720651929 0 84.5574172207502 92.1627113433145 0 29.0026615342966 94.95514000599 0 26.0982689586129 91.2872248446845 0 25.0773493035679 13.802175819838 0 49.6085781459401 16.2805100639604 0 46.225526696013 12.1986605598629 0 45.9511153686245 46.4124650824814 0 79.5349827707462 49.9419155678007 0 78.1885408663585 45.1924641448198 0 76.7261131796381 100 0 27.6923076922923 94.95514000599 0 26.0982689586129 96.1841374724307 0 29.86264300504 19.2307692306913 0 61.9230769230691 23.0769230768389 0 62.3076923076839 21.675917966806 0 58.293993672197 85.000000000102 0 22.9999999999796 83.5374765952866 0 26.3372812903618 88.0682728739904 0 26.5358160249556 38.4437091124965 0 54.3206555713126 38.0762372722905 0 50.5603991268075 35.1771539129461 0 52.7624253223453 62.5000000001031 0 27.4999999999794 64.1164308283144 0 23.1878742474634 60.8459992531889 0 23.6245461029884 39.4617118136333 0 17.0918902836073 37.3401026548388 0 18.5731004353766 40.4723884107421 0 18.7054590840531 24.493726856401 0 43.514547236196 27.023803047341 0 39.4406690016693 22.883969777218 0 39.8005305421315 2.9
[...]
<PointData Scalars="I_conc," Vectors="" Tensors="">
<DataArray type="Float64" Name="I_conc" format="ascii">
6.19834066319835e-10 6.98636079022476e-10 7.07824611401149e-10 9.24935286113096e-10 9.28389368412706e-10 1.26199646936016e-09 1.26602243596186e-09 1.7368413761224e-09 1.74390969664519e-09 2.4058469588195e-09 2.41598852473593e-09 3.34927462533965e-09 3.35547486835987e-09 4.62957395318591e-09 4.64896647446971e-09 6.44080249162235e-09 6.46823616529046e-09 9.01087014697221e-09 9.04029753594779e-09 1.25840963063977e-08 1.2638491071637e-08 1.76090106538117e-08 1.76873613958109e-08 2.47215101027191e-08 2.48059913295817e-08 3.47610803742498e-08 3.47669587366469e-08 4.85111111631647e-08 4.85237596474354e-08 6.75441780900188e-08 6.76643378548456e-08 9.26562550523265e-08 2.83723862939924e-06 2.06542524374476e-06 2.05865845132973e-06 1.51808421875453e-06 1.50788671063588e-06 1.11391122645662e-06 1.11063662471439e-06 8.16004150526741e-07 8.13071559302598e-07 5.96301976914031e-07 5.93229992906001e-07 4.3731724016852e-07 4.35364863415979e-07 3.21172490494472e-07 3.20428831227513e-07 2.35251004011466e-07 2.34192358812498e-07 1.73246363309559e-07 1.72534542925705e-07 1.26467180180652e-07 1.26183140192062e-07 9.160265558385e-08 9.26489578820851e-08 4.85858615820301e-08 4.92358910593082e-08 2.54354147831507e-08 2.53815769763371e-08 1.25956610517573e-08 1.26452131701251e-08 6.25470008260592e-09 6.25461226613611e-09 3.1010240611989e-09 3.13110035774322e-09 1.46644166839668e-09 1.49408581411758e-09 6.81796083521704e-10 7.37431460982896e-10 3.24278742919477e-10 2.41614675332285e-13 1.38387362428535e-13 1.48762224597043e-13 5.53724949030701e-13 3.48891578608132e-13 3.16527939981664e-12 2.19533511234942e-12 1.61723347770763e-11 1.46606740803911e-11 7.23274732868186e-11 7.0775956716788e-11 3.02807990292371e-10 2.82490009961738e-06 2.0345851286206e-06 2.02977059447397e-06 1.4697355616892e-06 1.46096001800806e-06 1.06403803256808e-06 1.05976579884086e-06 7.72376695386883e-07 7.70669689156945e-07 5.57402311668028e-07 5.54911355397083e-07 4.03375718561934e-07 4.0215189619552e-07 2.91925262895879e-07 2.90858171655138e-07 2.11222668965865e-07 2.10122919859001e-07 1.52938209337171e-07 1.52432837547338e-07 1.10788388720819e-07 1.10442296498471e-07 8.00956772614383e-08 7.98167446316967e-08 5.75601528496002e-08 5.73694477333658e-08 4.07208292842606e-08 7.31698928606456e-10 8.28489422535324e-10 8.36398558450378e-10 1.0932876302437e-09 1.09762992288949e-09 1.48975918274088e-09 1.49567202740205e-09 2.05633035760654e-09 2.06552284490577e-09 2.85906265550194e-09 2.87221780689877e-09 3.9963726165859e-09 4.00948334843698e-09 5.56698787538657e-09 5.58346668978037e-09 7.73224831261763e-09 7.7621509433652e-09 1.07601624842934e-08 1.08160555312624e-08 1.50726683419155e-08 1.51181343317174e-08 2.09876401176435e-08 2.10821152278991e-08 2.945281597146e-08 2.95214240711942e-08 4.07517708802914e-08 2.50242390051521e-13 2.63727108497043e-13 2.46704340373021e-13 3.02730021796889e-13 2.97207388507183e-13 3.73296428909257e-13 3.53288721266621e-13 4.86525829134533e-13 4.61014486511637e-13 9.94091155728889e-13 4.07472924353778e-08 1.15517285566673e-08 1.20848881768214e-08 3.31783609375406e-09 3.63393449208829e-09 7.61738154025184e-10 8.92349218049181e-10 2.3782855993189e-10 2.44163443730714e-10 5.41413652984937e-11 6.26181673339061e-11 1.35799054027566e-11 1.59931518372622e-11 4.04113047482179e-12 4.45675641144833e-12 8.21791420454e-13 6.69046518808695e-08 7.45219131914585e-08 -2.67632898146778e-08 5.82267454883269e-08 2.89688473275287e-08 -7.39759814524716e-09 2.59902082460845e-11 1.68291788104938e-10 9.3068115043421e-11 1.42463235186417e-14 2.74069290193205e-14 3.97225482908262e-14 -4.2346867720814e-15 6.16504054248838e-14 8.33683943843914e-14 1.86792474022475e-10 1.40420033302734e-10 7.46986961488499e-11 1.24803686670399e-10 6.28571107747289e-11 5.6888317600084e-11 9.9411313728265e-13 4.61024026795874e-13 2.06115060633534e-12 7.01400575972188e-12 1.02792684085784e-11 3.75728280679861e-11 6.72998297533929e-13 1.14290671816357e-10 2.87051943837939e-11 4.99142372134271e-08 4.61824034782245e-08 3.30059406024144e-08 4.61075784524966e-14 -4.74017473357355e-15 4.37242162752159e-14 3.35073627390045e-08 -6.42245145438182e-09 9.02457968569621e-08 1.26601804958374e-09 1.73682991367687e-09 -5.32455445989015e-10 5.42380803130142e-07 2.50125909178209e-09 1.33586764610085e-07 3.5160035593335e-13 4.22337309774474e-14 1.72663427199892e-13 2.55877581276843e-14 -2.9879443200196e-15 1.0894083025258e-14 1.90767619926183e-13 2.67528054831458e-14 2.77786721049071e-13 4.34633035266972e-15 2.30327425813746e-15 3.55056098909609e-15 -9.4506839280694e-12 5.77087096281531e-11 6.05488386526417e-11 2.97198235835949e-13 3.73283128642745e-13 -1.15931389347244e-13 1.88324003293873e-12 4.15863177570176e-13 2.03757556771508e-13 2.61212903803252e-08 8.0532012599153e-07 2.26906141288922e-07 1.16807740315268e-07 7.07289428889711e-08 -3.81713532771954e-09 3.29167832645406e-13 2.79207048446632e-13 -1.11417722173517e-13 1.71700156330996e-14 1.02186944615556e-13 2.15218283943357e-13 1.50787709929561e-06 -4.70066050911583e-07 1.11390803619325e-06 1.48631215392513e-08 2.01166333676626e-08 1.11650771988761e-08 1.53845854164358e-09 5.88053690787138e-10 -9.96548587270049e-11 7.58665396195915e-10 1.26664865850523e-09 2.08986184973521e-09 2.99692308401187e-11 1.87270235127887e-12 2.77895740749459e-11 5.0912854694043e-12 1.05150750872711e-11 1.1241011925203e-11 -1.82824523298457e-08 2.96154942616116e-07 1.35398046642334e-07 5.8392095795545e-08 1.07387199277931e-07 -2.30166579318238e-08 1.46926907152008e-08 1.97506580476683e-08 3.03705095113423e-08 1.20843615873069e-08 9.05514304672131e-10 3.31788375239369e-09 1.31820635074837e-13 1.29566801988773e-13 8.71198706902376e-15 9.63417508488853e-14 3.57030035682412e-14 3.35208205345535e-14 1.10688219831013e-14 9.8050726829295e-15 -2.56446539369253e-15 4.79159349550664e-12 -1.20403768768347e-12 2.23993862583404e-12 -1.64085707110759e-12 7.10510920177299e-11 1.42593091195066e-10 -8.3148297878982e-10 8.34840944101632e-09 1.2524071833903e-08 7.34496017206747e-12 5.35703621223778e-11 7.05757932100836e-11 2.14384480564135e-11 4.08327263387208e-11 6.69361852774225e-13 5.54907841392025e-07 4.03374411758704e-07 -1.48361064558796e-07 1.11428382478148e-09 4.80690594710513e-10 -6.24041687633391e-11 6.87877705180554e-10 -8.35099297505754e-11 5.9383774728278e-10 6.71659227675519e-09 5.30964408099457e-10 1.09923547758955e-09 1.84697681363177e-11 6.03267326803347e-11 6.18219610565897e-11 -9.02970790148838e-09 2.69820706636076e-08 3.36545051908974e-08 5.9383071412614e-07 1.11521209824915e-06 -1.5688626759497e-07 1.15500976715558e-08 2.9521459092451e-08 4.07512505476382e-08 4.22875434749433e-10 1.06174025035352e-10 1.86464933098811e-10 5.19085186665629e-12 3.10220923985967e-12 1.54750502892544e-11 8.24483549442212e-10 5.86519815859208e-10 -1.6951967231459e-11 1.7482182987299e-09 2.28877671652059e-09 -7.55209671917343e-10 7.24900268038307e-14 1.72147147975447e-14 1.97628919679956e-14 -4.10517525071633e-13 1.31182020426582e-12 2.07061069996751e-12 3.04406239987957e-11 -2.70974784935134e-12 4.7279813484386e-11 -5.57945272163527e-12 1.17723870100523e-10 6.48753561499595e-11 3.67240876151702e-07 4.71552819361581e-09 1.37347444220397e-07 5.86210331597441e-14 -8.48039500334198e-15 7.16223770806707e-14 4.51892727263177e-13 8.53317914552682e-13 3.4428235834264e-12 -1.65208540231656e-16 7.82388335301459e-16 9.33817351088724e-16 5.03887307008714e-10 -6.25408648193935e-11 1.92934543279687e-10 -2.35595163704194e-09 2.16223676281368e-08 2.95157259082524e-08 -1.92947883409174e-12 4.69309328811538e-12 6.43591586281983e-12 2.44153296021372e-10 1.37880793344566e-11 5.4143073070613e-11 2.07478638956875e-07 -2.03612941354398e-08 1.01280813706654e-07 -4.00313018780428e-11 2.30148567530471e-10 3.64565400468115e-10 1.32693759535129e-13 7.7176648535282e-15 8.96030633593738e-14 2.87735205726885e-09 7.50171140247001e-11 9.86883267711639e-10 2.01538314842894e-12 4.16231529598435e-13 1.57638716572648e-12 2.03766099543558e-08 -2.41792504534545e-09 1.49938188704714e-08 -4.11279048585109e-11 1.27485968507369e-10 1.77650049251166e-10 8.57836197723737e-11 1.05243522751201e-10 -2.02166397813424e-11 3.08359838535582e-11 2.26060748055563e-11 7.89182915827312e-11 -7.46279659124393e-12 1.4191409969054e-10 6.97271327392605e-11 1.33467295482054e-15 3.71526815384613e-15 1.29504511545129e-15 2.56721901986843e-16 1.19275748230282e-15 6.4270840874941e-16 -4.67129902512584e-11 1.97121444479232e-10 3.09412761935464e-10 -7.46080603146661e-11 2.19253325666294e-10 3.65939533887748e-10 6.2115297119589e-09 7.58528202632707e-09 4.76600346938465e-09 3.47082231301451e-10 2.18368855859066e-10 -7.39461221276927e-11 1.17719889849122e-09 4.13409865184549e-09 4.02857427150587e-09 5.62948518267708e-09 1.34000232337071e-10 2.58675189379627e-09 1.23895522605877e-12 5.66657034232138e-13 4.71157693595426e-14 1.1403387866691e-13 1.27348694088983e-13 -2.79403931191739e-14 2.11903313108023e-07 8.91754159280524e-08 2.28145580077951e-08 9.61296386081683e-11 8.612474976956e-11 4.93164933122848e-10 -6.31012552024886e-15 1.94115362730761e-14 2.27694416467686e-14 4.44016746854757e-12 3.08697628592913e-12 9.30771813392626e-13 2.15310374599062e-13 4.45774788028148e-14 2.89566786317178e-14 1.78996209691744e-14 2.7308987211694e-14 -7.05192001836442e-15 9.03625280748651e-09 9.86520027226984e-09 1.53880267712227e-09 2.34190540801815e-07 -4.12225033397777e-10 1.73246169014553e-07 -2.01491758025338e-16 8.24178809723649e-16 7.61753597558882e-16 7.48794285450643e-11 6.29719670522791e-11 -1.88283659999982e-11 1.34686335292187e-13 1.09837865083288e-13 3.10045157320457e-14 -2.47935345521289e-13 3.06836401534184e-12 5.65320673793049e-12 9.3683407139515e-14 1.22459779119194e-12 6.02899721969089e-13 5.93225651652171e-07 4.37316105316214e-07 -1.39418619209646e-07 2.43173861469751e-12 3.09428174683112e-12 -7.62660199374052e-13 5.26125083256798e-09 -1.3068736094106e-09 6.81727813272998e-09 -1.26538891423213e-14 8.91624807089244e-14 7.15386268398409e-14 -2.90750970102578e-12 1.30531080875647e-10 6.26788282649446e-11 1.19473183455151e-14 -3.75459921362895e-15 2.38407837870789e-14 4.01890335863452e-11 5.21669387508965e-11 1.43968698785951e-10 8.36394783008867e-10 -2.99137410687761e-10 1.09328154179229e-09 3.43568031466949e-09 1.78425593207169e-09 -6.08880173461392e-10 4.85437306168543e-07 1.29100285790607e-07 1.22751724158475e-06 6.74654131180785e-15 4.12563844807917e-15 8.07627874905696e-15 1.69181367883381e-14 -1.69197685349682e-16 5.57081002051035e-14 9.54301127313413e-07 2.93296449947337e-07 1.44201357005497e-07 5.94505090770036e-14 4.28108195563086e-13 4.72356283687036e-13 -2.14700302312952e-13 1.60914108406678e-12 2.18299077047994e-12 6.04435741421378e-12 3.8420885430423e-12 -1.89917108034054e-12 1.43146686700408e-12 1.85290676413998e-11 9.55782899493723e-12 9.31385879802488e-12 8.61481691808352e-12 4.62787481810817e-14 7.31695690100255e-10 -2.20777821140225e-10 8.28485203115762e-10 1.07959499827661e-08 3.5106923149724e-08 2.25138336836331e-08 -1.28545508150891e-14 2.83608530224984e-13 4.12011441731696e-13 2.34916392944088e-12 1.78144322934269e-12 -1.83262767823896e-14 2.87671527946275e-13 4.60410375960273e-11 2.91561409437024e-11 -7.4961225453522e-16 3.75247813841417e-15 4.63699753466825e-15 6.4464493581149e-12 1.70890680085673e-11 4.33849958680434e-12 6.03653336099008e-11 1.07364553078117e-10 -2.2027882463985e-11 6.86181169174266e-13 -1.09917844720913e-13 5.46202238459976e-13 4.42295852708427e-15 2.43417538307034e-14 5.00864334108939e-14 1.73699598468226e-10 3.29833917490535e-10 6.57598343080433e-10 2.50241277156346e-13 2.63724173314955e-13 -7.04518943731377e-14 6.5592449523015e-12 -1.602606783823e-12 7.06641691211256e-12 1.44150419739525e-16 3.53352076624465e-16 2.79676553138246e-16 1.11340150046585e-09 -3.28154231337559e-10 1.4301889273569e-09 3.95154329234191e-09 3.84830539459401e-09 2.51349111175307e-08 3.67044074791984e-13 3.9670105679391e-13 1.8663867899021e-12 -2.87385596918244e-12 9.18465624638166e-11 3.55945107819335e-11 1.76988672399609e-11 1.05024224342187e-11 -2.29796319712238e-12 2.98909980615169e-15 5.43787021667934e-14 4.2364407828796e-14 4.17391259241332e-09 -1.58574342476139e-10 1.78637116956893e-09 6.92457516898838e-12 2.35509625868043e-12 2.12868252159511e-12 3.03630689807928e-12 -4.12596355555727e-13 4.21769072556283e-12 -7.8875989158871e-07 2.03458136571242e-06 2.82487679193185e-06 1.3792437559792e-14 2.75415023543031e-13 7.27904549016994e-14 2.1010961212156e-10 4.78766067162118e-12 2.09192844776556e-10 1.44047716635544e-11 1.93612118214006e-11 -6.39347044837346e-13 5.77119331556904e-09 4.00759371139992e-09 1.56180584845623e-08 2.09327935866781e-11 -5.47859716992955e-12 2.2528151505676e-11 1.48772304676445e-13 6.77471324638972e-14 5.53719866927943e-13 6.72013860382338e-10 8.36948595465599e-11 1.68892519072119e-10 1.11259921803057e-09 -3.55487211533944e-11 1.05319153635024e-09 3.65922186616629e-11 1.41707710037757e-11 4.95918772209208e-13 -1.13936611728491e-12 2.20859072618571e-11 2.0764312300465e-11 -9.48076852545e-13 3.59108229373064e-12 3.91695805386081e-12 1.74175306504304e-08 2.39001240504847e-08 1.03493896395797e-08 -1.42671080044565e-08 4.90628511822247e-08 4.12529714846046e-08 1.33789614959535e-09 1.19273204954847e-09 2.34700955594923e-10 9.03226904260531e-12 1.52825520881029e-10 2.02699711457243e-10 1.2205538370132e-10 2.07831260020482e-10 9.45299046336188e-10 4.06499450255489e-12 3.17773509165985e-12 5.76644533319689e-13 6.5954869886832e-14 1.91886437812207e-14 1.67017947283933e-14 7.38741129755201e-14 -1.23721018351319e-14 4.28631174061657e-14 2.93998921909534e-08 1.52980447928497e-08 3.56296024997432e-08 7.38338984479227e-12 9.25861754941052e-12 1.20791167584392e-11 1.30750267980534e-10 6.49961867429566e-10 1.79565709702419e-10 3.73827595933897e-08 8.53812364201613e-09 1.05411411917486e-08 -8.4260650057103e-13 2.96053203772217e-12 4.01526110105854e-12 1.06114193587719e-11 1.07051162229998e-13 3.78737243456228e-12 2.02975714538149e-06 -4.12496388560371e-07 1.46973092383657e-06 6.69968964804642e-13 1.14891850847772e-11 2.06067458479277e-11 2.31405211374886e-12 1.86995566367496e-12 8.09055913227682e-14 8.19391057336968e-13 -1.23196802753003e-13 7.40447819116509e-13 2.92548742214897e-12 8.08510884670994e-13 5.95826061903902e-13 4.60068375482076e-11 -1.88607689219806e-12 4.19161434265556e-11 2.3893978024019e-09 2.87969715372673e-10 3.9077811301444e-09 2.43869867485511e-12 -3.0375251974217e-13 2.06849961283277e-12 -3.11271984975304e-13 7.40957171642903e-12 5.60593485846988e-12 3.93439568110948e-10 1.26262991086518e-09 9.69093662212445e-10 2.24887207831037e-16 3.40822017788945e-16 1.47378121402746e-16 4.0000217967103e-10 -3.39637488810221e-11 2.56235193831918e-10 -3.69583893846517e-15 1.3634171748577e-14 1.26549708334465e-14 3.88435872466558e-15 2.11738106897735e-15 6.23382403610492e-15 3.48453791157822e-08 4.02108158491515e-08 4.48343577997113e-09 -1.62869112031207e-10 1.39609488971505e-09 1.33250716644402e-09 2.54613140094731e-13 5.756861812569e-13 2.25358044228464e-12 3.5858863413257e-14 4.05803906170484e-13 6.7454536864748e-13 4.07206707115972e-08 5.73691226690704e-08 -5.99506089160121e-09 8.66653393296377e-13 1.21324015263012e-12 7.99319623000524e-13 7.11994035496709e-14 5.95390232013682e-13 1.09773530192125e-12 2.68036591632819e-12 6.69183951222934e-12 1.22175112352241e-12 3.12779425206357e-09 2.49468807963598e-09 8.02881959078766e-10 2.77721527661751e-15 2.02199665851645e-14 2.14182196366426e-14 3.48189289072852e-07 4.36225805608664e-07 -1.29926908814979e-07 2.70807375611917e-08 -8.7660515063958e-09 5.20719194491923e-08 3.20427096563675e-07 -8.1666260123718e-08 2.35250012925562e-07 1.05976027060401e-06 -2.85323778579158e-07 7.7237332916659e-07 8.21694778926577e-13 5.10206932773645e-12 4.45686235483268e-12 -2.54839492157899e-10 1.13009382319558e-09 1.1141352367921e-09 1.46608534470151e-11 2.65550199002894e-11 7.2327756994132e-11 -1.90993267134312e-09 5.65758012758368e-08 3.26603156785907e-08 3.67446173531948e-08 5.89944083848538e-08 -1.06767749853087e-08 -1.62116166629829e-14 7.48347042583985e-14 9.44044605477541e-14 1.38287200187602e-13 1.18906987069599e-14 4.60632543365524e-14 4.33621936714555e-08 2.34216585873912e-08 2.7272101259724e-08 5.44629086026852e-10 2.49674583774973e-10 -6.63726437069446e-11 6.52350768822879e-07 3.0908279720632e-07 -3.7417710430916e-08 2.53316548769072e-10 2.06191506449228e-10 -6.68182124037476e-12 1.03420070762196e-10 1.37116435096287e-11 1.00034092728291e-10 2.87220744954965e-09 -8.45170244317908e-10 3.99634661218066e-09 9.94452261421397e-09 1.93931369027406e-08 -2.12377578588192e-09 -5.80957009515923e-13 3.6231576628368e-12 6.20539725613892e-12 2.59664194899125e-12 1.02006752362028e-11 1.30837153032024e-11 5.01304769591922e-11 5.83656337845143e-11 8.42049973005071e-11 1.76250859997073e-07 6.09013766804821e-08 -1.04693996718908e-08 5.00764054874277e-10 1.82686848249922e-10 1.50564460603251e-09 2.46716839004723e-13 1.42278951118568e-12 3.02751764106543e-13 1.82358433973191e-13 3.89349001090608e-13 2.28478933458549e-14 2.0349885660901e-12 3.50213961771407e-12 -1.05283414814522e-13 7.06430962464586e-12 3.12562363730218e-12 1.29720578599035e-12 2.82503650922183e-07 5.80947792039963e-08 8.54249905303627e-08 1.76783757435245e-12 7.1408199662887e-13 3.90143645272159e-13 6.18222453609555e-08 9.4376658424782e-08 1.28750679171717e-08 5.04586800700333e-13 -1.02816901575724e-13 5.09160272239022e-13 -3.54263212718339e-15 2.3755255987432e-14 1.52409161141009e-14 1.15914728021179e-12 -1.52698987268534e-16 2.49364792457502e-12 5.41298285339455e-10 2.81762331003347e-10 6.27966475366404e-11 4.03796551745234e-12 1.11176711687138e-12 6.86407941963692e-13 1.01707665738506e-08 -9.31506677390039e-10 4.75368442080336e-09 5.49101395489521e-09 5.66983783221853e-09 -8.48925033415167e-10 1.86740970466356e-11 -6.2403617217055e-12 2.88673158638077e-11 -1.65952252412863e-09 1.4996161874748e-08 1.7731377068628e-08 4.45070435408525e-09 3.75473467451327e-09 -6.42515562850958e-10 1.11758340713124e-14 2.08110231183552e-14 -1.77913575530536e-15 4.09423727441521e-13 2.5685889828222e-13 -8.05171283450366e-15 7.11074473077933e-11 5.28133035289384e-11 8.00358668732588e-12 6.06177319430725e-11 -9.14912487719415e-12 1.02580891866761e-10 -2.92644375944199e-10 2.28631524353765e-09 2.30973194720258e-09 2.66895509885998e-09 5.87805594449263e-09 2.00203309344672e-09 1.31932331709083e-08 1.99648958251834e-08 -1.30311095985142e-09 8.40566014048386e-13 3.9229503531551e-13 2.53566537731909e-13 9.36857993978286e-09 1.75719990172223e-09 2.82411114370491e-09 1.24561522647722e-14 4.97291136070708e-15 3.62715075769197e-15 1.3201173922661e-08 1.2766144986785e-08 -1.6110068499276e-09 2.67120293510677e-09 2.60554327474326e-10 5.47711758035189e-10 7.5159195307973e-12 1.94259948930018e-10 8.16476843772828e-11 9.04665755599382e-10 1.87706752181147e-10 1.12077158657903e-09 4.64894887990152e-09 -1.88779919410581e-09 6.44076131780129e-09 1.7046272782446e-11 -6.71010709500952e-13 2.27145722872978e-11 1.19095749896404e-10 1.49320569493065e-10 -3.98652483848637e-11 2.38064736932213e-12 -1.29161990595384e-13 2.39714426127752e-12 1.04420968955845e-08 -3.63479800657296e-09 1.29831223263395e-08 -4.70165781357985e-11 1.87906474393408e-10 1.8494094013224e-10 1.23225357466723e-09 4.19781516555841e-09 4.68584357580107e-09 -1.30735793250636e-13 5.03364706993001e-13 5.92294239994361e-13 1.9886522781557e-10 3.1603742288976e-10 -5.71010062006646e-13 8.10366962439797e-13 6.07260165820919e-13 -1.24381994591049e-13 1.10788920030983e-12 2.62838224785087e-10 9.96613681649035e-11 1.45496463878205e-14 5.53970272585979e-14 1.47922022756082e-13 -1.29497474111696e-10 8.17918850210631e-10 1.2711109929064e-09 9.94036868571332e-13 1.06287015032928e-14 4.61012214809524e-13 -8.93200459046948e-17 1.28027765304996e-15 1.67795621688751e-15 1.34148902885394e-08 -3.79671716696924e-09 2.16156772203852e-08 1.063