<?xml version="1.0"?>
<VTKFile type="UnstructuredGrid" version="0.1" byte_order="LittleEndian">
<UnstructuredGrid>
<Piece NumberOfPoints="6397" NumberOfCells="2159">
<Points>
<DataArray type="Float64" NumberOfComponents="3" format="ascii">
0 0 0 0 0 3.999999999999964 2.66344351959326 0 2.7043277307795819 0 0 0 2.66344351959326 0 2.7043277307795819 4.0000000000284359 0 0 8.0000000000568576 0 0 4.0000000000284359 0 0 6.5707172755705248 0 2.7646612833128712 4.0000000000284359 0 0 2.66344351959326 0 2.7043277307795819 6.5707172755705248 0 2.7646612833128712 4.6209038898330013 0 5.4801965510881789 6.5707172755705248 0 2.7646612833128712 2.66344351959326 0 2.7043277307795819 4.6209038898330013 0 5.4801965510881789 2.66344351959326 0 2.7043277307795819 2.07684632842173 0 5.9999999999999467 0 0 7.9999999999999289 2.07684632842173 0 5.9999999999999467 0 0 3.999999999999964 0 0 3.999999999999964 2.07684632842173 0 5.9999999999999467 2.66344351959326 0 2.7043277307795819 12.00000000008531 0 0 8.0000000000568576 0 0 9.7693469607982983 0 3.7481879779097791 12.00000000008531 0 0 9.7693469607982983 0 3.7481879779097791 13.38972239314738 0 2.6999177402855641 8.0000000000568576 0 0 6.5707172755705248 0 2.7646612833128712 9.7693469607982983 0 3.7481879779097791 7.8296048838167076 0 7.2849290530216786 10.475932525657869 0 6.5236477926518619 9.7693469607982983 0 3.7481879779097791 7.8296048838167076 0 7.2849290530216786 6.5707172755705248 0 2.7646612833128712 4.6209038898330013 0 5.4801965510881789 9.7693469607982983 0 3.7481879779097791 6.5707172755705248 0 2.7646612833128712 7.8296048838167076 0 7.2849290530216786 13.00967717205546 0 5.6551885328941403 9.7693469607982983 0 3.7481879779097791 10.475932525657869 0 6.5236477926518619 13.00967717205546 0 5.6551885328941403 13.38972239314738 0 2.6999177402855641 9.7693469607982983 0 3.7481879779097791 7.8296048838167076 0 7.2849290530216786 11.30969053719768 0 9.1676850296155816 10.475932525657869 0 6.5236477926518619 13.00967717205546 0 5.6551885328941403 10.475932525657869 0 6.5236477926518619 11.30969053719768 0 9.1676850296155816 7.8296048838167076 0 7.2849290530216786 3.8041353317600799 0 9.4838326041714431 7.9090244117951407 0 10.95102642914321 7.8296048838167076 0 7.2849290530216786 7.9090244117951407 0 10.95102642914321 11.30969053719768 0 9.1676850296155816 14.32798837506134 0 12.48911227050972 11.30969053719768 0 9.1676850296155816 10.704055794530859 0 12.6223006550824 10.704055794530859 0 12.6223006550824 11.30969053719768 0 9.1676850296155816 7.9090244117951407 0 10.95102642914321 0 0 7.9999999999999289 3.8041353317600799 0 9.4838326041714431 2.07684632842173 0 5.9999999999999467 4.6209038898330013 0 5.4801965510881789 2.07684632842173 0 5.9999999999999467 3.8041353317600799 0 9.4838326041714431 7.8296048838167076 0 7.2849290530216786 4.6209038898330013 0 5.4801965510881789 3.8041353317600799 0 9.4838326041714431 5.4255954274940468 0 12.775317011400031 7.9090244117951407 0 10.95102642914321 3.8041353317600799 0 9.4838326041714431 5.4255954274940468 0 12.775317011400031 3.8041353317600799 0 9.4838326041714431 2.640550250250365 0 13.30343526213797 0 0 11.99999999999994 2.640550250250365 0 13.30343526213797 3.8041353317600799 0 9.4838326041714431 0 0 11.99999999999994 3.8041353317600799 0 9.4838326041714431 0 0 7.9999999999999289 0 0 15.99999999999995 2.640550250250365 0 13.30343526213797 0 0 11.99999999999994 0 0 15.99999999999995 3.973020491997699 0 16.258026695118499 2.640550250250365 0 13.30343526213797 0 0 19.999999999999961 4.5806639609469997 0 19.862710269054769 3.973020491997699 0 16.258026695118499 0 0 19.999999999999961 3.973020491997699 0 16.258026695118499 0 0 15.99999999999995 8.3266277160981126 0 17.7004192385895 3.973020491997699 0 16.258026695118499 4.5806639609469997 0 19.862710269054769 5.4255954274940468 0 12.775317011400031 2.640550250250365 0 13.30343526213797 3.973020491997699 0 16.258026695118499 5.4255954274940468 0 12.775317011400031 3.973020491997699 0 16.258026695118499 7.7404602345423204 0 14.54380321958984 5.4255954274940468 0 12.775317011400031 7.7404602345423204 0 14.54380321958984 7.9090244117951407 0 10.95102642914321 10.704055794530859 0 12.6223006550824 7.9090244117951407 0 10.95102642914321 7.7404602345423204 0 14.54380321958984 14.32798837506134 0 12.48911227050972 10.704055794530859 0 12.6223006550824 11.75402814782707 0 15.52236706552506 10.704055794530859 0 12.6223006550824 7.7404602345423204 0 14.54380321958984 11.75402814782707 0 15.52236706552506 8.3266277160981126 0 17.7004192385895 13.52887381105845 0 19.07917103906707 11.75402814782707 0 15.52236706552506 8.3266277160981126 0 17.7004192385895 7.7404602345423204 0 14.54380321958984 3.973020491997699 0 16.258026695118499 8.3266277160981126 0 17.7004192385895 11.75402814782707 0 15.52236706552506 7.7404602345423204 0 14.54380321958984 8.3266277160981126 0 17.7004192385895 7.3734437617054036 0 20.587411399876569 10.178007277726421 0 21.724671481347961 8.3266277160981126 0 17.7004192385895 4.5806639609469997 0 19.862710269054769 7.3734437617054036 0 20.587411399876569 8.3266277160981126 0 17.7004192385895 10.178007277726421 0 21.724671481347961 13.52887381105845 0 19.07917103906707 12.706931992858721 0 26.37471591010971 14.320961795774391 0 23.32619268761443 10.178007277726421 0 21.724671481347961 9.5697619165960202 0 25.659496374512631 12.706931992858721 0 26.37471591010971 10.178007277726421 0 21.724671481347961 6.1768732550549936 0 23.87473028151155 10.178007277726421 0 21.724671481347961 7.3734437617054036 0 20.587411399876569 6.1768732550549936 0 23.87473028151155 9.5697619165960202 0 25.659496374512631 10.178007277726421 0 21.724671481347961 6.1768732550549936 0 23.87473028151155 4.5806639609469997 0 19.862710269054769 3.191276734414644 0 22.850474519006632 6.1768732550549936 0 23.87473028151155 3.191276734414644 0 22.850474519006632 2.3692638314996421 0 25.57295210895003 0 0 23.999999999999961 2.3692638314996421 0 25.57295210895003 3.191276734414644 0 22.850474519006632 0 0 23.999999999999961 3.191276734414644 0 22.850474519006632 0 0 19.999999999999961 0 0 19.999999999999961 3.191276734414644 0 22.850474519006632 4.5806639609469997 0 19.862710269054769 6.1768732550549936 0 23.87473028151155 7.3734437617054036 0 20.587411399876569 4.5806639609469997 0 19.862710269054769 18.189362734038401 0 18.146622260735661 19.3670580238695 0 21.362300660710609 22.065959340448551 0 19.437990615481549 21.978233404233009 0 23.15428695841441 22.065959340448551 0 19.437990615481549 19.3670580238695 0 21.362300660710609 21.978233404233009 0 23.15428695841441 25.850420345530981 0 21.055002092136121 22.065959340448551 0 19.437990615481549 25.329272956002221 0 17.272042519131851 22.065959340448551 0 19.437990615481549 25.850420345530981 0 21.055002092136121 21.978233404233009 0 23.15428695841441 23.656620175023871 0 26.516952020808031 24.93874764187542 0 23.98167172788246 21.978233404233009 0 23.15428695841441 24.93874764187542 0 23.98167172788246 25.850420345530981 0 21.055002092136121 21.978233404233009 0 23.15428695841441 18.12566666875647 0 24.807977381442431 20.850945221766889 0 25.693946049239369 21.978233404233009 0 23.15428695841441 19.3670580238695 0 21.362300660710609 18.12566666875647 0 24.807977381442431 18.12566666875647 0 24.807977381442431 19.3670580238695 0 21.362300660710609 16.476067971871089 0 21.26462608747898 14.320961795774391 0 23.32619268761443 18.12566666875647 0 24.807977381442431 16.476067971871089 0 21.26462608747898 14.320961795774391 0 23.32619268761443 16.476067971871089 0 21.26462608747898 13.52887381105845 0 19.07917103906707 14.320961795774391 0 23.32619268761443 13.52887381105845 0 19.07917103906707 10.178007277726421 0 21.724671481347961 18.189362734038401 0 18.146622260735661 13.52887381105845 0 19.07917103906707 16.476067971871089 0 21.26462608747898 18.189362734038401 0 18.146622260735661 16.476067971871089 0 21.26462608747898 19.3670580238695 0 21.362300660710609 18.189362734038401 0 18.146622260735661 18.07077599594691 0 14.35233389632198 15.304671521166791 0 16.081754755268189 18.189362734038401 0 18.146622260735661 15.304671521166791 0 16.081754755268189 13.52887381105845 0 19.07917103906707 13.52887381105845 0 19.07917103906707 15.304671521166791 0 16.081754755268189 11.75402814782707 0 15.52236706552506 14.32798837506134 0 12.48911227050972 11.75402814782707 0 15.52236706552506 15.304671521166791 0 16.081754755268189 14.32798837506134 0 12.48911227050972 15.304671521166791 0 16.081754755268189 18.07077599594691 0 14.35233389632198 20.805575156043471 0 12.76286797642741 18.07077599594691 0 14.35233389632198 21.645419707662882 0 16.026045520337629 20.805575156043471 0 12.76286797642741 18.151638481708599 0 10.60760059465326 18.07077599594691 0 14.35233389632198 18.189362734038401 0 18.146622260735661 22.065959340448551 0 19.437990615481549 21.645419707662882 0 16.026045520337629 18.189362734038401 0 18.146622260735661 21.645419707662882 0 16.026045520337629 18.07077599594691 0 14.35233389632198 25.329272956002221 0 17.272042519131851 21.645419707662882 0 16.026045520337629 22.065959340448551 0 19.437990615481549 20.805575156043471 0 12.76286797642741 21.645419707662882 0 16.026045520337629 24.597882896029191 0 13.513174052093371 25.329272956002221 0 17.272042519131851 24.597882896029191 0 13.513174052093371 21.645419707662882 0 16.026045520337629 24.597882896029191 0 13.513174052093371 26.400761617221551 0 9.9352243108510194 22.300015122859559 0 9.3990893396401489 20.805575156043471 0 12.76286797642741 24.597882896029191 0 13.513174052093371 22.300015122859559 0 9.3990893396401489 20.805575156043471 0 12.76286797642741 22.300015122859559 0 9.3990893396401489 18.151638481708599 0 10.60760059465326 18.7518341141303 0 6.5935947010293026 18.151638481708599 0 10.60760059465326 22.300015122859559 0 9.3990893396401489 18.7518341141303 0 6.5935947010293026 22.300015122859559 0 9.3990893396401489 22.915953587178709 0 4.522588068116459 24.986842191109989 0 7.1296693
[...]
<PointData Scalars="I_conc," Vectors="" Tensors="">
<DataArray type="Float64" Name="I_conc" format="ascii">
4.5559274569172029e-11 2.4320482601594125e-10 1.9505894416938623e-10 1.0397878381539894e-10 1.4513699054953771e-10 1.0709866327427689e-10 1.1071165895363264e-10 1.1108947802815659e-10 1.5543753460029019e-10 7.0799886762651622e-11 1.8072437563221101e-10 1.9744696944551245e-10 4.3337205780553021e-10 1.8521980074937039e-10 1.7934479221182162e-10 5.1636480332393507e-10 9.0546952470659886e-11 5.8662901374249752e-10 1.1652533064203572e-09 6.6532977964310814e-10 1.1140600205694274e-10 2.8895562258496664e-10 5.3596555091342204e-10 1.4309429552749964e-10 1.0769520249911217e-10 1.0268844648340469e-10 1.9210362115809782e-10 5.5756014892994426e-11 2.6380161483321518e-10 2.1687156292526571e-10 6.4451693706398022e-11 2.0422231072634086e-10 2.6429223065364337e-10 1.0768704859466499e-09 8.9987918011542175e-10 7.8008790723670291e-11 9.4177225173650837e-10 6.6031871928697321e-12 5.7450993328777846e-10 2.9179791600159561e-10 1.0403478472820064e-10 8.0864150948290905e-10 6.7062975953501319e-10 1.7874389611072319e-10 8.0222269787044489e-10 5.3163785152879291e-10 1.6544217461687656e-10 3.0440902127167818e-10 1.2288419636251429e-09 2.1213025955507925e-09 7.7337093192029245e-10 5.5531577120994984e-10 8.2357680562890345e-10 1.9321484400873456e-09 4.64362460487539e-10 2.7594927492501558e-09 3.9582623245345697e-09 4.7698685812353747e-10 3.9450476226197859e-09 2.7014118035105242e-09 9.0447888489114078e-09 4.2693455040999718e-10 8.9110102009403764e-09 7.9716091616981591e-09 1.4991872979594038e-09 5.0761542422218658e-09 1.4588581017941801e-09 2.2209267635476864e-09 3.6859742284695511e-10 3.8790828188998786e-10 6.0960170321199926e-10 1.8416264076855093e-09 1.2487237360526092e-09 2.3217883911507411e-10 2.0513376129030478e-09 7.8853007857146197e-09 5.0373157137215528e-09 1.6299074355463756e-09 8.9026572725774675e-09 3.3669869328400241e-10 1.0048043474362704e-08 6.5605014079827552e-09 9.4133911101239349e-09 1.132441940617716e-09 4.9887030597177283e-09 2.7957746404561704e-09 6.6850683493229265e-10 2.2863962638143982e-08 1.1586436484265027e-08 3.8166857571555684e-09 2.8679971043639273e-08 3.117877713270169e-08 7.2256432264678383e-09 1.1595161063353643e-07 1.0911584368395301e-07 6.2894469097838694e-09 8.4755895978135487e-08 3.3767938575208383e-08 2.0080276161166005e-08 6.053663565880344e-08 1.7875567176058768e-08 9.6702750944770142e-08 7.6845342779653671e-09 1.0473957724118138e-08 2.604724914611961e-08 5.6045499545823333e-09 2.8860820402409232e-08 1.9162055878953772e-08 9.5067035605125517e-09 1.5760936467548274e-08 3.1019956043652874e-09 9.9028099302173594e-09 2.5843144812823887e-09 1.5851069819011496e-08 8.8278546369693532e-09 8.5712884202470309e-09 2.2240890196247619e-08 6.4175195426205256e-09 1.9679772819636674e-08 2.5293525670532836e-08 6.2348798235319576e-08 8.7322103586760127e-08 1.6588020171149723e-08 4.9815963305236633e-08 1.4000241723637525e-08 3.372177659077476e-08 4.9476993441150728e-08 3.004326828155252e-08 1.3607345087804367e-08 1.941829196730513e-08 1.5846035491388729e-07 2.1383392086926694e-07 4.1326677931100851e-08 1.2025087844833093e-07 1.4280719100350105e-07 3.6620201201543325e-08 1.8961628537124887e-07 1.0515387697430447e-07 8.1359455985080954e-07 4.0226794491175502e-07 1.5233843884492354e-07 7.6792007862166149e-07 9.1929595303509434e-07 4.7405103397621052e-08 3.8703441639982229e-07 2.3900931146401143e-07 1.3301963366358467e-07 4.6353274074316739e-07 6.8228802858697636e-07 1.3552798247895587e-07 4.0896326152786596e-07 4.9560226515164123e-08 3.1852585201882602e-07 4.5627493740509992e-07 2.8619915126264919e-07 6.7285502299141559e-07 4.3752341295996378e-07 6.6680094028749202e-07 2.920400053348906e-07 3.9152668982532605e-07 3.2043182361863333e-07 4.5101494310509851e-08 1.1348673559183741e-07 2.6254497617536898e-07 1.0623145162274262e-07 3.5389410614389392e-07 1.4892958518622824e-07 9.5926896419153052e-08 5.9025777799999809e-08 1.9738643189262947e-07 1.2526923258654853e-07 3.5875383654629914e-07 8.3910029873185382e-08 2.3369849853528068e-07 3.5380688236573531e-07 2.2802926407040677e-07 7.7659688689267649e-08 3.5472223917781973e-08 1.3010357665069162e-07 1.8737514006941133e-07 3.7627853028558303e-07 9.8910313308058356e-07 5.4249703285696052e-07 4.2677958142441695e-07 5.1264845579718748e-07 1.6978060547451466e-07 3.6619788755451186e-07 6.6679546342135333e-07 8.2929165716090922e-07 4.2586473344019566e-07 1.6135574810624262e-07 5.9188889588506965e-07 5.3518774666460269e-07 2.0749301650236658e-07 1.9790356526145756e-07 4.1498960738844146e-07 5.9337233743338063e-07 1.6010110471018841e-07 3.489835897637949e-07 2.17026342206797e-07 5.6582534823205786e-08 3.5290920158748698e-07 5.2977804166900011e-08 2.4337870003310797e-07 6.6013230115275702e-08 9.9328658949507978e-08 1.8284608141154017e-07 4.2298829595364618e-08 2.0812259170426029e-07 2.1516587378601349e-07 6.3196476397787237e-08 1.1326437335535296e-08 3.734040105121565e-08 7.8277018454456886e-08 2.3722798859499831e-08 9.1774857877312043e-08 7.7510239494355444e-08 3.3601515203263601e-08 2.2757469198870826e-08 3.3610112517633412e-09 2.7581242311837051e-08 3.1732928465879682e-08 5.3951362797316399e-09 3.0045291618870202e-08 2.0109849199890936e-08 8.1314347175277965e-09 2.0471881206376102e-08 3.2017687434530038e-08 1.1723895434955032e-08 1.9929908331580295e-09 1.6784040037007249e-08 7.9478568041175305e-08 1.072416512608953e-07 2.2502925884195389e-08 6.2423064960962316e-08 3.9173124624240329e-08 1.0916594153994316e-08 6.4060392641735267e-08 2.6056221790269262e-08 1.0361870393453926e-07 8.9418431744025696e-09 3.0194669792602627e-08 1.5803264955200693e-08 5.2269068050117958e-08 5.9163555219912582e-09 3.9239342796012938e-08 1.0648404542967929e-08 3.6298541343011686e-09 2.2951581520937852e-09 1.1201833904149901e-08 1.3707087746273827e-08 -2.4723735575612685e-10 9.1014195444340907e-09 2.2132316026309024e-09 4.9510649713182402e-09 9.5173255148647359e-11 4.0991669976063249e-09 3.2720494057962741e-09 1.0993103976864905e-09 2.1933885066959493e-09 8.1668234160952845e-11 1.4363565836949569e-09 -1.0914090310785747e-10 2.4327479054197259e-09 9.8049311483874663e-10 3.1672393342562231e-09 3.671804752967852e-09 6.534029463392712e-09 1.0879272443070193e-09 2.5137705430886879e-09 7.5932898337257007e-09 5.1605959862879909e-09 3.263993339528576e-10 9.8656262405930204e-09 1.5886992007207466e-08 2.5389685316572918e-09 5.351654668641248e-10 1.924437241489266e-09 3.6827413068618425e-09 1.0698100234605704e-09 7.7974591312081038e-11 1.5451363811822528e-09 3.1524183873671174e-10 2.2996118374289068e-09 1.8261389162621073e-09 5.6310304486255326e-10 3.9139885089327215e-10 1.6597349892407374e-10 6.6881226254773575e-10 1.3871043130393509e-09 1.9280860104918084e-10 7.9915082034239126e-10 2.5243144716843986e-10 3.6495819734507743e-10 1.2306969054893475e-10 1.3143387723397376e-10 1.9820280643235521e-10 2.678943243596099e-11 3.1995062952316954e-10 3.0004335321249261e-10 4.1617359768305724e-11 2.2912732922943146e-10 3.0408445900394453e-10 1.2686588687866414e-10 1.1570285681761677e-10 1.6526541577784858e-10 1.01112259149287e-09 3.1521572307534082e-10 4.0334587377559101e-10 8.5907385045837324e-10 5.0871869946995008e-10 2.5455889537947287e-10 1.4983623287906277e-10 1.2513133266489174e-10 2.0602661251570999e-10 -3.466033938238977e-12 3.984056527852707e-10 3.5960050588310232e-10 1.879586432057823e-11 3.2064284402942509e-10 3.9121584779697602e-10 1.309448166349014e-10 1.2980550904790063e-10 2.3546660164957161e-10 6.4114523726220784e-10 2.1818672497023097e-10 1.2445565863342331e-09 1.2670818199402436e-09 1.4128759516631224e-09 1.0703575647413718e-11 5.7900662224153227e-10 2.0850916428298758e-10 3.7512275842387619e-10 6.1248445801711257e-10 4.4039683825156361e-10 1.8045170501889583e-10 1.4336087844405432e-10 1.3712484414774696e-10 1.8672616990546492e-10 6.2771170558103215e-11 3.0735200349844909e-10 2.5046681929057409e-10 5.5140793017341734e-11 2.5582655037018459e-10 3.4339205546312761e-10 1.4084752617619277e-10 1.4551723366638963e-10 1.9060410581464281e-10 7.116978237163404e-11 3.2898002051043715e-10 2.4819306001965514e-10 8.3970177422767294e-11 2.4151429518961351e-10 2.908999681523621e-10 5.6433516074182828e-10 3.2684430526169914e-10 2.0077579284797475e-10 7.1777676937835243e-10 1.0450769667994751e-09 1.4801631667749865e-10 7.1669576412808988e-10 1.3201400060197252e-09 2.8473091324092851e-10 6.8365421862949386e-10 2.6869985954550976e-10 1.2690552813421698e-09 5.963845360924928e-10 1.8782462183369373e-10 4.0926124584260361e-10 3.3466536393580569e-09 9.0899297787054575e-10 1.684367703994745e-09 1.5193133244081548e-09 1.2505616252674912e-09 5.8061906905770304e-10 7.014291958444349e-09 1.1084445824023481e-08 3.5417379851337028e-09 5.8543858995582562e-09 4.5052148297696242e-09 4.008759885528687e-10 6.9919394102534202e-09 2.0608528686217758e-09 1.2863776307740018e-08 5.6719805465811631e-09 7.2250537371269944e-10 3.9496540944964774e-09 1.0360723777049325e-08 1.4280592197089293e-08 9.4490318114978562e-10 8.4758330352242942e-09 3.2118221619060544e-09 3.9039180015146844e-09 1.0559776105952233e-08 1.5162489311115895e-09 1.3549413371334298e-08 1.1577944700428391e-09 3.2988961632524677e-09 1.4953379227734234e-09 3.6230987549411022e-09 1.1440693790612043e-09 3.8471184313482817e-09 1.3067486231812511e-10 1.6745349131747839e-09 2.920322063531965e-09 1.2851830012969426e-10 2.8218786426095409e-09 1.7446039338528459e-09 7.8408225786119702e-10 1.203927555510053e-09 3.9089956423126837e-10 6.5508666950536451e-10 5.1255965102553773e-10 1.4838951121041678e-10 2.0381557902867451e-10 1.3669650324594092e-09 1.4567104574476811e-09 8.5978211107590831e-11 2.7079504566762201e-10 3.9264592108550127e-10 1.7485359130412283e-10 1.4907966908365257e-10 3.0071641429898064e-10 9.6900694846850938e-11 3.009799086176112e-10 2.6300126699232465e-10 1.7164348884557544e-10 1.6495486132482506e-10 2.088062771724856e-10 6.1732775954290209e-10 1.9657823008108227e-10 3.5867584265391043e-10 7.3028377115150978e-11 8.582944977084137e-10 1.3400410223973341e-09 8.0932209304467198e-10 1.1797352703235507e-10 1.3024974583780525e-09 1.5188022046897645e-10 1.4262584515734369e-10 2.3160753780893702e-10 5.19553592125901e-11 3.0582439620857965e-10 3.2241810139178724e-10 1.3936051118841658e-10 1.4140132003433912e-10 2.1903129032246346e-10 3.2389408096897316e-10 3.0925321000898853e-10 6.7855012424577521e-10 1.1382316970739111e-10 1.0716247242336851e-09 8.3487938447323181e-10 2.0614003634943053e-09 7.529425914018769e-10 3.4726090977237046e-09 1.8002823458687126e-09 7.4252749487501056e-10 1.2136120533065969e-09 1.0499931088448637e-08 5.2673944556819335e-09 3.7827098211342281e-09 1.3112714010288547e-09 4.4146215714868877e-09 4.8838579876992944e-09 1.2166830585448007e-08 2.2306707078111885e-09 1.2249062079791224e-08 5.8051389372531163e-09 4.3428269169450804e-10 5.2778632159327092e-09 1.2573092995303197e-08 1.3809408740189043e-08 3.420574773784055e-09 6.357906239094395e-09 4.7590269899445957e-09 1.2363166328418349e-08 1.856369506733124e-09 4.3735951216680251e-09 1.4548473404728189e-09 1.8668931510337298e-09 1.6579881049456171e-09 6.6943443465611366e-10 4.6439040506897087e-10 1.6902772201381653e-09 2.4544255628846661e-09 4.6515589914294758e-10 2.3741079296553207e-09 1.4392304965838236e-09 5.2154391871496649e-09 2.9536649010756419e-09 9.8023450166955035e-10 5.177663629314043e-09 1.562721916439659e-08 8.4949700494648676e-09 6.4759061248013309e-09 7.7082315985339345e-09 1.8553776279157196e-09 1.5238845658817012e-09 8.721571394705509e-09 1.1386278438176623e-08 3.5076429435719123e-09 2.5029726480566187e-09 6.9334162574821996e-09 3.340448932872103e-09 1.0442964945675725e-09 2.9186161821590394e-09 3.0766537949788918e-09 1.555678749177295e-09 1.2368986902149821e-09 1.0329467585121217e-07 9.9251844602310846e-08 4.4934081929782812e-08 9.7338804715180225e-08 5.0978499653619067e-08 5.5996003768055924e-08 1.2414981285673172e-08 5.4611113228739955e-08 5.1993642488029137e-08 3.4039081749577049e-08 5.4032285642868306e-08 8.8294664226818651e-08 1.8928043472084555e-08 1.3352429701892059e-08 7.1067733175789811e-09 1.5650299134963832e-08 4.9415274135550237e-08 4.0117898314963871e-08 2.1415173026096343e-08 3.3866103263746449e-08 9.4887773347900518e-09 2.0134732242938971e-08 1.6330016191628803e-08 4.6461648233140468e-08 1.9941005758088308e-08 6.2684272839867172e-09 1.857377085109866e-08 4.0137506189776957e-08 5.1464351416011272e-08 1.1548336557161999e-08 3.6773686674608096e-08 7.5029294476091687e-08 5.6836435578058326e-08 1.0781455219710374e-07 4.3440882727769696e-08 1.3573840795650284e-07 4.773869526156116e-08 7.9687715060846774e-08 1.3140691990745626e-07 1.4130265058274909e-07 7.5653984389251376e-08 7.7504229789804649e-08 2.6224228574429697e-08 6.9205622965706402e-08 3.9498054803255867e-08 3.3189521118869954e-08 7.726143900536161e-08 7.8004750001723337e-08 3.3790058693438701e-08 1.8022378266528882e-08 1.3021605028823443e-08 4.1150806371079443e-09 1.475278871757403e-08 1.7113990185540179e-08 3.681590671659262e-08 1.039553630813197e-08 3.0052660960893196e-08 1.1644559795682608e-08 2.6205854552749918e-08 1.4454175917633942e-08 2.7043818351866349e-08 1.2068909774264484e-08 1.1901382544862873e-08 3.1090026884123704e-08 2.9322783810902235e-08 8.1742187699261113e-09 2.2186266343849322e-08 9.134754832774494e-08 6.2957054169956125e-08 5.5757966431060656e-08 1.0151978530816365e-07 1.0755979106538626e-07 3.1987102486420178e-08 5.5847669422594632e-08 2.8379634161911647e-08 6.1765095466841267e-08 7.4437106127894267e-08 2.1170657937100718e-08 5.9380985233621387e-08 1.0511295681016965e-07 7.8761328070555977e-08 1.7113797300948226e-07 1.0883064670913689e-07 9.8868383946096291e-08 1.8622270018621483e-07 8.0037507524097007e-08 2.2230621820567281e-07 1.8004951145106463e-07 1.6584087548328355e-07 1.0186260411830321e-07 1.6741803304200959e-07 3.2741252019084698e-07 2.7481593059119588e-07 1.7330770046554019e-07 2.3793163686663281e-07 3.2351832776278138e-07 4.2018915917909932e-07 3.4334272899103569e-07 2.1705746738655864e-07 4.4154041653255523e-07 5.969076303168171e-07 3.2165698071088176e-07 4.2705270388000054e-07 6.3234098369399397e-07 7.9262820609278693e-07 4.5836272273849442e-07 3.1595235740021771e-07 5.9957979853313972e-07 4.3792294859433141e-07 2.6316074847007263e-07 3.4136887836162033e-07 4.3570139226129101e-07 3.1600992247967096e-07 2.6631175144793612e-07 4.5656145154820346e-07 5.899829957737555e-07 2.8893564289979517e-07 4.2602003482913733e-07 7.9385429195981171e-07 6.2115744121873712e-07 1.0318545915840698e-06 5.8478098061282509e-07 8.2932945842182036e-07 4.9858785376941949e-07 6.2059808637636784e-07 8.505521687797009e-07 5.1776921394087569e-07 2.7961722578426379e-07 5.9964243437341874e-07 1.2894298197884904e-07 3.0650509548603079e-07 2.8685145632492072e-07 1.47598919434088e-07 1.644911613947845e-07 2.8867555584441592e-07 3.0710340476501348e-07 1.4823016272435958e-07 2.7317034933852879e-07 1.8430427836810436e-07 2.6097273310485003e-07 1.6102762532388258e-07 7.1216884868124608e-08 1.1034210894180929e-07 1.5623689748893732e-07 1.5276519582509082e-07 6.5724960927646266e-08 1.6138234235813056e-07 1.5244049389780352e-07 2.6364585157675304e-07 1.4086176442321771e-07 1.4950539859614333e-07 1.4573731005127865e-07 6.7575327430480636e-08 3.0960980563511209e-07 1.1738615069244743e-07 2.8610538836932115e-07 4.8581963335155185e-07 2.7972292118372248e-07 3.1411887087538964e-07 5.072410533368318e-07 4.9791504574351702e-07 2.5622664493888442e-07 8.3611738578903299e-07 6.514260486208353e-07 8.7541524597439181e-07 4.9592458683349601e-07 8.5265680162643857e-07 6.6577213019376817e-07 5.1426287735839775e-07 6.5458098831755415e-07 4.9892290426431872e-07 8.1454248275661561e-07 4.8112377590920368e-07 6.664009818882655e-07 8.0287063611144579e-07 5.6624350713961415e-07 4.9115924341851212e-07 3.1785263385218029e-07 2.8067497531183632e-07 4.767033195385122e-07 2.9023054774878967e-07 5.035940436570077e-07 5.5413181255682581e-07 3.089824908987823e-07 5.3248239357977135e-07 3.549932630272814e-07 8.4224008096737407e-07 9.9269085850542236e-07 5.1955916940420103e-07 6.7349266208308615e-07 5.3903439867524894e-07 9.7240430946295185e-07 6.4974155401633553e-07 3.1877745416786248e-07 5.6651450114411459e-07 2.0646745956082585e-07 1.8691948119831212e-07 3.3211807585841807e-07 3.1723735739968319e-07 3.4809507949178398e-07 1.701372412841158e-07 2.9158133314323707e-07 1.9183329219287871e-07 1.3436945407053324e-07 1.0050417766235098e-07 1.4829830777853186e-07 1.8375805666067065e-07 1.0479567873223231e-07 1.7614911452496547e-07 9.6662686212038945e-08 2.0237995150512979e-07 8.1106202218500569e-08 1.9106878736833069e-07 4.7709493765702394e-08 2.769932215447535e-08 8.3133373628675315e-08 2.5057218924803539e-08 1.0144452107530503e-07 1.4810085648705767e-07 6.1898125891157004e-08 8.6685737206459793e-08 2.5384224062427244e-08 5.0457941086191735e-08 3.4325885142616187e-08 7.3156156734621996e-09 7.9597608132740449e-09 1.5785183600036116e-08 2.7182363780836864e-08 7.4349185792277385e-09 2.7924247657319026e-08 1.7079740187842845e-08 4.2698701081752587e-08 1.1207690968681285e-08 3.3901121779598241e-08 2.8243685402740747e-09 1.691660466831262e-08 2.3679659581232035e-08 4.1471259339570447e-08 2.8623943792287633e-08 1.2721110777656213e-08 3.0352428737043942e-08 8.9452584692917582e-09 2.7025750935995686e-08 4.1878412123544378e-09 2.2321629031083684e-08 1.3077868292256086e-08 1.6881535860881965e-08 8.1352917491034175e-08 5.5315714621926092e-08 1.0009001532962841e-07 4.9929180545621727e-08 9.1514658682057345e-08 2.3885037811951774e-08 5.5305065648899747e-08 8.9515598408811575e-08 3.2372087723113382e-08 2.5198285575263164e-08 4.9482760438560682e-08 2.8430196030967806e-08 1.4764675201238846e-07 9.4700113059507685e-08 4.7007191206484216e-08 7.8306075796500279e-08 2.0530252725984888e-08 2.550536645154889e-07 1.309630248597658e-07 4.5707317161122286e-07 2.2870937972148158e-07 7.1959452190534782e-08 1.7417898531543958e-07 2.087373501333184e-07 1.0045006901225923e-07 8.1313683574090329e-08 2.4365704415433541e-07 2.3091375876662559e-07 7.1062466068016773e-08 2.4689280309953554e-07 4.047803813694771e-07 2.3060345070058594e-07 1.9954627018634085e-07 5.4899638967377711e-07 4.4157269055412723e-07 4.0182806882516417e-07 5.8485999322786789e-07 8.8856780381215345e-07 3.8752807223381823e-07 8.9836558781521219e-07 6.3672349687943098e-07 1.9320879119950697e-07 5.3638414605855078e-07 5.6403801235919666e-07 5.203745951490708e-07 4.9206393622006547e-07 1.0153008277088886e-06 1.780338308361624e-07 5.0115465873354061e-07 5.2538974392890963e-07 2.1937417600618984e-07 1.7399736977053527e-07 8.2153257355427347e-08 2.3837267193166171e-07 4.5194161111090459e-07 1.382027046033859e-07 2.2605578638429783e-07 7.1420411963111185e-08 2.1767354886350191e-07 3.9208902709672532e-08 1.7873008786335425e-07 1.0145110227980742e-07 1.4437699039587764e-07 5.2671605459513242e-07 5.0594251789341813e-07 2.2587318276051282e-07 2.0913182728862651e-07 4.4842636193006656e-07 8.7739218202885256e-07 4.9240003160751569e-07 5.4670662497860436e-07 9.3842157799682989e-07 4.7679399582409282e-07 1.0746094573042995e-06 8.7324320183972927e-07 1.1277794929431968e-06 1.7718347731810084e-06 8.7147295144509937e-07 1.7776481556046839e-06 1.1492861304624624e-06 2.7506999899172393e-06 3.5645981128055754e-06 1.798874266137211e-06 2.3002431214010227e-06 9.9112514307371343e-07 1.9285756593154596e-06 2.3930413216024497e-06 1.8434290382906237e-06 3.5186363578716817e-06 2.313178736561217e-06 3.6051989492175953e-06 3.8471658564372714e-06 1.4479909123172259e-06 1.0570436001828608e-06 2.2375268407251154e-06 9.3201555487121163e-07 1.0987863938910901e-06 4.294874079245132e-07 1.2404121307508619e-06 5.6672231464640828e-07 5.0369220181996307e-07 1.3555738800339316e-06 3.9008480247751526e-07 1.1388694115001134e-06 1.3324311265746591e-06 9.7512752893054225e-07 4.8669596905553871e-07 1.4442860774226992e-06 1.8292799933606067e-06 8.7920649974750197e-07 1.2504607204491555e-06 8.98994