<?xml version="1.0"?>
<VTKFile type="UnstructuredGrid" version="0.1" byte_order="LittleEndian">
<UnstructuredGrid>
<Piece NumberOfPoints="6397" NumberOfCells="2159">
<Points>
<DataArray type="Float64" NumberOfComponents="3" format="ascii">
0 0 0 0 0 3.999999999999964 2.66344351959326 0 2.7043277307795819 0 0 0 2.66344351959326 0 2.7043277307795819 4.0000000000284359 0 0 8.0000000000568576 0 0 4.0000000000284359 0 0 6.5707172755705248 0 2.7646612833128712 4.0000000000284359 0 0 2.66344351959326 0 2.7043277307795819 6.5707172755705248 0 2.7646612833128712 4.6209038898330013 0 5.4801965510881789 6.5707172755705248 0 2.7646612833128712 2.66344351959326 0 2.7043277307795819 4.6209038898330013 0 5.4801965510881789 2.66344351959326 0 2.7043277307795819 2.07684632842173 0 5.9999999999999467 0 0 7.9999999999999289 2.07684632842173 0 5.9999999999999467 0 0 3.999999999999964 0 0 3.999999999999964 2.07684632842173 0 5.9999999999999467 2.66344351959326 0 2.7043277307795819 12.00000000008531 0 0 8.0000000000568576 0 0 9.7693469607982983 0 3.7481879779097791 12.00000000008531 0 0 9.7693469607982983 0 3.7481879779097791 13.38972239314738 0 2.6999177402855641 8.0000000000568576 0 0 6.5707172755705248 0 2.7646612833128712 9.7693469607982983 0 3.7481879779097791 7.8296048838167076 0 7.2849290530216786 10.475932525657869 0 6.5236477926518619 9.7693469607982983 0 3.7481879779097791 7.8296048838167076 0 7.2849290530216786 6.5707172755705248 0 2.7646612833128712 4.6209038898330013 0 5.4801965510881789 9.7693469607982983 0 3.7481879779097791 6.5707172755705248 0 2.7646612833128712 7.8296048838167076 0 7.2849290530216786 13.00967717205546 0 5.6551885328941403 9.7693469607982983 0 3.7481879779097791 10.475932525657869 0 6.5236477926518619 13.00967717205546 0 5.6551885328941403 13.38972239314738 0 2.6999177402855641 9.7693469607982983 0 3.7481879779097791 7.8296048838167076 0 7.2849290530216786 11.30969053719768 0 9.1676850296155816 10.475932525657869 0 6.5236477926518619 13.00967717205546 0 5.6551885328941403 10.475932525657869 0 6.5236477926518619 11.30969053719768 0 9.1676850296155816 7.8296048838167076 0 7.2849290530216786 3.8041353317600799 0 9.4838326041714431 7.9090244117951407 0 10.95102642914321 7.8296048838167076 0 7.2849290530216786 7.9090244117951407 0 10.95102642914321 11.30969053719768 0 9.1676850296155816 14.32798837506134 0 12.48911227050972 11.30969053719768 0 9.1676850296155816 10.704055794530859 0 12.6223006550824 10.704055794530859 0 12.6223006550824 11.30969053719768 0 9.1676850296155816 7.9090244117951407 0 10.95102642914321 0 0 7.9999999999999289 3.8041353317600799 0 9.4838326041714431 2.07684632842173 0 5.9999999999999467 4.6209038898330013 0 5.4801965510881789 2.07684632842173 0 5.9999999999999467 3.8041353317600799 0 9.4838326041714431 7.8296048838167076 0 7.2849290530216786 4.6209038898330013 0 5.4801965510881789 3.8041353317600799 0 9.4838326041714431 5.4255954274940468 0 12.775317011400031 7.9090244117951407 0 10.95102642914321 3.8041353317600799 0 9.4838326041714431 5.4255954274940468 0 12.775317011400031 3.8041353317600799 0 9.4838326041714431 2.640550250250365 0 13.30343526213797 0 0 11.99999999999994 2.640550250250365 0 13.30343526213797 3.8041353317600799 0 9.4838326041714431 0 0 11.99999999999994 3.8041353317600799 0 9.4838326041714431 0 0 7.9999999999999289 0 0 15.99999999999995 2.640550250250365 0 13.30343526213797 0 0 11.99999999999994 0 0 15.99999999999995 3.973020491997699 0 16.258026695118499 2.640550250250365 0 13.30343526213797 0 0 19.999999999999961 4.5806639609469997 0 19.862710269054769 3.973020491997699 0 16.258026695118499 0 0 19.999999999999961 3.973020491997699 0 16.258026695118499 0 0 15.99999999999995 8.3266277160981126 0 17.7004192385895 3.973020491997699 0 16.258026695118499 4.5806639609469997 0 19.862710269054769 5.4255954274940468 0 12.775317011400031 2.640550250250365 0 13.30343526213797 3.973020491997699 0 16.258026695118499 5.4255954274940468 0 12.775317011400031 3.973020491997699 0 16.258026695118499 7.7404602345423204 0 14.54380321958984 5.4255954274940468 0 12.775317011400031 7.7404602345423204 0 14.54380321958984 7.9090244117951407 0 10.95102642914321 10.704055794530859 0 12.6223006550824 7.9090244117951407 0 10.95102642914321 7.7404602345423204 0 14.54380321958984 14.32798837506134 0 12.48911227050972 10.704055794530859 0 12.6223006550824 11.75402814782707 0 15.52236706552506 10.704055794530859 0 12.6223006550824 7.7404602345423204 0 14.54380321958984 11.75402814782707 0 15.52236706552506 8.3266277160981126 0 17.7004192385895 13.52887381105845 0 19.07917103906707 11.75402814782707 0 15.52236706552506 8.3266277160981126 0 17.7004192385895 7.7404602345423204 0 14.54380321958984 3.973020491997699 0 16.258026695118499 8.3266277160981126 0 17.7004192385895 11.75402814782707 0 15.52236706552506 7.7404602345423204 0 14.54380321958984 8.3266277160981126 0 17.7004192385895 7.3734437617054036 0 20.587411399876569 10.178007277726421 0 21.724671481347961 8.3266277160981126 0 17.7004192385895 4.5806639609469997 0 19.862710269054769 7.3734437617054036 0 20.587411399876569 8.3266277160981126 0 17.7004192385895 10.178007277726421 0 21.724671481347961 13.52887381105845 0 19.07917103906707 12.706931992858721 0 26.37471591010971 14.320961795774391 0 23.32619268761443 10.178007277726421 0 21.724671481347961 9.5697619165960202 0 25.659496374512631 12.706931992858721 0 26.37471591010971 10.178007277726421 0 21.724671481347961 6.1768732550549936 0 23.87473028151155 10.178007277726421 0 21.724671481347961 7.3734437617054036 0 20.587411399876569 6.1768732550549936 0 23.87473028151155 9.5697619165960202 0 25.659496374512631 10.178007277726421 0 21.724671481347961 6.1768732550549936 0 23.87473028151155 4.5806639609469997 0 19.862710269054769 3.191276734414644 0 22.850474519006632 6.1768732550549936 0 23.87473028151155 3.191276734414644 0 22.850474519006632 2.3692638314996421 0 25.57295210895003 0 0 23.999999999999961 2.3692638314996421 0 25.57295210895003 3.191276734414644 0 22.850474519006632 0 0 23.999999999999961 3.191276734414644 0 22.850474519006632 0 0 19.999999999999961 0 0 19.999999999999961 3.191276734414644 0 22.850474519006632 4.5806639609469997 0 19.862710269054769 6.1768732550549936 0 23.87473028151155 7.3734437617054036 0 20.587411399876569 4.5806639609469997 0 19.862710269054769 18.189362734038401 0 18.146622260735661 19.3670580238695 0 21.362300660710609 22.065959340448551 0 19.437990615481549 21.978233404233009 0 23.15428695841441 22.065959340448551 0 19.437990615481549 19.3670580238695 0 21.362300660710609 21.978233404233009 0 23.15428695841441 25.850420345530981 0 21.055002092136121 22.065959340448551 0 19.437990615481549 25.329272956002221 0 17.272042519131851 22.065959340448551 0 19.437990615481549 25.850420345530981 0 21.055002092136121 21.978233404233009 0 23.15428695841441 23.656620175023871 0 26.516952020808031 24.93874764187542 0 23.98167172788246 21.978233404233009 0 23.15428695841441 24.93874764187542 0 23.98167172788246 25.850420345530981 0 21.055002092136121 21.978233404233009 0 23.15428695841441 18.12566666875647 0 24.807977381442431 20.850945221766889 0 25.693946049239369 21.978233404233009 0 23.15428695841441 19.3670580238695 0 21.362300660710609 18.12566666875647 0 24.807977381442431 18.12566666875647 0 24.807977381442431 19.3670580238695 0 21.362300660710609 16.476067971871089 0 21.26462608747898 14.320961795774391 0 23.32619268761443 18.12566666875647 0 24.807977381442431 16.476067971871089 0 21.26462608747898 14.320961795774391 0 23.32619268761443 16.476067971871089 0 21.26462608747898 13.52887381105845 0 19.07917103906707 14.320961795774391 0 23.32619268761443 13.52887381105845 0 19.07917103906707 10.178007277726421 0 21.724671481347961 18.189362734038401 0 18.146622260735661 13.52887381105845 0 19.07917103906707 16.476067971871089 0 21.26462608747898 18.189362734038401 0 18.146622260735661 16.476067971871089 0 21.26462608747898 19.3670580238695 0 21.362300660710609 18.189362734038401 0 18.146622260735661 18.07077599594691 0 14.35233389632198 15.304671521166791 0 16.081754755268189 18.189362734038401 0 18.146622260735661 15.304671521166791 0 16.081754755268189 13.52887381105845 0 19.07917103906707 13.52887381105845 0 19.07917103906707 15.304671521166791 0 16.081754755268189 11.75402814782707 0 15.52236706552506 14.32798837506134 0 12.48911227050972 11.75402814782707 0 15.52236706552506 15.304671521166791 0 16.081754755268189 14.32798837506134 0 12.48911227050972 15.304671521166791 0 16.081754755268189 18.07077599594691 0 14.35233389632198 20.805575156043471 0 12.76286797642741 18.07077599594691 0 14.35233389632198 21.645419707662882 0 16.026045520337629 20.805575156043471 0 12.76286797642741 18.151638481708599 0 10.60760059465326 18.07077599594691 0 14.35233389632198 18.189362734038401 0 18.146622260735661 22.065959340448551 0 19.437990615481549 21.645419707662882 0 16.026045520337629 18.189362734038401 0 18.146622260735661 21.645419707662882 0 16.026045520337629 18.07077599594691 0 14.35233389632198 25.329272956002221 0 17.272042519131851 21.645419707662882 0 16.026045520337629 22.065959340448551 0 19.437990615481549 20.805575156043471 0 12.76286797642741 21.645419707662882 0 16.026045520337629 24.597882896029191 0 13.513174052093371 25.329272956002221 0 17.272042519131851 24.597882896029191 0 13.513174052093371 21.645419707662882 0 16.026045520337629 24.597882896029191 0 13.513174052093371 26.400761617221551 0 9.9352243108510194 22.300015122859559 0 9.3990893396401489 20.805575156043471 0 12.76286797642741 24.597882896029191 0 13.513174052093371 22.300015122859559 0 9.3990893396401489 20.805575156043471 0 12.76286797642741 22.300015122859559 0 9.3990893396401489 18.151638481708599 0 10.60760059465326 18.7518341141303 0 6.5935947010293026 18.151638481708599 0 10.60760059465326 22.300015122859559 0 9.3990893396401489 18.7518341141303 0 6.5935947010293026 22.300015122859559 0 9.3990893396401489 22.915953587178709 0 4.522588068116459 24.986842191109989 0 7.1296693
[...]
<PointData Scalars="I_conc," Vectors="" Tensors="">
<DataArray type="Float64" Name="I_conc" format="ascii">
1.9611605249368115e-07 2.1215563625310569e-07 2.131026180553902e-07 2.0096123298565973e-07 2.0896145310519944e-07 2.0791775806468046e-07 2.1404824631867778e-07 2.0848393046309593e-07 2.1583437916572586e-07 2.0470714506797667e-07 2.1192168648132225e-07 2.1946212822784993e-07 2.3265925245402835e-07 2.1926947847365639e-07 2.1226235590390265e-07 2.3596550076971631e-07 2.0863089145523099e-07 2.3523629243550483e-07 2.5219941346766334e-07 2.3670168373440309e-07 2.1140395999708983e-07 2.1511870903462579e-07 2.3352754387102339e-07 2.1076637883001816e-07 2.1938425109109136e-07 2.13862516153445e-07 2.2339832735830695e-07 2.1498573956968897e-07 2.2863959003698811e-07 2.2898176236270172e-07 2.1000148792259662e-07 2.1992642604388294e-07 2.2858866485717271e-07 2.6110330590939082e-07 2.5756498305703423e-07 2.2589663507063694e-07 2.5855153770673482e-07 2.1408853915193587e-07 2.3681177800352051e-07 2.3060069867557961e-07 2.1684663960152007e-07 2.5566473395048899e-07 2.522902213322113e-07 2.2737733298880808e-07 2.5609143016811599e-07 2.4855659880422538e-07 2.2712261942656474e-07 2.3102033219558684e-07 2.6313341331918996e-07 2.9319772411883026e-07 2.5647746263180382e-07 2.5054447594559868e-07 2.5738050254913603e-07 2.9153302344377636e-07 2.5901998483995535e-07 2.8714775326372871e-07 3.1707794019840198e-07 2.5880168028286254e-07 3.1706836549329935e-07 2.966991888195216e-07 3.619353091820161e-07 2.9141682331176944e-07 3.5768524818837922e-07 3.5593515082685581e-07 2.9352532466422591e-07 3.2070717624173441e-07 2.5580760839244637e-07 2.8326240584894957e-07 2.335088278136674e-07 2.3479541166866307e-07 2.3593008425114054e-07 2.8016488607578867e-07 2.6341331977251747e-07 2.3263591223236625e-07 2.825393063078328e-07 3.4706968651113623e-07 3.2089223517824545e-07 2.8369363207733264e-07 3.484679004023046e-07 2.8166583793713649e-07 3.5104114930482253e-07 3.1933337787580762e-07 3.4977236075823893e-07 2.8360591727602755e-07 3.1549824451330961e-07 2.8698637296670131e-07 2.5203515208009249e-07 3.9610332020971623e-07 3.5194495936358593e-07 3.1740009919906408e-07 3.9786448505721528e-07 4.1628411127841105e-07 3.5049179261045633e-07 4.763450333869132e-07 4.9184504943690948e-07 4.1980163507395745e-07 4.787439865206906e-07 4.1772577747414131e-07 3.9745697417314406e-07 4.6113105492089497e-07 4.1754218035215616e-07 4.9396711038266404e-07 3.4889947093154406e-07 3.5115453533685055e-07 4.1564826590122357e-07 3.4768202002659363e-07 4.169399694563693e-07 3.9149771560633186e-07 3.4925907844212021e-07 3.8963205772672788e-07 3.1873950727947198e-07 3.5848750038984333e-07 3.17974583364216e-07 3.9015681648648489e-07 3.6253874416440773e-07 3.5781765489647465e-07 4.2088690225450782e-07 3.5710701404915657e-07 3.9185598542030496e-07 4.2151035150725248e-07 4.6101478759897598e-07 5.0386292664498175e-07 4.2280763557222683e-07 4.6068496275301623e-07 3.9124659080910401e-07 4.1729251144396555e-07 4.6115630901205385e-07 4.2266865930520134e-07 3.9096122699200073e-07 4.6499089330225814e-07 5.1403569097363234e-07 5.4362120958016266e-07 4.6330718120925221e-07 4.9146622046229559e-07 5.1542159277400753e-07 4.6266646211754846e-07 5.4709086254674718e-07 5.034254249648686e-07 5.9793344098808595e-07 5.7435457428336526e-07 5.492231907846041e-07 5.7577406265080378e-07 5.8808873704109618e-07 5.5917205501723525e-07 5.6034286011894132e-07 5.4151834653716657e-07 5.1647358317686952e-07 5.5211913670567918e-07 5.827320838962216e-07 5.5226257005600683e-07 5.5669482856248343e-07 4.9889252060043939e-07 5.3085697652041944e-07 5.5276427641285025e-07 5.3329245481348228e-07 5.4937693956166953e-07 5.2634033125263056e-07 5.4902327177670135e-07 5.3348746372987273e-07 5.3156162672837417e-07 5.3026106281568026e-07 4.8227588334937123e-07 4.751008951941683e-07 5.3628402121092688e-07 4.9349067402163859e-07 5.6302838806611495e-07 5.1529471447694631e-07 4.9342342641798828e-07 4.9443234885768228e-07 5.6075818183131256e-07 5.2601554078040286e-07 5.921050182584107e-07 5.3043920515596445e-07 5.5675868105391867e-07 5.9321399000826198e-07 5.6080779173359214e-07 5.3059809209171992e-07 4.8609998517830683e-07 5.2539663252341908e-07 5.6465281168926321e-07 5.8964824889644328e-07 6.1534873249314197e-07 5.9938409670841775e-07 5.8565067572738369e-07 6.0193469840323246e-07 5.6683551479481802e-07 5.9158346021559277e-07 5.9300327486501736e-07 6.0442036825528522e-07 5.8574457079380673e-07 5.6369197010144923e-07 6.0038301294031192e-07 6.0533739190461187e-07 5.5959730444453885e-07 5.5174994574369478e-07 5.7328026138574479e-07 5.9935806506918868e-07 5.5591600926072965e-07 5.8000985822293677e-07 5.5003848820655405e-07 5.0751854615736374e-07 5.7884972851517745e-07 5.0905225166072374e-07 5.4136196827912903e-07 4.9443925846472048e-07 5.0322055970512141e-07 5.5361797260118085e-07 4.965772782078822e-07 5.5116183786498259e-07 5.5846909199419596e-07 4.9312649828330867e-07 4.0812874958284004e-07 4.4196916746152599e-07 4.9264055001658372e-07 4.4256046644043422e-07 5.0436027553050964e-07 5.0487135945475431e-07 4.4242820716931906e-07 4.2224751491932207e-07 3.6032164251231778e-07 4.2261159081284473e-07 4.413093453417333e-07 3.6068661242538723e-07 4.4122469929680747e-07 4.0861740193728855e-07 3.7645584855039041e-07 4.0831049218678487e-07 4.5012973409642767e-07 3.7782328674764511e-07 3.2862246342903482e-07 4.065471176470964e-07 4.9271015608821981e-07 5.2735840396060229e-07 4.5193338702930194e-07 4.9355871745617117e-07 4.5098002843844281e-07 4.0771326407587168e-07 4.8334148491841921e-07 4.5136920072812266e-07 5.2796248527274327e-07 3.76738571941407e-07 4.4995397909301752e-07 3.9824283234011549e-07 4.8326860331010207e-07 3.9701432756275901e-07 4.5092514061814996e-07 3.9297362743826234e-07 3.2751002424118822e-07 3.1299899403705082e-07 3.7740759376745398e-07 3.9654512010085274e-07 3.0947702891488146e-07 3.7487959030198829e-07 3.1282344073928739e-07 3.3186808236558852e-07 2.6384615302250439e-07 3.2894902816207262e-07 3.1506410586419249e-07 2.7061242108389814e-07 3.0730786571468008e-07 2.467445078143075e-07 2.8306435958274774e-07 2.452311932906184e-07 3.0960761920848622e-07 2.7951165024649204e-07 3.1438733288522551e-07 3.2697574692218775e-07 3.5676619487808734e-07 2.8504511115909616e-07 2.9623719301448124e-07 3.5944284864263786e-07 3.3189360492814089e-07 2.8253038036075279e-07 3.6289267474646203e-07 4.0614319080798392e-07 3.2894981237243477e-07 2.6629543337478084e-07 2.8780201322255205e-07 3.2676671229442594e-07 2.7017367767594933e-07 2.3618356777520247e-07 2.8378977934191334e-07 2.4745788205688315e-07 2.9478362073464226e-07 2.8699013622220704e-07 2.4947615564537225e-07 2.4184326359945324e-07 2.2668697036303948e-07 2.5204126225452885e-07 2.8184944825247697e-07 2.3822332551822586e-07 2.6555731315643428e-07 2.3901984593783721e-07 2.4141988922483258e-07 2.2787420586139624e-07 2.2511597969118041e-07 2.3330655078787081e-07 2.1777124643908379e-07 2.3860658054953938e-07 2.4027991783565131e-07 2.1862592623415533e-07 2.2959405271234496e-07 2.3773589951767613e-07 2.2458702838804315e-07 2.1950936723734286e-07 2.2499656142440531e-07 2.7811623090741876e-07 2.4761420848949038e-07 2.5114723772292336e-07 2.6679483139648873e-07 2.525687341890783e-07 2.384436103995064e-07 2.3296624524936434e-07 2.2797122272516209e-07 2.3366791508471341e-07 2.2276792896745102e-07 2.487362975791726e-07 2.4861958893629836e-07 2.2489253437440379e-07 2.4098837506953238e-07 2.4782483262333463e-07 2.343604227733601e-07 2.3141610411116378e-07 2.4104028332270067e-07 2.6467394416870701e-07 2.45896289893437e-07 2.8597663622978341e-07 2.8176137941145645e-07 2.8838847975109883e-07 2.4285188353144465e-07 2.6246688592347881e-07 2.4115953952915111e-07 2.4924941592136356e-07 2.629413131651332e-07 2.5487479410168575e-07 2.40791823977233e-07 2.3728530475610551e-07 2.3455918973283009e-07 2.3919446835664817e-07 2.2982424966641697e-07 2.4570615615412979e-07 2.4334449376985136e-07 2.3192510595761476e-07 2.4345314250111352e-07 2.5098876369512909e-07 2.3921359588116292e-07 2.3761794422028276e-07 2.4232516122370198e-07 2.3268077776274184e-07 2.5045638539938318e-07 2.4633010378047046e-07 2.3542512548252667e-07 2.4574545903469482e-07 2.5063802152662357e-07 2.6486938754285941e-07 2.5251155808841946e-07 2.4437177559910121e-07 2.6853125231232421e-07 2.8320642402096021e-07 2.4845579233980608e-07 2.6518722848231206e-07 2.9038892479212749e-07 2.5173433345614639e-07 2.6814159059121541e-07 2.5183080267099737e-07 2.8991531812286488e-07 2.6608427898102077e-07 2.4367103986045643e-07 2.5436152625742765e-07 3.3289011214977278e-07 2.83927871545346e-07 2.9467653301217235e-07 2.9315899425285439e-07 2.8638723392319501e-07 2.6637293241382384e-07 3.5894011606036212e-07 3.9245738282928394e-07 3.360254076683741e-07 3.5621003665517311e-07 3.377769580175874e-07 2.8961022617053482e-07 3.589670734994936e-07 3.2335242910651542e-07 4.0245290811583707e-07 3.5580494900408355e-07 2.9041866438103147e-07 3.2668875236302746e-07 3.7722369019147919e-07 4.0374520162869168e-07 3.2211228905934997e-07 3.747182480565348e-07 3.2499167332422191e-07 3.2751373622765959e-07 3.7740083048702777e-07 3.2443829338889063e-07 3.965179295072944e-07 2.8134492177315824e-07 3.2506521088636347e-07 2.8994909575920471e-07 3.2526793041650411e-07 2.8791594436849957e-07 3.2741153523187882e-07 2.5970535416226379e-07 2.9063062862219589e-07 3.2164286178077196e-07 2.5948628374422635e-07 3.2091353651522907e-07 2.9509271222941762e-07 2.7414624386296525e-07 2.8895436224552081e-07 2.6032701649696125e-07 2.7073058414209162e-07 2.6324572169729496e-07 2.4711146821973784e-07 2.5794823221008005e-07 2.9074105472268246e-07 2.9323143594110348e-07 2.4082707626547765e-07 2.5109373252656221e-07 2.5890696488779824e-07 2.4662019323231068e-07 2.4468266712110287e-07 2.5390464911541639e-07 2.3970485089371555e-07 2.5234712599847784e-07 2.5089048613890801e-07 2.4560140650897966e-07 2.4401713321239305e-07 2.4746074796068129e-07 2.6993810380311931e-07 2.4808187725294978e-07 2.555241415828694e-07 2.4970580109044839e-07 2.7517292967566318e-07 2.9384898667161547e-07 2.7415209929474639e-07 2.5064426155726485e-07 2.9298475032654644e-07 2.4326060823385521e-07 2.4136665838731714e-07 2.4824631230307377e-07 2.3537873389354982e-07 2.5117932087797016e-07 2.5399673433763499e-07 2.4097002020757711e-07 2.395157666714308e-07 2.4587862270786338e-07 2.5450421935227318e-07 2.5186809254511161e-07 2.7174610414945768e-07 2.4779638002801337e-07 2.8361914272531045e-07 2.7484817979806059e-07 3.043957096978669e-07 2.8324105657446008e-07 3.3351220527653453e-07 3.0271445224353658e-07 2.7338494724865693e-07 2.8598898700744088e-07 3.9156870199775018e-07 3.4806406404779683e-07 3.3662062118264263e-07 3.0122565230582718e-07 3.374342420076692e-07 3.4691615528257995e-07 3.932794385488943e-07 3.3461348773539178e-07 3.933787488721091e-07 3.5538421593658502e-07 2.9294183981269511e-07 3.4782533642691179e-07 3.9349744080208213e-07 4.0167452005943435e-07 3.4611899994664672e-07 3.5680110259973013e-07 3.4760054793208669e-07 4.0053739783191298e-07 3.035834666136507e-07 3.4475565625681133e-07 2.9660478420390692e-07 3.0336716624095492e-07 2.9755068044733138e-07 2.7289312163221951e-07 2.7028483600371543e-07 2.9774338252571736e-07 3.1660056968708424e-07 2.7109752910022715e-07 3.1545868551308718e-07 2.9165797916439759e-07 3.5346903279659387e-07 3.1914713527367198e-07 2.9503352249080846e-07 3.558614466955056e-07 4.1435124925771806e-07 3.7003293403947998e-07 3.5675139865128935e-07 3.6896436870429906e-07 3.1610153311321859e-07 3.2404736447539678e-07 3.701440927867057e-07 3.9131479099565577e-07 3.2733542030824818e-07 3.1787597560153172e-07 3.671148474070048e-07 3.2664248574736388e-07 2.8903420043038112e-07 3.1884999525629428e-07 3.2515725582173237e-07 2.9406545801298441e-07 2.904529013024915e-07 5.2665216380975914e-07 5.2108450966593582e-07 4.8205722331611169e-07 5.2706900412366788e-07 4.8165486550435544e-07 4.861597723055832e-07 4.2181977984511235e-07 4.8611952626214515e-07 4.8147587368290931e-07 4.6105305968395623e-07 4.8154967265212606e-07 5.2172609545175753e-07 4.2160220721426548e-07 3.9317643506138296e-07 3.6892735854748187e-07 4.2191218223688597e-07 4.8149232974483788e-07 4.6092147379250718e-07 4.2258666447818138e-07 4.6003322398268026e-07 3.9187638994266462e-07 4.2232198913011411e-07 4.1586213995567646e-07 4.8570061198091567e-07 4.2202680011006146e-07 3.6839649392227115e-07 4.1606074176276944e-07 4.6335356087578921e-07 4.8602600991671612e-07 4.1547298961111976e-07 4.6338070200078479e-07 5.0804023174627063e-07 4.8613945250987663e-07 5.2626781170234475e-07 4.8708654939219571e-07 5.4762496465697674e-07 4.8680480457434657e-07 5.0770194673169818e-07 5.4791832317043187e-07 5.5084855301432717e-07 5.0804031668378415e-07 5.0782121655446101e-07 4.4578087795322443e-07 5.0818679741197483e-07 4.6340439771130735e-07 4.6360762423363775e-07 5.0782498014012214e-07 5.0777685990045833e-07 4.62776863544489e-07 4.1609783897804329e-07 4.0178661744599309e-07 3.5481144792112561e-07 4.0222870093540963e-07 4.1532477487813118e-07 4.6314215387244905e-07 4.0126733792244976e-07 4.4573847556316965e-07 3.934096707155017e-07 4.4503772140526245e-07 4.0215346685544325e-07 4.4936099427566915e-07 3.9348365640871799e-07 3.9364325102566823e-07 4.5008756357720359e-07 4.4562284425080845e-07 3.9256055770792533e-07 4.5063292183380199e-07 5.2434765680212323e-07 4.9195446043657009e-07 4.9247719495097788e-07 5.2364227650173244e-07 5.2880788586596693e-07 4.5029772660210078e-07 4.9220971975020557e-07 4.4572152477638814e-07 4.9199727767451868e-07 5.0795708737973951e-07 4.4590342508604063e-07 4.9215834117998402e-07 5.2904381131366619e-07 5.0775501929666929e-07 5.6069544177042895e-07 5.2873715078191506e-07 5.2385136702627544e-07 5.5921655353948226e-07 5.2570030344020349e-07 5.7392417990177283e-07 5.5988104165184582e-07 5.540465312744711e-07 5.2936667551282868e-07 5.6101507247401366e-07 5.9258422480724146e-07 5.8138851556010944e-07 5.6053292998010827e-07 5.723325150880908e-07 5.9286187089672915e-07 6.0301761604428335e-07 5.9104814197726571e-07 5.7426880383961343e-07 6.0096824815694638e-07 6.1729294720848195e-07 5.9306687569664298e-07 6.0704125248074869e-07 6.1439808285210236e-07 6.2386348127108988e-07 6.0436328427366046e-07 5.9339204584943561e-07 6.1723416108221602e-07 6.0608587687451749e-07 5.8250253728425825e-07 5.9121941749767471e-07 6.0637724278430662e-07 5.8894671185563417e-07 5.8214370735095195e-07 6.0449369102360149e-07 6.182219901635519e-07 5.9135448851359624e-07 6.0694381033599696e-07 6.2393665672538351e-07 6.1568357916550169e-07 6.2733955095670372e-07 6.1855106355445975e-07 6.2111178886427426e-07 6.1207992988835266e-07 6.1571212021942612e-07 6.2687093047191243e-07 6.1046938547898446e-07 5.9201144539991403e-07 6.1753894351678437e-07 5.5208431057641748e-07 5.8987440293655454e-07 5.8523666201438117e-07 5.5036796778869938e-07 5.5416400720733674e-07 5.9149890025507423e-07 5.8969874372804561e-07 5.5575407936088496e-07 5.8157888815365489e-07 5.5940382814103195e-07 5.8270788424428807e-07 5.5457913369825019e-07 5.0843898841331666e-07 5.2856348916943858e-07 5.5494681717031267e-07 5.4979716662809727e-07 5.0889355269191974e-07 5.5451951907432399e-07 5.4981332684248932e-07 5.874777073384298e-07 5.4727611715064313e-07 5.5015999783385257e-07 5.4671223154700583e-07 5.0871946192505429e-07 5.9092643177143979e-07 5.4943153053496378e-07 5.8540389842161721e-07 6.1320930329640963e-07 5.859623241943191e-07 5.8903495757923666e-07 6.1144409173291182e-07 6.1044968274150167e-07 5.8791723707334826e-07 6.2437794671484535e-07 6.199652621636279e-07 6.2510559077978669e-07 6.1216678399181749e-07 6.2683613581201626e-07 6.1887050012575321e-07 6.1073846612151251e-07 6.1972242522183518e-07 6.1044999126595319e-07 6.2602688711337328e-07 6.1183322873441828e-07 6.1881686696083658e-07 6.2703399916000725e-07 6.1460979817366375e-07 6.1096426269161777e-07 5.9028289081765696e-07 5.8573253502362378e-07 6.1233295787451214e-07 5.9260254140622637e-07 6.1009345014069307e-07 6.1549413908998655e-07 5.9092554425528159e-07 6.1739970004201038e-07 5.9588534855523283e-07 6.2401257209211827e-07 6.2990888878581443e-07 6.1819333853156859e-07 6.2039372386995124e-07 6.1655630761308346e-07 6.3157157518524878e-07 6.2217241783609082e-07 5.9889825172548203e-07 6.1457978785204776e-07 5.6699563218895417e-07 5.6247277984739426e-07 5.9793400691000469e-07 5.9036347366691631e-07 5.9637272291034851e-07 5.6409033775789757e-07 5.9270805826950202e-07 5.6211582829857754e-07 5.4774327470178599e-07 5.2692567089389699e-07 5.4651708888882039e-07 5.6278841203500706e-07 5.2651048617811344e-07 5.6352247458305246e-07 5.2138650571240708e-07 5.6723236501689834e-07 5.2273846321383396e-07 5.6220155190330294e-07 4.7120174656768748e-07 4.4719122397181531e-07 5.179762035606451e-07 4.7306987585189662e-07 5.1653887480868844e-07 5.5420792007864453e-07 4.834786820206141e-07 5.1768000446207238e-07 4.4739564248690674e-07 4.8348965003596655e-07 4.4734437778141492e-07 3.9700811195761787e-07 3.7624352278528054e-07 3.9813311610906476e-07 4.4611721004663331e-07 3.7616782131532755e-07 4.463267359718421e-07 4.0540011826944088e-07 4.7093823795474242e-07 4.0454138137118321e-07 4.4718645930021552e-07 3.563353520304854e-07 4.0539677226411684e-07 4.3725667999106704e-07 4.7098374531570838e-07 4.3848667196214938e-07 4.0461024938995044e-07 4.5011846661212509e-07 3.9287041943707671e-07 4.3824535685201365e-07 3.5689156812554477e-07 4.3667501810773465e-07 3.9411759186113973e-07 4.3850944817206271e-07 5.1557363539445399e-07 4.8216561033149862e-07 5.2368815811516852e-07 4.8243652478581519e-07 5.1494657295803036e-07 4.5066005278691189e-07 4.8218137355883666e-07 5.2436318046489918e-07 4.5035667307075258e-07 4.3824680399763778e-07 4.8239249269996315e-07 4.726022011433639e-07 5.5443083791053552e-07 5.1461863674526592e-07 4.71236879659022e-07 5.1564248735327484e-07 4.3838072720678121e-07 5.7328750043429894e-07 5.5584619564080701e-07 6.1319256334170922e-07 5.7564170798539952e-07 5.168969248022637e-07 5.5178184845695687e-07 5.7782890030180728e-07 5.238593403224021e-07 5.1581840312878697e-07 5.7438967517913602e-07 5.7295742442858691e-07 5.2673785863469659e-07 5.7388111127210193e-07 6.0431138042466925e-07 5.7309522597400139e-07 5.78292173086459e-07 6.1313943982455304e-07 6.0095710767668381e-07 6.0452389349217151e-07 6.0971084861899466e-07 6.2567934879532862e-07 6.053490222868673e-07 6.2526725740368477e-07 6.1409472551312324e-07 5.7923458506632277e-07 6.0563977488373027e-07 6.1138899540976392e-07 6.0708439222284728e-07 6.0197080942555571e-07 6.2237727110271947e-07 5.7324609916732322e-07 6.0184187163752904e-07 6.0634185789100118e-07 5.6942852053147624e-07 5.5174480167473886e-07 5.1838045612097126e-07 5.673898510888566e-07 6.1333003665873681e-07 5.5543186476948102e-07 5.6855457058301193e-07 5.1971123544086632e-07 5.618433956600439e-07 4.85454685851666e-07 5.6585881622998666e-07 5.1664757296450005e-07 5.6875328316149774e-07 6.0113978545920055e-07 6.010354211286246e-07 5.6881580659132928e-07 5.6233957517720012e-07 6.0664561998051934e-07 6.143731711559487e-07 6.0240114562451799e-07 5.9894664962899112e-07 6.0952262816978974e-07 6.0463499813679202e-07 6.0869714397414623e-07 6.147253878999185e-07 6.0407762015472474e-07 6.0227649035963599e-07 6.1438104399086893e-07 6.0248865244670524e-07 6.1208594286528965e-07 5.5646826153475927e-07 5.2969898866069228e-07 6.0022348537637057e-07 5.8875265956442844e-07 6.234061698601992e-07 5.9157297732789323e-07 5.8230695082713141e-07 5.9872200187929851e-07 5.3481644954592746e-07 5.925978542072175e-07 5.2238825767909229e-07 5.1767104564542845e-07 6.122313225797903e-07 6.1829479880920462e-07 5.9369432009969214e-07 6.1023208321140155e-07 6.155310248864047e-07 6.0722565472454349e-07 6.2769316370976291e-07 6.1132429047338723e-07 6.0778023270596205e-07 6.1849488494464583e-07 6.1702489896666744e-07 6.1302909288007927e-07 6.2103501814810492e-07 6.1906814261684537e-07 6.1725266939091835e-07 6.1243217526370675e-07 6.120818811308604e-07 6.263005376203362e-07 6.2083516561013311e-07 6.24448916280174