<?xml version="1.0"?>
<VTKFile type="UnstructuredGrid" version="0.1" byte_order="LittleEndian">
<UnstructuredGrid>
<Piece NumberOfPoints="6397" NumberOfCells="2159">
<Points>
<DataArray type="Float64" NumberOfComponents="3" format="ascii">
2.66344351959326 0 2.7043277307795819 0 0 0 0 0 3.999999999999964 2.66344351959326 0 2.7043277307795819 0 0 0 4.0000000000284359 0 0 4.0000000000284359 0 0 6.5707172755705248 0 2.7646612833128712 8.0000000000568576 0 0 2.66344351959326 0 2.7043277307795819 4.0000000000284359 0 0 6.5707172755705248 0 2.7646612833128712 2.66344351959326 0 2.7043277307795819 4.6209038898330013 0 5.4801965510881789 6.5707172755705248 0 2.7646612833128712 2.66344351959326 0 2.7043277307795819 4.6209038898330013 0 5.4801965510881789 2.07684632842173 0 5.9999999999999467 2.07684632842173 0 5.9999999999999467 0 0 3.999999999999964 0 0 7.9999999999999289 2.66344351959326 0 2.7043277307795819 2.07684632842173 0 5.9999999999999467 0 0 3.999999999999964 12.00000000008531 0 0 8.0000000000568576 0 0 9.7693469607982983 0 3.7481879779097791 12.00000000008531 0 0 9.7693469607982983 0 3.7481879779097791 13.38972239314738 0 2.6999177402855641 6.5707172755705248 0 2.7646612833128712 8.0000000000568576 0 0 9.7693469607982983 0 3.7481879779097791 9.7693469607982983 0 3.7481879779097791 10.475932525657869 0 6.5236477926518619 7.8296048838167076 0 7.2849290530216786 4.6209038898330013 0 5.4801965510881789 6.5707172755705248 0 2.7646612833128712 7.8296048838167076 0 7.2849290530216786 6.5707172755705248 0 2.7646612833128712 9.7693469607982983 0 3.7481879779097791 7.8296048838167076 0 7.2849290530216786 9.7693469607982983 0 3.7481879779097791 10.475932525657869 0 6.5236477926518619 13.00967717205546 0 5.6551885328941403 9.7693469607982983 0 3.7481879779097791 13.00967717205546 0 5.6551885328941403 13.38972239314738 0 2.6999177402855641 10.475932525657869 0 6.5236477926518619 11.30969053719768 0 9.1676850296155816 7.8296048838167076 0 7.2849290530216786 10.475932525657869 0 6.5236477926518619 11.30969053719768 0 9.1676850296155816 13.00967717205546 0 5.6551885328941403 7.8296048838167076 0 7.2849290530216786 7.9090244117951407 0 10.95102642914321 3.8041353317600799 0 9.4838326041714431 11.30969053719768 0 9.1676850296155816 7.8296048838167076 0 7.2849290530216786 7.9090244117951407 0 10.95102642914321 11.30969053719768 0 9.1676850296155816 10.704055794530859 0 12.6223006550824 14.32798837506134 0 12.48911227050972 11.30969053719768 0 9.1676850296155816 7.9090244117951407 0 10.95102642914321 10.704055794530859 0 12.6223006550824 2.07684632842173 0 5.9999999999999467 0 0 7.9999999999999289 3.8041353317600799 0 9.4838326041714431 4.6209038898330013 0 5.4801965510881789 2.07684632842173 0 5.9999999999999467 3.8041353317600799 0 9.4838326041714431 4.6209038898330013 0 5.4801965510881789 7.8296048838167076 0 7.2849290530216786 3.8041353317600799 0 9.4838326041714431 7.9090244117951407 0 10.95102642914321 3.8041353317600799 0 9.4838326041714431 5.4255954274940468 0 12.775317011400031 3.8041353317600799 0 9.4838326041714431 2.640550250250365 0 13.30343526213797 5.4255954274940468 0 12.775317011400031 3.8041353317600799 0 9.4838326041714431 0 0 11.99999999999994 2.640550250250365 0 13.30343526213797 0 0 7.9999999999999289 3.8041353317600799 0 9.4838326041714431 0 0 11.99999999999994 0 0 11.99999999999994 2.640550250250365 0 13.30343526213797 0 0 15.99999999999995 2.640550250250365 0 13.30343526213797 0 0 15.99999999999995 3.973020491997699 0 16.258026695118499 3.973020491997699 0 16.258026695118499 0 0 19.999999999999961 4.5806639609469997 0 19.862710269054769 0 0 15.99999999999995 3.973020491997699 0 16.258026695118499 0 0 19.999999999999961 3.973020491997699 0 16.258026695118499 8.3266277160981126 0 17.7004192385895 4.5806639609469997 0 19.862710269054769 2.640550250250365 0 13.30343526213797 3.973020491997699 0 16.258026695118499 5.4255954274940468 0 12.775317011400031 3.973020491997699 0 16.258026695118499 5.4255954274940468 0 12.775317011400031 7.7404602345423204 0 14.54380321958984 7.9090244117951407 0 10.95102642914321 5.4255954274940468 0 12.775317011400031 7.7404602345423204 0 14.54380321958984 7.9090244117951407 0 10.95102642914321 7.7404602345423204 0 14.54380321958984 10.704055794530859 0 12.6223006550824 10.704055794530859 0 12.6223006550824 11.75402814782707 0 15.52236706552506 14.32798837506134 0 12.48911227050972 7.7404602345423204 0 14.54380321958984 10.704055794530859 0 12.6223006550824 11.75402814782707 0 15.52236706552506 11.75402814782707 0 15.52236706552506 8.3266277160981126 0 17.7004192385895 13.52887381105845 0 19.07917103906707 3.973020491997699 0 16.258026695118499 7.7404602345423204 0 14.54380321958984 8.3266277160981126 0 17.7004192385895 7.7404602345423204 0 14.54380321958984 11.75402814782707 0 15.52236706552506 8.3266277160981126 0 17.7004192385895 8.3266277160981126 0 17.7004192385895 7.3734437617054036 0 20.587411399876569 10.178007277726421 0 21.724671481347961 8.3266277160981126 0 17.7004192385895 7.3734437617054036 0 20.587411399876569 4.5806639609469997 0 19.862710269054769 8.3266277160981126 0 17.7004192385895 10.178007277726421 0 21.724671481347961 13.52887381105845 0 19.07917103906707 10.178007277726421 0 21.724671481347961 14.320961795774391 0 23.32619268761443 12.706931992858721 0 26.37471591010971 10.178007277726421 0 21.724671481347961 9.5697619165960202 0 25.659496374512631 12.706931992858721 0 26.37471591010971 7.3734437617054036 0 20.587411399876569 10.178007277726421 0 21.724671481347961 6.1768732550549936 0 23.87473028151155 10.178007277726421 0 21.724671481347961 6.1768732550549936 0 23.87473028151155 9.5697619165960202 0 25.659496374512631 6.1768732550549936 0 23.87473028151155 3.191276734414644 0 22.850474519006632 4.5806639609469997 0 19.862710269054769 6.1768732550549936 0 23.87473028151155 3.191276734414644 0 22.850474519006632 2.3692638314996421 0 25.57295210895003 3.191276734414644 0 22.850474519006632 0 0 23.999999999999961 2.3692638314996421 0 25.57295210895003 3.191276734414644 0 22.850474519006632 0 0 23.999999999999961 0 0 19.999999999999961 3.191276734414644 0 22.850474519006632 0 0 19.999999999999961 4.5806639609469997 0 19.862710269054769 7.3734437617054036 0 20.587411399876569 6.1768732550549936 0 23.87473028151155 4.5806639609469997 0 19.862710269054769 19.3670580238695 0 21.362300660710609 22.065959340448551 0 19.437990615481549 18.189362734038401 0 18.146622260735661 19.3670580238695 0 21.362300660710609 22.065959340448551 0 19.437990615481549 21.978233404233009 0 23.15428695841441 22.065959340448551 0 19.437990615481549 21.978233404233009 0 23.15428695841441 25.850420345530981 0 21.055002092136121 22.065959340448551 0 19.437990615481549 25.329272956002221 0 17.272042519131851 25.850420345530981 0 21.055002092136121 24.93874764187542 0 23.98167172788246 21.978233404233009 0 23.15428695841441 23.656620175023871 0 26.516952020808031 24.93874764187542 0 23.98167172788246 21.978233404233009 0 23.15428695841441 25.850420345530981 0 21.055002092136121 21.978233404233009 0 23.15428695841441 18.12566666875647 0 24.807977381442431 20.850945221766889 0 25.693946049239369 19.3670580238695 0 21.362300660710609 21.978233404233009 0 23.15428695841441 18.12566666875647 0 24.807977381442431 19.3670580238695 0 21.362300660710609 18.12566666875647 0 24.807977381442431 16.476067971871089 0 21.26462608747898 18.12566666875647 0 24.807977381442431 14.320961795774391 0 23.32619268761443 16.476067971871089 0 21.26462608747898 14.320961795774391 0 23.32619268761443 13.52887381105845 0 19.07917103906707 16.476067971871089 0 21.26462608747898 10.178007277726421 0 21.724671481347961 14.320961795774391 0 23.32619268761443 13.52887381105845 0 19.07917103906707 13.52887381105845 0 19.07917103906707 16.476067971871089 0 21.26462608747898 18.189362734038401 0 18.146622260735661 19.3670580238695 0 21.362300660710609 16.476067971871089 0 21.26462608747898 18.189362734038401 0 18.146622260735661 18.189362734038401 0 18.146622260735661 15.304671521166791 0 16.081754755268189 18.07077599594691 0 14.35233389632198 13.52887381105845 0 19.07917103906707 18.189362734038401 0 18.146622260735661 15.304671521166791 0 16.081754755268189 11.75402814782707 0 15.52236706552506 13.52887381105845 0 19.07917103906707 15.304671521166791 0 16.081754755268189 11.75402814782707 0 15.52236706552506 15.304671521166791 0 16.081754755268189 14.32798837506134 0 12.48911227050972 15.304671521166791 0 16.081754755268189 18.07077599594691 0 14.35233389632198 14.32798837506134 0 12.48911227050972 18.07077599594691 0 14.35233389632198 20.805575156043471 0 12.76286797642741 21.645419707662882 0 16.026045520337629 18.07077599594691 0 14.35233389632198 20.805575156043471 0 12.76286797642741 18.151638481708599 0 10.60760059465326 22.065959340448551 0 19.437990615481549 18.189362734038401 0 18.146622260735661 21.645419707662882 0 16.026045520337629 18.189362734038401 0 18.146622260735661 18.07077599594691 0 14.35233389632198 21.645419707662882 0 16.026045520337629 22.065959340448551 0 19.437990615481549 21.645419707662882 0 16.026045520337629 25.329272956002221 0 17.272042519131851 20.805575156043471 0 12.76286797642741 21.645419707662882 0 16.026045520337629 24.597882896029191 0 13.513174052093371 21.645419707662882 0 16.026045520337629 24.597882896029191 0 13.513174052093371 25.329272956002221 0 17.272042519131851 24.597882896029191 0 13.513174052093371 22.300015122859559 0 9.3990893396401489 26.400761617221551 0 9.9352243108510194 20.805575156043471 0 12.76286797642741 24.597882896029191 0 13.513174052093371 22.300015122859559 0 9.3990893396401489 20.805575156043471 0 12.76286797642741 22.300015122859559 0 9.3990893396401489 18.151638481708599 0 10.60760059465326 22.300015122859559 0 9.3990893396401489 18.7518341141303 0 6.5935947010293026 18.151638481708599 0 10.60760059465326 22.300015122859559 0 9.3990893396401489 18.7518341141303 0 6.5935947010293026 22.915953587178709 0 4.522588068116459 22.300015122859559 0 9.3990893
[...]
<PointData Scalars="I_conc," Vectors="" Tensors="">
<DataArray type="Float64" Name="I_conc" format="ascii">
2.914686559781916e-07 2.8043201887353289e-07 2.8567522043527199e-07 2.9001812487842459e-07 2.8212990144652698e-07 2.9234665987070947e-07 2.9259328679961468e-07 2.9961369987453906e-07 3.0162005843770557e-07 2.9107024995465534e-07 2.9120577878784933e-07 3.0093354488704088e-07 2.9121575197032222e-07 3.0145714250146702e-07 3.0089269907795989e-07 2.9004826285547255e-07 3.0249246234999167e-07 2.9720751974705394e-07 2.976009491464707e-07 2.856414783541382e-07 2.9783405634341057e-07 2.9071180373858167e-07 2.9669523613877616e-07 2.8666519539562357e-07 3.0996354131074509e-07 3.0160890575913593e-07 3.0757981396279357e-07 3.0835276348882239e-07 3.0942627901711132e-07 3.1511860982116188e-07 3.0103245560088692e-07 3.0019017319414052e-07 3.0936081522154915e-07 3.0869061917584517e-07 3.1942054567745177e-07 3.1600389527966356e-07 3.0271421415155143e-07 2.9931983220148466e-07 3.1529959897989864e-07 3.0014665527170571e-07 3.1004730171344056e-07 3.1450051290566972e-07 3.090649231449499e-07 3.1905217036307604e-07 3.2197088989053239e-07 3.1021268033997658e-07 3.2082650397011236e-07 3.1455704465606429e-07 3.1920164283846592e-07 3.3109743415802422e-07 3.1649361526855379e-07 3.1943598364636173e-07 3.307523855206371e-07 3.2153466782009411e-07 3.159197856228606e-07 3.3107069833395153e-07 3.1518972390974039e-07 3.3176219093837741e-07 3.1575522925670288e-07 3.3115750752313964e-07 3.3151319464258431e-07 3.4493748989932533e-07 3.5213182645444384e-07 3.3160166524241637e-07 3.3144165388777658e-07 3.4488466242181777e-07 2.9688880154074747e-07 2.9869489692865204e-07 3.1441153278127176e-07 3.022680487687296e-07 2.9741392355107276e-07 3.1379513822123734e-07 3.017225807341959e-07 3.1660089222074115e-07 3.1439734857204706e-07 3.315152001075275e-07 3.1481600392176853e-07 3.3253130718969616e-07 3.149442644918815e-07 3.2683810522288501e-07 3.3237970128774698e-07 3.1511124690719139e-07 3.1411818491671076e-07 3.2675047225722453e-07 2.9819334570481904e-07 3.1509807887657002e-07 3.1405406960798953e-07 3.1444548969440418e-07 3.2656874831771957e-07 3.2776533385419142e-07 3.2742759110978866e-07 3.2669306231346425e-07 3.3929780901390952e-07 3.4274967292226488e-07 3.287940730282734e-07 3.4313900900712248e-07 3.2757931813750784e-07 3.392269532100636e-07 3.3261313132612382e-07 3.4103992020029679e-07 3.5273113044297698e-07 3.4484286193131867e-07 3.2663743969254186e-07 3.4034020110248837e-07 3.327896121780968e-07 3.400082485740709e-07 3.3305206438289548e-07 3.4458372730804545e-07 3.3174342977032858e-07 3.3236356654282976e-07 3.4509325433189914e-07 3.3164459832212581e-07 3.4530817402692845e-07 3.4481428287796124e-07 3.4492206175074124e-07 3.5832492078454331e-07 3.523640903490244e-07 3.4461017926152844e-07 3.4544242160976779e-07 3.5765617278578847e-07 3.5900696772962793e-07 3.527104811140391e-07 3.6715096617285593e-07 3.3900783449591973e-07 3.4561223780727703e-07 3.5415120130122646e-07 3.4539818238118715e-07 3.5707497179288397e-07 3.5448576236093479e-07 3.5681973864403911e-07 3.4826934939934247e-07 3.5340079774358228e-07 3.5509643505068421e-07 3.4943180420412362e-07 3.420063364891759e-07 3.5504396469649684e-07 3.5576848403177472e-07 3.6540729669423808e-07 3.5562912920671212e-07 3.5280249046560307e-07 3.2746162212114753e-07 3.5996858025338556e-07 3.2287517982350891e-07 3.2331787320694812e-07 3.49923379548667e-07 3.5161863549959051e-07 3.3280661522915722e-07 3.566276703398103e-07 3.2886583445941885e-07 3.2612046528321299e-07 3.3152090308461503e-07 3.277409115198036e-07 3.4655690278206228e-07 3.2920355188072064e-07 3.2904022330751854e-07 3.0606654884500998e-07 3.2876928357344447e-07 3.1096157708034052e-07 3.0619035965779154e-07 3.2747743689201403e-07 3.1345879099194182e-07 3.3286563536839854e-07 3.3106996660965688e-07 3.2856210550568686e-07 3.4319345108162784e-07 3.4880604582855917e-07 3.3475646245905633e-07 3.4368089979329024e-07 3.7513180884555677e-07 3.8137700289144783e-07 3.7655917018516181e-07 3.7225440903052894e-07 3.8444744016590841e-07 3.7145120128957586e-07 3.8459292988180181e-07 3.7201866860761369e-07 3.8378551237158991e-07 3.8104106393749455e-07 3.885011734537774e-07 3.8679012564709142e-07 3.6713330443959464e-07 3.6964407191659147e-07 3.4375399848440325e-07 3.6852137566179894e-07 3.6774772750488273e-07 3.8717070522049687e-07 3.705066826942186e-07 3.4824558042437851e-07 3.4577593960142929e-07 3.7595111060209519e-07 3.6788367545064998e-07 3.516586508836219e-07 3.7374829659380518e-07 3.5426080250354737e-07 3.6837299133092334e-07 3.5131553260763464e-07 3.5258110769610284e-07 3.7053543045118144e-07 3.5636775014285539e-07 3.6870493504736748e-07 3.6725915559211105e-07 3.5148367583020718e-07 3.5581769451544657e-07 3.6962333072916091e-07 3.6555893320791175e-07 3.7006841953664007e-07 3.7630100314059041e-07 3.7344333269064764e-07 3.6804867920766843e-07 3.7826555977440183e-07 3.7672087303370158e-07 3.6595885671405683e-07 3.6781708349339074e-07 3.6678187547056855e-07 3.7475195666430829e-07 3.6781162526396159e-07 3.5789184814247906e-07 3.6848739892695556e-07 3.6654997554860378e-07 3.5739756020987459e-07 3.667973056391025e-07 3.533503397413922e-07 3.6724882881995277e-07 3.6636040739234063e-07 3.5278878512761156e-07 3.6627496791420348e-07 3.6545944062916466e-07 3.7845631058485774e-07 3.669305622975696e-07 3.6480473559250601e-07 3.5142241203744634e-07 3.8317693479680703e-07 3.7469308835118288e-07 3.7970483113835663e-07 3.7710702350838925e-07 3.6771871410142871e-07 3.7744773971294015e-07 3.8390652006192836e-07 3.789613580370632e-07 3.8540194529360572e-07 3.6520308671991732e-07 3.7894006548551029e-07 3.7373293291371524e-07 3.7743106745126609e-07 3.7537296396365653e-07 3.8686034172222913e-07 3.7420658128040115e-07 3.5221955418107419e-07 3.6035852017157786e-07 3.6494204376832811e-07 3.7386066184911051e-07 3.5241682678650138e-07 3.650511706847802e-07 3.5236930821643042e-07 3.5117401837852405e-07 3.5238652639518475e-07 3.3422613267922364e-07 3.509413979538252e-07 3.5077551792311468e-07 3.3560709560648572e-07 3.3346641748129535e-07 3.5132570539204739e-07 3.4633154162837026e-07 3.3305288036486516e-07 3.5224451588896029e-07 3.4562502564309098e-07 3.6013659031993378e-07 3.3172513581113516e-07 3.5203343498556442e-07 3.3533902858461034e-07 3.5231582914996568e-07 3.5111899484046806e-07 3.3497233991207481e-07 3.6699460989569311e-07 3.5214703928641529e-07 3.5149392000632422e-07 3.3468858687080979e-07 3.5050289102352483e-07 3.3553724892513814e-07 3.3542249850133739e-07 3.3465129333162163e-07 3.2169023765552015e-07 3.315157959043381e-07 3.3534027214793252e-07 3.2074500854935053e-07 3.2112849612162341e-07 3.2324321109374021e-07 3.1435803088633847e-07 3.3410628376678767e-07 3.2185983467008806e-07 3.2228714949934582e-07 3.3412154466609519e-07 3.2314692885652957e-07 3.2695242926395947e-07 3.1763595839187713e-07 3.2493099516717455e-07 3.234656430725274e-07 3.2217494414713864e-07 3.1505536064191028e-07 3.273902362679183e-07 3.2186796399365274e-07 3.153257321305447e-07 3.1533561554581108e-07 3.0992170941510477e-07 3.1740317298419213e-07 3.1373070348886771e-07 3.4512833523745019e-07 3.3450892933279546e-07 3.3724526986579369e-07 3.3454959927751543e-07 3.3492426133276095e-07 3.2668087131136915e-07 3.2506289218954224e-07 3.2348694323547396e-07 3.2970688065411221e-07 3.3367759435364151e-07 3.2611323740656347e-07 3.3751868189263948e-07 3.33308249837975e-07 3.2760396068078898e-07 3.2691545700751806e-07 3.2910686883240472e-07 3.3384835384983138e-07 3.3489475601344633e-07 3.3671830806428685e-07 3.4531300430735787e-07 3.5027173379487701e-07 3.4609063028208432e-07 3.3594231692357488e-07 3.5087896693080243e-07 3.3769834351901884e-07 3.4460661249210174e-07 3.3767660068936654e-07 3.4474364216275683e-07 3.3757057070008557e-07 3.4440171795595992e-07 3.3389933596001773e-07 3.3696511141755842e-07 3.3811395104308686e-07 3.3225450619333793e-07 3.3650778595337047e-07 3.3840679561420058e-07 3.3844359922825196e-07 3.3625871013028611e-07 3.4312403513855388e-07 3.3823867255012068e-07 3.4157534154058718e-07 3.4179194119689767e-07 3.3651443381191038e-07 3.4319563963754392e-07 3.4294566627914965e-07 3.4025317311991648e-07 3.4297914778770808e-07 3.4676687918855169e-07 3.4254326922271508e-07 3.4972205517919758e-07 3.4740861986669844e-07 3.5081660047228055e-07 3.4619833391985142e-07 3.5699480357051568e-07 3.4543734215510179e-07 3.4347127950345428e-07 3.5661210723289196e-07 3.5072015572281809e-07 3.4353342649373566e-07 3.5648688403484043e-07 3.4231020262268964e-07 3.5010328195829462e-07 3.4424877359659709e-07 3.5769006834510542e-07 3.7142339465134817e-07 3.573871884544405e-07 3.5020711699005968e-07 3.5734315439944682e-07 3.5787779672944272e-07 3.7216537407652056e-07 3.745586798212226e-07 3.8467549821987943e-07 3.5696932531121884e-07 3.7217178388119181e-07 3.7442803872875017e-07 3.7462523250919473e-07 3.6330207431082714e-07 3.8262223799321938e-07 3.5709394848748393e-07 3.7435170089713821e-07 3.6342796392127204e-07 3.6345231542559469e-07 3.7390402429891154e-07 3.8237392835906273e-07 3.6332037230961905e-07 3.7401859018761725e-07 3.6016977127256498e-07 3.7405593544584291e-07 3.7387886995160799e-07 3.6034765080036277e-07 3.4599699173614383e-07 3.5982462964815979e-07 3.5131732834990184e-07 3.6316519266824956e-07 3.6021799161056104e-07 3.5092296335418971e-07 3.4416339740539348e-07 3.6253415683894277e-07 3.5137024479297127e-07 3.4408239282153333e-07 3.5783164595204445e-07 3.6245770615509895e-07 3.5610094775997502e-07 3.5860193100263185e-07 3.645901635577593e-07 3.5697501036072107e-07 3.498984276945912e-07 3.5756693151935976e-07 3.5543566111091234e-07 3.6506345335469742e-07 3.669173992823894e-07 3.555385816614393e-07 3.485871150881821e-07 3.5118385468256663e-07 3.5382984928288769e-07 3.4992823993491831e-07 3.5226625014497728e-07 3.4630992272757924e-07 3.5111935978822926e-07 3.4982835259600188e-07 3.5023212058800397e-07 3.478081216592531e-07 3.499228857046001e-07 3.5020004638631395e-07 3.5730800024875585e-07 3.5089826462764797e-07 3.4920735529191135e-07 3.5600388185529169e-07 3.6356205031258415e-07 3.5858581503560836e-07 3.4945249381125574e-07 3.6334080267827129e-07 3.4756090356798902e-07 3.4840772580917723e-07 3.4478749836674497e-07 3.5040695429852505e-07 3.4270388528186141e-07 3.4695809816003164e-07 3.4169984822423358e-07 3.4465407066010453e-07 3.4511404944641328e-07 3.5060292627265382e-07 3.4718989579464122e-07 3.550146699695101e-07 3.4599059630178882e-07 3.5591363921100955e-07 3.5712568238326274e-07 3.7156263293264648e-07 3.5724200396643389e-07 3.6510694247880241e-07 3.5550526715921072e-07 3.5777990519279994e-07 3.6473784433014256e-07 3.7211176171114493e-07 3.7727197202060825e-07 3.8668487486452817e-07 3.7213524389218086e-07 3.7709859119347506e-07 3.6463994250727873e-07 3.7222311564327176e-07 3.8648581329642222e-07 3.8455226186630409e-07 3.7720713765009913e-07 3.639059429174976e-07 3.8096181272217801e-07 3.7741086266547164e-07 3.9024820337100883e-07 3.8648279433163391e-07 3.7726027905293118e-07 3.8112810306529854e-07 3.9047872250353071e-07 3.7680880124785093e-07 3.649463797704475e-07 3.643923144768863e-07 3.5539931559930484e-07 3.6489505483340339e-07 3.6451686852156737e-07 3.5761713776341262e-07 3.6455856393185721e-07 3.7176008983364241e-07 3.5783314347235887e-07 3.714972310299618e-07 3.6531328736012558e-07 3.6414512009541908e-07 3.7225024550352933e-07 3.8077891164525738e-07 3.8120199431378678e-07 3.8593293984378064e-07 3.9498156614327263e-07 3.7194078425622812e-07 3.810807516930936e-07 3.8588044962403887e-07 3.8588787333340475e-07 3.7601371120902354e-07 3.9297754517016114e-07 3.720701738389331e-07 3.8578321909473755e-07 3.761277261753035e-07 3.721913047725514e-07 3.7596295549139146e-07 3.6475564460908415e-07 3.7570418773087858e-07 3.6503154899162611e-07 3.6714790551261351e-07 4.1110219250355874e-07 4.101351085540923e-07 4.0759287144080399e-07 4.1070017340186836e-07 4.0701137592746534e-07 4.0554452819571096e-07 4.0683414167983085e-07 3.9853147037041041e-07 4.0587408977146197e-07 4.1231936052749663e-07 4.0657218398507184e-07 4.0608889331312824e-07 3.8601565714663319e-07 3.9759165266821933e-07 3.9289122677476322e-07 4.0726200285387646e-07 3.9798956224971768e-07 4.0525681225648443e-07 3.9719107628989704e-07 3.9349085315600614e-07 4.0613341953647071e-07 3.9742788460930794e-07 3.9483799087480729e-07 4.070266000308651e-07 3.8619354305737413e-07 3.9736147716187352e-07 3.945708205380019e-07 3.9563691200835056e-07 4.0618429754360311e-07 4.0111203017594502e-07 4.0548356344966677e-07 4.0650144506634528e-07 4.0150826906694813e-07 4.0965092530313121e-07 4.0681856172177621e-07 4.0959114382594852e-07 4.0648552968253747e-07 4.0595554509585983e-07 4.0991331384789221e-07 4.0638033514133164e-07 4.0469571651712086e-07 4.0766249142456872e-07 4.0581851342238777e-07 4.0118925647220489e-07 3.9729629294350438e-07 4.0611755290465596e-07 4.0483102558109342e-07 4.0198607275297958e-07 3.9466230663272129e-07 4.0208370959809496e-07 3.9037929233495188e-07 3.8136124544770211e-07 3.9471258353210998e-07 3.901639024084654e-07 4.0153197951045239e-07 3.9086726839740715e-07 3.9683542165778875e-07 3.9021969127153187e-07 3.974583103607332e-07 3.8659581776073157e-07 3.8659261316001455e-07 3.9612190123234954e-07 3.8458130242703789e-07 3.9691171419263683e-07 3.8720910094615417e-07 3.9548636951568871e-07 3.9651262912774686e-07 4.0145940235723583e-07 4.0267855625456872e-07 4.0226275915011574e-07 4.0443359284775778e-07 4.0150336452424094e-07 3.9711284766668803e-07 3.9523889313830057e-07 4.0237043238848928e-07 4.050768531530302e-07 3.9803541577013842e-07 4.0161793046530879e-07 4.0459924959245517e-07 4.0181974976170224e-07 4.0471164408190116e-07 4.044029036126396e-07 4.0334362438620491e-07 4.0161638145890484e-07 4.0213731722260887e-07 3.9965770852791177e-07 4.0311363303088971e-07 4.0493776260083843e-07 4.0266476542633779e-07 4.0475630537469045e-07 4.0333159677051301e-07 3.9693626569923503e-07 4.0060964691419279e-07 4.0304659135875818e-07 3.9849019557243115e-07 3.9706786583921402e-07 3.9961253075771664e-07 3.96019380344473e-07 3.9028555369057812e-07 3.8479095423523599e-07 3.9710815866775575e-07 3.8915585624034298e-07 3.8337598625472227e-07 3.9439253883040862e-07 3.7864455123270859e-07 3.8478645385297657e-07 3.9723630979635653e-07 3.9306564100138604e-07 3.9610528975355405e-07 3.9396544060972174e-07 4.0126359200236046e-07 3.9414543247129667e-07 4.0069600846800884e-07 4.0104398162042589e-07 3.9311702778519258e-07 3.8906672895275761e-07 4.0200645570931046e-07 3.9431243376009632e-07 3.8779250857694765e-07 3.7869412161473663e-07 3.8909274636009007e-07 3.7110904556909954e-07 3.7740832586372781e-07 3.8780643075484971e-07 3.9457202520828663e-07 3.8023985922234809e-07 3.8873824759169187e-07 4.0232252528773478e-07 3.9378317245203574e-07 4.0130084121561701e-07 4.0818884184775455e-07 4.0383935514015561e-07 4.0235837351833179e-07 4.048082146839986e-07 4.0701856618959058e-07 4.0115406075300866e-07 4.0073740847858504e-07 4.0589751665321645e-07 4.0228034336565396e-07 4.014649377396223e-07 4.0513242524917394e-07 4.0533802655575e-07 4.041964465057493e-07 4.0558305876216711e-07 4.0579594300769677e-07 4.0517288983060831e-07 4.0662237087120996e-07 4.0660007930326926e-07 4.0897722970126319e-07 4.0536994360272778e-07 4.070963051630004e-07 4.0696165916580619e-07 4.0857744729347979e-07 4.104756545379598e-07 4.0396122388704008e-07 4.0498797688795014e-07 4.0072821866795378e-07 4.042456362320598e-07 3.9523742528844618e-07 4.053000242080767e-07 3.9431053567470306e-07 3.9635906110244977e-07 3.8924865700650672e-07 3.8297386631664886e-07 3.7944717518767073e-07 3.9459340684683724e-07 3.8873996766791111e-07 3.8024298396825431e-07 3.9391553168710737e-07 3.8913498757241738e-07 3.9636284277026717e-07 3.887179064095429e-07 3.8373761384105802e-07 3.9701986207372418e-07 3.8422151984920531e-07 3.9659665666434232e-07 3.9551810392772939e-07 4.0408364013568374e-07 3.9737966557103793e-07 4.0458293562869082e-07 3.9619695996384487e-07 3.9596770089863487e-07 4.058370839599355e-07 3.9698759608416233e-07 4.0534872818034767e-07 4.0491248769221715e-07 3.82824081093208e-07 3.9718786584300664e-07 3.7912078283886035e-07 3.9641032584418496e-07 3.9312529274796561e-07 3.7988082341790536e-07 3.9550236031707646e-07 3.9400394700737097e-07 4.0696301017750544e-07 4.06651184045377e-07 4.1001050582739262e-07 4.1175790622843579e-07 4.0562969328788623e-07 4.0465940399499905e-07 4.1108766155869938e-07 4.0928046646595851e-07 4.0622096466061677e-07 4.0976146241918236e-07 4.1032486697591293e-07 4.0841226523421149e-07 4.1025925827520543e-07 4.1141639127846976e-07 4.0986632659178308e-07 4.1097659253407515e-07 4.1261688447418056e-07 4.0986038841538445e-07 4.1200542650087623e-07 3.9343333889406512e-07 3.8647110834387837e-07 3.9205163383398696e-07 3.9124913890728966e-07 3.9469622651848811e-07 3.9635641493536165e-07 3.9277583552031834e-07 3.8551104730216567e-07 3.8699384534229784e-07 3.7495856443193132e-07 3.8727315801264405e-07 3.8562519170653863e-07 3.7364018989657807e-07 3.7442324910814686e-07 3.8676910116634243e-07 3.7437139029284226e-07 3.8675080160071586e-07 3.8199996125723054e-07 3.8569673471747532e-07 3.8303704823181334e-07 3.9269532599263288e-07 3.752199216992739e-07 3.8206922523788589e-07 3.9115896382340032e-07 3.8269205814400883e-07 3.904171435823804e-07 3.9298756835443865e-07 3.9550630970004555e-07 3.9067966512652502e-07 3.8514886761063065e-07 3.7490250623406452e-07 3.9145929300701424e-07 3.8445836851637341e-07 3.9197961625671258e-07 3.9726813575380333e-07 3.9892485399666365e-07 3.9798542843689543e-07 4.0153364631094528e-07 3.9767013508101537e-07 3.9637756950204911e-07 3.9726632955211236e-07 4.0278835707507046e-07 3.9525589782740248e-07 3.9085563218942704e-07 3.9804760889882938e-07 3.9409568329839914e-07 3.9731569801051467e-07 3.9661081564469112e-07 3.916735707993731e-07 3.9205495616713225e-07 3.9920847971678821e-07 3.9653038990391666e-07 3.9468528092772493e-07 3.8238148063644868e-07 3.9944433944937623e-07 3.9408193830457567e-07 3.9626317196342029e-07 4.0162597249541615e-07 3.9841636411092038e-07 3.9807377098359407e-07 3.9891706355611674e-07 4.0390777886413995e-07 3.9538308864691884e-07 3.9895946750665582e-07 3.9498653680735671e-07 3.9098299919747016e-07 3.9745155896214508e-07 3.8914940788608612e-07 3.8147001392077556e-07 3.9090913556737812e-07 3.796653948198303e-07 3.6874709025170266e-07 3.8325816006238091e-07 3.9122711538422326e-07 3.6862250751597845e-07 3.9798877223717502e-07 3.8046928372310749e-07 3.7822842298402164e-07 3.7881835593299204e-07 3.7444211387782132e-07 3.5307195224426139e-07 3.7860454213487245e-07 3.9156468917862608e-07 3.7446981560316746e-07 3.9292936247067024e-07 3.9396452891762502e-07 3.8962083636910221e-07 3.9627847396612273e-07 3.8247528217705525e-07 3.8828873461158162e-07 3.9388272784831882e-07 3.8904958854947948e-07 3.8448673525050913e-07 3.9123393667916915e-07 3.877396581596073e-07 3.8781308671049155e-07 3.6818068801396399e-07 3.8818306951136479e-07 3.7409346531379453e-07 3.8910865456977324e-07 3.8470224849421291e-07 3.7707698538475509e-07 3.670805227161605e-07 3.74645005302753e-07 3.549352513616511e-07 3.6946157437395427e-07 3.5293388027899266e-07 3.4087872702772779e-07 3.5486266907376612e-07 3.1819829293851518e-07 3.3910471607785061e-07 3.5476651067398458e-07 3.1820121651480735e-07 3.4877243634273511e-07 3.171466843927526e-07 2.5757953027280189e-07 2.8085856584699914e-07 3.1428900625117114e-07 3.0584854188250934e-07 3.5288544447428585e-07 3.1677472645511651e-07 3.0345919698652894e-07 2.5904081932438543e-07 3.0676387466947382e-07 2.5506816822824906e-07 2.5136293465402124e-07 3.0749941493515652e-07 3.5110586013465541e-07 3.4281126156954904e-07 3.7672024088273292e-07 3.5319262994888544e-07 3.5019333458622881e-07 3.803370612590923e-07 3.7911136241667311e-07 3.4914793952591255e-07 3.8303569965507441e-07 3.4917538268456894e-07 3.453345663749804e-07 3.8286493964913709e-07 3.4635532090363365e-07 3.6590928079635937e-07 3.4293202017698815e-07 3.687460132483632e-07 3.3262657493216558e-07 3.6798628634267981e-07 3.3348224211416217e-