<?xml version="1.0"?>
<VTKFile type="UnstructuredGrid" version="0.1" byte_order="LittleEndian">
<UnstructuredGrid>
<Piece NumberOfPoints="6397" NumberOfCells="2159">
<Points>
<DataArray type="Float64" NumberOfComponents="3" format="ascii">
2.66344351959326 0 2.7043277307795819 0 0 0 0 0 3.999999999999964 2.66344351959326 0 2.7043277307795819 0 0 0 4.0000000000284359 0 0 4.0000000000284359 0 0 6.5707172755705248 0 2.7646612833128712 8.0000000000568576 0 0 2.66344351959326 0 2.7043277307795819 4.0000000000284359 0 0 6.5707172755705248 0 2.7646612833128712 2.66344351959326 0 2.7043277307795819 4.6209038898330013 0 5.4801965510881789 6.5707172755705248 0 2.7646612833128712 2.66344351959326 0 2.7043277307795819 4.6209038898330013 0 5.4801965510881789 2.07684632842173 0 5.9999999999999467 2.07684632842173 0 5.9999999999999467 0 0 3.999999999999964 0 0 7.9999999999999289 2.66344351959326 0 2.7043277307795819 2.07684632842173 0 5.9999999999999467 0 0 3.999999999999964 12.00000000008531 0 0 8.0000000000568576 0 0 9.7693469607982983 0 3.7481879779097791 12.00000000008531 0 0 9.7693469607982983 0 3.7481879779097791 13.38972239314738 0 2.6999177402855641 6.5707172755705248 0 2.7646612833128712 8.0000000000568576 0 0 9.7693469607982983 0 3.7481879779097791 9.7693469607982983 0 3.7481879779097791 10.475932525657869 0 6.5236477926518619 7.8296048838167076 0 7.2849290530216786 4.6209038898330013 0 5.4801965510881789 6.5707172755705248 0 2.7646612833128712 7.8296048838167076 0 7.2849290530216786 6.5707172755705248 0 2.7646612833128712 9.7693469607982983 0 3.7481879779097791 7.8296048838167076 0 7.2849290530216786 9.7693469607982983 0 3.7481879779097791 10.475932525657869 0 6.5236477926518619 13.00967717205546 0 5.6551885328941403 9.7693469607982983 0 3.7481879779097791 13.00967717205546 0 5.6551885328941403 13.38972239314738 0 2.6999177402855641 10.475932525657869 0 6.5236477926518619 11.30969053719768 0 9.1676850296155816 7.8296048838167076 0 7.2849290530216786 10.475932525657869 0 6.5236477926518619 11.30969053719768 0 9.1676850296155816 13.00967717205546 0 5.6551885328941403 7.8296048838167076 0 7.2849290530216786 7.9090244117951407 0 10.95102642914321 3.8041353317600799 0 9.4838326041714431 11.30969053719768 0 9.1676850296155816 7.8296048838167076 0 7.2849290530216786 7.9090244117951407 0 10.95102642914321 11.30969053719768 0 9.1676850296155816 10.704055794530859 0 12.6223006550824 14.32798837506134 0 12.48911227050972 11.30969053719768 0 9.1676850296155816 7.9090244117951407 0 10.95102642914321 10.704055794530859 0 12.6223006550824 2.07684632842173 0 5.9999999999999467 0 0 7.9999999999999289 3.8041353317600799 0 9.4838326041714431 4.6209038898330013 0 5.4801965510881789 2.07684632842173 0 5.9999999999999467 3.8041353317600799 0 9.4838326041714431 4.6209038898330013 0 5.4801965510881789 7.8296048838167076 0 7.2849290530216786 3.8041353317600799 0 9.4838326041714431 7.9090244117951407 0 10.95102642914321 3.8041353317600799 0 9.4838326041714431 5.4255954274940468 0 12.775317011400031 3.8041353317600799 0 9.4838326041714431 2.640550250250365 0 13.30343526213797 5.4255954274940468 0 12.775317011400031 3.8041353317600799 0 9.4838326041714431 0 0 11.99999999999994 2.640550250250365 0 13.30343526213797 0 0 7.9999999999999289 3.8041353317600799 0 9.4838326041714431 0 0 11.99999999999994 0 0 11.99999999999994 2.640550250250365 0 13.30343526213797 0 0 15.99999999999995 2.640550250250365 0 13.30343526213797 0 0 15.99999999999995 3.973020491997699 0 16.258026695118499 3.973020491997699 0 16.258026695118499 0 0 19.999999999999961 4.5806639609469997 0 19.862710269054769 0 0 15.99999999999995 3.973020491997699 0 16.258026695118499 0 0 19.999999999999961 3.973020491997699 0 16.258026695118499 8.3266277160981126 0 17.7004192385895 4.5806639609469997 0 19.862710269054769 2.640550250250365 0 13.30343526213797 3.973020491997699 0 16.258026695118499 5.4255954274940468 0 12.775317011400031 3.973020491997699 0 16.258026695118499 5.4255954274940468 0 12.775317011400031 7.7404602345423204 0 14.54380321958984 7.9090244117951407 0 10.95102642914321 5.4255954274940468 0 12.775317011400031 7.7404602345423204 0 14.54380321958984 7.9090244117951407 0 10.95102642914321 7.7404602345423204 0 14.54380321958984 10.704055794530859 0 12.6223006550824 10.704055794530859 0 12.6223006550824 11.75402814782707 0 15.52236706552506 14.32798837506134 0 12.48911227050972 7.7404602345423204 0 14.54380321958984 10.704055794530859 0 12.6223006550824 11.75402814782707 0 15.52236706552506 11.75402814782707 0 15.52236706552506 8.3266277160981126 0 17.7004192385895 13.52887381105845 0 19.07917103906707 3.973020491997699 0 16.258026695118499 7.7404602345423204 0 14.54380321958984 8.3266277160981126 0 17.7004192385895 7.7404602345423204 0 14.54380321958984 11.75402814782707 0 15.52236706552506 8.3266277160981126 0 17.7004192385895 8.3266277160981126 0 17.7004192385895 7.3734437617054036 0 20.587411399876569 10.178007277726421 0 21.724671481347961 8.3266277160981126 0 17.7004192385895 7.3734437617054036 0 20.587411399876569 4.5806639609469997 0 19.862710269054769 8.3266277160981126 0 17.7004192385895 10.178007277726421 0 21.724671481347961 13.52887381105845 0 19.07917103906707 10.178007277726421 0 21.724671481347961 14.320961795774391 0 23.32619268761443 12.706931992858721 0 26.37471591010971 10.178007277726421 0 21.724671481347961 9.5697619165960202 0 25.659496374512631 12.706931992858721 0 26.37471591010971 7.3734437617054036 0 20.587411399876569 10.178007277726421 0 21.724671481347961 6.1768732550549936 0 23.87473028151155 10.178007277726421 0 21.724671481347961 6.1768732550549936 0 23.87473028151155 9.5697619165960202 0 25.659496374512631 6.1768732550549936 0 23.87473028151155 3.191276734414644 0 22.850474519006632 4.5806639609469997 0 19.862710269054769 6.1768732550549936 0 23.87473028151155 3.191276734414644 0 22.850474519006632 2.3692638314996421 0 25.57295210895003 3.191276734414644 0 22.850474519006632 0 0 23.999999999999961 2.3692638314996421 0 25.57295210895003 3.191276734414644 0 22.850474519006632 0 0 23.999999999999961 0 0 19.999999999999961 3.191276734414644 0 22.850474519006632 0 0 19.999999999999961 4.5806639609469997 0 19.862710269054769 7.3734437617054036 0 20.587411399876569 6.1768732550549936 0 23.87473028151155 4.5806639609469997 0 19.862710269054769 19.3670580238695 0 21.362300660710609 22.065959340448551 0 19.437990615481549 18.189362734038401 0 18.146622260735661 19.3670580238695 0 21.362300660710609 22.065959340448551 0 19.437990615481549 21.978233404233009 0 23.15428695841441 22.065959340448551 0 19.437990615481549 21.978233404233009 0 23.15428695841441 25.850420345530981 0 21.055002092136121 22.065959340448551 0 19.437990615481549 25.329272956002221 0 17.272042519131851 25.850420345530981 0 21.055002092136121 24.93874764187542 0 23.98167172788246 21.978233404233009 0 23.15428695841441 23.656620175023871 0 26.516952020808031 24.93874764187542 0 23.98167172788246 21.978233404233009 0 23.15428695841441 25.850420345530981 0 21.055002092136121 21.978233404233009 0 23.15428695841441 18.12566666875647 0 24.807977381442431 20.850945221766889 0 25.693946049239369 19.3670580238695 0 21.362300660710609 21.978233404233009 0 23.15428695841441 18.12566666875647 0 24.807977381442431 19.3670580238695 0 21.362300660710609 18.12566666875647 0 24.807977381442431 16.476067971871089 0 21.26462608747898 18.12566666875647 0 24.807977381442431 14.320961795774391 0 23.32619268761443 16.476067971871089 0 21.26462608747898 14.320961795774391 0 23.32619268761443 13.52887381105845 0 19.07917103906707 16.476067971871089 0 21.26462608747898 10.178007277726421 0 21.724671481347961 14.320961795774391 0 23.32619268761443 13.52887381105845 0 19.07917103906707 13.52887381105845 0 19.07917103906707 16.476067971871089 0 21.26462608747898 18.189362734038401 0 18.146622260735661 19.3670580238695 0 21.362300660710609 16.476067971871089 0 21.26462608747898 18.189362734038401 0 18.146622260735661 18.189362734038401 0 18.146622260735661 15.304671521166791 0 16.081754755268189 18.07077599594691 0 14.35233389632198 13.52887381105845 0 19.07917103906707 18.189362734038401 0 18.146622260735661 15.304671521166791 0 16.081754755268189 11.75402814782707 0 15.52236706552506 13.52887381105845 0 19.07917103906707 15.304671521166791 0 16.081754755268189 11.75402814782707 0 15.52236706552506 15.304671521166791 0 16.081754755268189 14.32798837506134 0 12.48911227050972 15.304671521166791 0 16.081754755268189 18.07077599594691 0 14.35233389632198 14.32798837506134 0 12.48911227050972 18.07077599594691 0 14.35233389632198 20.805575156043471 0 12.76286797642741 21.645419707662882 0 16.026045520337629 18.07077599594691 0 14.35233389632198 20.805575156043471 0 12.76286797642741 18.151638481708599 0 10.60760059465326 22.065959340448551 0 19.437990615481549 18.189362734038401 0 18.146622260735661 21.645419707662882 0 16.026045520337629 18.189362734038401 0 18.146622260735661 18.07077599594691 0 14.35233389632198 21.645419707662882 0 16.026045520337629 22.065959340448551 0 19.437990615481549 21.645419707662882 0 16.026045520337629 25.329272956002221 0 17.272042519131851 20.805575156043471 0 12.76286797642741 21.645419707662882 0 16.026045520337629 24.597882896029191 0 13.513174052093371 21.645419707662882 0 16.026045520337629 24.597882896029191 0 13.513174052093371 25.329272956002221 0 17.272042519131851 24.597882896029191 0 13.513174052093371 22.300015122859559 0 9.3990893396401489 26.400761617221551 0 9.9352243108510194 20.805575156043471 0 12.76286797642741 24.597882896029191 0 13.513174052093371 22.300015122859559 0 9.3990893396401489 20.805575156043471 0 12.76286797642741 22.300015122859559 0 9.3990893396401489 18.151638481708599 0 10.60760059465326 22.300015122859559 0 9.3990893396401489 18.7518341141303 0 6.5935947010293026 18.151638481708599 0 10.60760059465326 22.300015122859559 0 9.3990893396401489 18.7518341141303 0 6.5935947010293026 22.915953587178709 0 4.522588068116459 22.300015122859559 0 9.3990893
[...]
<PointData Scalars="I_conc," Vectors="" Tensors="">
<DataArray type="Float64" Name="I_conc" format="ascii">
2.519877219066492e-07 2.3673462666462599e-07 2.4908989398710128e-07 2.4875512063512552e-07 2.4051696289263617e-07 2.489990315959196e-07 2.4946382397195454e-07 2.5692041813542885e-07 2.5654785949108542e-07 2.5107314144195881e-07 2.4648254485990053e-07 2.597752968601879e-07 2.5135398539383404e-07 2.684277366664637e-07 2.59647624024212e-07 2.4860766956639919e-07 2.7091315746225087e-07 2.6834375131960251e-07 2.6939612348772341e-07 2.4868285742497148e-07 2.7921280567890928e-07 2.5021267706123877e-07 2.6707424046957087e-07 2.5137115887238912e-07 2.6319818982946556e-07 2.5643003885773596e-07 2.6487365035645303e-07 2.5972992941899619e-07 2.689664954187229e-07 2.713489630157132e-07 2.6010895321060821e-07 2.5338059137401252e-07 2.6890207378129052e-07 2.6702211138079065e-07 2.9123173778045753e-07 2.9212556528060641e-07 2.7151391025828356e-07 2.5579223999746119e-07 2.9026958020836166e-07 2.5783201626606626e-07 2.7046586434511552e-07 2.8818157447785588e-07 2.6806253691529594e-07 2.9019556821655917e-07 2.889037600851792e-07 2.7079150027330904e-07 2.8612460080140125e-07 2.6996143778451513e-07 2.9051048029232628e-07 3.1816316416340534e-07 2.9353765056631127e-07 2.9114959957557025e-07 3.1705085934632296e-07 2.8767883769748352e-07 2.9100567336458541e-07 3.326724322889572e-07 3.0774300440978805e-07 3.2044441161236627e-07 2.9076884119577063e-07 3.3273872968705319e-07 3.1758014340081192e-07 3.6254726468589594e-07 3.6809794263307716e-07 3.1872289223754816e-07 3.3479823838945958e-07 3.6161822372355237e-07 2.6722019743286608e-07 2.8171129508957054e-07 3.0518001432250534e-07 2.7014497320030301e-07 2.6885399865444653e-07 3.0313531579329506e-07 2.6861945455590472e-07 2.937482617869207e-07 3.0480404887237612e-07 3.3494668218801654e-07 3.0571479109362347e-07 3.5101551529231627e-07 3.0480734785374367e-07 3.506661093910736e-07 3.5158978352718478e-07 3.0591586119669984e-07 3.2645343423352077e-07 3.4995841302244903e-07 2.7940570081287809e-07 3.0759942100761117e-07 3.2446994424915506e-07 3.2574274501180257e-07 3.5090752509833246e-07 3.7667562658104213e-07 3.508519015764702e-07 3.7672166108439407e-07 3.9298663315885027e-07 3.9735576075458579e-07 4.1912954216270068e-07 4.3479531408701453e-07 3.7718057790776354e-07 3.9365576075103846e-07 4.2320866342462223e-07 3.9490496017832756e-07 4.2358815049710697e-07 4.3716644816033987e-07 3.5056302737608417e-07 3.9348915928547623e-07 3.5213328239213582e-07 3.9387935906426453e-07 3.5172254464877641e-07 3.8163675606912134e-07 3.3405514972774132e-07 3.5198066395129617e-07 3.8109914381829683e-07 3.3358318444713827e-07 3.8153585852588175e-07 3.6284619984691799e-07 3.625933563627567e-07 4.0491526752863235e-07 3.6859851434681765e-07 3.818372794548025e-07 3.6264673555119843e-07 4.0469870874561001e-07 4.0638886390200462e-07 4.2352443004470047e-07 4.5374140851257914e-07 3.9325848410464808e-07 3.8232250697610789e-07 4.2443442220154699e-07 3.819833210299737e-07 4.0484835761241207e-07 4.2496436706215716e-07 4.285184631450723e-07 4.4863127882956622e-07 4.663869081658735e-07 4.2647581740597136e-07 4.5012852606898932e-07 4.3378240785568952e-07 4.2599249241696224e-07 4.6989121813836024e-07 4.5229644600267251e-07 4.7047676348717388e-07 4.8087527743208423e-07 4.7730348369760067e-07 4.7828877224816029e-07 4.6367344143214113e-07 4.697050187603654e-07 4.5097454660132954e-07 4.6410931197068597e-07 4.6278235308404767e-07 4.7283302732164081e-07 4.5597618986945659e-07 4.6910353255606187e-07 4.600099145868877e-07 4.4527376028529234e-07 4.4067037019992186e-07 4.5651699105582255e-07 4.4731492718305195e-07 4.4100943109740625e-07 4.4724484811158847e-07 4.3313471924243044e-07 4.4089097109384395e-07 4.4474265684495623e-07 4.3746145562509468e-07 4.2488261552202009e-07 4.5026319786181453e-07 4.1828429033764545e-07 4.3566182022696212e-07 4.4961758114919642e-07 4.6543237209193154e-07 4.3590973272076625e-07 4.8707608222203562e-07 4.721457192835477e-07 4.5347765951255026e-07 4.8305921641167638e-07 4.7649465257627859e-07 5.0048182194686428e-07 4.7659367823033828e-07 5.0149145315892138e-07 4.9116177716265034e-07 4.7160525351546376e-07 4.5494630889286181e-07 4.9511908160013788e-07 5.0122303525958318e-07 4.9796047366436575e-07 4.955126138725717e-07 5.0335236863389937e-07 4.9484659034659141e-07 4.964546721622511e-07 4.9961690098555486e-07 4.8713441806062933e-07 4.9124113381589991e-07 4.8892501415643363e-07 4.9497507584757021e-07 4.9305917867078861e-07 4.8550101256356492e-07 4.9715368103331612e-07 4.7858523382860931e-07 4.9218210928047265e-07 4.8023061027554802e-07 4.8215904168965485e-07 4.8615312664041261e-07 4.5659363092538998e-07 4.7701574526775949e-07 4.639546903853977e-07 4.8508138679106519e-07 4.5813077238490218e-07 4.5225899700403517e-07 4.8077128548033591e-07 4.5337349675821865e-07 4.8470488569762473e-07 4.7815201194677321e-07 4.5581052076871452e-07 4.5299720511632311e-07 4.1966730034946536e-07 4.0205318915032458e-07 4.5379232710379977e-07 4.5129521210531237e-07 4.213421017195216e-07 4.0522558984016179e-07 4.5529520897990249e-07 4.2035081958213889e-07 4.0506518408693243e-07 4.1994843271124751e-07 3.6823849781080092e-07 4.2027425536434473e-07 4.0119508513143371e-07 3.6797291504000538e-07 4.0098063973288792e-07 3.8252575917244934e-07 4.3028045559854844e-07 4.0059105855689535e-07 3.8272093932805098e-07 3.4829879216372546e-07 4.7408337407144779e-07 4.5131261063371186e-07 4.3211198126355616e-07 4.5352969428865677e-07 4.017448553313077e-07 4.2996471077169541e-07 4.7495480922378905e-07 4.3125474671100825e-07 4.5134242687839501e-07 3.8246280936131082e-07 4.3056733763775583e-07 3.9842528341024473e-07 4.2993036085247044e-07 3.9902342144791309e-07 4.5235295572925357e-07 3.9609428362632143e-07 3.388096632008538e-07 3.5081670034211995e-07 3.8260804539532289e-07 3.9765220809994373e-07 3.3716944029940817e-07 3.8141305975050937e-07 3.3883092464910357e-07 3.4975032951395873e-07 3.3997952667319281e-07 3.0125942480268131e-07 3.4808501441377883e-07 3.347882654814395e-07 3.0575416882754455e-07 2.8985456089238504e-07 3.3638146955493176e-07 3.1765735408847692e-07 2.8878786678503783e-07 3.3952865465697253e-07 3.1529695556695975e-07 3.5038874977522135e-07 3.2017309013190603e-07 3.6540740749643098e-07 3.1493587044171523e-07 3.6698129948248132e-07 3.4971659114390587e-07 3.1338450474293201e-07 4.0042448518174733e-07 3.6859230367923083e-07 3.4851665715503233e-07 3.0286099663634617e-07 3.4664422785006106e-07 3.1649229195173315e-07 3.054078301002788e-07 3.1375639636932206e-07 2.7862243179482191e-07 3.192792924387292e-07 3.1592574080897285e-07 2.8550562464109301e-07 2.8682508719526254e-07 2.8270741155658329e-07 2.69595303786584e-07 3.1235848110084649e-07 2.8869832330860898e-07 2.8011594983265675e-07 3.020639999380173e-07 2.8241423336965677e-07 2.8229987353702566e-07 2.697940189889242e-07 2.7781273353085644e-07 2.7373599605969787e-07 2.802335858283646e-07 2.6406117536698134e-07 2.8325873030088978e-07 2.795524667991536e-07 2.6471653356962953e-07 2.7182636718438231e-07 2.6325126259824132e-07 2.6935982137371688e-07 2.6824297225443579e-07 3.1419896925106016e-07 2.9293193150266538e-07 2.9162726098183897e-07 3.0300541225247034e-07 2.9396139203289308e-07 2.8181469108573813e-07 2.7809528066894815e-07 2.7380553747203383e-07 2.7933245925876123e-07 2.910488687763405e-07 2.7137438502780184e-07 2.9235367920649387e-07 2.9031409373667528e-07 2.83789416743839e-07 2.7306044146428427e-07 2.7809753526091361e-07 2.8171756909782344e-07 2.8646568095676543e-07 2.9036013236648052e-07 3.0556317303614942e-07 3.2108064726777372e-07 3.1679250850704156e-07 2.8820019431676519e-07 3.227841850863869e-07 2.9282452536992232e-07 3.0389824864382785e-07 2.8753328837388325e-07 3.0424007389805205e-07 2.8726963628154153e-07 2.9884841535011808e-07 2.8186187799163046e-07 2.8598379366500214e-07 2.8513270117326495e-07 2.7817895253148414e-07 2.9009335008705492e-07 2.8921306678208986e-07 2.8929424982203846e-07 2.8096953509011707e-07 2.9588062972559328e-07 2.8539765972381139e-07 2.8760051324321171e-07 2.8972638833563486e-07 2.8155274023254582e-07 2.9284944663645207e-07 2.9547222557900828e-07 2.8465133619620393e-07 2.9238700205247773e-07 2.969108999108256e-07 2.9135113496286683e-07 3.0726075067703781e-07 2.9835703665436125e-07 3.0997565724360672e-07 2.9535484409955904e-07 3.2166163472224353e-07 3.0590776096569018e-07 2.9653602148641079e-07 3.261698602632313e-07 3.0970336917642523e-07 2.9663215677604938e-07 3.2583511074844414e-07 2.9081211120451629e-07 3.0818082044083111e-07 2.9847288971300221e-07 3.2918857314678129e-07 3.5839758308409285e-07 3.2231812800104606e-07 3.0841315129216383e-07 3.281448593848379e-07 3.2395925858532391e-07 3.6055487620765123e-07 3.7534227418946482e-07 3.9958511504582089e-07 3.2605265299841793e-07 3.6146106242134171e-07 3.7383621338024208e-07 3.7539992502578689e-07 3.4955055068378322e-07 4.0488060421383646e-07 3.2654324654440007e-07 3.7359047322815999e-07 3.513385334243536e-07 3.4902318581319006e-07 3.8611567043795757e-07 4.0536634620302021e-07 3.5039319284878116e-07 3.8492060918576567e-07 3.5069120294387178e-07 3.9778041142786039e-07 3.8617902502356831e-07 3.4925660569998486e-07 3.1651857875241969e-07 3.4918127145954006e-07 3.2391849449025006e-07 3.5042321699825279e-07 3.5066927825682593e-07 3.2258568048909316e-07 3.0213177902426052e-07 3.4808825127752875e-07 3.2431712044238177e-07 3.0195957111615825e-07 3.2949212180644698e-07 3.4763670141841951e-07 3.0644333669067343e-07 3.1629006843974855e-07 3.2795449852290365e-07 3.0860683388990251e-07 2.9567087114533988e-07 3.1374725627432778e-07 3.0472844490901662e-07 3.2922363544026103e-07 3.3146136950500117e-07 3.0529501611505792e-07 2.9104356893389519e-07 2.9868828983972424e-07 3.0142805546714159e-07 2.9403912044317837e-07 2.9608990391452693e-07 2.8953481558765819e-07 2.9853595972309988e-07 2.9906793306128427e-07 2.9474161249322599e-07 2.928856760445613e-07 2.9586900414403975e-07 2.9639177475734724e-07 3.1315344593807112e-07 3.0151684189098045e-07 2.9724006406706876e-07 3.1607047022538706e-07 3.3079671321165322e-07 3.1628161992743545e-07 2.9791777166609292e-07 3.3017555047613899e-07 2.9230532533473698e-07 2.9588580374752474e-07 2.9012109688683922e-07 3.0035410764799035e-07 2.8546384379192285e-07 2.9732565995468136e-07 2.8784671737389043e-07 2.8981204796789379e-07 2.9320876049345034e-07 3.0075901727748776e-07 2.9786524631466312e-07 3.1356427997803365e-07 2.9486676509858665e-07 3.1583778016956297e-07 3.219640774285412e-07 3.5880909489711935e-07 3.2186944447332689e-07 3.3797683059910206e-07 3.1477942283558422e-07 3.2367956012321951e-07 3.3684877002594312e-07 3.608368436126705e-07 3.6971012186782576e-07 3.9987249026129471e-07 3.6125536279644698e-07 3.690058631738881e-07 3.3599884548353075e-07 3.5988794306079783e-07 4.0060673381332786e-07 3.9995548425877578e-07 3.6953971416085238e-07 3.3058392741722566e-07 3.7561792836689949e-07 3.6882164308670946e-07 4.0704525881997034e-07 4.0070616217547902e-07 3.6947836054937416e-07 3.764613311812555e-07 4.0662651256554175e-07 3.6766782654811694e-07 3.3745542020868929e-07 3.3283072028341957e-07 3.1444986934943075e-07 3.3730207352613757e-07 3.3341809653086938e-07 3.1355973645903966e-07 3.3354717528952056e-07 3.481381266420907e-07 3.1415128736907539e-07 3.4734124611426999e-07 3.2988303936588557e-07 3.3185184205249276e-07 3.4980800026569224e-07 3.744858781105056e-07 3.7604231490303342e-07 3.8627101219589129e-07 4.1654183711357811e-07 3.4801055900985641e-07 3.7640002619586938e-07 3.8569387251828037e-07 3.8629540443679452e-07 3.5456054891521788e-07 4.0190227943639384e-07 3.4902777411112894e-07 3.8466057875167994e-07 3.56336421435763e-07 3.496074961217227e-07 3.5586954628406755e-07 3.2811555141821956e-07 3.5490591642228081e-07 3.2905891980286866e-07 3.3205700201601221e-07 4.8317283583137863e-07 4.8587067395620438e-07 4.6040711497584177e-07 4.8646780642634358e-07 4.5980504943877633e-07 4.6165881738751473e-07 4.5959383915100163e-07 4.2245406133837721e-07 4.618689306990415e-07 4.8433510234746724e-07 4.5944612158647461e-07 4.4786423199290196e-07 3.8577529672366687e-07 4.216786473889685e-07 4.0278725410694216e-07 4.5990225046391623e-07 4.2212191080517551e-07 4.4721705300806461e-07 4.218933015766787e-07 4.0254942091060439e-07 4.4738887794334381e-07 4.2192653359751302e-07 4.1721526345637124e-07 4.6247294781932277e-07 3.8562511995055146e-07 4.2173742074234214e-07 4.1711920561202254e-07 4.1758010158716923e-07 4.6204587498096686e-07 4.4702755040337658e-07 4.6160821730270142e-07 4.7426478781102601e-07 4.4732377202943845e-07 4.8534480943561735e-07 4.6300013987880773e-07 4.9698194060781262e-07 4.6263511158103714e-07 4.7371310667054057e-07 4.9734414265388722e-07 4.7417731643073037e-07 4.7329629570946399e-07 4.9782735326056791e-07 4.7427030440561609e-07 4.471075744403193e-07 4.3563371789569359e-07 4.7386506850711021e-07 4.7339630828623297e-07 4.4777155692104782e-07 4.1720486874365425e-07 4.4742596902402113e-07 4.0719624952271789e-07 3.7561335133466747e-07 4.1685286901649592e-07 4.0725996241208442e-07 4.4722009697428634e-07 4.0727825116751827e-07 4.3528543875968331e-07 4.0726098859154017e-07 4.3538033913430225e-07 4.0075393174590151e-07 4.0078086874018127e-07 4.3743170125411555e-07 4.0011991889544398e-07 4.3528390824937582e-07 4.0076200235609075e-07 4.3733563108427523e-07 4.3833864952178962e-07 4.6317850077248294e-07 4.8166623892509371e-07 4.6400393661220954e-07 4.8452877587589005e-07 4.8048790397824857e-07 4.3547344497838856e-07 4.3726912415434179e-07 4.639519213680797e-07 4.7363154262846718e-07 4.3621769763877495e-07 4.6331204583785359e-07 4.7319786290120891e-07 4.6353232315730654e-07 4.8484467430680355e-07 4.8447763511999932e-07 5.0095777421010449e-07 4.8066141270667197e-07 4.993995124669454e-07 5.0598483442068489e-07 4.8260230903930429e-07 4.8515551772267001e-07 5.0009388642621834e-07 4.9796119603030704e-07 5.0108511672549332e-07 5.1394155860784698e-07 5.100122651767184e-07 5.0066820631280397e-07 5.0440162886834426e-07 5.1415196253642714e-07 5.0609030199582909e-07 5.1257490739261026e-07 5.1571591435205645e-07 5.197355242936265e-07 5.1428023861355815e-07 5.1396025374756406e-07 5.1743693001386226e-07 5.198080689016018e-07 5.1951089002026343e-07 5.1972770976533938e-07 5.1449876858602947e-07 5.1765212822169533e-07 5.1271470899355638e-07 5.1906601478860895e-07 5.1099386475513902e-07 5.1933774791599739e-07 5.1385888408416267e-07 5.1066564652505321e-07 5.1774607724084323e-07 5.2245121289200809e-07 5.1588584646470908e-07 5.1968545440654928e-07 5.2041411809530613e-07 5.1960159383928284e-07 5.2261345163282495e-07 5.170050947542671e-07 5.1742789597239232e-07 5.2043386035814939e-07 5.2229284307308205e-07 5.2182789967163816e-07 5.2192687917033729e-07 5.1639017390036466e-07 5.2100489829486302e-07 5.1471861881034372e-07 4.9876280612622756e-07 5.13524627763184e-07 5.162134207968993e-07 4.9805027438955742e-07 4.9714320158722791e-07 5.1452149280023336e-07 5.1019629757341708e-07 4.9956436699126145e-07 4.9959056243046502e-07 5.1123123003704485e-07 4.9848141105965143e-07 4.7404946164500658e-07 4.8424907962743723e-07 4.9897407307342778e-07 4.7458612846711961e-07 4.9848371894225585e-07 4.9659094962723534e-07 4.9657978917000131e-07 4.9638060674104539e-07 5.1565056050692212e-07 4.7500338316279883e-07 4.9700785782979761e-07 4.958279600592441e-07 4.9843512900301271e-07 5.1369815745290443e-07 5.169967186811905e-07 5.1391223744927812e-07 5.1415337349119064e-07 5.2327375412832667e-07 5.1577708957043328e-07 5.2182818272833523e-07 5.2234369730656809e-07 5.2330424251909627e-07 5.2203766902382195e-07 5.2050617981431037e-07 5.2233130068295091e-07 5.2246164547162103e-07 5.2183189737719405e-07 5.2121837731376921e-07 5.2311663920635578e-07 5.2235693887501938e-07 5.2242138318258984e-07 5.2330568812444187e-07 5.2343472836984902e-07 5.2410644312894537e-07 5.2273894242809109e-07 5.2393719205734508e-07 5.1391912045686286e-07 5.2392390112582871e-07 5.1642550397037399e-07 5.2208151054403168e-07 5.2463912420472952e-07 5.1835675034128695e-07 5.2622712712997305e-07 5.1961139856612116e-07 5.1693658267607005e-07 5.2178223725061827e-07 5.2670069802489744e-07 5.2268184528674711e-07 5.2540931446525306e-07 5.2551735335726626e-07 5.2396905969856276e-07 5.2391163463330031e-07 5.2691590604869601e-07 5.2210614627094181e-07 5.2146751952970616e-07 5.0474676341904406e-07 5.0789027600039114e-07 5.2002157722790546e-07 5.1651733234226138e-07 5.0625795574760851e-07 4.967995036481017e-07 5.1869975894759691e-07 5.0441114019173772e-07 4.8613438373857249e-07 4.9562317384259265e-07 5.0507103066947842e-07 4.8353956674637353e-07 4.8561100710975945e-07 5.0592626551741345e-07 4.8501721477862846e-07 5.0452214490544007e-07 5.0816974672235341e-07 4.7420033967867833e-07 4.3205773016769637e-07 4.4767728842259268e-07 4.7191812148247348e-07 4.5048982674622312e-07 4.94501274921797e-07 4.7356510120571274e-07 4.5148455772504467e-07 4.3254808617286633e-07 3.9870017890158452e-07 4.5278330298967067e-07 4.3151401962325875e-07 3.9829275599339674e-07 3.859932437669888e-07 4.3173904255791619e-07 3.8592564732695006e-07 4.318309953219878e-07 4.059323347757479e-07 4.3149163333949483e-07 4.0625573650952756e-07 4.4801214508883999e-07 3.7449420513448551e-07 4.0597800485363096e-07 4.2840620728663623e-07 4.0604248330228367e-07 4.28487201419399e-07 4.4824967646313654e-07 4.3737227412037121e-07 4.2855203182242189e-07 4.0013536813296084e-07 3.7455614858895243e-07 4.2832114771237768e-07 4.0026697566794282e-07 4.2961764116558962e-07 4.5598686753037753e-07 4.7529000150334765e-07 4.5663345439498143e-07 4.8052500718566377e-07 4.7408661535942412e-07 4.3825736203105871e-07 4.5599180600876349e-07 4.8174945917695421e-07 4.3730771232649319e-07 4.2868508344230887e-07 4.5665487970848278e-07 4.4981611876426537e-07 4.7367904589132432e-07 4.9481609647762913e-07 4.293376346165422e-07 4.476976984760136e-07 4.7552232148215451e-07 4.9534726123823783e-07 5.0300821712303381e-07 5.1689312265970527e-07 4.7629329213709442e-07 4.9173481103684694e-07 5.0520911287304476e-07 4.806806323948758e-07 4.7502248677559392e-07 5.075574706658668e-07 5.0499124136692146e-07 4.8366856651302872e-07 5.0401700531329676e-07 5.050959865454945e-07 5.0347653246156151e-07 5.167893097117576e-07 5.0726168331721778e-07 5.1394644400599348e-07 5.160367210609433e-07 5.168374745297656e-07 5.1315868042295134e-07 5.1495906457433153e-07 5.1722096916536364e-07 5.1739014895977574e-07 5.1473473560409958e-07 5.0811807855083134e-07 5.1448137305348207e-07 5.1044386012669832e-07 5.1153607077134735e-07 5.065582781921778e-07 5.0440329038353224e-07 5.109831809591649e-07 5.0185113217342501e-07 5.0660950710766394e-07 4.7400205760437382e-07 4.9161687599620032e-07 4.9873037817970012e-07 4.9501489926493334e-07 5.1697696587711179e-07 4.9679521022982793e-07 4.7534499103588791e-07 4.9788068801287984e-07 4.9217073868142252e-07 4.7196463675766534e-07 4.5403312441135451e-07 4.9648799100010788e-07 5.0281029796094877e-07 4.9799657536258675e-07 5.0590764393869026e-07 4.9807476399469798e-07 4.9250653972502161e-07 5.1065783428169825e-07 5.0095729149855917e-07 5.0697305165713244e-07 5.0149275964042856e-07 5.0522383419168854e-07 4.9788621574021839e-07 4.9051855194934824e-07 5.0162261079854492e-07 4.7402385181955795e-07 4.8710335508520321e-07 5.0131280781765027e-07 4.7422621771229231e-07 4.9678789624128473e-07 4.7241135170278923e-07 4.0402757677201859e-07 4.3006554470825075e-07 4.6668795859106976e-07 4.6057017284321584e-07 5.0463879992645164e-07 4.7135998977941862e-07 4.5623058601296009e-07 4.0736476976480744e-07 4.6291339755906212e-07 3.9932568304481569e-07 3.9534305828174054e-07 4.6398816687285435e-07 5.0105107913521531e-07 4.9352931212271373e-07 5.1057782009380831e-07 4.984309158439456e-07 4.9925178448293376e-07 5.1438783473004861e-07 5.1196490658632054e-07 5.0480046735899789e-07 5.1892408476827395e-07 4.9750926552675607e-07 4.979556283353302e-07 5.1876943035609199e-07 4.9993024404674149e-07 5.100238892804014e-07 4.9367699020253309e-07 5.1523889194418689e-07 4.8769605240702959e-07 5.1381316135895165e-07 4.8933169225796907