<?xml version="1.0"?>
<VTKFile type="UnstructuredGrid" version="0.1" byte_order="LittleEndian">
<UnstructuredGrid>
<Piece NumberOfPoints="6397" NumberOfCells="2159">
<Points>
<DataArray type="Float64" NumberOfComponents="3" format="ascii">
100 0 20 96.2500000000255 0 20.7499999999949 96.2500000000255 0 20.7499999999949 92.500000000051 0 21.4999999999898 92.500000000051 0 21.4999999999898 88.7500000000765 0 22.2499999999847 88.7500000000765 0 22.2499999999847 85.000000000102 0 22.9999999999796 85.000000000102 0 22.9999999999796 81.2500000001276 0 23.7499999999745 81.2500000001276 0 23.7499999999745 77.5000000001531 0 24.4999999999694 77.5000000001531 0 24.4999999999694 73.7500000001786 0 25.2499999999643 73.7500000001786 0 25.2499999999643 70.0000000002015 0 25.9999999999597 70.0000000002015 0 25.9999999999597 66.2500000001442 0 26.7499999999711 66.2500000001442 0 26.7499999999711 62.5000000001031 0 27.4999999999794 62.5000000001031 0 27.4999999999794 58.7500000000859 0 28.2499999999828 58.7500000000859 0 28.2499999999828 55.0000000000687 0 28.9999999999863 55.0000000000687 0 28.9999999999863 51.2500000000515 0 29.7499999999897 51.2500000000515 0 29.7499999999897 47.5000000000343 0 30.4999999999931 47.5000000000343 0 30.4999999999931 43.7500000000172 0 31.2499999999966 43.7500000000172 0 31.2499999999966 40 0 32 0 0 40 3.63636363636075 0 39.2727272727278 3.63636363636075 0 39.2727272727278 7.27272727271708 0 38.5454545454566 7.27272727271708 0 38.5454545454566 10.9090909090705 0 37.8181818181859 10.9090909090705 0 37.8181818181859 14.5454545454239 0 37.0909090909152 14.5454545454239 0 37.0909090909152 18.1818181817863 0 36.3636363636427 18.1818181817863 0 36.3636363636427 21.8181818181552 0 35.636363636369 21.8181818181552 0 35.636363636369 25.4545454545242 0 34.9090909090952 25.4545454545242 0 34.9090909090952 29.0909090908931 0 34.1818181818214 29.0909090908931 0 34.1818181818214 32.7272727272621 0 33.4545454545476 32.7272727272621 0 33.4545454545476 36.363636363631 0 32.7272727272738 36.363636363631 0 32.7272727272738 40 0 32 40 0 32 43.7499999999556 0 32 43.7499999999556 0 32 47.4999999999112 0 32 47.4999999999112 0 32 51.2499999998668 0 32 51.2499999998668 0 32 54.9999999998237 0 32 54.9999999998237 0 32 58.7499999998668 0 32 58.7499999998668 0 32 62.4999999999112 0 32 62.4999999999112 0 32 66.2499999999556 0 32 66.2499999999556 0 32 70 0 32 80 0 50 78.3333333333333 0 47 78.3333333333333 0 47 76.6666666666667 0 44 76.6666666666667 0 44 75 0 41 75 0 41 73.3333333333333 0 38 73.3333333333333 0 38 71.6666666666667 0 35 71.6666666666667 0 35 70 0 32 0 0 60 3.84615384613873 0 60.3846153846139 3.84615384613873 0 60.3846153846139 7.69230769227705 0 60.7692307692277 7.69230769227705 0 60.7692307692277 11.5384615384111 0 61.1538461538411 11.5384615384111 0 61.1538461538411 15.3846153845452 0 61.5384615384545 15.3846153845452 0 61.5384615384545 19.2307692306913 0 61.9230769230691 19.2307692306913 0 61.9230769230691 23.0769230768389 0 62.3076923076839 23.0769230768389 0 62.3076923076839 26.9230769229866 0 62.6923076922987 26.9230769229866 0 62.6923076922987 30.7692307691342 0 63.0769230769134 30.7692307691342 0 63.0769230769134 34.6153846153013 0 63.4615384615301 34.6153846153013 0 63.4615384615301 38.461538461476 0 63.8461538461476 38.461538461476 0 63.8461538461476 42.3076923076507 0 64.2307692307651 42.3076923076507 0 64.2307692307651 46.1538461538253 0 64.6153846153825 46.1538461538253 0 64.6153846153825 50 0 65 100 0 70 96.1538461538705 0 69.615384615387 96.1538461538705 0 69.615384615387 92.3076923077409 0 69.2307692307741 92.3076923077409 0 69.2307692307741 88.4615384616114 0 68.8461538461611 88.4615384616114 0 68.8461538461611 84.6153846154819 0 68.4615384615482 84.6153846154819 0 68.4615384615482 80.7692307693523 0 68.0769230769352 80.7692307693523 0 68.0769230769352 76.9230769232228 0 67.6923076923223 76.9230769232228 0 67.6923076923223 73.0769230770932 0 67.3076923077093 73.0769230770932 0 67.3076923077093 69.2307692309637 0 66.9230769230964 69.2307692309637 0 66.9230769230964 65.3846153847559 0 66.5384615384756 65.3846153847559 0 66.5384615384756 61.5384615385509 0 66.1538461538551 61.5384615385509 0 66.1538461538551 57.6923076923673 0 65.7692307692367 57.6923076923673 0 65.7692307692367 53.8461538461836 0 65.3846153846184 53.8461538461836 0 65.3846153846184 50 0 65 90 0 85 86 0 85 86 0 85 82 0 85 82 0 85 78 0 85 78 0 85 74 0 85 74 0 85 70 0 85 50 0 65 52.5000000000134 0 67.5000000000134 52.5000000000134 0 67.5000000000134 55.0000000000267 0 70.0000000000267 55.0000000000267 0 70.0000000000267 57.5000000000401 0 72.5000000000401 57.5000000000401 0 72.5000000000401 60.0000000000534 0 75.0000000000534 60.0000000000534 0 75.0000000000534 62.5000000000668 0 77.5000000000668 62.5000000000668 0 77.5000000000668 65.0000000000621 0 80.0000000000621 65.0000000000621 0 80.0000000000621 67.500000000031 0 82.500000000031 67.500000000031 0 82.500000000031 70 0 85 21.675917966806 0 58.293993672197 25.0145825120559 0 59.7621078184101 25.4563858642169 0 55.1406601798004 25.0145825120559 0 59.7621078184101 27.5467286234625 0 58.1094694967092 25.4563858642169 0 55.1406601798004 49.9419155678007 0 78.1885408663585 47.766010514731 0 75.1016448555653 45.1924641448198 0 76.7261131796381 96.0000000000284 0 0 92.0000000000569 0 0 96.0863676990316 0 3.5195506878408 92.0000000000569 0 0 91.6524216937743 0 3.47954008374637 96.0863676990316 0 3.5195506878408 34.311254982409 0 50.0989498882131 38.0762372722905 0 50.5603991268075 35.9740654918131 0 48.1041898350216 39.5057970784499 0 20.2458990997172 40.4723884107421 0 18.7054590840531 37.3401026548388 0 18.5731004353766 70 0 85 74 0 85 72.3396268234904 0 81.4876396019497 34.7008612312251 0 81.7680227277384 38.2868665422914 0 80.9385435284514 36.8483085474196 0 78.0690064396272 26.9109737460383 0 80.9205067127261 25.3603413849876 0 76.3301262136477 22.8880111407408 0 80.1786086664231 43.7499999999556 0 32 41.8749999999778 0 32.9736584671644 43.3951198859422 0 33.0043378455136 36.8725029393543 0 91.6195011029065 41.1420256418033 0 94.5071733357392 41.6540914287177 0 91.0922462373955 12.8462104276392 0 54.3976505008619 9.6545166402941 0 51.8316666831948 9.81977900269509 0 57.0138470504211 88.7500000000765 0 22.2499999999847 85.000000000102 0 22.9999999999796 88.0682728739904 0 26.5358160249556 11.5384615384111 0 61.1538461538411 11.7077711626653 0 65.7786968815283 15.0171713611185 0 65.0066681164643 37.4187223337057 0 10.0219947944455 37.6468828187685 0 6.74727366365042 33.8431137362003 0 7.5306290288939 36.8725029393543 0 91.6195011029065 37.6841976813499 0 96.2666229949884 41.1420256418033 0 94.5071733357392 84.113602263638 0 42.2225272435147 88.2764464407751 0 42.0797431589015 87.250974773525 0 39.2425326369365 7.5177597777497 0 96.6904494624551 8.00000000005686 0 100 12.0000000000853 0 100 34.7008612312251 0 81.7680227277384 36.8483085474196 0 78.0690064396272 33.506011410249 0 78.1127437112994 82 0 85 78 0 85 81.0515106250016 0 88.9755925871098 24.5978828960292 0 13.5131740520934 26.4007616172216 0 9.93522431085102 22.3000151228596 0 9.39908933964015 4.81025145869752 0 33.9684074701317 7.27272727271708 0 38.5454545454566 8.05404049231867 0 35.1949063117734 32.7272727272621 0 33.4545454545476 29.0739346493591 0 37.5187434811517 33.1356683143134 0 37.5588999411378 53.9930872535813 0 87.2019655410669 49.1919583721205 0 88.0174095199274 52.6827316193392 0 91.5362380185792 6.78795892144982 0 93.4226745623084 10.8820338662222 0 91.8965331115229 7.63324200476208 0 89.9332564458413 7.27272727271708 0 38.5454545454566 10.188115019852 0 42.2084920353402 10.9090909090705 0 37.8181818181859 0 0 52 4.06618231825297 0 49.9170379535964 0 0 48 12.7069319928587 0 26.3747159101097 14.3209617957744 0 23.3261926876144 10.1780072777264 0 21.724671481348 44.1219958760207 0 23.3599793799693 42.4908127324576 0 24.0023383765472 44.3789578125687 0 25.1878048115586 55.9290463644077 0 42.0086470064677 57.6223061798543 0 44.137331252795 59.0426729119356 0 41.4007107928424 52.5579325619535 0 48.3465433858771 50.9167489761398 0 45.5114961526132 49.4723816188714 0 47.2501081954944 0 0 32 2.98003072887789 0 36.3454204022568 4.81025145869752 0 33.9684074701317 6.43913901582024 0 53.629060289644 9.81977900269509 0 57.0138470504211 9.6545166402941 0 51.8316666831948 41.8381759952109 0 28.5962158683151 39.7430548528196 0 29.0534788680084 41.7435524749295 0 30.0715960120841 52.5000000000134 0 67.5000000000134 51.383870739564 0 70.836836133141 55.0000000000267 0 70.0000000000267 84.113602263638 0 42.2225272435147 81.0910871601693 0 44.9762139849501 84.0715162116443 0 46.807430176734 84.113602263638 0 42.2225272435147 84.0715162116443 0 46.807430176734 86.5625249214669 0 44.7621857010387 10.9287826801162 0 95.5532822128902 7.5177597777497 0 96.6904494624551 12.0000000000853 0 100 34.7008612312251 0 81.7680227277384 34.288858415674 0 87.3491385806091 38.3892720651929 0 84.5574172207502 92.1627113433145 0 29.0026615342966 94.95514000599 0 26.0982689586129 91.2872248446845 0 25.0773493035679 13.802175819838 0 49.6085781459401 16.2805100639604 0 46.225526696013 12.1986605598629 0 45.9511153686245 46.4124650824814 0 79.5349827707462 49.9419155678007 0 78.1885408663585 45.1924641448198 0 76.7261131796381 100 0 27.6923076922923 94.95514000599 0 26.0982689586129 96.1841374724307 0 29.86264300504 19.2307692306913 0 61.9230769230691 23.0769230768389 0 62.3076923076839 21.675917966806 0 58.293993672197 85.000000000102 0 22.9999999999796 83.5374765952866 0 26.3372812903618 88.0682728739904 0 26.5358160249556 38.4437091124965 0 54.3206555713126 38.0762372722905 0 50.5603991268075 35.1771539129461 0 52.7624253223453 62.5000000001031 0 27.4999999999794 64.1164308283144 0 23.1878742474634 60.8459992531889 0 23.6245461029884 39.4617118136333 0 17.0918902836073 37.3401026548388 0 18.5731004353766 40.4723884107421 0 18.7054590840531 24.493726856401 0 43.514547236196 27.023803047341 0 39.4406690016693 22.883969777218 0 39.8005305421315 2.9
[...]
<PointData Scalars="I_conc," Vectors="" Tensors="">
<DataArray type="Float64" Name="I_conc" format="ascii">
7.29068731624483e-07 7.40077893898568e-07 7.40964750289803e-07 7.65869897376902e-07 7.66410367950486e-07 7.99092456219766e-07 7.9931268528379e-07 8.35624763259758e-07 8.35762949098861e-07 8.73664139403831e-07 8.73691587657349e-07 9.11397271961766e-07 9.1136788836276e-07 9.47735247556405e-07 9.47606361695241e-07 9.81451754027198e-07 9.81250382188496e-07 1.01092068503162e-06 1.01069990909002e-06 1.03533013497732e-06 1.03501887902507e-06 1.05347992474134e-06 1.05311701439679e-06 1.0642931385011e-06 1.06395625941461e-06 1.06690846858569e-06 1.06679174324073e-06 1.0616578623224e-06 1.06151204216865e-06 1.04784921600377e-06 1.04764382031095e-06 1.02598714419379e-06 3.31366070507733e-09 1.54805296242204e-07 1.55125392951919e-07 2.9580257453008e-07 2.97002163050254e-07 4.25979711472932e-07 4.2682430084232e-07 5.45847731400327e-07 5.46625180280539e-07 6.53317383606929e-07 6.54489479766247e-07 7.46635646602918e-07 7.47594271995935e-07 8.2751728674319e-07 8.28370406270508e-07 8.95208068213216e-07 8.9596590934137e-07 9.49429256329542e-07 9.5028850000543e-07 9.93668927591064e-07 9.94132186451586e-07 1.02687169143111e-06 1.02598476045333e-06 1.07193404662723e-06 1.0716087228072e-06 1.08855482212495e-06 1.08930734547622e-06 1.08033391870325e-06 1.08099546644965e-06 1.04837690750438e-06 1.04910096086943e-06 9.96376561392578e-07 9.96569446698904e-07 9.29556897285372e-07 9.29399189557714e-07 8.52106659224628e-07 8.52794819220059e-07 7.65857617199559e-07 2.27473673108772e-07 2.3182196719182e-07 2.33580484213798e-07 2.71151406337793e-07 2.72142209815711e-07 3.46761464777463e-07 3.47657110034809e-07 4.58067142289225e-07 4.60181278954049e-07 5.99652192954367e-07 6.02184761580047e-07 7.53792111340337e-07 4.09777830586495e-09 1.59401967318713e-07 1.59996132480599e-07 3.05740804003891e-07 3.06738010108853e-07 4.40352103532302e-07 4.41171985401174e-07 5.64178533636824e-07 5.6481951212936e-07 6.75072079746149e-07 6.76296920245424e-07 7.69818847347323e-07 7.70510597011948e-07 8.51302077161129e-07 8.52094442277454e-07 9.18186546822509e-07 9.19326915957584e-07 9.70743876834082e-07 9.71385791468421e-07 1.0114305748459e-06 1.01203601055366e-06 1.04031613081119e-06 1.04086838917819e-06 1.05863694200173e-06 1.05916075346604e-06 1.0673884324009e-06 7.42065150664966e-07 7.52402478563422e-07 7.53448416888762e-07 7.79226639389811e-07 7.79648128466067e-07 8.12947729919215e-07 8.13166971450794e-07 8.50221581811763e-07 8.50299171829018e-07 8.8864667081717e-07 8.88653188401815e-07 9.26496546197347e-07 9.26447714945835e-07 9.62528802550142e-07 9.62423453026256e-07 9.95451060201282e-07 9.95233566050517e-07 1.02395474912829e-06 1.02360008926801e-06 1.0460975974432e-06 1.04578325842878e-06 1.06169823077247e-06 1.06121951426104e-06 1.06827974756438e-06 1.06804739722756e-06 1.06800875914337e-06 1.5391191246662e-07 1.60723074423578e-07 1.60710268009196e-07 1.71838058529489e-07 1.71997827495957e-07 1.87270789863984e-07 1.87453231390913e-07 2.08524715007892e-07 2.09099461975735e-07 2.39382610045548e-07 1.06799855095912e-06 1.05306433523137e-06 1.05633804147532e-06 9.73373093373497e-07 9.72801231798173e-07 8.51410586575121e-07 8.49983725396793e-07 7.07295643300695e-07 7.05875308955462e-07 5.64123030659537e-07 5.63036407733092e-07 4.35573989419767e-07 4.35212950808661e-07 3.28481310880917e-07 3.28956327473997e-07 2.44430364464288e-07 1.23095904569856e-06 1.14187090076112e-06 1.48768903259289e-06 1.19648134504181e-06 1.25807750466907e-06 1.42467074560738e-06 5.14598408592347e-07 6.90471571328719e-07 6.057036634499e-07 1.23440466249732e-07 1.26379813920166e-07 1.30124113312121e-07 1.15470371432278e-07 1.36279963538889e-07 1.41413003750961e-07 1.14758090451872e-06 1.02835837000186e-06 1.07820977346455e-06 6.56321916259758e-07 5.7174189104983e-07 5.61493205890783e-07 2.39384994493991e-07 2.0910154252688e-07 3.03147299242614e-07 3.82774084454794e-07 4.10385506496441e-07 5.47330430029133e-07 4.42132560402599e-07 6.92145260902893e-07 4.98636542688892e-07 1.06952744641518e-06 1.08330636164197e-06 1.0956179962632e-06 1.19497557649897e-07 8.02371785655909e-08 1.20432431241671e-07 1.4947462151126e-06 1.69496459270031e-06 1.24963732459513e-06 7.99312249871003e-07 8.35624286025283e-07 6.05194973202221e-07 5.47356212268181e-07 9.93862309165047e-07 9.40827198397992e-07 2.12675069529569e-07 1.53227807757905e-07 1.69019987464009e-07 1.11717022703543e-07 7.21753298743647e-08 8.70208829749614e-08 1.9952459700037e-07 1.64542136419752e-07 2.04239893674184e-07 8.1307742243324e-08 7.80161722076423e-08 8.13604747992712e-08 3.71601202547704e-07 5.57590001686304e-07 5.65714831748252e-07 1.71997551512342e-07 1.8727028922113e-07 1.00642501876729e-07 3.04016619687446e-07 2.12961709972537e-07 1.95528903938861e-07 9.16484258164449e-07 3.80005217483293e-07 7.78542316834849e-07 9.89236026159939e-07 1.14081766916449e-06 1.23463129228287e-06 1.82307994927915e-07 1.70372179097765e-07 9.98826940599029e-08 1.11930926903855e-07 1.38478728853052e-07 1.66076931323438e-07 2.97004790362802e-07 1.2597931542688e-06 4.25981420542262e-07 1.58487820474382e-06 1.60587673280576e-06 1.60181386359353e-06 9.88978102895559e-07 8.13378090256785e-07 7.07288805092374e-07 8.47005761779021e-07 8.80458094875668e-07 9.47555099928304e-07 6.34824681357701e-07 5.38660640532835e-07 5.8513832843974e-07 6.1665408307625e-07 6.65700835078361e-07 6.95455304572365e-07 1.02010424330571e-06 6.92860241576863e-07 8.80584073391013e-07 1.47090393720476e-06 1.21970314647518e-06 1.72599264060519e-06 1.06473598912437e-06 1.06601929819297e-06 1.07649850604157e-06 1.05633842229281e-06 9.33637987273259e-07 9.73369806172528e-07 1.93811428945964e-07 2.11383994700391e-07 1.73733504514092e-07 1.91888962460189e-07 1.75909828574541e-07 1.64160796491601e-07 9.22371612975977e-08 8.97331649174702e-08 7.19691727407826e-08 3.66270849461167e-07 1.86883608128037e-07 2.74382568852732e-07 4.32052692822823e-07 5.2290600924822e-07 6.1217869841866e-07 1.72473794097308e-06 1.59507054612145e-06 1.6149011632438e-06 4.52747077880432e-07 5.20144042990146e-07 5.99801757657695e-07 4.29183489503923e-07 5.14953299580434e-07 3.65536087673151e-07 6.76299145301095e-07 7.69819953279992e-07 1.31590829280944e-06 8.37964058319378e-07 7.02252011945908e-07 6.01612827890917e-07 1.08241677172638e-06 1.02766740928432e-06 1.15221379294617e-06 1.06725537969226e-06 8.49683333390583e-07 8.70065827878723e-07 4.83964408900334e-07 5.61833080635717e-07 5.71518494894723e-07 1.4622727431987e-06 1.24756380735832e-06 1.29485727657994e-06 6.08273077461194e-07 3.25385732754648e-07 9.5914064929204e-07 1.05307918458224e-06 1.06804733240538e-06 1.06800900874436e-06 1.1475254769476e-06 1.03451400522603e-06 1.14182106964636e-06 3.4831549648094e-07 3.36824772177554e-07 4.61384949341895e-07 8.76942255104117e-07 7.88140910842516e-07 6.82667315165069e-07 9.29485514668262e-07 9.79696571762064e-07 7.14495821291655e-07 1.51041478469832e-07 1.17431711017084e-07 1.2309749567489e-07 1.53134898390374e-07 2.12432674991307e-07 2.58403452847625e-07 4.35475533545928e-07 3.62716751312484e-07 5.20139002410141e-07 4.24994432276912e-07 6.16149228254387e-07 5.20997631414306e-07 7.34481786586004e-07 1.28199456911429e-06 1.10170772570844e-06 1.18325101558941e-07 9.02685231656955e-08 1.3169186248741e-07 2.050099531182e-07 1.98697907326666e-07 2.97968947062284e-07 3.72464469958383e-08 4.52113797320143e-08 4.84845141110898e-08 7.56219109707177e-07 5.24419748453689e-07 6.10377958898342e-07 1.06245377822585e-06 1.06910760519472e-06 1.09361114821361e-06 1.81538802635287e-07 2.85742036864395e-07 3.14764463504075e-07 7.05871839963668e-07 4.87058211344975e-07 5.64120850751586e-07 8.94227755228394e-07 1.13212001910229e-06 1.00360516020544e-06 5.52690182456173e-07 6.82822368312127e-07 7.86303029979544e-07 1.97397543212682e-07 1.59803470547566e-07 1.67004389061767e-07 1.27420323289076e-06 1.23437979164486e-06 1.18549283046179e-06 3.90237897168475e-07 3.54172628267355e-07 4.06142690071644e-07 1.54972794459324e-06 1.73709762900091e-06 1.6341796992003e-06 4.3454365693411e-07 6.27591925729655e-07 7.00522827256865e-07 5.98213789363766e-07 6.55107868017795e-07 4.73205173189101e-07 6.33843507748736e-07 5.86976772017927e-07 7.05463848525949e-07 4.68924295284772e-07 6.96714699982526e-07 5.63008316739485e-07 7.41527054533164e-08 8.12363596381736e-08 7.52720350629833e-08 4.96799394986019e-08 5.59151125403393e-08 5.32199892056795e-08 5.09820832015458e-07 6.21149366883656e-07 7.22484335854408e-07 5.04924300680723e-07 6.67540550574348e-07 7.78445113832006e-07 1.70115019876471e-06 1.69145808137995e-06 1.68316459242707e-06 7.84774508498946e-07 6.66660960229651e-07 5.24743934466777e-07 1.61542573179485e-06 1.62858178449064e-06 1.68703741936225e-06 1.07691670445482e-06 9.29948666676369e-07 9.954216228245e-07 2.61431688456387e-07 2.09039455825494e-07 1.65211406002411e-07 1.56971410303661e-07 1.63107759823757e-07 1.10342039624098e-07 8.85753004147753e-07 1.10232226288666e-06 1.20657245627918e-06 5.65248214365546e-07 5.79138648730207e-07 7.52922583259272e-07 9.33020951978511e-08 1.14963193523337e-07 1.19391902570448e-07 3.45023440871168e-07 3.01233503781945e-07 2.62149544011257e-07 1.79462675616933e-07 1.23916267620786e-07 1.07741361174161e-07 8.99785805876302e-08 1.06343935622858e-07 6.46662237782114e-08 1.03673178410259e-06 1.03447332409415e-06 9.75849032493882e-07 8.95967622002619e-07 1.18625470206244e-06 9.49429827110222e-07 3.4417976969707e-08 4.49535543180361e-08 4.48060633147486e-08 5.64893802742862e-07 5.71725226429594e-07 3.8074653906958e-07 1.66389309915243e-07 1.58151702919078e-07 1.3471534525826e-07 2.32114297547284e-07 3.09989025638868e-07 3.73197640139072e-07 2.26026786105585e-07 2.84603215681781e-07 2.28641515793641e-07 6.54491184173996e-07 7.46636233587859e-07 1.09973853401955e-06 2.90621955592242e-07 3.15632831758803e-07 1.84824768643366e-07 1.02701618125931e-06 9.3863952200387e-07 1.06947683591566e-06 1.12228282025521e-07 1.44211932041556e-07 1.40028192923383e-07 4.77152715207935e-07 6.85884367609994e-07 5.57770389630152e-07 8.5379395246227e-08 6.63293137803259e-08 1.04915698120625e-07 5.07415183726911e-07 5.48285250557047e-07 6.65092659042949e-07 7.53448048769029e-07 5.79835987687622e-07 7.7922617043245e-07 1.25697937263661e-06 1.32007541788317e-06 1.25192939201231e-06 6.19149757706684e-07 7.46288718283424e-07 2.07362439093318e-07 1.04621322449437e-07 9.99595344794978e-08 1.0455380766358e-07 1.1030784155857e-07 9.81780546565189e-08 1.38114112486647e-07 3.52422778423151e-07 7.30619031600783e-07 8.23633848861143e-07 1.52733262535157e-07 1.99605440346379e-07 2.12202801820354e-07 1.97378913156175e-07 2.66473371067847e-07 2.95106020830658e-07 3.71949831102902e-07 3.05543464104167e-07 1.82556351408302e-07 4.85489040480168e-07 5.75650826500067e-07 5.47192169433523e-07 4.0096909225501e-07 3.91876185579849e-07 2.96821720920432e-07 7.42065087952162e-07 5.79820292635576e-07 7.52401998091133e-07 1.132994847193e-06 1.10004065795385e-06 1.12843478838498e-06 1.2890383792835e-07 1.71090535156735e-07 2.03031082098239e-07 2.93955597345149e-07 2.59652220533369e-07 2.1878724112352e-07 3.96733525671833e-07 5.5725508528935e-07 4.87158095693006e-07 6.40838009173929e-08 7.63018491296419e-08 8.11694610294002e-08 6.1710706408439e-07 6.34492583779367e-07 5.65620689906882e-07 4.94431207697158e-07 6.14273864308635e-07 3.88269535518904e-07 2.75880726857899e-07 2.03872278243673e-07 2.52307780351845e-07 1.37570804664244e-07 1.37926781172222e-07 1.62226633464473e-07 1.24652640676622e-06 1.33519709335815e-06 1.32020080570483e-06 1.53917372756366e-07 1.60727501437504e-07 9.4300142552148e-08 3.54317642060803e-07 2.20005072533085e-07 3.71811224290922e-07 3.88952220457719e-08 4.12228925571028e-08 4.17414693048358e-08 8.65842116066564e-07 7.015147031429e-07 8.85315453482437e-07 9.26112974049897e-07 9.86700427302792e-07 1.04651260194859e-06 1.95011523914921e-07 1.99752454812828e-07 2.90587008353024e-07 3.91641054840169e-07 6.1081295922021e-07 4.63807422252662e-07 5.03205890030515e-07 4.34053216242641e-07 3.82131632663465e-07 1.39001543453392e-07 1.61544089915557e-07 1.64512790046899e-07 9.95739256729591e-07 7.64422202884676e-07 8.60305807077485e-07 3.9539874288773e-07 3.02983614757102e-07 3.04020850884916e-07 3.25629639772228e-07 2.52062105622178e-07 3.36585222779422e-07 7.28360472260081e-07 1.59402789789593e-07 4.10040399549365e-09 1.16710579299734e-07 1.89221929910628e-07 1.31541986357377e-07 7.04559056502426e-07 5.51612083838613e-07 6.92930754083477e-07 4.25757235625106e-07 4.66976513375285e-07 3.31307464954792e-07 1.40058095988883e-06 1.3280774095875e-06 1.29764195286468e-06 4.48758045314125e-07 2.87453499348228e-07 4.73032619765257e-07 2.33586651139292e-07 2.10092371194778e-07 2.71157873423881e-07 7.79834730459627e-07 5.76237943303081e-07 6.20796247053974e-07 1.31724639325712e-06 1.33587603003882e-06 1.40772654248353e-06 5.45588175071887e-07 3.9913134764575e-07 3.65740044801172e-07 3.40291056748119e-07 4.69320304881473e-07 4.59157384872323e-07 1.74599768484359e-07 2.79150533091467e-07 2.83999813994996e-07 1.09954745216774e-06 1.10442778780913e-06 1.10841615014543e-06 9.98805746598056e-07 9.66804365531012e-07 9.53265921300648e-07 8.90911906409664e-07 8.55881898453056e-07 7.72246545234847e-07 5.81993428060517e-07 6.65202184851569e-07 7.32724476980224e-07 6.96973287549523e-07 6.92674352825613e-07 8.89941349271294e-07 2.89397749711248e-07 2.65473965428057e-07 2.07529864392884e-07 1.57763221436389e-07 1.35607852709418e-07 1.31253985419762e-07 1.4272150314207e-07 9.42391761297656e-08 1.22430012870371e-07 1.06554267408139e-06 1.0691978842175e-06 1.06968306744694e-06 6.23345897026035e-07 6.89889573309269e-07 6.82613381167677e-07 1.23536801192418e-06 1.23818786418069e-06 1.14917334418383e-06 1.10080412329192e-06 1.06827494158978e-06 1.05380262238627e-06 1.756510544944e-07 2.7748309751244e-07 3.06195388180813e-07 4.31709962030823e-07 2.75903724947701e-07 3.03794790889523e-07 1.59997800404892e-07 7.89721832214166e-07 3.05742121373572e-07 3.34595295478169e-07 3.7134246951032e-07 4.52603358451153e-07 3.95383420952414e-07 3.56818516329263e-07 3.48265332520315e-07 2.44127186179089e-07 1.5997533851319e-07 2.35269579470042e-07 3.31062671066767e-07 2.57781456087926e-07 2.47833919681748e-07 5.11407953117578e-07 3.736066340326e-07 4.65781624301468e-07 9.54064149125615e-07 9.24753492829699e-07 1.0391545795937e-06 2.92789007536367e-07 2.1921186397567e-07 2.93810896660223e-07 2.60361789111064e-07 3.64705803544117e-07 3.4087656195968e-07 9.50502695995141e-07 1.01307325643548e-06 1.008057942807e-06 3.83451267290125e-08 4.11074106081874e-08 3.88074742998307e-08 8.1061740360344e-07 5.53842303655375e-07 7.05975505235685e-07 6.73460758686624e-08 9.07507108791859e-08 8.68167226240348e-08 7.65049037418649e-08 7.6509189430531e-08 8.2247861135874e-08 1.48621867045761e-06 1.49765523833963e-06 1.68350904011698e-06 6.46396244389097e-07 8.67251682640023e-07 8.43944377278387e-07 1.85691320828706e-07 2.00132816141468e-07 2.69466631474797e-07 1.94744824030137e-07 2.08995138687713e-07 2.45742693225987e-07 1.06738850668449e-06 1.05916104922271e-06 1.09066540500743e-06 3.91167694522584e-07 4.01551734196338e-07 3.59697970210788e-07 1.95308550082138e-07 2.27431510608192e-07 2.50553208197373e-07 3.96368054253355e-07 4.22120013803623e-07 3.55603939718951e-07 9.80606532359974e-07 9.43692676100471e-07 8.84839684215623e-07 1.19923610184268e-07 1.29985553960575e-07 1.37325042829516e-07 6.49706375012521e-07 6.1083062519579e-07 1.10201043476271e-06 1.42129378977231e-06 1.64352931309956e-06 1.33574601254758e-06 8.28372087162074e-07 1.26213721714162e-06 8.95209208564614e-07 4.41173417123235e-07 1.03099800502609e-06 5.64179759465095e-07 2.44432058142126e-07 3.65368392015072e-07 3.28960309590245e-07 1.23758202489771e-06 1.3273425375731e-06 1.23534083617926e-06 4.60191381693554e-07 5.06953158549947e-07 5.99665421728043e-07 1.09068704142437e-06 1.06484013939003e-06 1.06188943026547e-06 1.49020874653438e-06 1.30970431110224e-06 1.66149390716645e-06 1.11424088745243e-07 1.38969568893519e-07 1.4521214755344e-07 1.59871966318115e-07 1.05063895598999e-07 1.10898799426909e-07 1.06868593865962e-06 1.09037736212706e-06 1.07879959599e-06 7.67901949269079e-07 6.20911611339434e-07 5.15664703255971e-07 5.12729685443153e-07 7.90303844786973e-07 1.01852230309449e-06 7.01090695682192e-07 6.22551941653709e-07 4.85544440819295e-07 7.56533327601858e-07 6.75521685394554e-07 7.23578256266619e-07 8.8865273624097e-07 7.35120462348219e-07 9.26496172012661e-07 1.25784288185345e-06 1.20990763149989e-06 1.22839985675486e-06 2.24355427209846e-07 3.12052877380139e-07 3.68157373383277e-07 6.09060575711386e-07 6.23785931722915e-07 6.73040923782154e-07 9.38661589051605e-07 1.00155891526687e-06 1.02265327974088e-06 9.21888092053456e-07 1.04639234389956e-06 1.11799405568187e-06 8.69087079800029e-07 8.59767546372713e-07 1.00458690345135e-06 1.60714731543052e-07 2.50844404684127e-07 1.71842645143621e-07 1.59273897739984e-07 1.918358868122e-07 1.37671620604873e-07 2.7667432767407e-07 3.36481915477402e-07 2.17089593666188e-07 4.74905164511997e-07 4.39739134687028e-07 3.91190184185758e-07 8.06588357054417e-07 1.03214643013025e-06 1.00667886148082e-06 2.9692462853039e-07 2.35208376343202e-07 2.19600595901363e-07 9.49593365372252e-07 9.36527688103395e-07 1.05731514186329e-06 1.90870681210897e-07 1.33058072114041e-07 1.9648513832227e-07 6.87462677421031e-08 1.04497802659708e-07 9.30944115251394e-08 2.53948157896729e-07 2.0294303313203e-07 3.17113107152369e-07 8.47862904315934e-07 7.3460670318073e-07 6.60934346435119e-07 3.41797146177879e-07 2.46313673588593e-07 2.3314914669218e-07 1.10869691384713e-06 9.26991429845352e-07 1.01707440638781e-06 1.00422326698505e-06 9.93907791798632e-07 8.70909939197855e-07 3.8079699231268e-07 2.74476666762942e-07 4.46932707669923e-07 1.20498422423783e-06 1.16225850821946e-06 1.20974222371462e-06 1.41328419234484e-06 1.52858984223012e-06 1.51658777616789e-06 8.4950812065741e-08 1.02505907106162e-07 7.0428002536989e-08 2.0604798306258e-07 1.58019216817581e-07 1.17795307646689e-07 5.6162081235767e-07 4.9433587610127e-07 3.91751565274933e-07 5.87418560671617e-07 4.73836525656345e-07 6.59096431907023e-07 7.97490366969278e-07 9.49668014369093e-07 9.53576801013299e-07 9.4705414977644e-07 1.04992466808639e-06 9.54935443058763e-07 1.04702411323819e-06 1.10603819022037e-06 1.0243929691849e-06 2.95951910030902e-07 2.58955251562464e-07 2.79789078904826e-07 1.0727100420519e-06 9.27172135728199e-07 9.36109083697044e-07 9.53891691504306e-08 8.26875021712981e-08 7.60574496864351e-08 1.04991779928951e-06 1.0470964109911e-06 9.54070505323927e-07 9.60907627606051e-07 7.15873625627494e-07 7.6080173007135e-07 4.50198955754381e-07 6.43286198104097e-07 5.19266225292754e-07 8.4561048789692e-07 7.553878657022e-07 8.81798505184049e-07 9.47605931358725e-07 7.75556817178096e-07 9.81451422298112e-07 5.78677594212642e-07 5.5432581186374e-07 6.46759747969675e-07 5.91443553422171e-07 6.09703763262746e-07 4.30992542051294e-07 3.02682940762448e-07 2.13704182297886e-07 3.03853388127559e-07 1.05526642720706e-06 9.46349044082262e-07 1.0910514809956e-06 4.25501358721923e-07 6.18390503131482e-07 6.03461542413187e-07 1.61419762383354e-06 1.68710351041015e-06 1.6222348478982e-06 1.26417367306578e-07 1.87698414537058e-07 1.97784467291944e-07 7.72913129524327e-07 8.1065698657873e-07 6.69104325413747e-07 2.47329867458844e-07 2.22862517437246e-07 1.58263966606672e-07 5.14011062025602e-07 7.18495353188043e-07 5.79893640432181e-07 1.16073333014727e-07 1.23078290416508e-07 1.65621990921381e-07 6.46654504793487e-07 7.8143160720764e-07 8.68056449054685e-07 2.39379372261272e-07 1.45587185211602e-07 2.09098735906722e-07 4.58175465579305e-08 5.48252030790191e-08 5.95969108335753e-08 1.17345460677538e-06 1.2251736751676e-06 1.21157084086627e-06 1.49579892128564e-07 1.34981405442007e-07 1.8959759764838e-07 1.45282482252928e-06 1.5780979309071e-06 1.62095964018671e-06 1.05264418140023e-06