<?xml version="1.0"?>
<VTKFile type="UnstructuredGrid" version="0.1" byte_order="LittleEndian">
<UnstructuredGrid>
<Piece NumberOfPoints="6397" NumberOfCells="2159">
<Points>
<DataArray type="Float64" NumberOfComponents="3" format="ascii">
0 0 0 0 0 3.999999999999964 2.66344351959326 0 2.7043277307795819 0 0 0 2.66344351959326 0 2.7043277307795819 4.0000000000284359 0 0 8.0000000000568576 0 0 4.0000000000284359 0 0 6.5707172755705248 0 2.7646612833128712 4.0000000000284359 0 0 2.66344351959326 0 2.7043277307795819 6.5707172755705248 0 2.7646612833128712 4.6209038898330013 0 5.4801965510881789 6.5707172755705248 0 2.7646612833128712 2.66344351959326 0 2.7043277307795819 4.6209038898330013 0 5.4801965510881789 2.66344351959326 0 2.7043277307795819 2.07684632842173 0 5.9999999999999467 0 0 7.9999999999999289 2.07684632842173 0 5.9999999999999467 0 0 3.999999999999964 0 0 3.999999999999964 2.07684632842173 0 5.9999999999999467 2.66344351959326 0 2.7043277307795819 12.00000000008531 0 0 8.0000000000568576 0 0 9.7693469607982983 0 3.7481879779097791 12.00000000008531 0 0 9.7693469607982983 0 3.7481879779097791 13.38972239314738 0 2.6999177402855641 8.0000000000568576 0 0 6.5707172755705248 0 2.7646612833128712 9.7693469607982983 0 3.7481879779097791 7.8296048838167076 0 7.2849290530216786 10.475932525657869 0 6.5236477926518619 9.7693469607982983 0 3.7481879779097791 7.8296048838167076 0 7.2849290530216786 6.5707172755705248 0 2.7646612833128712 4.6209038898330013 0 5.4801965510881789 9.7693469607982983 0 3.7481879779097791 6.5707172755705248 0 2.7646612833128712 7.8296048838167076 0 7.2849290530216786 13.00967717205546 0 5.6551885328941403 9.7693469607982983 0 3.7481879779097791 10.475932525657869 0 6.5236477926518619 13.00967717205546 0 5.6551885328941403 13.38972239314738 0 2.6999177402855641 9.7693469607982983 0 3.7481879779097791 7.8296048838167076 0 7.2849290530216786 11.30969053719768 0 9.1676850296155816 10.475932525657869 0 6.5236477926518619 13.00967717205546 0 5.6551885328941403 10.475932525657869 0 6.5236477926518619 11.30969053719768 0 9.1676850296155816 7.8296048838167076 0 7.2849290530216786 3.8041353317600799 0 9.4838326041714431 7.9090244117951407 0 10.95102642914321 7.8296048838167076 0 7.2849290530216786 7.9090244117951407 0 10.95102642914321 11.30969053719768 0 9.1676850296155816 14.32798837506134 0 12.48911227050972 11.30969053719768 0 9.1676850296155816 10.704055794530859 0 12.6223006550824 10.704055794530859 0 12.6223006550824 11.30969053719768 0 9.1676850296155816 7.9090244117951407 0 10.95102642914321 0 0 7.9999999999999289 3.8041353317600799 0 9.4838326041714431 2.07684632842173 0 5.9999999999999467 4.6209038898330013 0 5.4801965510881789 2.07684632842173 0 5.9999999999999467 3.8041353317600799 0 9.4838326041714431 7.8296048838167076 0 7.2849290530216786 4.6209038898330013 0 5.4801965510881789 3.8041353317600799 0 9.4838326041714431 5.4255954274940468 0 12.775317011400031 7.9090244117951407 0 10.95102642914321 3.8041353317600799 0 9.4838326041714431 5.4255954274940468 0 12.775317011400031 3.8041353317600799 0 9.4838326041714431 2.640550250250365 0 13.30343526213797 0 0 11.99999999999994 2.640550250250365 0 13.30343526213797 3.8041353317600799 0 9.4838326041714431 0 0 11.99999999999994 3.8041353317600799 0 9.4838326041714431 0 0 7.9999999999999289 0 0 15.99999999999995 2.640550250250365 0 13.30343526213797 0 0 11.99999999999994 0 0 15.99999999999995 3.973020491997699 0 16.258026695118499 2.640550250250365 0 13.30343526213797 0 0 19.999999999999961 4.5806639609469997 0 19.862710269054769 3.973020491997699 0 16.258026695118499 0 0 19.999999999999961 3.973020491997699 0 16.258026695118499 0 0 15.99999999999995 8.3266277160981126 0 17.7004192385895 3.973020491997699 0 16.258026695118499 4.5806639609469997 0 19.862710269054769 5.4255954274940468 0 12.775317011400031 2.640550250250365 0 13.30343526213797 3.973020491997699 0 16.258026695118499 5.4255954274940468 0 12.775317011400031 3.973020491997699 0 16.258026695118499 7.7404602345423204 0 14.54380321958984 5.4255954274940468 0 12.775317011400031 7.7404602345423204 0 14.54380321958984 7.9090244117951407 0 10.95102642914321 10.704055794530859 0 12.6223006550824 7.9090244117951407 0 10.95102642914321 7.7404602345423204 0 14.54380321958984 14.32798837506134 0 12.48911227050972 10.704055794530859 0 12.6223006550824 11.75402814782707 0 15.52236706552506 10.704055794530859 0 12.6223006550824 7.7404602345423204 0 14.54380321958984 11.75402814782707 0 15.52236706552506 8.3266277160981126 0 17.7004192385895 13.52887381105845 0 19.07917103906707 11.75402814782707 0 15.52236706552506 8.3266277160981126 0 17.7004192385895 7.7404602345423204 0 14.54380321958984 3.973020491997699 0 16.258026695118499 8.3266277160981126 0 17.7004192385895 11.75402814782707 0 15.52236706552506 7.7404602345423204 0 14.54380321958984 8.3266277160981126 0 17.7004192385895 7.3734437617054036 0 20.587411399876569 10.178007277726421 0 21.724671481347961 8.3266277160981126 0 17.7004192385895 4.5806639609469997 0 19.862710269054769 7.3734437617054036 0 20.587411399876569 8.3266277160981126 0 17.7004192385895 10.178007277726421 0 21.724671481347961 13.52887381105845 0 19.07917103906707 12.706931992858721 0 26.37471591010971 14.320961795774391 0 23.32619268761443 10.178007277726421 0 21.724671481347961 9.5697619165960202 0 25.659496374512631 12.706931992858721 0 26.37471591010971 10.178007277726421 0 21.724671481347961 6.1768732550549936 0 23.87473028151155 10.178007277726421 0 21.724671481347961 7.3734437617054036 0 20.587411399876569 6.1768732550549936 0 23.87473028151155 9.5697619165960202 0 25.659496374512631 10.178007277726421 0 21.724671481347961 6.1768732550549936 0 23.87473028151155 4.5806639609469997 0 19.862710269054769 3.191276734414644 0 22.850474519006632 6.1768732550549936 0 23.87473028151155 3.191276734414644 0 22.850474519006632 2.3692638314996421 0 25.57295210895003 0 0 23.999999999999961 2.3692638314996421 0 25.57295210895003 3.191276734414644 0 22.850474519006632 0 0 23.999999999999961 3.191276734414644 0 22.850474519006632 0 0 19.999999999999961 0 0 19.999999999999961 3.191276734414644 0 22.850474519006632 4.5806639609469997 0 19.862710269054769 6.1768732550549936 0 23.87473028151155 7.3734437617054036 0 20.587411399876569 4.5806639609469997 0 19.862710269054769 18.189362734038401 0 18.146622260735661 19.3670580238695 0 21.362300660710609 22.065959340448551 0 19.437990615481549 21.978233404233009 0 23.15428695841441 22.065959340448551 0 19.437990615481549 19.3670580238695 0 21.362300660710609 21.978233404233009 0 23.15428695841441 25.850420345530981 0 21.055002092136121 22.065959340448551 0 19.437990615481549 25.329272956002221 0 17.272042519131851 22.065959340448551 0 19.437990615481549 25.850420345530981 0 21.055002092136121 21.978233404233009 0 23.15428695841441 23.656620175023871 0 26.516952020808031 24.93874764187542 0 23.98167172788246 21.978233404233009 0 23.15428695841441 24.93874764187542 0 23.98167172788246 25.850420345530981 0 21.055002092136121 21.978233404233009 0 23.15428695841441 18.12566666875647 0 24.807977381442431 20.850945221766889 0 25.693946049239369 21.978233404233009 0 23.15428695841441 19.3670580238695 0 21.362300660710609 18.12566666875647 0 24.807977381442431 18.12566666875647 0 24.807977381442431 19.3670580238695 0 21.362300660710609 16.476067971871089 0 21.26462608747898 14.320961795774391 0 23.32619268761443 18.12566666875647 0 24.807977381442431 16.476067971871089 0 21.26462608747898 14.320961795774391 0 23.32619268761443 16.476067971871089 0 21.26462608747898 13.52887381105845 0 19.07917103906707 14.320961795774391 0 23.32619268761443 13.52887381105845 0 19.07917103906707 10.178007277726421 0 21.724671481347961 18.189362734038401 0 18.146622260735661 13.52887381105845 0 19.07917103906707 16.476067971871089 0 21.26462608747898 18.189362734038401 0 18.146622260735661 16.476067971871089 0 21.26462608747898 19.3670580238695 0 21.362300660710609 18.189362734038401 0 18.146622260735661 18.07077599594691 0 14.35233389632198 15.304671521166791 0 16.081754755268189 18.189362734038401 0 18.146622260735661 15.304671521166791 0 16.081754755268189 13.52887381105845 0 19.07917103906707 13.52887381105845 0 19.07917103906707 15.304671521166791 0 16.081754755268189 11.75402814782707 0 15.52236706552506 14.32798837506134 0 12.48911227050972 11.75402814782707 0 15.52236706552506 15.304671521166791 0 16.081754755268189 14.32798837506134 0 12.48911227050972 15.304671521166791 0 16.081754755268189 18.07077599594691 0 14.35233389632198 20.805575156043471 0 12.76286797642741 18.07077599594691 0 14.35233389632198 21.645419707662882 0 16.026045520337629 20.805575156043471 0 12.76286797642741 18.151638481708599 0 10.60760059465326 18.07077599594691 0 14.35233389632198 18.189362734038401 0 18.146622260735661 22.065959340448551 0 19.437990615481549 21.645419707662882 0 16.026045520337629 18.189362734038401 0 18.146622260735661 21.645419707662882 0 16.026045520337629 18.07077599594691 0 14.35233389632198 25.329272956002221 0 17.272042519131851 21.645419707662882 0 16.026045520337629 22.065959340448551 0 19.437990615481549 20.805575156043471 0 12.76286797642741 21.645419707662882 0 16.026045520337629 24.597882896029191 0 13.513174052093371 25.329272956002221 0 17.272042519131851 24.597882896029191 0 13.513174052093371 21.645419707662882 0 16.026045520337629 24.597882896029191 0 13.513174052093371 26.400761617221551 0 9.9352243108510194 22.300015122859559 0 9.3990893396401489 20.805575156043471 0 12.76286797642741 24.597882896029191 0 13.513174052093371 22.300015122859559 0 9.3990893396401489 20.805575156043471 0 12.76286797642741 22.300015122859559 0 9.3990893396401489 18.151638481708599 0 10.60760059465326 18.7518341141303 0 6.5935947010293026 18.151638481708599 0 10.60760059465326 22.300015122859559 0 9.3990893396401489 18.7518341141303 0 6.5935947010293026 22.300015122859559 0 9.3990893396401489 22.915953587178709 0 4.522588068116459 24.986842191109989 0 7.1296693
[...]
<PointData Scalars="I_conc," Vectors="" Tensors="">
<DataArray type="Float64" Name="I_conc" format="ascii">
1.6863643332465569e-11 1.0946004339448516e-10 8.6789681078187666e-11 4.4260476341736107e-11 6.3367809555284373e-11 4.5626533145005786e-11 4.727725638496723e-11 4.740584785403436e-11 6.8114497262002896e-11 2.867769473700718e-11 8.0075761412704136e-11 8.7786066329997429e-11 2.0006918909246254e-10 8.1634471070882757e-11 7.9221010782483379e-11 2.4067059836322716e-10 3.5760060580202786e-11 2.7510308297527889e-10 5.6493999899404644e-10 3.1573890773682603e-10 4.0195726606738196e-11 1.3123214880030437e-10 2.5007404661352184e-10 6.1400825510924061e-11 4.550495062605763e-11 4.3306207664524959e-11 8.5072759576549042e-11 2.1133615929684668e-11 1.1912894187586281e-10 9.6978247737093574e-11 2.5741942498068317e-11 9.0886965289455203e-11 1.193852738033942e-10 5.2227561346703207e-10 4.3369312020062286e-10 2.2601054921558404e-11 4.5182157873022834e-10 -8.5309270577950906e-12 2.7105557883444529e-10 1.3244143645413259e-10 4.055032934136436e-11 3.8378896915573287e-10 3.1848336962799433e-10 7.5435972194233939e-11 3.8254522210270293e-10 2.4802626391361746e-10 7.1409818509649512e-11 1.3867831493091511e-10 6.0248683636465054e-10 1.0589364023200029e-09 3.6537607177069906e-10 2.5829563447243059e-10 3.9132840767875515e-10 9.5645903603835317e-10 1.8294436814067817e-10 1.4030045557306304e-09 2.0337643014676959e-09 1.8803094737424704e-10 2.0299622266361357e-09 1.3790921367330327e-09 4.8971108054344481e-09 6.5849039667056507e-11 4.8103421049951622e-09 4.2627424821036328e-09 6.9165462057929908e-10 2.6701170613673627e-09 7.1994417507472655e-10 1.1105041654365409e-09 1.5798787286547104e-10 1.7249781275852948e-10 2.8644284599181587e-10 9.0632489699375821e-10 6.1242317577165179e-10 9.0419464258246327e-11 1.0184945326985084e-09 4.2003024458729767e-09 2.645016272464172e-09 7.5934702768863266e-10 4.7886079234462837e-09 1.0031026940566488e-11 5.4376490766054722e-09 3.4790818643210943e-09 5.0671504426754281e-09 4.6916672915902548e-10 2.5873718337690493e-09 1.4257181934660649e-09 2.8342136407591044e-10 1.2939087203981767e-08 6.3957227009392792e-09 1.7823456559654835e-09 1.6606871972184239e-08 1.8119214057355999e-08 3.6805595147020388e-09 7.4035474936282321e-08 6.8989219572137705e-08 6.8127956810757423e-10 5.2061885072288015e-08 1.9842442839355965e-08 1.0656473126859195e-08 3.6922655776117891e-08 8.8353575433661554e-09 6.0199846889433015e-08 3.9991451966723491e-09 5.6988126960927736e-09 1.4823972667189618e-08 2.7080052367999219e-09 1.6600316351697759e-08 1.0861769181688163e-08 5.1529190140140035e-09 8.7450952392817539e-09 1.4913896748743104e-09 5.4233345518830468e-09 1.1652515835939565e-09 8.8133895724849679e-09 4.7523124038797091e-09 4.5749931665107838e-09 1.2582447962137035e-08 3.2332923687869191e-09 1.1202757927423496e-08 1.4527496972922284e-08 3.8321432588789537e-08 5.4472360133946768e-08 8.4870194417608912e-09 2.967962855100626e-08 7.5286931238741188e-09 1.972077350290093e-08 2.9542238412896451e-08 1.7660776209293579e-08 7.1675662007085521e-09 6.6002967407074198e-09 1.0412224991233468e-07 1.4294995996008188e-07 2.3384907889574056e-08 7.6930411825467485e-08 9.2002933646525322e-08 1.9213357120183754e-08 1.2481660991917711e-07 6.7485760975844519e-08 6.1486941659707051e-07 2.8700781488435627e-07 8.6389805193033014e-08 5.8591422920780156e-07 7.1182476335328468e-07 -8.1611344308355686e-09 2.7129903230453263e-07 1.6265401571573148e-07 8.3850768130494326e-08 3.358627009969988e-07 5.0642462521686161e-07 7.3852028675114774e-08 2.8931880739004402e-07 2.0148329632977721e-08 2.2238892617698604e-07 3.2942399724465275e-07 1.9422992598799475e-07 5.0083321550849255e-07 3.1363519182712314e-07 4.9524759768169583e-07 1.9905331739665376e-07 2.7555993715640055e-07 2.2345196029144908e-07 1.7191239094468663e-08 7.1964833398158159e-08 1.7704306840315734e-07 6.6136460814597811e-08 2.441782693961341e-07 9.6320763885776492e-08 5.7859448427671381e-08 3.4641529644931441e-08 1.3126597477351538e-07 8.1188199733347632e-08 2.5210894068236987e-07 4.8011310371552754e-08 1.5992648586370138e-07 2.4799479492714089e-07 1.5632287404562475e-07 4.2709129709135408e-08 1.867954541116217e-08 8.5000697469949279e-08 1.2427198425901485e-07 2.6294177951280041e-07 7.768952486852424e-07 4.0081125239518914e-07 3.1027265982646449e-07 3.7550899439159292e-07 1.0680601089163353e-07 2.5640324797142558e-07 5.0460426557777697e-07 6.4118514780227034e-07 3.1009061241487678e-07 9.6953305009308471e-08 4.3754235162166532e-07 3.8750312664985448e-07 1.3750609261652021e-07 1.3099996446386343e-07 2.9959782974020719e-07 4.3838423879646064e-07 9.8893899295160981e-08 2.4380249428334342e-07 1.4704947010973539e-07 2.8917375490012038e-08 2.4638232454031181e-07 2.7400364356266423e-08 1.6634763515399768e-07 4.0037039327119848e-08 6.2804673480209094e-08 1.205048158556473e-07 2.2103669659887834e-08 1.3990867380625275e-07 1.4478777254424353e-07 3.8440878447074069e-08 5.5694178136263755e-09 2.2202753077746972e-08 4.896017300502973e-08 1.2739791547443884e-08 5.7570242405612371e-08 4.7551478307384081e-08 1.9591630694037898e-08 1.2663879255515078e-08 1.3325428854346085e-09 1.5964634901685436e-08 1.8458478196674369e-08 2.6029392062758221e-09 1.7390003189466225e-08 1.1450782299218981e-08 4.2177667249707689e-09 1.1712681151292882e-08 1.8656188920361207e-08 6.493403915837245e-09 8.1442142033133338e-10 9.3989533449056539e-09 4.9853877639156922e-08 6.7985145113641348e-08 1.16974781355872e-08 3.7937913960721849e-08 2.3417501614992498e-08 5.3116410584325641e-09 3.9737568449613641e-08 1.4142116519791374e-08 6.5473768002754604e-08 4.7160772180332302e-09 1.748300689782774e-08 8.9076440702775363e-09 3.1530952744117052e-08 2.3801823893895279e-09 2.34613449991882e-08 5.7616437751476533e-09 1.8524926032716673e-09 1.1196479604997109e-09 6.1706355034297529e-09 7.6057703863439049e-09 -3.9901693513413734e-10 4.9113439987785327e-09 1.072923290067584e-09 2.6038742665499114e-09 -1.3401502420188545e-11 2.1221951905648211e-09 1.6878793888512322e-09 5.3881842995436325e-10 1.0951903718642585e-09 1.2808319484860624e-11 7.1220189165078638e-10 -9.0391067733200694e-11 1.2221641042029331e-09 4.6624162824339259e-10 1.6272949862906007e-09 1.8889094016670995e-09 3.4366280735993212e-09 4.9108756566137496e-10 1.2704272468038627e-09 4.052331266070576e-09 2.730783503567215e-09 5.4746458101559396e-11 5.3989064014524944e-09 8.8343940870715175e-09 1.160434632260366e-09 2.2981223650062713e-10 9.6509502751472126e-10 1.8903832999156103e-09 5.2224772557674768e-10 1.8916190907097083e-11 7.6184876540037474e-10 1.32410194488695e-10 1.1548607758912699e-09 9.1016122102243168e-10 2.6401360503588597e-10 1.8143923614468011e-10 7.2097947213608781e-11 3.1785487559602064e-10 6.7748509347410444e-10 7.8514871325256461e-11 3.8094375817106616e-10 1.1237449816527913e-10 1.6812844226274176e-10 5.2610660725589979e-11 5.6741115346771755e-11 8.8152208998767788e-11 6.8002987722175386e-12 1.463355026148012e-10 1.3689338477946495e-10 1.3955591744846583e-11 1.0301397783138147e-10 1.3856138777436478e-10 5.4596975384860304e-11 4.9451531951416658e-11 7.2648875331660386e-11 4.8555951395956182e-10 1.4261072938448263e-10 1.835173950643507e-10 4.1191726354943279e-10 2.3910698530420071e-10 1.1425656477072536e-10 6.5111223620778703e-11 5.361370142294791e-11 9.1977298146600851e-11 -7.9618594982923614e-12 1.8362458087151604e-10 1.650982221375774e-10 1.9527197712391697e-12 1.4709877861898899e-10 1.8077418086777264e-10 5.5826516180577839e-11 5.5743994788443671e-11 1.0536878895498703e-10 3.0089274238329045e-10 9.260233703081012e-11 6.0400600994727269e-10 6.1935377232381057e-10 6.9228384810922321e-10 -1.637191616397795e-11 2.7089344141564642e-10 9.2399149539903053e-11 1.7280850125252907e-10 2.8818868292106863e-10 2.0469365407905091e-10 7.7816848385360169e-11 6.1710727025292675e-11 5.890851581498754e-11 8.225426668353427e-11 2.3310550461549161e-11 1.3965904844214477e-10 1.1269539091724531e-10 1.9397291756288923e-11 1.1538092305521723e-10 1.5672765586800547e-10 6.0300660957313604e-11 6.2656772418788895e-11 8.3678713276853049e-11 2.735254183247552e-11 1.4942828897590589e-10 1.1089651238189929e-10 3.338826266548964e-11 1.0775694699523968e-10 1.3088718804004258e-10 2.6249935385932465e-10 1.4808601670687694e-10 8.7665980517035277e-11 3.4063603977827591e-10 5.0141345976217155e-10 5.675575766381343e-11 3.4178614371205213e-10 6.4227628175900025e-10 1.2453380993888893e-10 3.2246726248007563e-10 1.1615593641180552e-10 6.1410944219212649e-10 2.7849525922143305e-10 8.1383046116243506e-11 1.8853133447202369e-10 1.6955308174734057e-09 4.2229694819745597e-10 8.3567221077864361e-10 7.4596400456438418e-10 6.085641182459307e-10 2.6912283662260076e-10 3.7384202661041056e-09 6.0122181499496805e-09 1.7793408690883088e-09 3.0680158783836169e-09 2.342712752517782e-09 1.1594319212124849e-10 3.7264328641403767e-09 9.4395890959049992e-10 7.0457017350365905e-09 2.9675380074422338e-09 2.9810643366411862e-10 2.0533518444229741e-09 5.6681304806872295e-09 7.907587614994569e-09 2.6987354735086358e-10 4.5476770576355256e-09 1.624399952322351e-09 2.0232923930962157e-09 5.7918917081018942e-09 5.9494050301422317e-10 7.500055851997636e-09 5.5857949720102191e-10 1.6815635582942199e-09 7.3345413292017564e-10 1.8699568998433277e-09 5.3987944299283622e-10 1.9894270741347808e-09 2.562432110755331e-11 8.3446417506840734e-10 1.478643254844985e-09 2.5972427570824749e-11 1.4245014519366209e-09 8.6862287513293054e-10 3.7234188762807187e-10 5.8319529347058031e-10 1.7799522035826742e-10 3.0755374158860378e-10 2.395897262107253e-10 6.0543468382516766e-11 7.8885275415168933e-11 6.6999776042954384e-10 7.1707075170421211e-10 3.3234653034822277e-11 1.2161038681589894e-10 1.8000171999824359e-10 7.5983690964802997e-11 6.3319803547525417e-11 1.357855584820094e-10 3.9052167054382816e-11 1.3573354821467455e-10 1.177075444867198e-10 7.4366454522966595e-11 7.1332277619435407e-11 9.1990544673832779e-11 2.8833844653772184e-10 8.5184212092773797e-11 1.6339974274822309e-10 1.6775194481797672e-11 4.099761031525261e-10 6.490443144011975e-10 3.8656872142773212e-10 3.9825847587945032e-11 6.301927671605182e-10 6.5116099502818842e-11 6.0815354386012528e-11 1.0261007235481502e-10 1.7928788630934466e-11 1.3809485391785459e-10 1.4569505069326619e-10 5.9338855684174943e-11 6.0456028542696099e-11 9.6803072634837475e-11 1.4585470872207814e-10 1.3957154869350901e-10 3.1774911119981832e-10 3.9510828901137927e-11 5.1475612666626342e-10 3.9784025585660942e-10 1.0294344069196102e-09 3.3619759484893188e-10 1.7636518382275593e-09 8.8727577788025733e-10 3.4990707838710953e-10 5.8851017817936859e-10 5.6661224698564063e-09 2.7499060813808878e-09 1.9175814788473038e-09 6.1135249618777523e-10 2.290717271015912e-09 2.5339347091987642e-09 6.6672684992915419e-09 9.9584166549452912e-10 6.7139005087501749e-09 3.0438768972987159e-09 1.3026878004470557e-10 2.7594496745596507e-09 6.9184125099076884e-09 7.6183165595470985e-09 1.6405463696093177e-09 3.360704555355341e-09 2.4427483731696606e-09 6.738996806174621e-09 9.1483876963983483e-10 2.248477645067451e-09 7.0472736603859738e-10 9.2237077011194712e-10 8.1745703850643559e-10 3.1056573557028098e-10 2.035591196268838e-10 8.3491615007270376e-10 1.2285862030719631e-09 2.0088843796445675e-10 1.1868699132719e-09 7.0857711453234777e-10 2.7098031079058391e-09 1.5054717329720474e-09 4.3631774978741035e-10 2.6371869385075078e-09 8.6493486341034346e-09 4.5871403921020837e-09 3.4334704227539572e-09 4.1156493243624064e-09 8.7719858079554665e-10 6.2834408340597449e-10 4.7261860304482844e-09 6.2305181848079686e-09 1.8044530932071687e-09 1.2462765765832869e-09 3.6699490485505172e-09 1.7096748592907802e-09 4.9194875029330331e-10 1.4864882018653139e-09 1.5647186116296289e-09 7.717958034977306e-10 5.9562649659191595e-10 6.5748281116754705e-08 6.329096638972513e-08 2.6275675894884157e-08 6.1365616093730196e-08 3.0713173158023205e-08 3.3954810196340485e-08 6.2129038486199177e-09 3.3075293808692247e-08 3.1449761598651911e-08 1.9729263996545468e-08 3.2839262598582055e-08 5.5347745796693814e-08 1.0659604350493194e-08 7.4351663583880401e-09 3.734399443278359e-09 8.3923972917881769e-09 2.9703199566613183e-08 2.3965757509222758e-08 1.2227067138035188e-08 1.9815202059773676e-08 4.9632922915401807e-09 1.1404380377262553e-08 8.9781801939521059e-09 2.7572905470418757e-08 1.1287781058175921e-08 3.223942202401983e-09 1.0476175983288844e-08 2.3850625857916681e-08 3.0907584077954567e-08 5.7967795861183772e-09 2.153635376623348e-08 4.6380233174885133e-08 3.4574735923699986e-08 6.9107649115125962e-08 2.4685537702510123e-08 8.7946339888293601e-08 2.7915511655892395e-08 4.9750926231701763e-08 8.4669268747798863e-08 9.1629572173265741e-08 4.6738161780339565e-08 4.8103343032527353e-08 1.4835772362593321e-08 4.2310955971819359e-08 2.3396832624939099e-08 1.8983919585523738e-08 4.7998462433795277e-08 4.8518362875036354e-08 1.9630056073886749e-08 1.0106292158618659e-08 7.0881131219520185e-09 2.0015855284366217e-09 8.2006873866145018e-09 9.5601287133568582e-09 2.1610096479561071e-08 5.3931017121325451e-09 1.7474915789308862e-08 6.3225780527874821e-09 1.4986616129918748e-08 8.0092551925928022e-09 1.5460112768844918e-08 6.5931290784990576e-09 6.4748566559808673e-09 1.808054425751431e-08 1.7004444129002864e-08 4.0927874000905389e-09 1.1784558111495211e-08 5.7153753846858486e-08 3.8644069264721431e-08 3.3396414074711055e-08 6.4536825159663584e-08 6.8516370759944151e-08 1.8651920396779185e-08 3.366646258823825e-08 1.6344092451541628e-08 3.7784800443782107e-08 4.5965214523790256e-08 1.1332928947832985e-08 3.605470383981607e-08 6.6694133888288343e-08 4.9030926015901681e-08 1.1293548242350243e-07 6.9452965694064315e-08 6.2488826027068806e-08 1.2477756736006587e-07 4.7710038740312441e-08 1.505159039261667e-07 1.1985495211005856e-07 1.0977015268202332e-07 6.4070572320045286e-08 1.0914789727052834e-07 2.3019301814073062e-07 1.9072543860765348e-07 1.1408529484518291e-07 1.6317739734687131e-07 2.2685397174323608e-07 3.0301386190275579e-07 2.4405236909723508e-07 1.450515232362685e-07 3.221020870725316e-07 4.4638638805016303e-07 2.2442559628435615e-07 3.0574948453771576e-07 4.7981834524543859e-07 6.1394492447502727e-07 3.3550878870521921e-07 2.1897637468150566e-07 4.4882048424519934e-07 3.1691766172987976e-07 1.8053963064751014e-07 2.4221370961264596e-07 3.1493558344245878e-07 2.2227318510819891e-07 1.8334183840426979e-07 3.3373122152240433e-07 4.4083471630056103e-07 1.9773513748536087e-07 3.0437036799973703e-07 6.152760288196555e-07 4.7036819972463883e-07 8.2823856236091659e-07 4.3283191371722393e-07 6.5157856449127381e-07 3.6503927964903627e-07 4.6966887265950068e-07 6.6494042005522513e-07 3.8381969514983781e-07 1.8905070790840156e-07 4.4989200246760816e-07 8.0746471897995454e-08 2.1422751161644581e-07 1.9974478220152216e-07 9.6077178083047429e-08 1.0858087357341997e-07 1.9939688912207917e-07 2.1471753858090491e-07 9.5167057443984313e-08 1.8934791302822344e-07 1.2322701322112726e-07 1.7917838001577839e-07 1.0581526736166118e-07 4.3358142095866503e-08 7.0604393111425329e-08 1.0236594447571125e-07 1.0033835925434152e-07 3.9211942906609706e-08 1.0628598933091291e-07 1.0000205608362251e-07 1.806103216251127e-07 9.149857454084456e-08 9.7849700495305722e-08 9.5477960728264148e-08 4.0658487610547071e-08 2.1699484344536879e-07 7.2184026648799955e-08 1.9916399703812226e-07 3.5457409849102491e-07 1.9326896186391148e-07 2.205398207185291e-07 3.7409905309041891e-07 3.6713826404092434e-07 1.7198985130223881e-07 6.5783896981020468e-07 4.9398928542694531e-07 6.9083941947578822e-07 3.6200300480288843e-07 6.6744848251635971e-07 5.0861054782264605e-07 3.8031648223610107e-07 4.9728543577628694e-07 3.6811795272705806e-07 6.3577017314839258e-07 3.5032689579996597e-07 5.092607986160994e-07 6.2419636445483545e-07 4.256754562402885e-07 3.6024201188155869e-07 2.241076659219103e-07 1.939377795511048e-07 3.479422891218167e-07 1.987852022453696e-07 3.7280167313944543e-07 4.1404927457539868e-07 2.1584516279816263e-07 3.9401999738611237e-07 2.5361511462023037e-07 6.6475963025622584e-07 7.9678482515749048e-07 3.776160136469751e-07 5.1815034268303089e-07 3.971845405179144e-07 7.7566493413768553e-07 4.9457578390964385e-07 2.2000552906175858e-07 4.2578963100265014e-07 1.4013239846396665e-07 1.2509323696825332e-07 2.3404114539338467e-07 2.2366196074162194e-07 2.4751033850866862e-07 1.1097639153332661e-07 2.0211236707668738e-07 1.2915912673728382e-07 8.607544713610381e-08 6.3542216346698305e-08 9.7474232257517535e-08 1.2263196093673429e-07 6.6727067659699902e-08 1.1679814345561287e-07 6.1353922175289157e-08 1.3696744398100503e-07 4.9119462240290813e-08 1.2861888544963582e-07 2.8732782496507907e-08 1.5740048392639912e-08 5.1574472136381398e-08 1.2286095310692734e-08 6.4798036264946884e-08 9.6207385990300487e-08 3.8059540149069842e-08 5.4051644769430461e-08 1.4179484100427907e-08 3.0254926008654346e-08 2.0259349457232235e-08 3.3112962080586052e-09 4.16384634094155e-09 8.8823397868463746e-09 1.5611561620014959e-08 3.8158840034978626e-09 1.6082498925988427e-08 9.6476097176647839e-09 2.5364564208579272e-08 5.8130131394097693e-09 1.9988379454328728e-08 1.135227863327503e-09 9.5491211758905511e-09 1.3493046082142201e-08 2.4538899076887592e-08 1.6688222545240073e-08 6.8261823107767965e-09 1.7586234873258386e-08 4.5872691153309619e-09 1.5615779587778421e-08 2.0050164472830524e-09 1.262378709559264e-08 7.221572648230977e-09 8.5673158190628467e-09 5.0518837877779292e-08 3.3696801301992121e-08 6.3480339514309918e-08 2.9944556103535847e-08 5.7776785481587361e-08 1.2938158801975475e-08 3.3693399888774573e-08 5.5861214596406971e-08 1.8899295062262868e-08 1.438319667888674e-08 2.9611719083347741e-08 1.4690699150001942e-08 9.5961854146532143e-08 6.0263732560470872e-08 2.8246217622188333e-08 4.8409979476913329e-08 1.1165325297840603e-08 1.7682469604937046e-07 7.9519418644732369e-08 3.2820458057572753e-07 1.5501340942719264e-07 4.2970157076215225e-08 1.1608418395859217e-07 1.3937026054421623e-07 6.3651038836831068e-08 4.9930861193464692e-08 1.670486237668102e-07 1.5741407637901936e-07 4.0459866121110574e-08 1.697143547019398e-07 2.8955586976537987e-07 1.5671562129573651e-07 1.282803124239073e-07 4.067040247897543e-07 3.2219052031923643e-07 2.8438627841570971e-07 4.3916892059035325e-07 6.9440200851488375e-07 2.695414892560909e-07 7.0466518289844119e-07 4.8469224754892736e-07 1.2316330408068454e-07 3.9787356322275014e-07 4.1916430764036332e-07 3.8232113380272209e-07 3.5719070275445795e-07 8.0008855029333391e-07 1.1156745393123916e-07 3.6801882331028283e-07 3.8809562615499417e-07 1.4795957283857558e-07 1.156945563314791e-07 5.0264291629427453e-08 1.6366095448087764e-07 3.2382874549985019e-07 8.5662967566313963e-08 1.533133362369479e-07 4.1698137814084604e-08 1.4776651341692805e-07 2.1260807481001442e-08 1.1759628857959523e-07 6.4733410636414863e-08 8.4286169583478549e-08 3.8868104210302301e-07 3.7225212464145174e-07 1.5278320484001732e-07 1.4032070144266702e-07 3.2201989166842646e-07 6.8256966518174638e-07 3.5845917278187415e-07 4.0663182866596086e-07 7.4415790858230518e-07 3.3670885620630057e-07 8.6235810337899002e-07 6.7127290522519038e-07 9.1828228978467034e-07 1.5138403155866646e-06 6.67147180408069e-07 1.5202968275187743e-06 9.3997164301192161e-07 2.6187421450070023e-06 3.5462515501604632e-06 1.5245300708270148e-06 2.0735850411047434e-06 7.4721392361019493e-07 1.7065138745927679e-06 2.2069006014954058e-06 1.5526478703273424e-06 3.4607105250827447e-06 2.0110180894936603e-06 3.6955302352195108e-06 3.9958649432088628e-06 1.2320905754575425e-06 8.2527545259743897e-07 1.9953206655435585e-06 7.3760983824519692e-07 8.8503053347037244e-07 2.953788737427512e-07 1.0022167540067533e-06 4.1986804126586919e-07 3.6418883542035655e-07 1.124553377650319e-06 2.4654037698542577e-07 9.297960536172804e-07 1.100758091027658e-06 7.8499330274123965e-07 3.3543991189991034e-07 1.2269268574596752e-06 1.5932808934014821e-06 6.7547225198210502e-07 1.0424670374815543e-06 6.9394857762493251e-07 