<?xml version="1.0"?>
<VTKFile type="UnstructuredGrid" version="0.1" byte_order="LittleEndian">
<UnstructuredGrid>
<Piece NumberOfPoints="599" NumberOfCells="1080">
<Points>
<DataArray type="Float64" NumberOfComponents="3" format="ascii">
0.000000000000000e+00 0.000000000000000e+00 0.000000000000000e+00 0.000000000000000e+00 2.000000000000000e-01 0.000000000000000e+00 1.000000000000000e+00 2.000000000000000e-01 0.000000000000000e+00 1.000000000000000e+00 0.000000000000000e+00 0.000000000000000e+00 0.000000000000000e+00 2.222222222217273e-02 0.000000000000000e+00 0.000000000000000e+00 4.444444444434547e-02 0.000000000000000e+00 0.000000000000000e+00 6.666666666653878e-02 0.000000000000000e+00 0.000000000000000e+00 8.888888888873894e-02 0.000000000000000e+00 0.000000000000000e+00 1.111111111109777e-01 0.000000000000000e+00 0.000000000000000e+00 1.333333333332549e-01 0.000000000000000e+00 0.000000000000000e+00 1.555555555555226e-01 0.000000000000000e+00 0.000000000000000e+00 1.777777777777613e-01 0.000000000000000e+00 2.040816326525713e-02 2.000000000000000e-01 0.000000000000000e+00 4.081632653051426e-02 2.000000000000000e-01 0.000000000000000e+00 6.122448979577139e-02 2.000000000000000e-01 0.000000000000000e+00 8.163265306102853e-02 2.000000000000000e-01 0.000000000000000e+00 1.020408163262857e-01 2.000000000000000e-01 0.000000000000000e+00 1.224489795915428e-01 2.000000000000000e-01 0.000000000000000e+00 1.428571428567999e-01 2.000000000000000e-01 0.000000000000000e+00 1.632653061220571e-01 2.000000000000000e-01 0.000000000000000e+00 1.836734693873142e-01 2.000000000000000e-01 0.000000000000000e+00 2.040816326525713e-01 2.000000000000000e-01 0.000000000000000e+00 2.244897959178285e-01 2.000000000000000e-01 0.000000000000000e+00 2.448979591830856e-01 2.000000000000000e-01 0.000000000000000e+00 2.653061224483563e-01 2.000000000000000e-01 0.000000000000000e+00 2.857142857136316e-01 2.000000000000000e-01 0.000000000000000e+00 3.061224489789068e-01 2.000000000000000e-01 0.000000000000000e+00 3.265306122441821e-01 2.000000000000000e-01 0.000000000000000e+00 3.469387755094573e-01 2.000000000000000e-01 0.000000000000000e+00 3.673469387747326e-01 2.000000000000000e-01 0.000000000000000e+00 3.877551020400078e-01 2.000000000000000e-01 0.000000000000000e+00 4.081632653052831e-01 2.000000000000000e-01 0.000000000000000e+00 4.285714285705583e-01 2.000000000000000e-01 0.000000000000000e+00 4.489795918358336e-01 2.000000000000000e-01 0.000000000000000e+00 4.693877551011089e-01 2.000000000000000e-01 0.000000000000000e+00 4.897959183663840e-01 2.000000000000000e-01 0.000000000000000e+00 5.102040816316877e-01 2.000000000000000e-01 0.000000000000000e+00 5.306122448970195e-01 2.000000000000000e-01 0.000000000000000e+00 5.510204081623515e-01 2.000000000000000e-01 0.000000000000000e+00 5.714285714276833e-01 2.000000000000000e-01 0.000000000000000e+00 5.918367346930153e-01 2.000000000000000e-01 0.000000000000000e+00 6.122448979583471e-01 2.000000000000000e-01 0.000000000000000e+00 6.326530612236790e-01 2.000000000000000e-01 0.000000000000000e+00 6.530612244890109e-01 2.000000000000000e-01 0.000000000000000e+00 6.734693877543428e-01 2.000000000000000e-01 0.000000000000000e+00 6.938775510196746e-01 2.000000000000000e-01 0.000000000000000e+00 7.142857142850065e-01 2.000000000000000e-01 0.000000000000000e+00 7.346938775503385e-01 2.000000000000000e-01 0.000000000000000e+00 7.551020408156776e-01 2.000000000000000e-01 0.000000000000000e+00 7.755102040810377e-01 2.000000000000000e-01 0.000000000000000e+00 7.959183673463979e-01 2.000000000000000e-01 0.000000000000000e+00 8.163265306117582e-01 2.000000000000000e-01 0.000000000000000e+00 8.367346938771183e-01 2.000000000000000e-01 0.000000000000000e+00 8.571428571424785e-01 2.000000000000000e-01 0.000000000000000e+00 8.775510204078387e-01 2.000000000000000e-01 0.000000000000000e+00 8.979591836731990e-01 2.000000000000000e-01 0.000000000000000e+00 9.183673469385591e-01 2.000000000000000e-01 0.000000000000000e+00 9.387755102039194e-01 2.000000000000000e-01 0.000000000000000e+00 9.591836734692796e-01 2.000000000000000e-01 0.000000000000000e+00 9.795918367346398e-01 2.000000000000000e-01 0.000000000000000e+00 1.000000000000000e+00 1.777777777778356e-01 0.000000000000000e+00 1.000000000000000e+00 1.555555555556712e-01 0.000000000000000e+00 1.000000000000000e+00 1.333333333334779e-01 0.000000000000000e+00 1.000000000000000e+00 1.111111111112750e-01 0.000000000000000e+00 1.000000000000000e+00 8.888888888903346e-02 0.000000000000000e+00 1.000000000000000e+00 6.666666666675342e-02 0.000000000000000e+00 1.000000000000000e+00 4.444444444448301e-02 0.000000000000000e+00 1.000000000000000e+00 2.222222222224152e-02 0.000000000000000e+00 9.795918367347222e-01 0.000000000000000e+00 0.000000000000000e+00 9.591836734694444e-01 0.000000000000000e+00 0.000000000000000e+00 9.387755102041666e-01 0.000000000000000e+00 0.000000000000000e+00 9.183673469388888e-01 0.000000000000000e+00 0.000000000000000e+00 8.979591836736109e-01 0.000000000000000e+00 0.000000000000000e+00 8.775510204083332e-01 0.000000000000000e+00 0.000000000000000e+00 8.571428571430554e-01 0.000000000000000e+00 0.000000000000000e+00 8.367346938777775e-01 0.000000000000000e+00 0.000000000000000e+00 8.163265306124998e-01 0.000000000000000e+00 0.000000000000000e+00 7.959183673472220e-01 0.000000000000000e+00 0.000000000000000e+00 7.755102040819442e-01 0.000000000000000e+00 0.000000000000000e+00 7.551020408166664e-01 0.000000000000000e+00 0.000000000000000e+00 7.346938775514311e-01 0.000000000000000e+00 0.000000000000000e+00 7.142857142862099e-01 0.000000000000000e+00 0.000000000000000e+00 6.938775510209887e-01 0.000000000000000e+00 0.000000000000000e+00 6.734693877557676e-01 0.000000000000000e+00 0.000000000000000e+00 6.530612244905465e-01 0.000000000000000e+00 0.000000000000000e+00 6.326530612253253e-01 0.000000000000000e+00 0.000000000000000e+00 6.122448979601041e-01 0.000000000000000e+00 0.000000000000000e+00 5.918367346948830e-01 0.000000000000000e+00 0.000000000000000e+00 5.714285714296617e-01 0.000000000000000e+00 0.000000000000000e+00 5.510204081644406e-01 0.000000000000000e+00 0.000000000000000e+00 5.306122448992194e-01 0.000000000000000e+00 0.000000000000000e+00 5.102040816339983e-01 0.000000000000000e+00 0.000000000000000e+00 4.897959183687205e-01 0.000000000000000e+00 0.000000000000000e+00 4.693877551033862e-01 0.000000000000000e+00 0.000000000000000e+00 4.489795918380517e-01 0.000000000000000e+00 0.000000000000000e+00 4.285714285727172e-01 0.000000000000000e+00 0.000000000000000e+00 4.081632653073828e-01 0.000000000000000e+00 0.000000000000000e+00 3.877551020420483e-01 0.000000000000000e+00 0.000000000000000e+00 3.673469387767139e-01 0.000000000000000e+00 0.000000000000000e+00 3.469387755113794e-01 0.000000000000000e+00 0.000000000000000e+00 3.265306122460450e-01 0.000000000000000e+00 0.000000000000000e+00 3.061224489807106e-01 0.000000000000000e+00 0.000000000000000e+00 2.857142857153762e-01 0.000000000000000e+00 0.000000000000000e+00 2.653061224500417e-01 0.000000000000000e+00 0.000000000000000e+00 2.448979591846930e-01 0.000000000000000e+00 0.000000000000000e+00 2.244897959193020e-01 0.000000000000000e+00 0.000000000000000e+00 2.040816326539109e-01 0.000000000000000e+00 0.000000000000000e+00 1.836734693885198e-01 0.000000000000000e+00 0.000000000000000e+00 1.632653061231287e-01 0.000000000000000e+00 0.000000000000000e+00 1.428571428577377e-01 0.000000000000000e+00 0.000000000000000e+00 1.224489795923465e-01 0.000000000000000e+00 0.000000000000000e+00 1.020408163269555e-01 0.000000000000000e+00 0.000000000000000e+00 8.163265306156431e-02 0.000000000000000e+00 0.000000000000000e+00 6.122448979617323e-02 0.000000000000000e+00 0.000000000000000e+00 4.081632653078215e-02 0.000000000000000e+00 0.000000000000000e+00 2.040816326539119e-02 0.000000000000000e+00 0.000000000000000e+00 6.635856282261660e-01 9.999999997353709e-02 0.000000000000000e+00 6.017099942173270e-01 1.018372095310263e-01 0.000000000000000e+00 6.429359032934795e-01 1.033597382548348e-01 0.000000000000000e+00 6.841497426478215e-01 9.999999991616094e-02 0.000000000000000e+00 5.227754852549503e-01 1.000000000000000e-01 0.000000000000000e+00 5.852103129142072e-01 9.999999999992476e-02 0.000000000000000e+00 5.466304762188327e-01 1.018543566178084e-01 0.000000000000000e+00 7.089060871209075e-01 1.015797878639597e-01 0.000000000000000e+00 3.294481376357450e-01 1.003360704178975e-01 0.000000000000000e+00 2.908770926829877e-01 1.003043475985618e-01 0.000000000000000e+00 4.098368213291410e-01 9.754255884196135e-02 0.000000000000000e+00 3.629933349000901e-01 1.000000001223464e-01 0.000000000000000e+00 7.622961987180608e-01 9.605473387378186e-02 0.000000000000000e+00 8.491644596128544e-01 9.182168396222394e-02 0.000000000000000e+00 5.007586314432788e-01 9.999999999999999e-02 0.000000000000000e+00 9.230159322774689e-01 1.007268675471269e-01 0.000000000000000e+00 8.664701418664117e-01 1.076712491225906e-01 0.000000000000000e+00 2.366315426938473e-01 9.999985271154266e-02 0.000000000000000e+00 2.168388896782212e-01 1.000000000000000e-01 0.000000000000000e+00 1.745660379747517e-01 1.007160508754716e-01 0.000000000000000e+00 1.972011010366781e-01 1.002115461984506e-01 0.000000000000000e+00 1.538550720344377e-01 1.018757379169621e-01 0.000000000000000e+00 1.326290201259390e-01 1.059650753151715e-01 0.000000000000000e+00 7.741354350281675e-02 1.003020340445231e-01 0.000000000000000e+00 2.552339814142309e-01 1.000027269880509e-01 0.000000000000000e+00 4.409363782274157e-02 7.706114571179593e-02 0.000000000000000e+00 9.561458207326632e-01 1.229301525610412e-01 0.000000000000000e+00 4.993865626717942e-02 1.499516781439215e-01 0.000000000000000e+00 9.550725189111069e-01 4.829411318820009e-02 0.000000000000000e+00 4.395097424174637e-02 3.288070253644709e-02 0.000000000000000e+00 9.562058539142814e-01 1.671301644007421e-01 0.000000000000000e+00 9.679759360039387e-01 3.254350244928760e-02 0.0000000000000
[...]
<PointData Scalars="pressure_p1," Vectors="">
<DataArray type="Float64" Name="pressure_p1" format="ascii">
6.798999665169730e-03 6.731857929421952e-03 9.932072705799389e-01 9.914519124557681e-01 6.495344717778752e-03 6.962139345959894e-03 8.616908473330246e-03 6.611029958073913e-03 6.795566636295855e-03 7.621406682144240e-03 6.785185661084168e-03 5.784785159243988e-03 2.152485907773730e-02 4.185326558386235e-02 6.201899172544136e-02 8.196456250434822e-02 1.018109732975784e-01 1.215109537079892e-01 1.420845040599267e-01 1.620181428975172e-01 1.813958089943414e-01 2.039347595546105e-01 2.253617218731422e-01 2.457064217559660e-01 2.662659804278199e-01 2.856691866650857e-01 3.058114174671858e-01 3.253726146167556e-01 3.466824202731649e-01 3.693932904679572e-01 3.868593264246495e-01 4.058689188538580e-01 4.305350932960120e-01 4.498581710843078e-01 4.704024658224337e-01 4.897785558562776e-01 5.092657047293079e-01 5.324229491170770e-01 5.525736826157829e-01 5.715119712791786e-01 5.904515954004926e-01 6.126643029442428e-01 6.325876540377374e-01 6.525606949279590e-01 6.740934913125963e-01 6.948872546815043e-01 7.144943500160764e-01 7.366433076515714e-01 7.555611737897595e-01 7.729656691627463e-01 7.947551613590053e-01 8.161672523682274e-01 8.361712167761368e-01 8.579280598342693e-01 8.773492188427170e-01 8.965245872715224e-01 9.185825273028939e-01 9.385463870209900e-01 9.591227919845556e-01 9.789293855438465e-01 9.935214820011146e-01 9.930646510266525e-01 9.914226904333097e-01 9.934174914739540e-01 9.933303315418103e-01 9.922109122657394e-01 9.933560505476690e-01 9.934172992836338e-01 9.767380883022280e-01 9.582924071838778e-01 9.384441833229696e-01 9.171115467835710e-01 8.969475602758926e-01 8.775440557261195e-01 8.560903034595833e-01 8.348392315562631e-01 8.149841642962707e-01 7.949259355594601e-01 7.743474268104190e-01 7.537950180098617e-01 7.347692732349497e-01 7.156230577677064e-01 6.949234683326738e-01 6.740927366311591e-01 6.525601572003350e-01 6.325874106514835e-01 6.126658683960531e-01 5.904538555988093e-01 5.715122832943489e-01 5.525736826177161e-01 5.324229491193355e-01 5.092657047315583e-01 4.897785558582961e-01 4.704024658247310e-01 4.498581710866791e-01 4.305350932979399e-01 4.094232327153356e-01 3.887431121474466e-01 3.691306833745057e-01 3.469288525180420e-01 3.253596532871693e-01 3.057966176322011e-01 2.856410258710509e-01 2.658419008782282e-01 2.452475621182286e-01 2.250535131197077e-01 2.049778842828221e-01 1.843294289136698e-01 1.642957409814976e-01 1.440898894326247e-01 1.229716045970650e-01 1.021405414446035e-01 8.138500124904578e-02 6.114319714096574e-02 4.092490689942994e-02 2.108374983005148e-02 6.643538727444805e-01 6.012168416048701e-01 6.429373129764517e-01 6.860153424898837e-01 5.230768645823267e-01 5.848049625066398e-01 5.451572044939922e-01 7.089831903469340e-01 3.292673219370355e-01 2.910147676503059e-01 4.097062890089764e-01 3.629175327647450e-01 7.628247552712530e-01 8.493445261895698e-01 5.019330071724615e-01 9.221320979106855e-01 8.666360047567091e-01 2.373448102849900e-01 2.167072848687042e-01 1.739877237187912e-01 1.957467719810418e-01 1.527245642506536e-01 1.326027233374579e-01 7.772695444894517e-02 2.551994846850667e-01 4.321566512809834e-02 9.569965478443236e-01 5.025844900528611e-02 9.553136205673226e-01 4.378184054830042e-02 9.564206812707985e-01 9.683279430179562e-01 9.106241739842985e-01 9.623208239122823e-02 4.349403649610258e-01 4.317878340714865e-01 8.148539026440301e-01 8.179855462492219e-01 2.451273917306134e-01 2.338618036037541e-01 6.624453253280941e-01 6.624525760356165e-01 5.533140346687595e-01 5.983290461880015e-01 5.982827730750326e-01 5.533836531537460e-01 8.699240973769332e-01 7.925047276176580e-01 7.942830528709171e-01 7.697390767687661e-01 7.760161525093257e-01 7.590237445326355e-01 7.645431239481687e-01 7.458422005534162e-01 2.682704430334710e-01 7.481306965252817e-01 2.695629005137606e-01 7.227208677473099e-01 1.201787029456369e-01 7.207316776367421e-01 1.212631968437144e-01 6.354934784750333e-01 6.989816612085554e-01 4.553794826778778e-01 4.116753190427499e-01 3.667281174103825e-01 5.103476265768965e-01 2.926288735657318e-01 1.587304221725223e-01 8.499482944168896e-01 6.988536175771802e-01 6.354785821333510e-01 2.926946814132993e-01 3.672983110038462e-01 4.079378155274322e-01 4.551430621273766e-01 5.104537383770088e-01 8.550487709860487e-01 1.436141527184456e-01 6.138767951474570e-01 6.860386866703548e-01 5.313967711802484e-01 3.891276975279025e-01 3.171400357932257e-01 4.736403685936317e-01 2.186300819709041e-01 8.286592610260639e-01 6.860475130896656e-01 6.134736651399777e-01 5.314245461540262e-01 3.165623755724427e-01 3.890005252262867e-01 4.736403685948966e-01 8.368546634081270e-01 1.601781427169302e-01 2.196168256417501e-01 4.896605705198189e-01 4.896605705212930e-01 8.680473143336744e-01 8.992300423086873e-01 1.028710923463651e-01 5.646637666916947e-02 9.438391317301098e-01 9.424274464310199e-01 9.569341401442921e-01 4.361421143942442e-02 5.555582538140330e-02 9.448095230064624e-01 2.187202245315198e-02 9.783866003253997e-01 2.435398754351635e-02 9.757655157572243e-01 9.400328470804296e-01 6.063196918548309e-02 9.620627987563345e-01 3.813525798903250e-02 2.066999539864464e-02 9.794016070717342e-01 9.783612142570669e-01 2.002712124653272e-02 9.800654244869221e-01 9.852138853485422e-01 1.167159695619771e-01 4.818804872960394e-01 4.818804872965461e-01 8.964611651573265e-01 1.039390172807109e-01 2.072027297373515e-01 2.025187067154040e-01 6.326449455415522e-01 6.327064871996848e-01 3.679828619300837e-01 3.679628844458728e-01 1.067116934098346e-01 9.036391212591789e-01 1.130487602511588e-01 4.171305200981969e-01 5.016613309788639e-01 5.017803311229779e-01 4.005735767806997e-01 3.996359340274431e-01 4.645685107996113e-01 4.642136686299430e-01 7.377624448521173e-01 7.393279501226906e-01 7.560006663090301e-01 7.626992640961036e-01 7.216053814431930e-01 7.194647734088884e-01 8.574946689940486e-01 2.984567433261778e-01 2.978702455014892e-01 7.746535695608902e-01 7.821943967009332e-01 1.344000858644328e-01 5.258559051676994e-01 5.263724615446691e-01 5.089953670144262e-01 5.089953670126776e-01 5.684987700552111e-01 5.697372426175075e-01 8.401436186499830e-01 1.556008977096427e-01 8.231801643444122e-01 8.265974712619727e-01 6.114210718239982e-01 6.084650829521249e-01 4.223214200487191e-01 4.217243488496094e-01 3.427851683974477e-01 3.429059412550349e-01 3.324750526514549e-01 3.295514363491790e-01 6.768801382777671e-01 6.771683483967043e-01 2.282668850181831e-01 2.282519156824250e-01 3.994770004954095e-01 3.997271780621081e-01 2.234129395006338e-01 6.635218530577767e-01 6.635240749930009e-01 3.319828502996249e-01 3.319525622970070e-01 5.461600885261838e-01 5.461600892088816e-01 3.619713756338667e-01 3.629229623540225e-01 6.397619036401593e-01 6.397629174135105e-01 5.968615913247528e-01 5.968531189685709e-01 8.365228989545732e-01 5.664286868611897e-01 5.664558011703863e-01 1.612705601337283e-01 4.450778864795005e-01 4.448008908324285e-01 6.863960419091854e-01 6.863856928109341e-01 2.592479721223596e-01 2.570402564599715e-01 8.037030245161759e-01 8.050648715991238e-01 2.954200905853130e-01 2.953781954159460e-01 8.152638215556033e-01 7.073013004618324e-01 7.065529215102271e-01 7.829396480384698e-01 7.801571346114031e-01 7.412974015396298e-01 7.385582653034722e-01 5.475681747199911e-01 5.889652955396021e-01 5.883898640334709e-01 8.679879567319039e-01 4.685313851046145e-01 4.685313851063922e-01 1.616973029347316e-01 8.595930708234786e-01 8.835910931740127e-01 1.182047208695934e-01 6.448649762887602e-02 9.350304045571404e-01 9.427532449584265e-02 9.088721763451398e-01 1.266583881728670e-01 7.938979117513677e-02 9.263319094538272e-01 9.139323649689902e-01 8.301217109721058e-02 4.874523185855750e-01 4.874523185846006e-01 9.206986519166122e-01 8.051011810398616e-02 4.791720840087756e-01 3.126486613242715e-02 9.688006240727419e-01 4.895000781549625e-01 4.895000781568731e-01 9.312101445608459e-01 6.933984168391011e-02 9.378924343458708e-01 6.398740156478820e-02 8.831942700894216e-01 5.922147420020629e-02 9.415798271507713e-01 9.494431300538765e-01 5.005431373353705e-02 8.915743646009279e-01 7.405994113184981e-02 9.265366015368314e-01 7.278474839231869e-02 4.539502961368759e-01 9.670196196533177e-01 3.314208419027409e-02 4.237468468428959e-02 9.583493545125233e-01 9.811574836836338e-01 1.491758369422754e-01 8.851059211334235e-01 8.996631200473511e-01 8.511202973821595e-02 8.868372904360802e-01 8.522984302562768e-01 1.511379931738677e-01 7.973175368878841e-01 5.725325323489260e-01 5.728061956997431e-01 8.097638987365571e-01 8.976994606575343e-01 9.106003468437500e-01 1.768981113359719e-01 8.767935180449440e-01 9.167082875472780e-01 7.845723007006372e-01 8.075062466444864e-01 8.775759945251487e-01 4.201707683319523e-01 4.315621794284201e-01 7.568042776972206e-01 7.617464693806285e-01 2.434280469701504e-01 2.410590902485360e-01 8.260147657650478e-01 2.765383719122974e-01 2.762358683555522e-01 1.165196777450070e-01 7.926489381322841e-01 2.490311010766733e-01 2.488687669738728e-01 4.578425699253914e-01 4.578425699276640e-01 7.385583848479252e-01 2.593332177089549e-01 2.588606409056196e-01 8.672723764504608e-01 5.253638054394658e-01 5.253638054374145e-01 6.174064629836568e-01 6.174203382298250e-01 9.279372152646052e-01 5.350207554108125e-01 5.320695795632778e-01 1.676471194163112e-01 5.570333132636874e-01 5.485077395131889e-01 2.703904122261415e-01 2.702685893427808e-01 7.061897756159290e-02 4.094362290571245e-01 8.218634373995354e-01 1.855660821578689e-01 6.527353806485108e-01 6.561181270618445e-01 9.265040153467828e-01 3.534211021846283e-01 3.538283044279914e-01 5.635426543811675e-01 5.635428459549807e-01 1.297777086334917e-01 1.411118747697406e-01 9.907251657379158e-02 9.028367579377213e-01 4.650088236599381e-01 4.646853901144641e-01 1.480023213904819e-01 5.469502205984806e-01 5.473469131880263e-01 5.789934541322249e-01 5.789919351536933e-01 8.274366280320988e-01 5.286729171414971e-01 5.289111917280467e-01 1.104100591536240e-01 5.146973258321676e-02 8.348226682161924e-01 8.099857435993698e-01 5.130296809278052e-01 5.130383791212689e-01 9.485257032769870e-01 6.890390509733566e-01 6.890362766096345e-01 8.395945463942883e-01 4.314646026273115e-01 4.275735112842476e-01 8.813091219670696e-01 1.043994678173202e-01 6.793079359346180e-01 6.793210621686917e-01 5.916199657634438e-01 5.915414945043594e-01 3.378929582189964e-01 3.375600193929371e-01 5.675652157954860e-01 5.737186594934678e-01 2.579447409939480e-01 2.603268617851727e-01 6.511904187897164e-01 6.508017851099983e-01 4.439533633365956e-01 4.481209704103213e-01 1.683676854683303e-01 8.287359720977665e-01 6.986713571204516e-01 6.985971008257450e-01 8.748147063985002e-01 1.500909689894393e-02 2.779650168824045e-01 2.780882905562599e-01 1.428196193645113e-01 9.851131500308565e-01 8.610474359761470e-01 2.087332344013365e-01 7.948729382097934e-01 9.245443967008883e-02 2.101618482049017e-01 1.822752486138324e-01 8.517954848912657e-01 7.467244868043538e-01 7.570775281736795e-01 9.006703378985327e-01 7.827730889044002e-01 9.857105061209808e-01 1.431322829796221e-02 3.886165265659323e-01 1.376456137142290e-01 6.705232647487187e-01 6.702317244667354e-01 8.443292145482969e-01 1.401577124237313e-01 8.046545831130895e-01 2.767150242200165e-01 2.773702638766471e-01 7.771233295632713e-01 8.186972814454213e-01 7.746224034499822e-01 1.275372728945469e-01 1.236160232592695e-01 3.171411219651043e-01 3.172745491879141e-01 6.466549845030614e-02 7.466143696943911e-01 3.549978972811157e-02 4.453159236126744e-01 4.461723240601946e-01 5.389113147880670e-02 3.284447341234279e-01 3.285747852886543e-01 7.419918794225984e-01 7.296754803394617e-01 4.950737859038385e-01 4.950737859041231e-01 3.538153725001514e-01 3.538550645444413e-01 3.114214432749878e-01 3.103515513685941e-01 2.356292066226439e-01 3.772169609932668e-01 3.772294827666251e-01 3.315704917965151e-02 2.353277073195072e-01 8.434741811847157e-01 9.164965401973400e-02 9.832911414098759e-01 1.678558926727031e-02 9.163982204467953e-01 6.319594617236248e-01 6.211628896663935e-01 7.070257178616757e-01 7.066962457487810e-01 3.458386511848634e-01 3.460855951105573e-01 1.866765765561489e-01 2.895291356761799e-01 2.936007819187620e-01 7.289863566466172e-01 1.906559876695653e-01 1.960814785106211e-01 2.186147710739630e-01 2.170091777567678e-01 1.768535329769185e-01 1.795169868806973e-01 1.979487767113402e-01 7.299081708468709e-01 9.656217164593942e-01 7.230650858826890e-01 8.431854328014881e-01 3.446787158686996e-01 3.441480688454569e-01 8.859937402217696e-01 9.141569348734768e-01 7.262761919997276e-01 1.409115558907703e-02 3.103250090119304e-01 6.504966640074231e-01 6.504938272428125e-01 2.274622955635620e-01 8.346003326942417e-02 6.029868955838862e-02 1.752452459602606e-01 2.054814743356640e-01 1.708937391345480e-02 3.826322933776405e-01 3.855088103669143e-01 1.625329014597596e-01 3.152336785995472e-01 3.151923514947799e-01 4.131411528332269e-01 2.529369007607394e-01 1.902735529197072e-01 1.963035274514267e-01 6.254665956641741e-01 6.254669564199989e-01 1.951834962995797e-02 6.157868325459372e-01 6.158965280493700e-01 3.962850645911170e-01 5.826499697159406e-01 5.826118840219155e-01 3.844280252561792e-01 3.809763038805806e-01 
</DataArray>
</PointData>
<CellData Scalars="pressure_p0," Vectors="velocity_p0,">
<DataArray type="Float64" Name="pressure_p0" format="ascii">