<?xml version="1.0"?>
<VTKFile type="UnstructuredGrid" version="0.1" byte_order="LittleEndian">
<UnstructuredGrid>
<Piece NumberOfPoints="568" NumberOfCells="1054">
<Points>
<DataArray type="Float64" NumberOfComponents="3" format="ascii">
0 0 0 0.0499999999998997 0 0 0.0323698570487533 0.032369857048862 0 0.0584335251122665 0.0584335251122145 0 0 0.050000000000208 0 0 0.100000000000416 0 0.0400584584693195 0.0944578555791577 0 0.0980768456829153 0.0991724147309935 0 0.0944578555792846 0.0400584584694184 0 0.0999999999998147 0 0 0.0564522287083799 0.234565808376616 0 0 0.200000000000832 0 0.0388399996009313 0.179498259931901 0 0 0.150000000000624 0 0.0548726927265955 0.134106856398452 0 0.0896897021915411 0.138513804586622 0 0.122947659685672 0.148251464161954 0 0.0828750765696809 0.178818634882983 0 0.0996947712122641 0.22074048840547 0 0.158996951633215 0.227836749122277 0 0.125875177082847 0.188968332266695 0 0.169013160068682 0.168002193866631 0 0.189220110521158 0.126442066536112 0 0.22626394058332 0.154659468198381 0 0.205967211350529 0.199725178953962 0 0.211554843187388 0.241744476774187 0 0.180351590178421 0.0391903365350905 0 0.149999999999704 0 0 0.138357444660799 0.0589959339188492 0 0.148476056588621 0.112220907400452 0 0.181725902897582 0.0816119740612928 0 0.217206150464847 0.104439454835129 0 0.231674603334463 0.0553437746953104 0 0.199999999999558 0 0 0.249999999999412 0 0 0.283208049853001 0.0508433390825056 0 0.299999999999266 0 0 0.323619558532886 0.0327999278256247 0 0.362462430895343 0.0442183666074772 0 0.349999999999121 0 0 0.355822585194142 0.0854187642572584 0 0.322427311917699 0.0689379334381408 0 0.330767006442793 0.119592255048115 0 0.295063395037039 0.101138089243444 0 0.257146194987713 0.10413999068455 0 0.263189497696013 0.146101733972573 0 0.299142716792971 0.156496209701207 0 0.260171965190135 0.20370391303005 0 0.301079690692898 0.202800200091412 0 0.288402851022681 0.249609553207088 0 0.331796839804983 0.222301993972031 0 0.330801675951106 0.181791113002693 0 0.360307484821635 0.154014700871105 0 0.397289240071895 0.165639932095022 0 0.432407360090089 0.182056809654028 0 0.41732862935313 0.129866986343623 0 0.381034256806799 0.204783951629704 0 0.42421838472614 0.222465020057878 0 0.462293308810443 0.198909164566548 0 0.499999999999971 0.219686411149829 0 0.459520018388269 0.156664873305243 0 0.46567857652706 0.114368061527523 0 0.475746624217828 0.077626823840591 0 0.484924330582892 0.0373213982762724 0 0.499999999998694 0 0 0.449999999998829 0 0 0.446927950142653 0.0518018776450602 0 0.406855818272412 0.0411398773125117 0 0.399999999998975 0 0 0.390616286406845 0.0815251031619917 0 0.375161719606839 0.121918126660369 0 0.43122735573934 0.0881769991929174 0 0.429308231064016 0.40626685012723 0 0.392220576577811 0.380677966902274 0 0.394198866753185 0.419122252400708 0 0.377023860747173 0.458194175644768 0 0.410095980695696 0.490839357492854 0 0.423403423371937 0.447621318748554 0 0.461527143457989 0.473443594123526 0 0.461024257085337 0.432541991343326 0 0.465432111282168 0.387884235436819 0 0.49854341599768 0.370759147681271 0 0.472532117365031 0.340817108308049 0 0.483788712280009 0.297451778269774 0 0.455331360217251 0.252568731208715 0 0.430594867953342 0.303959734190635 0 0.391620987711813 0.295036992928546 0 0.401804626289837 0.256190339758575 0 0.43301393728221 0.359843205574921 0 0.391208871887456 0.334075776884043 0 0.348047572662274 0.35750068079406 0 0.323103257015693 0.32141443408924 0 0.357962884673884 0.256835227867104 0 0.354814354583093 0.30398436674999 0 0.323736926270502 0.27286413781594 0 0.297479491180417 0.296411157380844 0 0.260144435522079 0.292623904436535 0 0.25082138072345 0.257700107422368 0 0.284738052361283 0.343557681186738 0 0.255826059367993 0.395079699895134 0 0.296304338697064 0.429832022968145 0 0.305976555003817 0.393468168521193 0 0.354814223971285 0.403129814650693 0 0.333826635273302 0.441301250475035 0 0.334364244893045 0.478496031217408 0 0.299886550525317 0.467007278275931 0 0.262475847345986 0.447649432958947 0 0.262418491288269 0.490719222921541 0 0.192181271644967 0.465938389648695 0 0.232324767024371 0.466345253695677 0 0.219688017838559 0.433067836400238 0 0.197169318452384 0.387030152393625 0 0.178457744828726 0.430871172570494 0 0.148695787718589 0.404814523960821 0 0.144484766221814 0.453538915812712 0 0.160013142023585 0.497717270559093 0 0.220015181768822 0.28602682846308 0 0.19152147653881 0.327918797702154 0 0.236041954047958 0.321918283269407 0 0.222695530956879 0.358374234325388 0 0.154014700871176 0.360307484821747 0 0.143922094947914 0.306200702035457 0 0.168537671773945 0.272324831592801 0 0.110477540413226 0.263117535981694 0 0.0994921194810273 0.307463985332816 0 0.0732967881614181 0.342269570898506 0 0.116034002194931 0.33748134585014 0 0.0334576460409223 0.363648423312284 0 0 0.350000000001456 0 0.032220921767547 0.329014892144875 0 0.0537301716876466 0.288250771898286 0 0 0.300000000001248 0 0 0.25000000000104 0 0.0648933318035348 0.486697770604545 0 0.109199274598136 0.487580697080498 0 0.0971009795772073 0.435906739990532 0 0.10935320311386 0.378391909217271 0 0.060530514380151 0.395146264289728 0 0 0.400000000001664 0 0 0.450000000001872 0 0.0436128036610927 0.440061111828404 0 0.0294449071642091 0.475000000001966 0 0 0.500000000002059 0 0 0.550000000001734 0 0.0518018776450837 0.553072049857452 0 0.0373213982762153 0.515075669417473 0 0.0776268238405584 0.524253375782261 0 0.114368061527482 0.534321423472927 0 0.121918126660357 0.624838280393159 0 0.0881769991928987 0.568772644260674 0 0.0815251031619976 0.609383713593151 0 0.0411398773124836 0.59314418172763 0 0 0.600000000001387 0 0 0.65000000000104 0 0.0323578435067225 0.676600401985782 0 0.0442183666074753 0.637537569104702 0 0 0.700000000000693 0 0.0486329174879745 0.717891752740162 0 0.0910728127967196 0.741988048646878 0 0.0990187225489634 0.704756315583652 0 0.0854187642572582 0.644177414805869 0 0.0689379334381628 0.677572688082311 0 0.119592255048131 0.669232993557228 0 0.154014700871098 0.63969251517837 0 0.181791113002692 0.669198324048887 0 0.13725179499973 0.741546289628566 0 0.156496209701235 0.70085728320704 0 0.203703913030074 0.739828034809895 0 0.202800200091414 0.698920309307116 0 0.249609553207091 0.711597148977329 0 0.222301993972028 0.668203160195032 0 0.204783951629683 0.618965743193203 0 0.222487080058139 0.575775413711342 0 0.219686411149827 0.500000000000032 0 0.19896328510056 0.537691476689505 0 0.156664873305197 0.540479981611742 0 0.129866986343594 0.582671370646846 0 0.165639932094979 0.602710759928095 0 0.182056809653986 0.567592639909897 0 0.100000000000416 1 0 0.0944578555791882 0.959941541530687 0 0.050000000000208 1 0 0 1 0 0.0304524096104897 0.96954759038951 0 0 0.949999999999792 0 0.0584335251122541 0.941566474887746 0 0 0.899999999999584 0 0.0400584584693226 0.905542144420798 0 0.0979909576452082 0.900450397208809 0 0.122947659685717 0.851748535838097 0 0.0868130391934314 0.817095740868429 0 0.0870417061194161 0.853827995089262 0 0.0524690331668437 0.86696410734367 0 0 0.849999999999653 0 0.043889462445438 0.826759239819513 0 0 0.8 0 0 0.750000000000347 0 0.0529380014213358 0.776889771183312 0 0.112316928024456 0.78020430794084 0 0.16253691950235 0.782849122627686 0 0.243358441913473 0.786511897933875 0 0.203590747653644 0.794224894178719 0 0.228939290247373 0.839908789927278 0 0.171018735363 0.828981264636961 0 0.132261503269228 0.813060330014371 0 0.146882743185419 0.889622656308119 0 0.181725902897639 0.918388025938889 0 0.18958721034944 0.876602973603946 0 0.221311393310948 0.904144943719832 0 0.232226438176177 0.944207511169706 0 0.200000000000832 1 0 0.18045991219398 0.960710939969875 0 0.138347219894628 0.94095916274078 0 0.150000000000624 1 0 0.350000000001456 1 0 0.363638616126136 0.966544916821213 0 0.32894624184181 0.967797018267389 0 0.300000000001248 1 0 0.25000000000104 1 0 0.287907520382944 0.946359528487026 0 0.263054145574704 0.889490620931362 0 0.307381363266577 0.90051880305435 0 0.337480267781999 0.883965456331347 0 0.342269570898513 0.926703211838588 0 0.360307484821742 0.845985299128825 0 0.306195311694726 0.85607519768343 0 0.272549978320415 0.831201948690144 0 0.286026828463086 0.779984818231176 0 0.321918283269405 0.763958045952046 0 0.327918797702134 0.808478523461202 0 0.358374234325384 0.777304469043123 0 0.387030152393619 0.80283068154762 0 0.433067836400233 0.780311982161444 0 0.466346121879671 0.767675855240614 0 0.465938389648691 0.807818728355036 0 0.497717270559088 0.839986857976418 0 0.453538915812708 0.855515233778189 0 0.43087117257049 0.821542255171277 0 0.404814523960818 0.851304212281416 0 0.378391909217271 0.890646796886144 0 0.435906739990533 0.902899020422797 0 0.487580697080494 0.890800725401865 0 0.486697770604543 0.935106668196466 0 0.44006111182841 0.956387196338908 0 0.475000000001966 0.970555092835793 0 0.450000000001872 1 0 0.395146264289732 0.939469485619852 0 0.400000000001664 1 0 0.332314974080817 0.607792187328737 0 0.371046512961454 0.605451707483111 0 0.359843205574921 0.566986062717789 0 0.358156517437794 0.511134404479091 0 0.331306197573488 0.540525641468424 0 0.302927660481639 0.514843047212215 0 0.252871394412626 0.544583554344924 0 0.304297406799597 0.569139051464601 0 0.295036992928544 0.608379012288189 0 0.256190339758569 0.598195373710169 0 0.256845292557732 0.642035542479631 0 0.273496567448602 0.675817419964087 0 0.304216353843215 0.645149391934367 0 0.257700107422386 0.749178619276552 0 0.296411157380843 0.702520508819589 0 0.292551210545191 0.739979902911732 0 0.342702801024459 0.716724167620359 0 0.322598530820738 0.676700726098352 0 0.35944937237717 0.651647898084363 0 0.405647175079827 0.65626423320525 0 0.395079699895129 0.74417394063201 0 0.386423584673078 0.692862589235973 0 0.427155383338081 0.700777593753079 0 0.447649432958942 0.737524152654017 0 0.467368917376544 0.70015537930375 0 0.490731134405986 0.737590046187304 0 0.455174570318146 0.62
[...]
<CellData Scalars="pressure_p0," Vectors="velocity_p0," Tensors="">
<DataArray type="Float64" Name="pressure_p0" format="ascii">
0.00112762489066813 0.000444145379295742 0.00192411094807756 0.00124348928913501 0.000549918771849199 0.000549977176132437 0.00134783136902048 0.00267693767177662 0.00340429424341949 0.00262913350086082 0.00329418937823602 0.00494423011541783 0.00445068436469954 0.00462291937559862 0.00331449979273979 0.00276247472477966 0.000774129098669046 0.00243149007800099 0.00130500470608732 0.00241085448032181 0.000533309875275951 0.0012839273618131 0.00129976936093994 0.00309320283537798 0.00399206302255157 0.00418992550261322 0.00446009375935632 0.00324627165987594 0.00415950601005383 0.00493647425188247 0.00360940937128795 0.00700824873968174 0.00513330262853172 0.00599532787511407 0.00694918061670078 0.00555240134546722 0.00583076265083784 0.00663065966983878 0.00806087085449189 0.0075243877570014 0.00923482058148261 0.00868649303690608 0.00926349085702696 0.00771059398890494 0.00853314059944662 0.00899319384913398 0.00743451656671875 0.00655466616931568 0.00690346049395878 0.00511102847956424 0.00617338908642417 0.00617376433542749 0.00513850124269851 0.00678277446207597 0.00803630608990845 0.00757238837213054 0.00877716069545372 0.00883162622192793 0.00762932807153585 0.00783083626737925 0.00857785459103326 0.0100339290555981 0.00940648673598766 0.0108280771640789 0.0106506118089162 0.0111541362940833 0.0114016408847414 0.0115823985704383 0.0120335109088577 0.0120877354555773 0.0117438668563217 0.0120198433775562 0.0116147562878272 0.0114087239429832 0.0109757021120222 0.0106034947669121 0.0100576548419337 0.00947629273245205 0.00987935427496394 0.00994304961060621 0.0108428128088052 0.0107975248049534 0.0102496080429201 0.00973315585196917 0.0101808197788415 0.0102717622731606 0.0107663406011881 0.0109404672350947 0.0110888466366748 0.0116302723074953 0.0117976423305355 0.0114930722333014 0.0110654840026403 0.0118066540438346 0.0117709680180773 0.0124185921945675 0.0121471853307165 0.0125032440611974 0.0121753431106256 0.0126473757284068 0.0128404042081023 0.0124901013382811 0.012186201640876 0.012606399652662 0.0127582390550544 0.0129219591536572 0.0128664063510189 0.0130945604198995 0.0130542642196886 0.0130883166095599 0.0129179036669129 0.012951200628734 0.0130624822778256 0.0130954216251084 0.0130625637881549 0.0130855509621146 0.012851913558421 0.0129845499036361 0.0129498340067722 0.0130999800345592 0.0130442595180083 0.0130670991155102 0.0130001028571598 0.0127762444719216 0.0126741398911548 0.0128256533936921 0.0123199166322473 0.0122808784443622 0.012388068801224 0.0126184090241592 0.0125813007978054 0.0126478560675692 0.0126723753660008 0.0121919489956582 0.0125291209390416 0.0121106483504505 0.0124357260106422 0.0125009434807662 0.0122043490555047 0.0127965184390317 0.0129322476305811 0.012876117745359 0.013049135813297 0.0130944823704919 0.0130653542580011 0.0130949196894661 0.0130676229912868 0.0128559705432102 0.012954409303041 0.012891316818576 0.0130975174883751 0.0130992642427718 0.0130759825078439 0.0130923473042273 0.0129080615309411 0.0130051241139705 0.0129853077195296 0.0130780276548977 0.0129754686298569 0.0127734330482905 0.0125576370386197 0.0125179865046485 0.0121728060681528 0.0122383191009124 0.0126699778564489 0.0125274373420383 0.012136156858998 0.0108928071482298 0.0110255335859657 0.0119351421364408 0.0115210568540477 0.0115899789920487 0.0119961053520287 0.0109491363074877 0.0113607645229467 0.0114378240225197 0.010154579655321 0.0106797956937719 0.0101223482222353 0.00973582996293415 0.0106456405252377 0.00956169045887929 0.00938532374192955 0.00987013050203677 0.010883345916219 0.0102478250182044 0.0101460286089656 0.0114039715084913 0.0113076433234553 0.0117695926879778 0.0119409876076848 0.0117920265259484 0.0116463244554998 0.0111260657142669 0.0103146578120929 0.0108937999162331 0.0102619836880741 0.0108416306509869 0.00933991578002249 0.00996534474935606 0.00891676957534009 0.00738363073016162 0.00818603696974544 0.00759576023100928 0.00818642775922893 0.00891759227115818 0.00914591998577563 0.00851283214069165 0.00847955064163677 0.00764833398928763 0.00621234904125372 0.00683661896892187 0.00654830202493463 0.00547959616495814 0.00520607212739041 0.00550009468673036 0.00651125141775102 0.00673036872989559 0.00770309416382359 0.00908005914211675 0.00858926688477499 0.0089328294827689 0.00821929757975595 0.00747815456088415 0.00824709173247649 0.00919662649517802 0.0078274564368631 0.00705162974345915 0.00507035280524422 0.0055049274163622 0.00642595095096765 0.00659817002123567 0.00561294176815635 0.00579720974323521 0.00299817409229597 0.00474466759668318 0.00357078204936478 0.00308026306563879 0.00481780441084278 0.00390445156784612 0.00403213561672662 0.00330107238524561 0.00190146219771896 0.00228406171815776 0.000459269305511252 0.00090103982860248 0.000442379682056227 0.00217590690202084 0.0011778052177947 0.000736711606917987 0.0015067395169943 0.00279857939937003 0.00367099507162452 0.00341429560679451 0.00470595672326066 0.00476039226494358 0.00361504287419119 0.00274026128446336 0.00142480470306746 0.00128701199163233 0.000598098979389578 0.00100110932934783 0.00188594199057948 0.00180109701118031 0.000404071336828886 0.000915494030760708 0.000512161548516678 0.00122078043903919 0.0024529418166722 0.00227648518271563 0.00296051510245886 0.00379018913467155 0.00447009997385156 0.00406428086774367 0.00448006636394822 0.00404256013450372 0.00286836102824503 0.00227848826446219 0.00246980634435606 0.00127251696193392 0.000564651105734242 0.00116966751526176 0.00104980815256163 0.000606720429312607 0.000444234913117621 0.00198971385153028 0.000667129905035279 0.00111005634719629 0.00204940622748165 0.00139025874406598 0.00262504227089316 0.00324001116478302 0.00294623061082182 0.00440253965430755 0.00287426420282335 0.00270553172447651 0.00370739900286647 0.00388551204096789 0.00390479262865614 0.00440025144715916 0.00527566932524011 0.00604316264440777 0.00601239324916596 0.00702576718837234 0.00651461903114922 0.00501390417846607 0.00523448451804522 0.00703701561744453 0.00728261622178249 0.00830864597303142 0.00850822009763852 0.00887476595360588 0.00779974918780778 0.00778231005406063 0.00921964759724099 0.00860088224645111 0.00894218720328051 0.00859605881516368 0.00780529861407458 0.00908481203127561 0.00850094366867061 0.00911600680644831 0.00846815949748576 0.00745677526643907 0.00774325993363668 0.00699633405686053 0.00673423653823961 0.00571417867641123 0.00512093157517149 0.00534192092941511 0.00617388889953288 0.00554669317663023 0.0058457103717212 0.00716537795159349 0.00683933116298662 0.00628143253848391 0.00462202624182761 0.00276192162902104 0.00331384993430078 0.00189767609090634 0.000417722041741062 0.00110125854520174 0.00121695452401506 0.00134750752262095 0.000549776097500059 0.00054982618732225 0.00259497397039222 0.00267518129231431 0.00340241887320856 0.00444850363804662 0.0049214291304505 0.00415341518873643 0.00459256558626563 0.00400823146606884 0.00296172833226815 0.00322487901389081 0.0025018705509953 0.00131977452770274 0.00126664863952698 0.000602395319141744 0.00250447137317402 0.00132592823989439 0.000726102966211143 0.00347310482527566 0.00341719315056122 0.00445649045047342 0.00457445375455062 0.00658687522182717 0.00547834300636154 0.00614286887864135 0.00541808201795843 0.00698991597090997 0.00736159760965078 0.00825280923460058 0.00881178013879793 0.00852009510870661 0.0081358135446298 0.0077376842227309 0.00921462054457187 0.00757981180900302 0.00663803064992368 0.00565610786448485 0.00583342607833583 0.00511635215621897 0.00615361434374784 0.00676785785946636 0.0076218190741216 0.0089028381143442 0.00893592445326841 0.00808481892854933 0.00763483138450757 0.00783673380090241 0.00858288377460134 0.00690353101608598 0.00617340829974435 0.00655453489754605 0.00510991253222044 0.0116261679926703 0.012040144504614 0.0115746292882755 0.0119699862174799 0.0110483575778543 0.0111946996361706 0.0107317392301469 0.0100777719992463 0.00945668319035626 0.0102522074912123 0.0095805130549962 0.0104082736289883 0.0109970268312824 0.0112566042761634 0.0108865465613284 0.0120475823414617 0.0117225050179842 0.0118322156239781 0.0118195696901759 0.0113014451066055 0.0113694451122629 0.00940444362025511 0.0101102703655422 0.0106483681287301 0.0108823737596307 0.0104829742668261 0.0097509881617926 0.0100656186602668 0.00961725873102616 0.0106068217349034 0.0114998312522454 0.0114060839590945 0.0118127691459776 0.0121848819600829 0.0125222290905399 0.0126586016169458 0.0127395431138355 0.0129345354932352 0.0130886858659854 0.0130913590332801 0.0130696049575327 0.0129723083218133 0.0128952962924022 0.0129430767722389 0.0130517537962501 0.0130708473150303 0.0127930591445993 0.0127845306370228 0.0125546769274897 0.0122415722747143 0.0121985179664868 0.0124918935371274 0.0127248573125519 0.0125316293757292 0.0129872478418461 0.0130994248110648 0.0130356216094779 0.0129588276352547 0.0130329633614357 0.0130977353588759 0.013057345945001 0.0130990841913799 0.0129733628628991 0.0127867525874426 0.0126011201081303 0.0122730529139092 0.0113167097071129 0.0117506513844054 0.0117557021153103 0.0120673985588305 0.0116709728194967 0.0112903560009969 0.011309645014371 0.0109019990450949 0.0113125023935656 0.0102656178854511 0.00990046410887199 0.00985598933587388 0.0102300462537513 0.0108480364838072 0.0108487638084397 0.00981127881149896 0.0100481302228121 0.00929118346443492 0.0106012413726362 0.0105389904555909 0.0102319709405301 0.00973362015253644 0.0100760244497501 0.00991358978981271 0.0108408968508559 0.0110359394492873 0.0110735090581385 0.0120990415479375 0.0119433304755804 0.0119065934864677 0.0115145325834711 0.0113137509317814 0.0112511530968563 0.0123274185792863 0.0122398051172016 0.0127482672406451 0.012543791936093 0.0128256092329128 0.012707010344123 0.0124977552555295 0.0127195307274126 0.0130342498996794 0.013034121916228 0.0129211310149497 0.01291365634729 0.0130927031259629 0.0129923689148049 0.0130142239473823 0.0130886234453612 0.0130774073799206 0.0130820015446117 0.0130589836313688 0.0130240416618047 0.0128444953627945 0.0126933996072353 0.0127906933012704 0.0121600259435253 0.0121634145357357 0.0123862848753006 0.0123149127011284 0.0123018770388475 0.0127793179035117 0.012624778046951 0.0126940509836971 0.012972763829981 0.0129763053443023 0.0130689709474563 0.0130448909509371 0.0130984774086035 0.012921388149635 0.0128666323591087 0.0127431448958881 0.0126867589744243 0.0125864510890234 0.0125082256762883 0.0121844293554883 0.0123190725936892 0.012434130908983 0.0126445399683145 0.0128799722259732 0.0129562180456009 0.0130761916764941 0.0131005353493622 0.0130886524220417 0.0131044643225198 0.0130729488410723 0.0128803563623981 0.0129987820085238 0.0130039802562343 0.0130778632057812 0.0129885246643867 0.0129723411884964 0.0127686147013968 0.0125535362629947 0.0125152287726019 0.0121736583667571 0.0122380431740765 0.0126733607422491 0.0125129003283863 0.012112641481276 0.0109022077419419 0.0110250011546682 0.0119358037963055 0.0115208127709198 0.011589658454555 0.0119961177743203 0.0113605021893921 0.0109487004105161 0.0114372474300783 0.0106792537811585 0.0101540852256058 0.0101225980942644 0.00973533284734956 0.0106455881827035 0.00956231124844964 0.00938652362001961 0.0102816790233204 0.0101570229483563 0.00989474321415859 0.00932976633235795 0.00997647403913081 0.0102989223013203 0.0103022394969972 0.0108842538291398 0.0110358036683 0.0112887981938537 0.0118040752864042 0.0117414834491265 0.0120466585685783 0.0118594771211275 0.0113471094182632 0.0109955231676285 0.0111966090868726 0.0123191619176066 0.012280135847771 0.0127753742633113 0.0128247678314808 0.0126733041510524 0.0129991480536903 0.0130660921570003 0.0130432889856776 0.0130989569212799 0.0129836290535396 0.0129489125781122 0.0130845808913381 0.0128510509246829 0.0126175828277554 0.0125804737057464 0.0123873062024852 0.0121464142979697 0.0124177997659013 0.0121745294817765 0.0125024221355919 0.0126465613094847 0.0128395892223127 0.0129170456455832 0.0130944790658135 0.0130617001714547 0.0130617031877534 0.0129504246130507 0.0128656721845967 0.0130939350674612 0.0130886148400014 0.0130539546541413 0.0129211797121512 0.0127569530943888 0.0126055794612812 0.0121855239481977 0.0124891244106853 0.0117969106634754 0.0116294282569749 0.0110879004303426 0.0109398161168204 0.0107655324004602 0.00973252398739807 0.0102704058211563 0.0101799038986003 0.0108416726320048 0.00989714638837181 0.0102075583509951 0.0107979930751234 0.0110645604619448 0.0114922564377297 0.0118058177917673 0.0117702774839083 0.011743368608921 0.0120870825876305 0.0116142515080915 0.0120191846572395 0.0114085292121864 0.0109770755235762 0.00984583160646091 0.0100563377972076 0.0093880424726022 0.0105964602441172 0.0108169861585992 0.00930837856339437 0.0100219902223962 0.0106393940204458 0.0111520230119728 0.0113993781068445 0.0115802902839826 0.0120328094182937 0.00504461085807013 0.00597785860700114 0.00602280435069705 0.00682063549529389 0.00848589399641653 0.00746715275571508 0.00765643446807532 0.00798384264631537 0.0087765716251275 0.00913198246923958 0.00758733743524479 0.0062809970021282 0.00676612627502392 0.00657914658684079 0.00506129277669411 0.00525266922873103 0.00569661909287816 0.00538741993870748 0.00662539368381483 0.00796529115077328 0.00742107689064268 0.00912319361947886 0.00872149600730399 0.00763098170205966 0.00858964866144402 0.00855072008524507 0.00901245789400918 0.00746621269620918 0.00506629761245056 0.00704533711358733 0.00698281089172488 0.00600303455835533 0.00490100323335808 0.00406017992082891 0.00316959638962933 0.00355008047406099 0.000765000754223309 0.00241132461297329 0.00130213968023007 0.00245544235198603 0.0013466470884379 0.000539453125031245 0.00135649305975728 0.00340479078920692 0.00364106582582163 0.00424847893058047 0.00480049512587287 0.00440252672774605 0.00269707167844725 0.00342434132527648 0.00270501131085367 0.000549947262754373 0.000549933374898212 0.00134798192891049 0.00124357362351433 0.000444174485533808 0.00112767634022585 0.00192420439883259 0.00331445815141605 0.00276264844007854 0.00462255509128092 0.00621207179696359 0.00683634583827753 0.00654808322622968 0.00547939916095264 0.00520585944451091 0.00549991826237275 0.00651094149776965 0.00673000321796757 0.0075952589659728 0.00818260613547339 0.00738320975980385 0.00818221157064931 0.00890707215895647 0.0089136332638259 0.00914536743790375 0.00764798788014435 0.00847928213951432 0.00851282248823755 0.00919747488927151 0.00824703063374525 0.00782734007293229 0.00860915552739356 0.00907963390308099 0.00893259760888799 0.00748089157917101 0.00821909912673419 0.00772692103372272 0.00660110537589937 0.00581388242303491 0.00561641173074953 0.00705144905203753 0.0064257569777569 0.0055047628504382 0.00507017242897493 0.00403197749676516 0.00390412650414446 0.00481750700173606 0.00307871384762537 0.00330094111564151 0.00474477454160453 0.00356963967722814 0.00298802237848508 0.0014962403147302 0.00117620635147347 0.000735366293605725 0.0022839318931895 0.00190109257176657 0.0021742967546809 0.000442094957979378 0.000459213047416904 0.000900712069657369 0.000598078777150297 0.00142475139926364 0.00128692512886068 0.00361490621509284 0.0027401607373898 0.00476020969264252 0.00470580912621851 0.00279848162283399 0.0034186789846211 0.00367088936262882 0.00180122805018255 0.00188589040069775 0.00100107960455877 0.000915642254244007 0.00040406276632339 0.000512317056724919 0.00122188986161214 0.00228212555796221 0.00245758361382375 0.00116937384274165 0.00127343151028564 0.000564666827443731 0.00249631558222026 0.00227261652711435 0.00288824064482841 0.0040620562881835 0.00447358300228424 0.00299139296248447 0.00449523512220631 0.00381985894890217 0.00406887029805062 0.00512109606355709 0.00571434496618671 0.00673369901857364 0.00699580574561795 0.00534226823275435 0.00617390115553084 0.00554584050709145 0.00584489696574712 0.00716525914446105 0.00683930682588479 0.00628141439708472 0.00780496511523952 0.00859566111696155 0.00894191717704833 0.00908253670887611 0.00849838325178369 0.00846578333094298 0.00910844266410326 0.0074561342528234 0.00774253762007701 0.00830910493098872 0.00728278958508764 0.00887548639936355 0.00850860595757505 0.00921401718412662 0.00860074626703842 0.00779981090152364 0.00778251195495202 0.00702583261232638 0.0052750632960002 0.00601263289413218 0.0060434511234932 0.00537238727724283 0.00504156784350796 0.00703719088425414 0.00662164752610709 0.0047129585181324 0.00300491036693901 0.00347003359301557 0.00286067928681264 0.00392096742167342 0.00442200745431058 0.0039137877484355 0.00373043883895936 0.0027283814412604 0.0028912872782409 0.00199548018922605 0.000450294042287313 0.00105547469807575 0.000606366442027218 0.00145260191427115 0.00208571883212076 0.00114640552096089 0.000697323236912811 0.000758833203889592 0.00129452652418465 0.00240359071783068 0.000538051290835176 0.00135582256138822 0.00134462609564122 0.00245337614336435 0.0036594239871931 0.00342860914270995 0.00431217032386142 0.00421201600402948 0.00486141068570758 0.00357296285641023 0.00327665718482907 0.00192411612532685 0.000444154314752466 0.00112762450304177 0.00124351710570557 0.00134792147104635 0.000549908100136648 0.000549921941322301 0.00269925421554755 0.00481853697703543 0.0044109088853233 0.00497369165794104 0.00341916910496853 0.00269190048570611 0.00276251410512883 0.00462239776349343 0.0033143227562779 0.00689340646925504 0.00611086726139217 0.00505763871687273 0.00645693300784211 0.00596478273550641 0.00515262788399816 0.00613905034966734 0.00674298768182631 0.00757638278790031 0.00888786514531069 0.00895484583755359 0.00807205046359205 0.00785240050856239 0.0076167324322713 0.00860815169794828 0.0068165303648234 0.00659995851340537 0.00722692774627434 0.00538821411584842 0.0059389420253764 0.00514754436680062 0.00541214920588825 0.00568258649500633 0.00661404001115462 0.00764916260715443 0.00752901920512595 0.00811308933796481 0.00918646572839246 0.008451708488908 0.00819472816740082 0.00879616683205464 0.0100667902255343 0.00960252323887279 0.0106081825639373 0.0104822812694299 0.0108836840957461 0.0097347241676971 0.0101103097044003 0.00939335604181958 0.0106478667906262 0.0113027540146089 0.011370733738663 0.0118334654738243 0.0118209336625042 0.0118142004426062 0.0115042180421919 0.0114076430089225 0.01073568723508 0.0100813056485732 0.00948310846807064 0.0102574829944662 0.00960740929724636 0.010410774679927 0.0109989008436925 0.0112583139689464 0.011723689443157 0.0120487587499293 0.0108909116539474 0.0110524467505864 0.0115762194681276 0.0119711855113976 0.0120412700556966 0.0116276582494527 0.0111959980951415 0.0127879324518574 0.0122742521206489 0.0126023020472278 0.0127260361272664 0.0124930905503541 0.0125328550244886 0.0129883450531919 0.0130367140904749 0.0131004498383093 0.0129599646956674 0.0130340938498142 0.0130988146333084 0.0131001600684939 0.0130584632479432 0.0129745120278061 0.012660366664684 0.012743249408286 0.0125241115190268 0.0121862311017931 0.0122429243149201 0.0121998034103408 0.0127942455650344 0.0125560302005879 0.0127857498149511 0.0129442138326306 0.0130718412076014 0.0130527404291404 0.0130921334818908 0.013071699050571 0.0129754470002009 0.0128968386745046 0.0129394185642831 0.0130915016905341 0.0130397476595981 0.0130432762787002 0.0130930773687219 0.013096461851514 0.0129340019040546 0.0129190850970909 0.0127264641493 0.0121110091579727 0.0125102095733922 0.0122776658900594 0.0122313059439807 0.0127402524720267 0.0125486154277339 0.0128099646679622 0.0126681469354365 0.0129955940725084 0.013026448016438 0.0130730437963017 0.0130824361973135 0.0130741842511999 0.013026184918921 0.0130775511145975 0.0130262189907095 0.0130206099893245 0.0128384780280079 0.0128450388804748 0.0127229400256564 0.0124272847334021 0.0121874690498148 0.01217