<?xml version="1.0"?>
<VTKFile type="UnstructuredGrid" version="0.1" byte_order="LittleEndian">
<UnstructuredGrid>
<Piece NumberOfPoints="568" NumberOfCells="1054">
<Points>
<DataArray type="Float64" NumberOfComponents="3" format="ascii">
0 0 0 0.0499999999998997 0 0 0.0323698570487533 0.032369857048862 0 0.0584335251122665 0.0584335251122145 0 0 0.050000000000208 0 0 0.100000000000416 0 0.0400584584693195 0.0944578555791577 0 0.0980768456829153 0.0991724147309935 0 0.0944578555792846 0.0400584584694184 0 0.0999999999998147 0 0 0.0564522287083799 0.234565808376616 0 0 0.200000000000832 0 0.0388399996009313 0.179498259931901 0 0 0.150000000000624 0 0.0548726927265955 0.134106856398452 0 0.0896897021915411 0.138513804586622 0 0.122947659685672 0.148251464161954 0 0.0828750765696809 0.178818634882983 0 0.0996947712122641 0.22074048840547 0 0.158996951633215 0.227836749122277 0 0.125875177082847 0.188968332266695 0 0.169013160068682 0.168002193866631 0 0.189220110521158 0.126442066536112 0 0.22626394058332 0.154659468198381 0 0.205967211350529 0.199725178953962 0 0.211554843187388 0.241744476774187 0 0.180351590178421 0.0391903365350905 0 0.149999999999704 0 0 0.138357444660799 0.0589959339188492 0 0.148476056588621 0.112220907400452 0 0.181725902897582 0.0816119740612928 0 0.217206150464847 0.104439454835129 0 0.231674603334463 0.0553437746953104 0 0.199999999999558 0 0 0.249999999999412 0 0 0.283208049853001 0.0508433390825056 0 0.299999999999266 0 0 0.323619558532886 0.0327999278256247 0 0.362462430895343 0.0442183666074772 0 0.349999999999121 0 0 0.355822585194142 0.0854187642572584 0 0.322427311917699 0.0689379334381408 0 0.330767006442793 0.119592255048115 0 0.295063395037039 0.101138089243444 0 0.257146194987713 0.10413999068455 0 0.263189497696013 0.146101733972573 0 0.299142716792971 0.156496209701207 0 0.260171965190135 0.20370391303005 0 0.301079690692898 0.202800200091412 0 0.288402851022681 0.249609553207088 0 0.331796839804983 0.222301993972031 0 0.330801675951106 0.181791113002693 0 0.360307484821635 0.154014700871105 0 0.397289240071895 0.165639932095022 0 0.432407360090089 0.182056809654028 0 0.41732862935313 0.129866986343623 0 0.381034256806799 0.204783951629704 0 0.42421838472614 0.222465020057878 0 0.462293308810443 0.198909164566548 0 0.499999999999971 0.219686411149829 0 0.459520018388269 0.156664873305243 0 0.46567857652706 0.114368061527523 0 0.475746624217828 0.077626823840591 0 0.484924330582892 0.0373213982762724 0 0.499999999998694 0 0 0.449999999998829 0 0 0.446927950142653 0.0518018776450602 0 0.406855818272412 0.0411398773125117 0 0.399999999998975 0 0 0.390616286406845 0.0815251031619917 0 0.375161719606839 0.121918126660369 0 0.43122735573934 0.0881769991929174 0 0.429308231064016 0.40626685012723 0 0.392220576577811 0.380677966902274 0 0.394198866753185 0.419122252400708 0 0.377023860747173 0.458194175644768 0 0.410095980695696 0.490839357492854 0 0.423403423371937 0.447621318748554 0 0.461527143457989 0.473443594123526 0 0.461024257085337 0.432541991343326 0 0.465432111282168 0.387884235436819 0 0.49854341599768 0.370759147681271 0 0.472532117365031 0.340817108308049 0 0.483788712280009 0.297451778269774 0 0.455331360217251 0.252568731208715 0 0.430594867953342 0.303959734190635 0 0.391620987711813 0.295036992928546 0 0.401804626289837 0.256190339758575 0 0.43301393728221 0.359843205574921 0 0.391208871887456 0.334075776884043 0 0.348047572662274 0.35750068079406 0 0.323103257015693 0.32141443408924 0 0.357962884673884 0.256835227867104 0 0.354814354583093 0.30398436674999 0 0.323736926270502 0.27286413781594 0 0.297479491180417 0.296411157380844 0 0.260144435522079 0.292623904436535 0 0.25082138072345 0.257700107422368 0 0.284738052361283 0.343557681186738 0 0.255826059367993 0.395079699895134 0 0.296304338697064 0.429832022968145 0 0.305976555003817 0.393468168521193 0 0.354814223971285 0.403129814650693 0 0.333826635273302 0.441301250475035 0 0.334364244893045 0.478496031217408 0 0.299886550525317 0.467007278275931 0 0.262475847345986 0.447649432958947 0 0.262418491288269 0.490719222921541 0 0.192181271644967 0.465938389648695 0 0.232324767024371 0.466345253695677 0 0.219688017838559 0.433067836400238 0 0.197169318452384 0.387030152393625 0 0.178457744828726 0.430871172570494 0 0.148695787718589 0.404814523960821 0 0.144484766221814 0.453538915812712 0 0.160013142023585 0.497717270559093 0 0.220015181768822 0.28602682846308 0 0.19152147653881 0.327918797702154 0 0.236041954047958 0.321918283269407 0 0.222695530956879 0.358374234325388 0 0.154014700871176 0.360307484821747 0 0.143922094947914 0.306200702035457 0 0.168537671773945 0.272324831592801 0 0.110477540413226 0.263117535981694 0 0.0994921194810273 0.307463985332816 0 0.0732967881614181 0.342269570898506 0 0.116034002194931 0.33748134585014 0 0.0334576460409223 0.363648423312284 0 0 0.350000000001456 0 0.032220921767547 0.329014892144875 0 0.0537301716876466 0.288250771898286 0 0 0.300000000001248 0 0 0.25000000000104 0 0.0648933318035348 0.486697770604545 0 0.109199274598136 0.487580697080498 0 0.0971009795772073 0.435906739990532 0 0.10935320311386 0.378391909217271 0 0.060530514380151 0.395146264289728 0 0 0.400000000001664 0 0 0.450000000001872 0 0.0436128036610927 0.440061111828404 0 0.0294449071642091 0.475000000001966 0 0 0.500000000002059 0 0 0.550000000001734 0 0.0518018776450837 0.553072049857452 0 0.0373213982762153 0.515075669417473 0 0.0776268238405584 0.524253375782261 0 0.114368061527482 0.534321423472927 0 0.121918126660357 0.624838280393159 0 0.0881769991928987 0.568772644260674 0 0.0815251031619976 0.609383713593151 0 0.0411398773124836 0.59314418172763 0 0 0.600000000001387 0 0 0.65000000000104 0 0.0323578435067225 0.676600401985782 0 0.0442183666074753 0.637537569104702 0 0 0.700000000000693 0 0.0486329174879745 0.717891752740162 0 0.0910728127967196 0.741988048646878 0 0.0990187225489634 0.704756315583652 0 0.0854187642572582 0.644177414805869 0 0.0689379334381628 0.677572688082311 0 0.119592255048131 0.669232993557228 0 0.154014700871098 0.63969251517837 0 0.181791113002692 0.669198324048887 0 0.13725179499973 0.741546289628566 0 0.156496209701235 0.70085728320704 0 0.203703913030074 0.739828034809895 0 0.202800200091414 0.698920309307116 0 0.249609553207091 0.711597148977329 0 0.222301993972028 0.668203160195032 0 0.204783951629683 0.618965743193203 0 0.222487080058139 0.575775413711342 0 0.219686411149827 0.500000000000032 0 0.19896328510056 0.537691476689505 0 0.156664873305197 0.540479981611742 0 0.129866986343594 0.582671370646846 0 0.165639932094979 0.602710759928095 0 0.182056809653986 0.567592639909897 0 0.100000000000416 1 0 0.0944578555791882 0.959941541530687 0 0.050000000000208 1 0 0 1 0 0.0304524096104897 0.96954759038951 0 0 0.949999999999792 0 0.0584335251122541 0.941566474887746 0 0 0.899999999999584 0 0.0400584584693226 0.905542144420798 0 0.0979909576452082 0.900450397208809 0 0.122947659685717 0.851748535838097 0 0.0868130391934314 0.817095740868429 0 0.0870417061194161 0.853827995089262 0 0.0524690331668437 0.86696410734367 0 0 0.849999999999653 0 0.043889462445438 0.826759239819513 0 0 0.8 0 0 0.750000000000347 0 0.0529380014213358 0.776889771183312 0 0.112316928024456 0.78020430794084 0 0.16253691950235 0.782849122627686 0 0.243358441913473 0.786511897933875 0 0.203590747653644 0.794224894178719 0 0.228939290247373 0.839908789927278 0 0.171018735363 0.828981264636961 0 0.132261503269228 0.813060330014371 0 0.146882743185419 0.889622656308119 0 0.181725902897639 0.918388025938889 0 0.18958721034944 0.876602973603946 0 0.221311393310948 0.904144943719832 0 0.232226438176177 0.944207511169706 0 0.200000000000832 1 0 0.18045991219398 0.960710939969875 0 0.138347219894628 0.94095916274078 0 0.150000000000624 1 0 0.350000000001456 1 0 0.363638616126136 0.966544916821213 0 0.32894624184181 0.967797018267389 0 0.300000000001248 1 0 0.25000000000104 1 0 0.287907520382944 0.946359528487026 0 0.263054145574704 0.889490620931362 0 0.307381363266577 0.90051880305435 0 0.337480267781999 0.883965456331347 0 0.342269570898513 0.926703211838588 0 0.360307484821742 0.845985299128825 0 0.306195311694726 0.85607519768343 0 0.272549978320415 0.831201948690144 0 0.286026828463086 0.779984818231176 0 0.321918283269405 0.763958045952046 0 0.327918797702134 0.808478523461202 0 0.358374234325384 0.777304469043123 0 0.387030152393619 0.80283068154762 0 0.433067836400233 0.780311982161444 0 0.466346121879671 0.767675855240614 0 0.465938389648691 0.807818728355036 0 0.497717270559088 0.839986857976418 0 0.453538915812708 0.855515233778189 0 0.43087117257049 0.821542255171277 0 0.404814523960818 0.851304212281416 0 0.378391909217271 0.890646796886144 0 0.435906739990533 0.902899020422797 0 0.487580697080494 0.890800725401865 0 0.486697770604543 0.935106668196466 0 0.44006111182841 0.956387196338908 0 0.475000000001966 0.970555092835793 0 0.450000000001872 1 0 0.395146264289732 0.939469485619852 0 0.400000000001664 1 0 0.332314974080817 0.607792187328737 0 0.371046512961454 0.605451707483111 0 0.359843205574921 0.566986062717789 0 0.358156517437794 0.511134404479091 0 0.331306197573488 0.540525641468424 0 0.302927660481639 0.514843047212215 0 0.252871394412626 0.544583554344924 0 0.304297406799597 0.569139051464601 0 0.295036992928544 0.608379012288189 0 0.256190339758569 0.598195373710169 0 0.256845292557732 0.642035542479631 0 0.273496567448602 0.675817419964087 0 0.304216353843215 0.645149391934367 0 0.257700107422386 0.749178619276552 0 0.296411157380843 0.702520508819589 0 0.292551210545191 0.739979902911732 0 0.342702801024459 0.716724167620359 0 0.322598530820738 0.676700726098352 0 0.35944937237717 0.651647898084363 0 0.405647175079827 0.65626423320525 0 0.395079699895129 0.74417394063201 0 0.386423584673078 0.692862589235973 0 0.427155383338081 0.700777593753079 0 0.447649432958942 0.737524152654017 0 0.467368917376544 0.70015537930375 0 0.490731134405986 0.737590046187304 0 0.455174570318146 0.62
[...]
<CellData Scalars="pressure_p0," Vectors="velocity_p0," Tensors="">
<DataArray type="Float64" Name="pressure_p0" format="ascii">
0.0328284922397046 0.012930386022682 0.0560165589585111 0.0362016547928443 0.0160097730142862 0.016011481615009 0.0392393737407829 0.07793362464422 0.0991091141952306 0.076541937647891 0.0959037407456297 0.143941379128922 0.129572643289304 0.134586857636308 0.0964948866781731 0.0804238138210943 0.0225373073231793 0.0707881432370315 0.0379927087121415 0.0701872958118451 0.0155262782013565 0.037379012296234 0.0378401856578046 0.0900524882131118 0.116221043282324 0.121981329118201 0.129846908811867 0.0945089920966102 0.121095992320578 0.143716174598915 0.105081183660605 0.204032107687107 0.149446304465223 0.174542405089916 0.202312023211778 0.161647297916037 0.169751112369199 0.193038496888777 0.2346762279491 0.219057711236493 0.268853506969818 0.252890435758002 0.269688453487872 0.224478914636464 0.248426149486313 0.261819945017397 0.21644186700246 0.190825805828296 0.200980178255662 0.14879717532424 0.179725648217185 0.179736684508496 0.149597098068263 0.197466876965139 0.233960838832485 0.220454900576204 0.255529549824342 0.257115029790451 0.222112420795536 0.227978871250854 0.249726790863778 0.292117467862478 0.273850773115188 0.315237561076599 0.310070958600527 0.324730041349212 0.331935714638494 0.337198057676335 0.35033127756688 0.351910216240931 0.341899250671232 0.349933531307081 0.338140209975666 0.332142118375496 0.319535578808995 0.308699382446764 0.292808399586942 0.27588313503386 0.287617712285774 0.289472492278696 0.315667469396653 0.314348499174393 0.298397049046362 0.283362590566986 0.296395255043369 0.299042515506987 0.313441661042907 0.318511352884018 0.32283052286834 0.338593105559128 0.343466100114355 0.334598223385365 0.322149834002903 0.343727846281883 0.342688425560687 0.361542791588428 0.353641393607786 0.364007746518025 0.354461445320189 0.368203569996284 0.373823172413588 0.3636257133281 0.3547784330203 0.367011160101634 0.371432260403932 0.376198349828583 0.374580708650785 0.381222822057629 0.380050119820436 0.381041784729908 0.376079183965368 0.377049041014663 0.380288684695756 0.381247182132886 0.380290753888103 0.380959608664505 0.374157827944913 0.378019136654496 0.377008337306423 0.381379452915804 0.37975726155191 0.38042208099061 0.378471658396419 0.37195458414559 0.368981894565762 0.373392930508459 0.358669422070303 0.357532982683343 0.360653928929776 0.367359742201672 0.36627923995362 0.368222299226829 0.368935172391016 0.354948837567747 0.364765025500811 0.352582495076509 0.362046915476628 0.363946179483496 0.355311843271737 0.372551442116732 0.376502463792006 0.374869380890147 0.379906521385378 0.38122611984852 0.380377591144641 0.381237766141311 0.380442620749699 0.374281269964249 0.377146651284221 0.375309288342839 0.381312443867343 0.381362402254102 0.380685029963309 0.381160541848098 0.375795708385529 0.378621064635778 0.378045162115067 0.380742679302481 0.377757157113421 0.37187505498144 0.365592820938774 0.364438951104527 0.354389665411047 0.356296212154462 0.368864318491747 0.364715047127305 0.353323608877561 0.31712580257169 0.320989445649127 0.347470912731167 0.335415480444658 0.337421142958667 0.349244886863159 0.3187644975775 0.330748350864117 0.33299100201007 0.295632150053537 0.310922753167048 0.294694280622208 0.283440831336129 0.309929164931378 0.278371859256864 0.273237999716529 0.287353426034858 0.316851503747465 0.298349036379716 0.295384851627859 0.332007878706713 0.329204037101617 0.342653401906126 0.347642085784836 0.34330763859117 0.339065218318676 0.323918779042523 0.300296503681162 0.31715726381209 0.298762088696878 0.315637548659667 0.271917896527237 0.290126317671929 0.259598953273277 0.214963886608196 0.238324598527103 0.221139019781875 0.238335595284935 0.259622230554161 0.266269207056235 0.247837111727695 0.246868577294842 0.222669220462931 0.18086294971704 0.199037290957779 0.190643104939871 0.159529451639497 0.151566773630646 0.160127343349624 0.189565607900092 0.195944570694949 0.224261453179929 0.264349425934001 0.250060687282997 0.260063398579321 0.239290348349074 0.217713079981698 0.240099861202919 0.267744003520503 0.22788321163439 0.205296334787791 0.147614790022692 0.160266464269558 0.187080441807078 0.192093978843848 0.163410619400301 0.168775015829826 0.0872863113141646 0.138132476660451 0.103956868130651 0.0896764305401268 0.140261917534046 0.113671333692966 0.117388803234369 0.0961052552613733 0.0553578269273508 0.0664966468974137 0.0133708647030426 0.0262322414551763 0.0128791144414422 0.0633477230460609 0.0342897089207609 0.0214480223646416 0.0438659354241401 0.08147646740031 0.106875671120902 0.099402454692845 0.137006958651012 0.138591249139122 0.105246206982179 0.0797784534760948 0.0414809436923903 0.0374692538052325 0.0174127316096125 0.02914580592001 0.0549064408496411 0.0524363974641869 0.0117639520109066 0.0266533268594861 0.0149108927906432 0.0355414257847336 0.0714140283014878 0.066276846521291 0.0861915863192693 0.110346423369969 0.130141327474486 0.118326005670309 0.130431902981871 0.117694262071759 0.0835088974357496 0.066335568032659 0.0719053565009301 0.0370477475597249 0.0164391354029767 0.0340535238109804 0.0305640513080439 0.0176639931382774 0.0129334480679496 0.0579284453741901 0.019422865942214 0.032318209413475 0.0596664289820081 0.040476148560099 0.0764257574387681 0.0943298863431431 0.0857766250660491 0.128175866022221 0.0836810028480565 0.0787686766543794 0.107937042689757 0.113122766144523 0.113683651770133 0.128108554198941 0.153595370127453 0.175940502315317 0.175044440837346 0.204547481355565 0.189667034930426 0.145974824901227 0.152397034225194 0.204875624363735 0.212026341465171 0.241898203396911 0.247708238027238 0.258380458149102 0.227081243575891 0.226573930041167 0.268420551248592 0.250405174195041 0.260341450142931 0.250263949636438 0.227241781991075 0.264492921552882 0.247493992176564 0.265399949321179 0.246539076618205 0.217093764644989 0.225435157550136 0.203689202484077 0.196058246115249 0.166360629088656 0.149088848520924 0.155523178659032 0.179744990264276 0.161485458463491 0.170191220136087 0.208611426013538 0.19911930721735 0.182876267778568 0.134567187386414 0.0804114956688846 0.0964805283471433 0.0552495734940042 0.0121616981118359 0.0320624114637312 0.0354308138622687 0.0392317614890818 0.0160063507001133 0.0160077990902251 0.0755508279503115 0.0778860497834528 0.099059097217594 0.129515125197481 0.143283835346577 0.120923634902441 0.13370897007512 0.116696607158227 0.0862284442785217 0.0938900127133199 0.072840087722912 0.0384242457531542 0.0368775640421814 0.0175382717169066 0.0729156777857964 0.0386033286335687 0.0211398736332447 0.101116452008472 0.0994887630998617 0.129747110896966 0.133181174117846 0.191770997074628 0.159497213176516 0.178844651392023 0.15774296305372 0.203505650548275 0.21432652363691 0.240273344000335 0.256547052224693 0.248055518358523 0.236868106742498 0.225276459481381 0.268276137652133 0.220680378043331 0.193261294526998 0.164673174871138 0.169835809128611 0.148958993503715 0.179158146976484 0.197041291769797 0.221903739196141 0.259199424748611 0.260162942002703 0.23538373466844 0.222282766371422 0.22816107094607 0.249884673075437 0.200991590257993 0.179734569435752 0.190830736842047 0.14877164098762 0.338487258822481 0.350539755886805 0.336986690739081 0.348497047359352 0.321664772924617 0.325925493759194 0.312446800120002 0.293407130968817 0.275324611434703 0.298485400126649 0.278929675521076 0.303028898718417 0.320169880006967 0.327727422344541 0.316953683343625 0.350756023062059 0.341291617141222 0.344485476104994 0.344116630048511 0.329032235226863 0.331012281039247 0.273803026041273 0.294352588116828 0.31001849681516 0.316830678379129 0.305202891135908 0.283891736812922 0.293051276309336 0.279997963708653 0.308807914717685 0.334806749036604 0.332077920964034 0.343918301478955 0.354751562542086 0.364572990165552 0.36854371743194 0.370899367434643 0.376576386684137 0.381064082926709 0.381142701886884 0.38050903523013 0.377676487148584 0.375434729752406 0.37682614860444 0.379990112855313 0.380546305050575 0.372459167819826 0.37221055314292 0.365518458399591 0.356402937105712 0.355149829195276 0.363691547056424 0.370474115583347 0.364848143294878 0.378112757256302 0.381378679103935 0.379521276156897 0.377285749868562 0.379444173311349 0.381329774946389 0.380154085529088 0.381369074213631 0.377709111939481 0.372276291863802 0.366871824088764 0.357320576989325 0.329471812220814 0.342106351566199 0.342252742808535 0.351325984612212 0.339784698201119 0.328703196368897 0.329264289495277 0.317397192621721 0.32934880727268 0.298869883028563 0.288238399589459 0.286944686908935 0.297835302556635 0.315827893413145 0.315848518429658 0.285643917780892 0.292540307758764 0.270502831404609 0.3086437055966 0.306831721172657 0.297892160760171 0.283385119544367 0.293353594531362 0.288624110079369 0.315622032995783 0.3213008474232 0.32239386729384 0.352251360393358 0.347718575908321 0.346647845382137 0.335233382163454 0.329386877266845 0.327564919682263 0.35889856239436 0.356348411673339 0.371151694810237 0.365198914506472 0.373402806213846 0.369949598338156 0.363859252773888 0.370316216399256 0.379479079231009 0.37947489908181 0.376185158877881 0.375967035507225 0.381180004580195 0.378257760564306 0.378894582319837 0.381060727839246 0.380733220760612 0.380866355751897 0.380195177967169 0.379178578318064 0.373951659041031 0.369552352209395 0.3723843615105 0.354023791693442 0.354123428507566 0.36061137207674 0.358531344755309 0.358152994197535 0.372052253880968 0.367553610378714 0.369569349667502 0.377684765295951 0.377787284974096 0.380484596643522 0.379783306535806 0.381343838955555 0.376187927329612 0.374594352261212 0.370998253281152 0.369356157420547 0.366437128344332 0.364159167673862 0.354731899873852 0.358651338935268 0.362002961287996 0.368129450984868 0.374983845052011 0.377203045619284 0.380696113796087 0.381404509735003 0.381059631366285 0.381521374529451 0.380603744451075 0.374996385157791 0.378443907611073 0.378594737505493 0.380748108809402 0.378146123913993 0.377675494144118 0.371744338300165 0.365482155570432 0.364366345027064 0.354421759345063 0.356297053331819 0.368969789503235 0.36429746556763 0.352644303399707 0.317403706245746 0.320979104683733 0.347496415845094 0.335414409518365 0.337419670731749 0.349253279992427 0.330747614038122 0.318758429430636 0.332982791028287 0.310914120518663 0.295624242890647 0.294707059850914 0.283432863263288 0.309933227322596 0.278394781782314 0.273276244710179 0.299336988085544 0.295708266359306 0.288071487440672 0.27162219196918 0.290450176333997 0.299837424452583 0.299934778691914 0.316879407804371 0.321290703762559 0.328656770400606 0.343658607816278 0.34183694892158 0.350722158547215 0.345273172673624 0.330356145049925 0.320119653152725 0.32597367534724 0.358661381406035 0.357525056299396 0.371943788760702 0.373382002052083 0.368972177608047 0.378459151471666 0.380408350355849 0.379744253335668 0.381365134667096 0.3780069739753 0.376996328864679 0.380946255092929 0.374146775683925 0.367349453567819 0.366269227860159 0.360644922835685 0.353631107672866 0.361532462923788 0.354449341844273 0.363995667849109 0.368192553309922 0.373812574351802 0.37606799954526 0.381234230329519 0.380279587367532 0.380279300316805 0.377039253096846 0.374571354883813 0.381217489475168 0.381061704881996 0.380052877660533 0.376187071695868 0.371405307637444 0.366998783842687 0.354768500809718 0.363607849707459 0.343454463998647 0.338578686464927 0.322812513182227 0.318500530739686 0.313426734767536 0.283351463969162 0.299011988140278 0.296376742139048 0.315644043978426 0.288145074915372 0.297182764894187 0.314372873472571 0.322133545499764 0.334585626811865 0.343714442282318 0.342680245477397 0.341897005203028 0.351904155815564 0.338138101564922 0.349927499869905 0.332148472165238 0.319586945962129 0.286651531556201 0.292780419727855 0.273323596599881 0.30850572587637 0.314926279963317 0.271004330017524 0.291780604665744 0.309755863691803 0.324680747776283 0.331882260456309 0.337149476981353 0.350324360132409 0.146868632733224 0.174039180658225 0.175347779159638 0.198575893537084 0.247058395151801 0.217398568488769 0.222909394453325 0.232441447903883 0.255521043708346 0.265868378901045 0.220897448298872 0.182864651615765 0.196988656711297 0.191545070176025 0.147354233553887 0.152925902382394 0.165850875678083 0.156848761673839 0.192891230668923 0.231901077789337 0.216056684410596 0.265612100782444 0.253917271664262 0.222167692128025 0.250078249282643 0.248944631285223 0.2623874735641 0.217370232327552 0.147499404890855 0.205116689062045 0.2032966911536 0.174771572527501 0.142686910742329 0.1182074885821 0.0922791068130143 0.103356357580378 0.0222720851241861 0.0702029358147007 0.0379102806687553 0.0714874448611014 0.0392061256097782 0.0157055626530669 0.0394928137409933 0.0991267061839618 0.106005676353942 0.123689708789009 0.139761250020473 0.12817495268996 0.0785223690761152 0.0996960868171282 0.0787534869440803 0.0160111165794683 0.0160107199121953 0.0392450608778462 0.0362053338349103 0.0129316715363086 0.0328311135844294 0.0560211915327797 0.0964969969486768 0.0804316130590359 0.134580911181798 0.180855412798095 0.199030526863539 0.190638401963751 0.159525125256439 0.151560961068057 0.160121622535378 0.189556119336735 0.1959340289801 0.221124806880896 0.238224436676365 0.214950737971671 0.238212640230666 0.259315778989265 0.259507362277132 0.266254357708675 0.222660269277345 0.246862456209557 0.247839285442567 0.267772668941648 0.24010166509664 0.227882609231242 0.250645425597429 0.264342707479839 0.260061625283926 0.217796897528252 0.239288772294736 0.224960067713695 0.192182886712072 0.169264221152003 0.163514890514233 0.20529351296998 0.18707755437106 0.160263944168504 0.147611218722318 0.117385586681634 0.1136635119984 0.140255494089501 0.0896327680838942 0.0961023393991245 0.138138146177032 0.103925582593058 0.086992616265807 0.0435612061745954 0.0342437313552102 0.021409265761886 0.0664935356403573 0.0553477531173764 0.0633018048169522 0.0128710115838585 0.0133693508956614 0.0262230151294251 0.0174121780286781 0.0414795705292323 0.0374670154553988 0.105242825670682 0.0797757615670692 0.138586705721442 0.137002501627646 0.0814735547466071 0.0995294166666302 0.106872299923459 0.0524399146226126 0.0549048003374183 0.0291449135115701 0.0266574719525955 0.0117636608957163 0.0149152789004286 0.0355733029372628 0.066440345442338 0.0715486078718254 0.034044254762852 0.0370737946281855 0.016439299826127 0.072675976409584 0.0661632173112527 0.0840861268295022 0.118259772385606 0.130240543335026 0.0870894215749718 0.130871207076546 0.111208875057405 0.118458610671288 0.149092567143921 0.166363918486501 0.196040790123021 0.203671354288635 0.155531249405435 0.179742779142655 0.161457485681939 0.170163834919009 0.208604172666858 0.199114375784879 0.182872642556618 0.227228253535442 0.250247937450823 0.260328309931088 0.264422877053851 0.247416458140597 0.246467711089197 0.265177993048397 0.217073527505461 0.225411114408163 0.241903937881749 0.212024685807883 0.258392920324657 0.247712299713624 0.268249177931634 0.250395393080324 0.227077447267576 0.226573527523186 0.204544532515212 0.153573954238379 0.175046863551752 0.17594391067071 0.156406874409769 0.146775832946481 0.204874743264884 0.192776658164627 0.137208768771508 0.0874823080514098 0.101023405610349 0.0832831444997242 0.11415198221326 0.128738750278616 0.113942646276941 0.108604882228374 0.0794318500123706 0.0841746547486715 0.0580947349597075 0.0131094744485037 0.0307282166444039 0.017653270301294 0.0422896895437893 0.0607217974291071 0.0333754354038796 0.0203012322152163 0.0220919363689486 0.037687564530753 0.0699757470136309 0.0156642806223007 0.0394719944642139 0.0391460597805068 0.0714250891290867 0.10653664749655 0.0998170065147174 0.125540161553949 0.122624449413082 0.141530464449936 0.104019821701287 0.0953933765175307 0.056016630470467 0.0129306274405041 0.0328284347707461 0.0362024119991724 0.039241937441146 0.0160094367808531 0.0160098461667404 0.0785832347506684 0.140281853407485 0.128414473353253 0.144798762367755 0.0995420189691363 0.0783691155185418 0.0804248466690069 0.134571493047257 0.0964896006676805 0.200687234458533 0.177905224033041 0.147242643455923 0.18798025582493 0.173652339898093 0.150008175228939 0.178725841862489 0.196308293154425 0.220570884320186 0.258752165593359 0.26070202028351 0.235001171465447 0.228606407879499 0.221745455973243 0.25060856021433 0.198449782244055 0.192145046438553 0.210397918322105 0.156867414338578 0.172900485485784 0.149860577094445 0.15756383602414 0.165436987908514 0.192554354535677 0.222690099535359 0.219192207106228 0.236196130748151 0.267445701607217 0.246054759464984 0.238573537685915 0.256083419861519 0.293075285163144 0.279558842330287 0.308836874522821 0.305171015297583 0.316857337281045 0.283407364452036 0.294341350096267 0.273468672841643 0.309991494774918 0.329057249598189 0.331036140234406 0.344507606373386 0.344143251639792 0.343947475616075 0.334923441380067 0.332111447933158 0.312547504502768 0.293496476878545 0.276081187675233 0.298625711837367 0.279700051587603 0.303088653143209 0.320210812145985 0.327762983220933 0.341311511270644 0.350775182112 0.317066686494676 0.32176938515613 0.337017981574743 0.348516681264505 0.350556967201144 0.338515472165106 0.325948524504663 0.372294621113117 0.357339819728546 0.366890377303485 0.370492764723899 0.363711100721852 0.364868960103809 0.378129711546383 0.379537709341656 0.381393240282586 0.377303170428894 0.379461217789864 0.381345450619408 0.381384574251714 0.380170620989128 0.377726547910512 0.368582018109236 0.370995651030385 0.36461552333482 0.354778741021713 0.356428584326975 0.355172930548506 0.372478958105292 0.365544175925129 0.372231866491912 0.376845423520206 0.380560742322345 0.380004930895222 0.381152101802816 0.380557487943927 0.377755252529029 0.375466469699886 0.376706670619903 0.381134356061978 0.37962781706143 0.37973090810183 0.38118146775932 0.381279567870068 0.376549753859806 0.376115906007279 0.370507388666126 0.35258960755558 0.364211740314481 0.357442927958826 0.356092711698035 0.370909763499008 0.365330382003177 0.372939847994011 0.368811408703661 0.378344111144677 0.379241846959593 0.380599237104006 0.380873226898706 0.38063391426347 0.379235898298934 0.380733024475804 0.379237890812922 0.379075676887397 0.373772897136144 0.373962926313894 0.370408597463093 0.361800934936323 0.354818669339308 0.354528767381293 0.373109074111998 0.369008448114152 0.358146955984297 0.347015697185906 0.347414177193738 0.330238815129733 0.34272574840787 0.343560340488894 0.317896589622927 0.330361036999624 0.328699784828475 0.297992124052125 0.28723021854068 0.316694099569246 0.316702121498324 0.297751541897417 0.286807950370531 0.285627472652493 0.292312410652375 0.297825841812845 0.308160325441234 0.306417394452191 0.270320899663484 0.293372222691783 0.288470347253124 0.283407366688207 0.315755567502768 0.322277613064931 0.321426617932333 0.347823589882017 0.34668719950195 0.334742415912274 0.329788954039954 0.326867889347279 
</DataArray>
<DataArray type="Float64" Name="velocity_p0" NumberOfComponents="3" format="ascii">