<?xml version="1.0"?>
<VTKFile type="UnstructuredGrid" version="0.1" byte_order="LittleEndian">
<UnstructuredGrid>
<Piece NumberOfPoints="568" NumberOfCells="1054">
<Points>
<DataArray type="Float64" NumberOfComponents="3" format="ascii">
0 0 0 0.0499999999998997 0 0 0.0323698570487533 0.032369857048862 0 0.0584335251122665 0.0584335251122145 0 0 0.050000000000208 0 0 0.100000000000416 0 0.0400584584693195 0.0944578555791577 0 0.0980768456829153 0.0991724147309935 0 0.0944578555792846 0.0400584584694184 0 0.0999999999998147 0 0 0.0564522287083799 0.234565808376616 0 0 0.200000000000832 0 0.0388399996009313 0.179498259931901 0 0 0.150000000000624 0 0.0548726927265955 0.134106856398452 0 0.0896897021915411 0.138513804586622 0 0.122947659685672 0.148251464161954 0 0.0828750765696809 0.178818634882983 0 0.0996947712122641 0.22074048840547 0 0.158996951633215 0.227836749122277 0 0.125875177082847 0.188968332266695 0 0.169013160068682 0.168002193866631 0 0.189220110521158 0.126442066536112 0 0.22626394058332 0.154659468198381 0 0.205967211350529 0.199725178953962 0 0.211554843187388 0.241744476774187 0 0.180351590178421 0.0391903365350905 0 0.149999999999704 0 0 0.138357444660799 0.0589959339188492 0 0.148476056588621 0.112220907400452 0 0.181725902897582 0.0816119740612928 0 0.217206150464847 0.104439454835129 0 0.231674603334463 0.0553437746953104 0 0.199999999999558 0 0 0.249999999999412 0 0 0.283208049853001 0.0508433390825056 0 0.299999999999266 0 0 0.323619558532886 0.0327999278256247 0 0.362462430895343 0.0442183666074772 0 0.349999999999121 0 0 0.355822585194142 0.0854187642572584 0 0.322427311917699 0.0689379334381408 0 0.330767006442793 0.119592255048115 0 0.295063395037039 0.101138089243444 0 0.257146194987713 0.10413999068455 0 0.263189497696013 0.146101733972573 0 0.299142716792971 0.156496209701207 0 0.260171965190135 0.20370391303005 0 0.301079690692898 0.202800200091412 0 0.288402851022681 0.249609553207088 0 0.331796839804983 0.222301993972031 0 0.330801675951106 0.181791113002693 0 0.360307484821635 0.154014700871105 0 0.397289240071895 0.165639932095022 0 0.432407360090089 0.182056809654028 0 0.41732862935313 0.129866986343623 0 0.381034256806799 0.204783951629704 0 0.42421838472614 0.222465020057878 0 0.462293308810443 0.198909164566548 0 0.499999999999971 0.219686411149829 0 0.459520018388269 0.156664873305243 0 0.46567857652706 0.114368061527523 0 0.475746624217828 0.077626823840591 0 0.484924330582892 0.0373213982762724 0 0.499999999998694 0 0 0.449999999998829 0 0 0.446927950142653 0.0518018776450602 0 0.406855818272412 0.0411398773125117 0 0.399999999998975 0 0 0.390616286406845 0.0815251031619917 0 0.375161719606839 0.121918126660369 0 0.43122735573934 0.0881769991929174 0 0.429308231064016 0.40626685012723 0 0.392220576577811 0.380677966902274 0 0.394198866753185 0.419122252400708 0 0.377023860747173 0.458194175644768 0 0.410095980695696 0.490839357492854 0 0.423403423371937 0.447621318748554 0 0.461527143457989 0.473443594123526 0 0.461024257085337 0.432541991343326 0 0.465432111282168 0.387884235436819 0 0.49854341599768 0.370759147681271 0 0.472532117365031 0.340817108308049 0 0.483788712280009 0.297451778269774 0 0.455331360217251 0.252568731208715 0 0.430594867953342 0.303959734190635 0 0.391620987711813 0.295036992928546 0 0.401804626289837 0.256190339758575 0 0.43301393728221 0.359843205574921 0 0.391208871887456 0.334075776884043 0 0.348047572662274 0.35750068079406 0 0.323103257015693 0.32141443408924 0 0.357962884673884 0.256835227867104 0 0.354814354583093 0.30398436674999 0 0.323736926270502 0.27286413781594 0 0.297479491180417 0.296411157380844 0 0.260144435522079 0.292623904436535 0 0.25082138072345 0.257700107422368 0 0.284738052361283 0.343557681186738 0 0.255826059367993 0.395079699895134 0 0.296304338697064 0.429832022968145 0 0.305976555003817 0.393468168521193 0 0.354814223971285 0.403129814650693 0 0.333826635273302 0.441301250475035 0 0.334364244893045 0.478496031217408 0 0.299886550525317 0.467007278275931 0 0.262475847345986 0.447649432958947 0 0.262418491288269 0.490719222921541 0 0.192181271644967 0.465938389648695 0 0.232324767024371 0.466345253695677 0 0.219688017838559 0.433067836400238 0 0.197169318452384 0.387030152393625 0 0.178457744828726 0.430871172570494 0 0.148695787718589 0.404814523960821 0 0.144484766221814 0.453538915812712 0 0.160013142023585 0.497717270559093 0 0.220015181768822 0.28602682846308 0 0.19152147653881 0.327918797702154 0 0.236041954047958 0.321918283269407 0 0.222695530956879 0.358374234325388 0 0.154014700871176 0.360307484821747 0 0.143922094947914 0.306200702035457 0 0.168537671773945 0.272324831592801 0 0.110477540413226 0.263117535981694 0 0.0994921194810273 0.307463985332816 0 0.0732967881614181 0.342269570898506 0 0.116034002194931 0.33748134585014 0 0.0334576460409223 0.363648423312284 0 0 0.350000000001456 0 0.032220921767547 0.329014892144875 0 0.0537301716876466 0.288250771898286 0 0 0.300000000001248 0 0 0.25000000000104 0 0.0648933318035348 0.486697770604545 0 0.109199274598136 0.487580697080498 0 0.0971009795772073 0.435906739990532 0 0.10935320311386 0.378391909217271 0 0.060530514380151 0.395146264289728 0 0 0.400000000001664 0 0 0.450000000001872 0 0.0436128036610927 0.440061111828404 0 0.0294449071642091 0.475000000001966 0 0 0.500000000002059 0 0 0.550000000001734 0 0.0518018776450837 0.553072049857452 0 0.0373213982762153 0.515075669417473 0 0.0776268238405584 0.524253375782261 0 0.114368061527482 0.534321423472927 0 0.121918126660357 0.624838280393159 0 0.0881769991928987 0.568772644260674 0 0.0815251031619976 0.609383713593151 0 0.0411398773124836 0.59314418172763 0 0 0.600000000001387 0 0 0.65000000000104 0 0.0323578435067225 0.676600401985782 0 0.0442183666074753 0.637537569104702 0 0 0.700000000000693 0 0.0486329174879745 0.717891752740162 0 0.0910728127967196 0.741988048646878 0 0.0990187225489634 0.704756315583652 0 0.0854187642572582 0.644177414805869 0 0.0689379334381628 0.677572688082311 0 0.119592255048131 0.669232993557228 0 0.154014700871098 0.63969251517837 0 0.181791113002692 0.669198324048887 0 0.13725179499973 0.741546289628566 0 0.156496209701235 0.70085728320704 0 0.203703913030074 0.739828034809895 0 0.202800200091414 0.698920309307116 0 0.249609553207091 0.711597148977329 0 0.222301993972028 0.668203160195032 0 0.204783951629683 0.618965743193203 0 0.222487080058139 0.575775413711342 0 0.219686411149827 0.500000000000032 0 0.19896328510056 0.537691476689505 0 0.156664873305197 0.540479981611742 0 0.129866986343594 0.582671370646846 0 0.165639932094979 0.602710759928095 0 0.182056809653986 0.567592639909897 0 0.100000000000416 1 0 0.0944578555791882 0.959941541530687 0 0.050000000000208 1 0 0 1 0 0.0304524096104897 0.96954759038951 0 0 0.949999999999792 0 0.0584335251122541 0.941566474887746 0 0 0.899999999999584 0 0.0400584584693226 0.905542144420798 0 0.0979909576452082 0.900450397208809 0 0.122947659685717 0.851748535838097 0 0.0868130391934314 0.817095740868429 0 0.0870417061194161 0.853827995089262 0 0.0524690331668437 0.86696410734367 0 0 0.849999999999653 0 0.043889462445438 0.826759239819513 0 0 0.8 0 0 0.750000000000347 0 0.0529380014213358 0.776889771183312 0 0.112316928024456 0.78020430794084 0 0.16253691950235 0.782849122627686 0 0.243358441913473 0.786511897933875 0 0.203590747653644 0.794224894178719 0 0.228939290247373 0.839908789927278 0 0.171018735363 0.828981264636961 0 0.132261503269228 0.813060330014371 0 0.146882743185419 0.889622656308119 0 0.181725902897639 0.918388025938889 0 0.18958721034944 0.876602973603946 0 0.221311393310948 0.904144943719832 0 0.232226438176177 0.944207511169706 0 0.200000000000832 1 0 0.18045991219398 0.960710939969875 0 0.138347219894628 0.94095916274078 0 0.150000000000624 1 0 0.350000000001456 1 0 0.363638616126136 0.966544916821213 0 0.32894624184181 0.967797018267389 0 0.300000000001248 1 0 0.25000000000104 1 0 0.287907520382944 0.946359528487026 0 0.263054145574704 0.889490620931362 0 0.307381363266577 0.90051880305435 0 0.337480267781999 0.883965456331347 0 0.342269570898513 0.926703211838588 0 0.360307484821742 0.845985299128825 0 0.306195311694726 0.85607519768343 0 0.272549978320415 0.831201948690144 0 0.286026828463086 0.779984818231176 0 0.321918283269405 0.763958045952046 0 0.327918797702134 0.808478523461202 0 0.358374234325384 0.777304469043123 0 0.387030152393619 0.80283068154762 0 0.433067836400233 0.780311982161444 0 0.466346121879671 0.767675855240614 0 0.465938389648691 0.807818728355036 0 0.497717270559088 0.839986857976418 0 0.453538915812708 0.855515233778189 0 0.43087117257049 0.821542255171277 0 0.404814523960818 0.851304212281416 0 0.378391909217271 0.890646796886144 0 0.435906739990533 0.902899020422797 0 0.487580697080494 0.890800725401865 0 0.486697770604543 0.935106668196466 0 0.44006111182841 0.956387196338908 0 0.475000000001966 0.970555092835793 0 0.450000000001872 1 0 0.395146264289732 0.939469485619852 0 0.400000000001664 1 0 0.332314974080817 0.607792187328737 0 0.371046512961454 0.605451707483111 0 0.359843205574921 0.566986062717789 0 0.358156517437794 0.511134404479091 0 0.331306197573488 0.540525641468424 0 0.302927660481639 0.514843047212215 0 0.252871394412626 0.544583554344924 0 0.304297406799597 0.569139051464601 0 0.295036992928544 0.608379012288189 0 0.256190339758569 0.598195373710169 0 0.256845292557732 0.642035542479631 0 0.273496567448602 0.675817419964087 0 0.304216353843215 0.645149391934367 0 0.257700107422386 0.749178619276552 0 0.296411157380843 0.702520508819589 0 0.292551210545191 0.739979902911732 0 0.342702801024459 0.716724167620359 0 0.322598530820738 0.676700726098352 0 0.35944937237717 0.651647898084363 0 0.405647175079827 0.65626423320525 0 0.395079699895129 0.74417394063201 0 0.386423584673078 0.692862589235973 0 0.427155383338081 0.700777593753079 0 0.447649432958942 0.737524152654017 0 0.467368917376544 0.70015537930375 0 0.490731134405986 0.737590046187304 0 0.455174570318146 0.62
[...]
<CellData Scalars="pressure_p0," Vectors="velocity_p0," Tensors="">
<DataArray type="Float64" Name="pressure_p0" format="ascii">
0.00478022002070077 0.00188281293635788 0.0081566770354103 0.00527137662600399 0.00233118608237954 0.00233142621530387 0.0057136804296088 0.0113479678308766 0.0144314045578639 0.0111452809679692 0.0139645250443431 0.0209593449728034 0.0188672674953904 0.0195974658223134 0.0140508309830168 0.0117106671550241 0.0032816051968929 0.010307339674236 0.00553204011980844 0.0102198951241089 0.00226075671827375 0.00544272268449661 0.00550990017729351 0.0131124772871426 0.0169228698448684 0.0177616939031575 0.0189068682987949 0.0137612794895725 0.0176325906041495 0.0209262132184903 0.0153006463632899 0.0297087367928123 0.0217606028569569 0.0254148983091085 0.0294584708195328 0.0235373419726641 0.0247174497427372 0.028108399787239 0.0341714329881748 0.0318970717513879 0.0391481160642174 0.0368233761590463 0.0392695072788795 0.0326863579254016 0.036173136607381 0.0381232812284777 0.0315158306598666 0.0277864941390265 0.0292652380891412 0.021666651635958 0.0261702309352173 0.026171686391359 0.0217829865303435 0.0287533450625622 0.0340674875836076 0.0321007173253568 0.0372080163322973 0.0374390419490127 0.0323422928384631 0.0331966643857365 0.0363635041139511 0.0425361192998171 0.0398762091092863 0.0459027417276708 0.0451504447659885 0.0472851248398224 0.0483342840025131 0.0491006380909454 0.0510130691253597 0.051242683043045 0.049784846873497 0.0509549699340026 0.0492377008137953 0.0483641693887608 0.0465284470689722 0.0449506141727257 0.0426365900651172 0.0401720497798384 0.0418806049946386 0.0421503601368358 0.0459645817009505 0.0457729339990033 0.0434501361695296 0.0412601208348714 0.0431579778070227 0.0435437281857206 0.0456400780644637 0.0463780747445845 0.0470074202601744 0.0493026435359594 0.0500119456496813 0.0487214053875872 0.0469087257186719 0.0500505536241746 0.0498996214711567 0.0526450611522163 0.051494427845907 0.0530036186111693 0.051613604326893 0.0536148193898083 0.0544331936616153 0.052947502113002 0.0516590519777236 0.0534407960146553 0.05408404712823 0.0547783205403216 0.0545430800571658 0.0555103985313424 0.0553392165718652 0.0554833693912937 0.0547619577126582 0.0549027543588917 0.0553746058727215 0.0555146739728383 0.0553751916968188 0.0554729862313259 0.0544823777871858 0.0550447798422055 0.0548976796898664 0.0555343509020928 0.0552980712636747 0.0553949313328582 0.055110873322102 0.0541617811621295 0.0537289931627644 0.0543712930434471 0.0522272444386716 0.0520616452602823 0.0525158614268175 0.0534924885504362 0.0533352662247364 0.0536148509105963 0.0537189942541709 0.0516823615612518 0.0531116363041797 0.0513376491692605 0.0527155990712691 0.0529920253603006 0.0517347960487055 0.0542449434137244 0.0548203088098607 0.0545823796101619 0.0553158099332002 0.0555080801145411 0.055384613435281 0.055510054168133 0.0553944052972631 0.0544969976237822 0.054914423541019 0.0546471130229756 0.0555212295854201 0.0555288532558443 0.0554300488609692 0.0554996757615096 0.0547183675365185 0.055129995887748 0.0550456781760787 0.0554394806736303 0.0550045735034282 0.0541482062907599 0.0532332362503771 0.053064917762636 0.0516016537896239 0.0518797231799552 0.05370908541309 0.0531047004962758 0.051446029877682 0.0461753920332089 0.0467381163353131 0.050594041048244 0.048838724020463 0.0491312200036891 0.0508527961912277 0.0464144958298611 0.0481594010260646 0.0484864263800648 0.0430464101771802 0.0452728918465963 0.0429096053459068 0.0412713259062233 0.0451278320691841 0.0405328702557541 0.0397851170339255 0.041840136907173 0.0461351716346651 0.043441210494169 0.0430097484665014 0.048342162826804 0.0479337717581504 0.0498919221892376 0.0506185930853508 0.0499870341936828 0.0493693839572503 0.0471640506890892 0.0437245670221553 0.0461795551125467 0.0435012063622434 0.0459583305322981 0.0395925489240901 0.0422437679067319 0.0377988289372315 0.0312997495220917 0.0347011882362987 0.0321989512385928 0.0347028236418356 0.0378022703844246 0.0387701809258223 0.0360865649288093 0.0359454458972492 0.0324218459152923 0.0263346263351902 0.0289809819120865 0.0277588243845254 0.02322850116607 0.0220689442263822 0.0233153382727397 0.0276016692738056 0.0285305028209566 0.0326542420551073 0.0384913472091106 0.0364108596775266 0.0378671356143893 0.0348423705482437 0.031700631115505 0.0349601338160497 0.0389852691452764 0.033181257325964 0.0298924909928723 0.02149368323022 0.0233358606356379 0.027240183472171 0.0279702513982316 0.0237937564347167 0.0245749391297621 0.0127095180870218 0.0201130335622816 0.0151368263361849 0.0130574461192215 0.0204230344568128 0.0165512588279689 0.0170925712012406 0.0139935103260622 0.00806046097577068 0.00968232103925986 0.00194688008673496 0.00381958705750892 0.00187528015817963 0.00922381045062453 0.004992775149667 0.00312297013455247 0.00638719440834466 0.0118633859675144 0.0155616361103112 0.0144734839490985 0.0199489206424663 0.0201796868139487 0.0153244345000132 0.011616163280162 0.00603984806568809 0.00545574073760882 0.0025353838138481 0.00424377374901223 0.00799464789362299 0.00763499524365102 0.00171288880342213 0.00388085383132829 0.00217110186781518 0.00517501887655731 0.0103982322005083 0.00965023597337484 0.0125499163450541 0.0160669680604307 0.018949185498982 0.0172288463475398 0.0189914766115585 0.017136833497478 0.0121593233306105 0.00965883714631021 0.0104698006907751 0.0053943721458817 0.00239364239437255 0.00495839766138747 0.00445032547095568 0.00257198749775757 0.00188319605780073 0.00843475559144103 0.00282810171146661 0.00470574600952917 0.00868782158027161 0.00589360904216862 0.0111281017851949 0.0137350591309799 0.0124896406155371 0.0186632531276101 0.012184435910806 0.011469218713804 0.0157162867689293 0.0164714048125098 0.0165529126430331 0.0186532733218818 0.0223642265685572 0.0256179329818831 0.0254873554032983 0.0297830267402539 0.0276166659853684 0.0212548763203802 0.0221900098205244 0.0298310598619914 0.0308722584144618 0.0352216860752039 0.0360676252051124 0.0376215815901697 0.0330641245201339 0.0329903849559093 0.0390834054851403 0.0364601758848098 0.0379069248273331 0.0364395289597626 0.0330873199978312 0.0385113090739083 0.0360361738678033 0.0386434616409573 0.0358972148337131 0.0316098561670803 0.0328242705384372 0.0296579977795794 0.0285469594398376 0.0242229089704242 0.0217080706308754 0.0226449115248316 0.0261716519452877 0.0235129510026825 0.0247805300895719 0.0303746081387916 0.0289925276327743 0.0266275276874606 0.0195937036775124 0.0117083593390879 0.0140480842241886 0.008044650602527 0.00177081239328024 0.0046684689775626 0.00515892998898657 0.00571237181442495 0.00233061972936457 0.00233083057339248 0.0110006350865738 0.0113406574147629 0.0144235754751635 0.0188581611519268 0.0208629710245471 0.0176071924568161 0.0194688541758044 0.0169917317867834 0.0125553901049209 0.0136709318182055 0.0106059560092904 0.00559480884239844 0.00536959200298414 0.00255368583510223 0.0106169871999744 0.00562090257953567 0.00307811680676267 0.0147232216741526 0.0144862036057518 0.0188919917327823 0.0193920496281456 0.0279230271778311 0.0232238013390286 0.0260408742792713 0.0229683529835319 0.029631638239713 0.0312072068061361 0.0349851587527333 0.0373546629924831 0.0361183287925866 0.034489370295408 0.0328016022788472 0.0390625712591216 0.0321323962866352 0.028140011956244 0.0239774424917408 0.0247291332164674 0.0216893067760199 0.0260864542964738 0.0286903547169331 0.0323104489251132 0.0377409396509738 0.037881193351988 0.0342731879640942 0.0323656024641205 0.0332214828571307 0.0363845572432496 0.029265436350573 0.0261703184240852 0.0277860156063576 0.0216619655594058 0.0492855676133312 0.0510405083678079 0.0490670786266134 0.0507430746143324 0.0468361471220409 0.0474565209277743 0.0454939899707638 0.0427217235036103 0.040088792086825 0.0434611559143669 0.0406137346278549 0.0441226954963791 0.0466184581948084 0.0477188809349461 0.0461502035211624 0.0510719812223696 0.0496938880664419 0.0501589106753692 0.0501050308314434 0.0479088066295949 0.048197145803895 0.0398673382876736 0.0428594323616295 0.0451404012489355 0.0461321828098174 0.0444392194772591 0.0413362508774409 0.0426698317892582 0.0407692584500807 0.0449640047063131 0.0487493611518424 0.0483521766210866 0.0500761170553313 0.0516532729077797 0.0530831916352275 0.0536613640175721 0.0540041573947512 0.0548306272325532 0.0554839416910023 0.0554955515482271 0.055403208972248 0.0549908498237147 0.0546645647555698 0.0548672778433799 0.0553279266050881 0.0554091103396182 0.0542318350697834 0.0541954613524677 0.0532210519974851 0.0518939524403065 0.05171167208227 0.0529554828871317 0.0539431239133982 0.0531238016243452 0.0550550267238796 0.0555307150571179 0.0552602804543302 0.0549349338962815 0.0552493519006906 0.0555238929121414 0.0553527478409042 0.0555296688299798 0.0549967345284093 0.0542056422614076 0.0534186573771429 0.052027874847631 0.047972389919515 0.0498119104359645 0.0498332321804006 0.0511543460196071 0.0494739880441569 0.0478605639659908 0.0479423287550737 0.0462143727618996 0.0479545164014295 0.0435167659703839 0.0419688269421531 0.0417804009082593 0.0433661293275465 0.0459858739342329 0.0459888647162832 0.0415910826598821 0.0425952526514526 0.0393865534746748 0.044939901553406 0.0446760899934021 0.0433744634176098 0.0412623679705608 0.0427137580580786 0.0420250926441246 0.0459560180695005 0.0467828978310299 0.0469419197064684 0.0512890982174075 0.0506292232727789 0.0504731981932283 0.0488112984163584 0.0479600375461489 0.0476947928742401 0.052256772383855 0.0518855192792347 0.0540408001924853 0.0531741223377957 0.05436853592847 0.0538657278514999 0.0529791271211594 0.0539192145895514 0.0552531741069882 0.0552525714355432 0.0547736528169143 0.0547419220872904 0.055500828873371 0.055075443701016 0.0551681707681592 0.0554835265012811 0.055435898327186 0.0554552765188469 0.0553575753158338 0.055209509155446 0.0544484183439065 0.0538079022554194 0.0542202639194796 0.0515470315717559 0.0515615072522753 0.0525061207318485 0.0522034911685288 0.0521482406354888 0.0541720474945651 0.0535169512760467 0.0538106172379192 0.0549920543693802 0.0550070701621652 0.0553998862761822 0.0552978202069681 0.0555249829041849 0.0547742457520971 0.0545421095461109 0.0540186532026908 0.053779665840082 0.0533543611420644 0.053022798548802 0.0516502451355345 0.052221059747123 0.0527086228293563 0.0536006117111139 0.0545986790345906 0.0549218776737105 0.0554305113909651 0.0555337165028657 0.0554833993538614 0.0555506286616995 0.0554170208050189 0.054600464660325 0.055102507632257 0.0551244617878405 0.0554378997941237 0.055059094548612 0.0549905108609266 0.0541268606794297 0.0532150419333746 0.0530526161776464 0.0516045702736905 0.0518775789972795 0.0537229573130107 0.0530426322446755 0.0513458328487325 0.04621461681413 0.0467351371572852 0.0505962106386788 0.048836965636746 0.0491288874835121 0.0508519598573611 0.0481573887740655 0.0464116871472463 0.0484828642252465 0.0452695143865087 0.0430432464521005 0.0429097351600771 0.0412681306718314 0.045126740068584 0.0405346439562521 0.0397895495378013 0.0435842572104007 0.0430557585214184 0.0419440494211601 0.0395491779201467 0.042290604267933 0.0436575547640959 0.0436714803112463 0.0461386636514204 0.0467812362980507 0.0478536206375032 0.0500378682304182 0.0497724431817157 0.0510660512698286 0.0502725769299767 0.0481006065931107 0.0466102533017825 0.0474626856407479 0.0522226338575783 0.0520571367411421 0.054156808320736 0.0543663442144024 0.053724131709337 0.055105871401431 0.0553898218925761 0.0552929119210002 0.0555289220772871 0.0550396215314539 0.0548925940036157 0.0554676147163652 0.0544773252959523 0.0534876522248631 0.0533304640642738 0.0525112747554031 0.0514896694852913 0.0526402750346344 0.0516086683141913 0.0529986713607276 0.0536099120838698 0.0544282645171038 0.0547568862360111 0.05550932216749 0.055370125742936 0.0553698459181026 0.0548979638608057 0.0545385278235269 0.0555063723666447 0.0554835603387995 0.0553366818002724 0.0547737599617304 0.0540774915874835 0.0534359022198348 0.0516550092762722 0.052942110322364 0.0500076224536451 0.0492976954201767 0.0470020339431071 0.0463741621919133 0.0456353940092863 0.0412562655394797 0.0435365785226374 0.043152816721703 0.0459583121867999 0.0419543668706539 0.0432703989522027 0.0457733974279068 0.0469032882792956 0.0487163905359091 0.0500455361850461 0.0498951682475051 0.0497812774933158 0.0512385473722302 0.0492341157441807 0.0509508071602344 0.0483618582601092 0.0465327577344541 0.041737083716236 0.0426295996969518 0.0397966427552423 0.0449193327057889 0.0458542648695049 0.039459027334415 0.0424841270240494 0.045101390735976 0.0472745400472226 0.0483232272313575 0.0490901723760347 0.0510086481113681 0.0213838898692889 0.0253401866764725 0.0255306819693794 0.0289129193490922 0.0359724757695912 0.0316536758948778 0.0324561452812549 0.0338439637072194 0.0372044805786839 0.038710978234298 0.032162978006467 0.026625229662518 0.0286817320698127 0.0278891820404687 0.0214547233005152 0.0222660078760984 0.0241479219319135 0.0228371786254262 0.0280850958679457 0.0337650885341225 0.0314580576728304 0.0386734658959949 0.0369707386202198 0.0323478071043964 0.0364116409771074 0.036246562558128 0.0382038633584863 0.0316492619284528 0.0214759293314026 0.0298651400782905 0.029600126554618 0.025446797599991 0.0207752578870064 0.0172109625905436 0.0134357922619301 0.015048690803486 0.00324279833332676 0.0102214718425119 0.00551969182973047 0.0104084551071261 0.00570833941472124 0.0022867031871927 0.00575009707726515 0.0144327138213436 0.0154343363851378 0.0180091306261159 0.0203492080845312 0.0186621123203133 0.0114327667989842 0.0145156019771772 0.0114664228282527 0.00233119792326908 0.00233114160651076 0.00571403510218665 0.00527143607805404 0.00188282896952005 0.00478014321146341 0.00815657618787323 0.0140497186385382 0.0117106795587317 0.0195946329921542 0.0263331597905276 0.0289794539015982 0.02775741041201 0.0232272000996022 0.0220677602431162 0.0233143763515337 0.0276001343137012 0.0285287310658754 0.0321965684285385 0.0346863246912738 0.0312977004575007 0.0346846771539875 0.0377574132904174 0.0377851287199778 0.0387674108030866 0.0324200497276639 0.0359438430187413 0.0360859434995706 0.0389881111232443 0.0349591557486328 0.0331801279722627 0.0364942136061412 0.038488569822352 0.0378652555767894 0.0317114567207801 0.0348407314722373 0.0327543885034867 0.027982032548903 0.02464497391987 0.0238078896817691 0.0298911324716466 0.0272387717867807 0.0233346462461015 0.0214924274056569 0.0170914679896836 0.0165495072609865 0.020421331701459 0.013050589182937 0.0139926017303049 0.0201130128580749 0.0151316177209891 0.0126661414099406 0.0063425034111248 0.00498589733436613 0.00311718787669428 0.00968150952165868 0.00805866828590556 0.00921677748493167 0.00187402345487133 0.00194658800946839 0.00381808409510967 0.00253524863134051 0.00603949221634508 0.00545523657818556 0.01532356668744 0.0116155249242912 0.020178573806331 0.0199480635483862 0.0118627926730733 0.0144919360171615 0.0155609999780268 0.00763546386772687 0.0079943150207836 0.00424358040215357 0.00388143345899749 0.00171282894178575 0.00217173454165357 0.00517967136107172 0.00967408134971124 0.0104178170650758 0.00495708741006986 0.00539817485905876 0.00239366932158647 0.0105820931486586 0.00963383744899664 0.0122435042847739 0.0172194018632616 0.0189639166623149 0.012680768262457 0.0190556687687136 0.0161926981386023 0.0172481849226171 0.0217085785512162 0.0242234315005613 0.0285445105393991 0.0296557091667307 0.0226462933377154 0.0261716631848982 0.0235093229469344 0.0247771146735237 0.0303742286612224 0.0289925518950239 0.0266274695438806 0.0330859843067357 0.0364378358173919 0.037905720622564 0.0385016109257004 0.036025277736871 0.0358869367892635 0.0386111364987872 0.0316068985662583 0.0328212492592405 0.035223518088795 0.0308728752676656 0.0376245213895817 0.0360691416811883 0.0390594200115974 0.0364595608222823 0.0330643599929878 0.0329911357506254 0.0297833382222137 0.0223615983759604 0.0254883212744828 0.0256190550782553 0.022774481429478 0.021371991827501 0.0298316830517715 0.0280702930371612 0.0199790914711126 0.0127382548831974 0.014710073199761 0.0121269747255243 0.0166213546862179 0.0187453644249215 0.0165910753776621 0.0158137547276565 0.0115659143476891 0.0122564566256482 0.00845907572602037 0.00190885764538624 0.00447428738313528 0.00257045712787102 0.00615787430106582 0.00884164043620471 0.00485977795830066 0.00295607971187336 0.00321685402518669 0.00548776239812784 0.0101893205657458 0.00228090704932515 0.00574761606299845 0.0057001428735923 0.0104003594850105 0.0155130521543751 0.0145345649356831 0.0182801533583997 0.0178555902467556 0.0206085196326686 0.0151465558807955 0.0138904516415712 0.00815675261274548 0.00188286725660869 0.00478024790923635 0.00527154215750262 0.00571413482318002 0.00233118479759317 0.00233124122530609 0.0114427120556372 0.020426783994036 0.0186988034313901 0.0210845531789812 0.0144946089649423 0.0114115575762896 0.0117109092294776 0.0195953851256455 0.0140501574685649 0.0292226804280354 0.0259053169403345 0.0214404504541751 0.0273723645717797 0.0252860197195002 0.0218430929058724 0.0260247633495478 0.0285849701486967 0.032117908118508 0.0376775208737695 0.0379615458218808 0.0342191916612887 0.0332881011759383 0.0322890274925038 0.0364919288613598 0.0288965527160513 0.0279784302622249 0.0306362405278222 0.0228416959094946 0.0251763249515058 0.0218214624099712 0.0229431780579917 0.0240896540459328 0.0280382946463325 0.0324262727082501 0.0319170330746213 0.0343930654665426 0.0389431668191876 0.0358283605681015 0.0347388812798023 0.0372883938735362 0.0426746844193263 0.0407066862811484 0.0449697380916484 0.0444363103089465 0.0461377861078631 0.0412672452200105 0.0428597256782499 0.0398203602303222 0.0451384036774027 0.0479146412467698 0.0482029711468782 0.050164693734983 0.0501112307372926 0.0500825164680042 0.0487681296430247 0.0483589570076413 0.0455111669641056 0.042737007952812 0.0402010686009217 0.0434838141865644 0.0407279702417213 0.0441335679383697 0.046626778139198 0.0477266092870536 0.0496994483018185 0.0510776100516773 0.0461691676821106 0.0468540087489561 0.0490744480579453 0.0507488073467818 0.0510460080663923 0.0492925791352735 0.0474626303748732 0.0542114477760911 0.0520336646076247 0.0534244272205681 0.0539489741353995 0.0529613473566739 0.053129790667136 0.0550608510536129 0.0552660719507731 0.0555362888296287 0.0549407757590393 0.0552551615637396 0.0555294973414229 0.0555351735348875 0.0553584406179314 0.0550025535702261 0.053669621754587 0.054020550077488 0.0530917663835794 0.0516594303224689 0.0519002762763334 0.0517177026014933 0.0542378489187288 0.0532275318600134 0.054201590063177 0.0548732616804109 0.055414722082469 0.0553334892662746 0.0555002091708108 0.055413301614934 0.0550052209578079 0.0546721420394159 0.0548522382955624 0.0554969781814974 0.055277410225021 0.0552921230123989 0.0555028805912387 0.0555174532188391 0.0548287925764289 0.0547653619196573 0.0539491714616978 0.0513401715086479 0.0530323527510996 0.0520461453692796 0.0518497590751136 0.0540072268924519 0.0531949314009743 0.0543025774754698 0.0537013336581877 0.0550894294911327 0.0552203648298234 0.0554176671543057 0.0554573608588122 0.0554222355421956 0.0552188692455014 0.0554363649028262 0.0552188714472645 0.0551949418389463 0.0544228846844039 0.0544508966681003 0.0539332405500332 0.0526799556838995 0.0516634478992963 0.0516209603271841 0.0543268960683228 0.0537297294060015 0.0521482530478999 0.050527840671558 0.0505856377835611 0.0480847315245335 0.0499024568491328 0.0500241419629961 0.0462873329620889 0.0481023415922198 0.0478601499554588 0.0433892370794259 0.0418220761874373 0.0461128797845665 0.0461138735943063 0.0433545672674419 0.0417609787435265 0.0415893971849005 0.0425629882811079 0.0433656373969469 0.0448705847361784 0.0446169216576031 0.039360954962956 0.0427176761878557 0.0420038110524493 0.0412668155538342 0.0459768343958582