<?xml version="1.0"?>
<VTKFile type="UnstructuredGrid" version="0.1" byte_order="LittleEndian">
<UnstructuredGrid>
<Piece NumberOfPoints="568" NumberOfCells="1054">
<Points>
<DataArray type="Float64" NumberOfComponents="3" format="ascii">
0 0 0 0 0.050000000000208 0 0.0584335251122665 0.0584335251122145 0 0.0323698570487533 0.032369857048862 0 0.0499999999998997 0 0 0.0999999999998147 0 0 0.0944578555792846 0.0400584584694184 0 0.0980768456829153 0.0991724147309935 0 0.0400584584693195 0.0944578555791577 0 0 0.100000000000416 0 0 0.150000000000624 0 0.0548726927265955 0.134106856398452 0 0.0388399996009313 0.179498259931901 0 0 0.200000000000832 0 0.0564522287083799 0.234565808376616 0 0.0996947712122641 0.22074048840547 0 0.0828750765696809 0.178818634882983 0 0.0896897021915411 0.138513804586622 0 0.122947659685672 0.148251464161954 0 0.169013160068682 0.168002193866631 0 0.125875177082847 0.188968332266695 0 0.158996951633215 0.227836749122277 0 0.205967211350529 0.199725178953962 0 0.211554843187388 0.241744476774187 0 0.189220110521158 0.126442066536112 0 0.22626394058332 0.154659468198381 0 0.217206150464847 0.104439454835129 0 0.148476056588621 0.112220907400452 0 0.181725902897582 0.0816119740612928 0 0.180351590178421 0.0391903365350905 0 0.138357444660799 0.0589959339188492 0 0.149999999999704 0 0 0.199999999999558 0 0 0.231674603334463 0.0553437746953104 0 0.249999999999412 0 0 0.299999999999266 0 0 0.283208049853001 0.0508433390825056 0 0.257146194987713 0.10413999068455 0 0.295063395037039 0.101138089243444 0 0.322427311917699 0.0689379334381408 0 0.330767006442793 0.119592255048115 0 0.355822585194142 0.0854187642572584 0 0.362462430895343 0.0442183666074772 0 0.323619558532886 0.0327999278256247 0 0.349999999999121 0 0 0.399999999998975 0 0 0.406855818272412 0.0411398773125117 0 0.449999999998829 0 0 0.499999999998694 0 0 0.484924330582892 0.0373213982762724 0 0.446927950142653 0.0518018776450602 0 0.475746624217828 0.077626823840591 0 0.46567857652706 0.114368061527523 0 0.43122735573934 0.0881769991929174 0 0.390616286406845 0.0815251031619917 0 0.375161719606839 0.121918126660369 0 0.397289240071895 0.165639932095022 0 0.432407360090089 0.182056809654028 0 0.41732862935313 0.129866986343623 0 0.459520018388269 0.156664873305243 0 0.462293308810443 0.198909164566548 0 0.499999999999971 0.219686411149829 0 0.42421838472614 0.222465020057878 0 0.381034256806799 0.204783951629704 0 0.331796839804983 0.222301993972031 0 0.360307484821635 0.154014700871105 0 0.330801675951106 0.181791113002693 0 0.299142716792971 0.156496209701207 0 0.263189497696013 0.146101733972573 0 0.260171965190135 0.20370391303005 0 0.301079690692898 0.202800200091412 0 0.288402851022681 0.249609553207088 0 0.25082138072345 0.257700107422368 0 0.297479491180417 0.296411157380844 0 0.260144435522079 0.292623904436535 0 0.284738052361283 0.343557681186738 0 0.323103257015693 0.32141443408924 0 0.348047572662274 0.35750068079406 0 0.354814354583093 0.30398436674999 0 0.323736926270502 0.27286413781594 0 0.357962884673884 0.256835227867104 0 0.401804626289837 0.256190339758575 0 0.391620987711813 0.295036992928546 0 0.430594867953342 0.303959734190635 0 0.455331360217251 0.252568731208715 0 0.483788712280009 0.297451778269774 0 0.472532117365031 0.340817108308049 0 0.49854341599768 0.370759147681271 0 0.43301393728221 0.359843205574921 0 0.391208871887456 0.334075776884043 0 0.392220576577811 0.380677966902274 0 0.394198866753185 0.419122252400708 0 0.429308231064016 0.40626685012723 0 0.465432111282168 0.387884235436819 0 0.461024257085337 0.432541991343326 0 0.461527143457989 0.473443594123526 0 0.410095980695696 0.490839357492854 0 0.423403423371937 0.447621318748554 0 0.377023860747173 0.458194175644768 0 0.334364244893045 0.478496031217408 0 0.333826635273302 0.441301250475035 0 0.354814223971285 0.403129814650693 0 0.296304338697064 0.429832022968145 0 0.305976555003817 0.393468168521193 0 0.255826059367993 0.395079699895134 0 0.262475847345986 0.447649432958947 0 0.299886550525317 0.467007278275931 0 0.262418491288269 0.490719222921541 0 0.232324767024371 0.466345253695677 0 0.192181271644967 0.465938389648695 0 0.160013142023585 0.497717270559093 0 0.144484766221814 0.453538915812712 0 0.178457744828726 0.430871172570494 0 0.148695787718589 0.404814523960821 0 0.197169318452384 0.387030152393625 0 0.219688017838559 0.433067836400238 0 0.222695530956879 0.358374234325388 0 0.19152147653881 0.327918797702154 0 0.236041954047958 0.321918283269407 0 0.220015181768822 0.28602682846308 0 0.168537671773945 0.272324831592801 0 0.143922094947914 0.306200702035457 0 0.154014700871176 0.360307484821747 0 0.0732967881614181 0.342269570898506 0 0.116034002194931 0.33748134585014 0 0.0994921194810273 0.307463985332816 0 0.110477540413226 0.263117535981694 0 0.0537301716876466 0.288250771898286 0 0 0.25000000000104 0 0 0.300000000001248 0 0.032220921767547 0.329014892144875 0 0.0334576460409223 0.363648423312284 0 0 0.350000000001456 0 0 0.400000000001664 0 0.060530514380151 0.395146264289728 0 0.10935320311386 0.378391909217271 0 0.0971009795772073 0.435906739990532 0 0.109199274598136 0.487580697080498 0 0.0648933318035348 0.486697770604545 0 0.0436128036610927 0.440061111828404 0 0 0.450000000001872 0 0.0294449071642091 0.475000000001966 0 0 0.500000000002059 0 0.0373213982762153 0.515075669417473 0 0.0518018776450837 0.553072049857452 0 0 0.550000000001734 0 0 0.600000000001387 0 0.0411398773124836 0.59314418172763 0 0.0881769991928987 0.568772644260674 0 0.0815251031619976 0.609383713593151 0 0.121918126660357 0.624838280393159 0 0.114368061527482 0.534321423472927 0 0.0776268238405584 0.524253375782261 0 0.156664873305197 0.540479981611742 0 0.219686411149827 0.500000000000032 0 0.19896328510056 0.537691476689505 0 0.222487080058139 0.575775413711342 0 0.204783951629683 0.618965743193203 0 0.165639932094979 0.602710759928095 0 0.182056809653986 0.567592639909897 0 0.129866986343594 0.582671370646846 0 0.154014700871098 0.63969251517837 0 0.181791113002692 0.669198324048887 0 0.222301993972028 0.668203160195032 0 0.202800200091414 0.698920309307116 0 0.249609553207091 0.711597148977329 0 0.203703913030074 0.739828034809895 0 0.156496209701235 0.70085728320704 0 0.13725179499973 0.741546289628566 0 0.0910728127967196 0.741988048646878 0 0.0990187225489634 0.704756315583652 0 0.119592255048131 0.669232993557228 0 0.0854187642572582 0.644177414805869 0 0.0689379334381628 0.677572688082311 0 0.0323578435067225 0.676600401985782 0 0.0442183666074753 0.637537569104702 0 0 0.65000000000104 0 0 0.700000000000693 0 0.0486329174879745 0.717891752740162 0 0 0.750000000000347 0 0 0.8 0 0.0529380014213358 0.776889771183312 0 0.112316928024456 0.78020430794084 0 0.0868130391934314 0.817095740868429 0 0.122947659685717 0.851748535838097 0 0.0870417061194161 0.853827995089262 0 0.0524690331668437 0.86696410734367 0 0.043889462445438 0.826759239819513 0 0 0.849999999999653 0 0 0.899999999999584 0 0.0400584584693226 0.905542144420798 0 0 0.949999999999792 0 0.0304524096104897 0.96954759038951 0 0 1 0 0.050000000000208 1 0 0.0584335251122541 0.941566474887746 0 0.100000000000416 1 0 0.0944578555791882 0.959941541530687 0 0.0979909576452082 0.900450397208809 0 0.146882743185419 0.889622656308119 0 0.181725902897639 0.918388025938889 0 0.138347219894628 0.94095916274078 0 0.150000000000624 1 0 0.18045991219398 0.960710939969875 0 0.200000000000832 1 0 0.232226438176177 0.944207511169706 0 0.18958721034944 0.876602973603946 0 0.221311393310948 0.904144943719832 0 0.228939290247373 0.839908789927278 0 0.132261503269228 0.813060330014371 0 0.171018735363 0.828981264636961 0 0.16253691950235 0.782849122627686 0 0.203590747653644 0.794224894178719 0 0.243358441913473 0.786511897933875 0 0.286026828463086 0.779984818231176 0 0.321918283269405 0.763958045952046 0 0.358374234325384 0.777304469043123 0 0.327918797702134 0.808478523461202 0 0.360307484821742 0.845985299128825 0 0.306195311694726 0.85607519768343 0 0.272549978320415 0.831201948690144 0 0.263054145574704 0.889490620931362 0 0.307381363266577 0.90051880305435 0 0.25000000000104 1 0 0.300000000001248 1 0 0.287907520382944 0.946359528487026 0 0.32894624184181 0.967797018267389 0 0.350000000001456 1 0 0.363638616126136 0.966544916821213 0 0.342269570898513 0.926703211838588 0 0.337480267781999 0.883965456331347 0 0.378391909217271 0.890646796886144 0 0.435906739990533 0.902899020422797 0 0.395146264289732 0.939469485619852 0 0.400000000001664 1 0 0.44006111182841 0.956387196338908 0 0.450000000001872 1 0 0.475000000001966 0.970555092835793 0 0.486697770604543 0.935106668196466 0 0.487580697080494 0.890800725401865 0 0.497717270559088 0.839986857976418 0 0.453538915812708 0.855515233778189 0 0.404814523960818 0.851304212281416 0 0.43087117257049 0.821542255171277 0 0.387030152393619 0.80283068154762 0 0.433067836400233 0.780311982161444 0 0.466346121879671 0.767675855240614 0 0.465938389648691 0.807818728355036 0 0.490731134405986 0.737590046187304 0 0.447649432958942 0.737524152654017 0 0.467368917376544 0.70015537930375 0 0.478187521339629 0.664544629052809 0 0.455174570318146 0.627431000796044 0 0.443459173594296 0.666416406225512 0 0.405647175079827 0.65626423320525 0 0.386423584673078 0.692862589235973 0 0.427155383338081 0.700777593753079 0 0.395079699895129 0.74417394063201 0 0.342702801024459 0.716724167620359 0 0.292551210545191 0.739979902911732 0 0.257700107422386 0.749178619276552 0 0.296411157380843 0.702520508819589 0 0.273496567448602 0.675817419964087 0 0.256845292557732 0.642035542479631 0 0.304216353843215 0.645149391934367 0 0.322598530820738 0.676700726098352 0 0.35944937237717 0.651647898084363 0 0.371046512961454 0.605451707483111 0 0.359843205574921 0.566986062717789 0 0.332314974080817 0.607792187328737 0 0.295036992928544 0.608379012288189 0 0.256190339758569 0.598195373710169 0 0.304297406799597 0.569139051464601 0 0.252871394412626 0.544583554344924 0 0.302927660481639 0.51
[...]
<CellData Scalars="pressure_p0," Vectors="velocity_p0," Tensors="">
<DataArray type="Float64" Name="pressure_p0" format="ascii">
0.00798854067774172 0.0202818757314487 0.0223657985072515 0.0346077672505928 0.0596160569767162 0.0831495102809476 0.0496869141669976 0.0481482348241301 0.061230701979244 0.0800513539566687 0.08892868751737 0.0592506368193843 0.0472887363273068 0.0242424497590469 0.00989100626788462 0.00989214107635845 0.0230935579731313 0.0233784351735342 0.0433632586008583 0.00959251545237904 0.013924188643016 0.0437347479178028 0.0234729187350625 0.058390303471029 0.0649224407031531 0.0887921090399599 0.0748161289035387 0.0802219309879734 0.055636097723217 0.0718034088623366 0.0753617199523688 0.104874044210346 0.11926051972156 0.0998683587544988 0.0923320112519574 0.107836345376873 0.126056479900376 0.124992166818653 0.133722205263817 0.161756751814608 0.153481126428521 0.156237560544192 0.166614491354656 0.138684828341214 0.135334856721068 0.144983601091257 0.16609795834426 0.157866498528973 0.158845744064364 0.144541785319303 0.136197929304 0.12199618545519 0.0924226750149115 0.111042669337616 0.117893556955022 0.0919285145151508 0.111036049180224 0.124166879478161 0.137222238849883 0.140846532820344 0.154281711683902 0.180468295723798 0.191559018075878 0.194751093415409 0.169184181941687 0.18089607242989 0.170439995733648 0.177689774257728 0.19071250395216 0.205194480802175 0.197406855911032 0.217405815937232 0.211221869094634 0.208899412170131 0.216184631387461 0.205066241322609 0.200614213067001 0.208316383699178 0.216429493621052 0.221580697428343 0.220878841026143 0.229788197497543 0.230676632849782 0.227951561191043 0.233814391849344 0.235019262993618 0.234609068615845 0.235611743137953 0.233535795462436 0.232910833298453 0.235353069005593 0.23115030878327 0.226949737152404 0.226281880314974 0.222807219396471 0.218476169878603 0.223356931413732 0.218983534267575 0.224880863375671 0.22747205918698 0.230943626315113 0.232337287764744 0.234940085024671 0.235531071616343 0.234939630354178 0.232937745639626 0.231413588581386 0.235517764371795 0.234794842983414 0.235409321495032 0.232414678011294 0.229471347830641 0.22673689801723 0.219182113671541 0.224646804222785 0.212193401968687 0.196778823735038 0.199445000145031 0.209182142374478 0.212353154353774 0.211709603684101 0.206712437374861 0.199022600223115 0.195019347693844 0.194202570903227 0.184348932757013 0.178836717434302 0.18311553187506 0.184749610407836 0.193646047873789 0.175065561903445 0.175115848327007 0.192092327216985 0.182647530727718 0.182070722805103 0.171988350998897 0.168820289028501 0.191482459021442 0.198317733305269 0.207228380669991 0.195934079554822 0.214676896538449 0.215767299569219 0.204341469014686 0.196937911476042 0.20572338907593 0.208461785990686 0.220122088919954 0.218948673497018 0.225157276267235 0.225867183746343 0.229747415333996 0.235227091840063 0.233383654894873 0.233920492721071 0.232176996533347 0.235490740034109 0.235618579159895 0.235202217734472 0.233570436673404 0.227893936671525 0.225333963498586 0.218296620424796 0.219306246110604 0.225370657956371 0.217847596999208 0.22750955385978 0.227944288066236 0.231882707656871 0.235592797291311 0.235552227031028 0.235057933534148 0.231253470071528 0.233021081225017 0.232629232581027 0.235023798113875 0.23555139775301 0.234739118716102 0.231626307804866 0.230191064178889 0.224873536707201 0.22369675425992 0.219541317479704 0.212124054230012 0.200142595416325 0.209500294055766 0.211714370443071 0.214789906128482 0.205131482242683 0.203402651684997 0.19577168807878 0.184338573568537 0.182504053607922 0.177546867975575 0.179264681526748 0.168014714280956 0.195024342674786 0.184598137736741 0.19596771427067 0.185550708097187 0.160405008389192 0.160415927470721 0.147264212211834 0.136638186524012 0.147259316724041 0.13282611526085 0.117131974170496 0.0989425472509784 0.121072041730658 0.11175227584297 0.122980001653588 0.0936507134378435 0.0985679972641389 0.117792046602243 0.137581704506509 0.16452025735168 0.153128098283328 0.152531808489931 0.140798675229153 0.148344848506528 0.165424138139541 0.160676482249656 0.154494212439662 0.163322947624846 0.138555428974485 0.134511189257757 0.147843145824022 0.11868340976681 0.104274384935471 0.100961170982368 0.0990210897680051 0.115587615034479 0.126843893150208 0.0912053274768797 0.0725297692563453 0.0593801455428833 0.0554065171258497 0.0702321477169771 0.0866607923258465 0.0853441809135356 0.053928385611768 0.0642287372298489 0.0271016765697399 0.0132514004272753 0.0211859037416532 0.00795745853364899 0.0391396733396663 0.0342034786902679 0.0410859843565848 0.0162080188695727 0.00826151142779393 0.0107591818191756 0.0256303305615957 0.0231511981000132 0.0650290393850394 0.0856321468127489 0.0492938748475187 0.0503438400197244 0.0846554971684071 0.0614215059854223 0.0660380761739913 0.0324008803616936 0.0339268326436235 0.0180092969119524 0.00726906576209536 0.0164694321793051 0.00921374648400496 0.040953668880283 0.0441275503069745 0.0219618915494747 0.0101583722449271 0.0228930455484258 0.0210431171023904 0.0409915204732434 0.0444325302387032 0.0516030310888625 0.0805987165481655 0.0727270605799483 0.0804175974713648 0.0681853020138504 0.0532597607956336 0.0731151176329084 0.092123298508656 0.102796452033662 0.0961011830656873 0.125862978134485 0.1211466651031 0.13414380238203 0.163991518044706 0.152338885621428 0.152930541024694 0.139300747280747 0.140418583108772 0.163435624775457 0.160873007665917 0.154644815786189 0.128907010032472 0.123042367368043 0.113004377116977 0.111068497920253 0.099787300817011 0.105167116160237 0.0949124458314689 0.108720274245274 0.108166427886291 0.126397127246936 0.140322121683137 0.154734525038547 0.165866958930942 0.140008753752884 0.149477885787429 0.131018974729473 0.153068248240992 0.159662926279922 0.117202270105825 0.126600445594759 0.0902036507902226 0.0941720783323511 0.0792049609052116 0.0582902762361128 0.0472266631537652 0.0530048838730315 0.0699031515571878 0.079163754355213 0.0702502278392523 0.0486747479886604 0.0517104279250519 0.0666988719268087 0.035796551919544 0.0109153750543196 0.0188869167147552 0.00799214405326757 0.0199707800041385 0.0368703781712444 0.0250120041733542 0.012002243013188 0.0130632771324552 0.0238545920484081 0.045057637456316 0.0624840622950586 0.0822979838773927 0.0801759825657782 0.0614782134170126 0.0532842855467282 0.0721118677946235 0.0826243849832137 0.0747242356588364 0.0580190393332355 0.0237440352135139 0.0450112444402992 0.0108376051184002 0.022788248242286 0.00989188362200457 0.0242430857972116 0.00989102302160548 0.0218943412391439 0.019812861398448 0.00751527093591208 0.0341413031804165 0.0496900215259885 0.0596199846936263 0.0831559848429914 0.0800337829436324 0.0481292859867642 0.0612131844808244 0.0466862852528311 0.0885418732374171 0.121761719321954 0.110711035712341 0.0920491876379094 0.0919338345443767 0.124204029604217 0.111067880819894 0.117924672491197 0.140994093924931 0.137361138547012 0.154418955766567 0.16076978869703 0.145456914233122 0.137125829718964 0.160172999020206 0.165780362350668 0.139208373611067 0.146372485794344 0.136368541467761 0.119425284618062 0.104949273276796 0.101758509210827 0.125754989233037 0.110515641951676 0.097475525704489 0.0985593532242072 0.118502531021137 0.132441108157282 0.14847479056186 0.153284512066244 0.158530729019539 0.173022634106289 0.18108844920195 0.175429550892647 0.195784465077927 0.188599538942385 0.190825590176667 0.206891399842067 0.212525111726714 0.205207046549626 0.203327702094093 0.212649295075372 0.212880534797876 0.204552745774066 0.191576571345264 0.181896422335419 0.169197025040328 0.187259594868456 0.184452987284943 0.172368092170907 0.17014075146317 0.181315775743487 0.193082100929805 0.198778707586525 0.20141234002159 0.216625370176568 0.209176011723447 0.215362308078471 0.208248248870355 0.216758345010008 0.195866879936838 0.197852824410427 0.202524735771327 0.21090808164379 0.225466588336683 0.228945249075138 0.224752883298818 0.220816425251565 0.23005993600496 0.226719664973616 0.234490092320419 0.23341768546269 0.234929278283468 0.235681031130489 0.235656166734602 0.234536658719119 0.235685360463159 0.233155457248272 0.233664490046419 0.235167270173834 0.234821430567029 0.232865558455828 0.230169827005202 0.219471564697284 0.220244032686761 0.23001448212102 0.225877078391493 0.227744587882455 0.225288328898584 0.219218370575854 0.229196640677474 0.232706173974707 0.233388063148509 0.232003775822308 0.23553220322965 0.235139090168685 0.235480555822984 0.23449957937527 0.234495694431385 0.232461313121943 0.232324848673994 0.2355487551943 0.235473250948292 0.23526706562341 0.233737602342332 0.234133215775759 0.229347961280805 0.225669830351722 0.228601937045317 0.230737108444708 0.221774023782554 0.220199639067527 0.224842939598279 0.228834478017794 0.214869943398599 0.217669467839135 0.199218419852478 0.198544558857996 0.195034399996272 0.175114185936328 0.178351127142181 0.181273757792566 0.190721158643841 0.189601816960031 0.167153624349026 0.180770502670771 0.184076520581373 0.20353770306583 0.202413034968842 0.207152184666177 0.214205756339683 0.211396555028331 0.211484539478057 0.203586186126058 0.195169380983885 0.195158315645442 0.17650738094368 0.177308374109389 0.184038969231443 0.184674341494974 0.178102992979865 0.203105605672501 0.203449625976386 0.196122061559888 0.203508618210962 0.209954728788999 0.217085200425642 0.221533880233576 0.228354281025941 0.227113689336462 0.229891052186647 0.221305867016948 0.218757064120428 0.218822408899333 0.222829128691559 0.231073082484687 0.228353091417472 0.23010063024085 0.234302203370682 0.235347138770088 0.234927685665185 0.23337497696593 0.233435458890931 0.235099860349879 0.23466632402531 0.232446938693334 0.231465570097529 0.235632380292761 0.235238562446076 0.235673783960567 0.235466240963286 0.23171202899909 0.233080090047395 0.22747681942888 0.223688199985154 0.225015771015117 0.226425714115088 0.228221823030222 0.229239340200328 0.219189116178522 0.221607403526443 0.212348493441099 0.203078074653565 0.19852390237692 0.185268944105913 0.17947138178437 0.167838057059321 0.195804012568321 0.185334350395229 0.1780072536968 0.182731097817645 0.184970171699355 0.20413830563596 0.197810959841423 0.201426080649758 0.216718269612629 0.211226670504139 0.213354946332701 0.214734540625306 0.207269761168214 0.198349346345414 0.196137706053772 0.168871880828458 0.172038781212122 0.191526585131168 0.182119089771814 0.175155393612728 0.192135850016162 0.182687779994957 0.205773747311045 0.196981435019031 0.204389096189993 0.215824872961313 0.208513465852233 0.220178727891749 0.229722326100273 0.225852355440645 0.225160530238698 0.21901589305915 0.2179123225217 0.225112436145777 0.228002673822147 0.231726434821926 0.233945370869107 0.233854734509868 0.235756914395413 0.235190885311264 0.233674266678196 0.233385380950532 0.235283920905636 0.235479360029242 0.234857776138295 0.23557872036456 0.231473121916173 0.232470001033339 0.229515078741451 0.219236458801709 0.224698806489928 0.226795081903742 0.22753504965939 0.224940813155001 0.219043412855441 0.223421437852226 0.218539339970687 0.231007074038797 0.232402189349411 0.232998796842437 0.235000698086285 0.235002973376252 0.235593544911306 0.23541758818641 0.231216745329957 0.232979009351988 0.233602376508272 0.235678248068565 0.234677640450474 0.23508866027096 0.233884265078929 0.229857780600724 0.228022092959164 0.230746867993559 0.22165120287501 0.220948520857183 0.226351477394075 0.227017811373501 0.222874497151465 0.211290229104652 0.217474128867543 0.197502951023639 0.205266031319366 0.208968365840097 0.216253465555988 0.208358618782703 0.216500222190416 0.200652738269999 0.205103324482283 0.194624266282048 0.191429213157836 0.180320957748438 0.167481864386025 0.168914223564677 0.180937254230027 0.190655448445238 0.177148809702224 0.178070334984063 0.195064426360989 0.194280492879061 0.183656556062238 0.199076684168728 0.206772233191803 0.211774327843219 0.212410705913372 0.199493046661764 0.209235377886514 0.212246037155084 0.196825057273523 0.19369147467489 0.183155976628813 0.184785555615406 0.17510670615337 0.162152192794447 0.153844826891488 0.154545362849793 0.134332652595741 0.126760107250229 0.0911543789064351 0.108008177236522 0.125635911009469 0.0969327320104318 0.102496366340298 0.119206804763384 0.133521841599287 0.143313650623349 0.137297756046452 0.164145077757482 0.156918748442708 0.164305149451111 0.136514687524321 0.143649371935654 0.157911970336034 0.152684019518598 0.134353578092651 0.137759695372487 0.122721594761429 0.0907663957004085 0.108366586687925 0.10755797587636 0.0910665863835557 0.118376715757891 0.121739831422085 0.113012104776866 0.0945098497198904 0.0863738558200662 0.0486707207601265 0.0616136682639778 0.0485281331678425 0.0792137648177996 0.0831725342645601 0.059636491045474 0.0497079813687394 0.034622027917038 0.0202901512828035 0.00799199082145418 0.0223755252860845 0.00989488497280864 0.0242542275472368 0.00989508278440117 0.00970603635001354 0.0441795660943758 0.0242295824246919 0.0244069852657605 0.0612612360956289 0.0655127667088444 0.0764411989682282 0.057028569370695 0.0730528242521617 0.0881800789882616 0.0638738750746617 0.0433853948200176 0.0234284018664903 0.0137640149083366 0.0132305902746879 0.0269204384748218 0.0211619017306605 0.0079539346001704 0.0162049401991903 0.00826171718451199 0.0410903258420415 0.0342030872179052 0.0391189952120852 0.0553912914197724 0.0593872120895018 0.0725402588485024 0.0702411981605355 0.0866748841770372 0.0853672779073432 0.0642247330385243 0.0537607921048461 0.104604094723866 0.101049956765323 0.11876487361169 0.139022423930915 0.154895560585959 0.163359002432006 0.160712003375635 0.134593997589952 0.147874188651007 0.148374670224501 0.165473393272418 0.140822250677398 0.126863367164561 0.115608513031093 0.0990386971133615 0.0912184127104022 0.0985794027324632 0.0936547775552255 0.111756674223728 0.122989360888742 0.117805385367897 0.15315242572123 0.152546376844139 0.164526351291478 0.137590279564919 0.147203486910786 0.136638998203533 0.160354709738177 0.160232181675779 0.132819818610288 0.147193925459961 0.11712996417803 0.12107267945343 0.0989418459063394 0.0660389967439338 0.0615009336189294 0.0503452704405134 0.0846572884057935 0.0856391028746974 0.0650345440085617 0.0492968608205355 0.0256321612565984 0.023152928865637 0.0107597033023728 0.0180096493503926 0.0339274002237831 0.0324037941001016 0.0164721660300057 0.00726908493171787 0.00921626926626355 0.0219807363018456 0.0410538378483092 0.0442110044407896 0.0731968064050982 0.0808636022021301 0.0687157923647595 0.0538122366537464 0.051954796243368 0.0730699200655541 0.0804714472960551 0.040879923600766 0.0449053634068766 0.0229073070854948 0.0101574613264401 0.021034772384804 0.0189853040756185 0.0109072124893337 0.0358932450122373 0.00809949932756969 0.0206201639843902 0.0125424660757088 0.0261269698116193 0.0375156055633084 0.0540486995360158 0.0624138399689364 0.0514531045871757 0.0847690577174387 0.0703972261405656 0.0671004366875781 0.0520079339674141 0.0490765748686952 0.0795411817531829 0.0705299005276476 0.0948856615456458 0.126376995351405 0.108703491317018 0.108151085854172 0.090681906048915 0.0966306169962221 0.119099219630565 0.126576492680339 0.14945072232199 0.130991725506065 0.159636260244845 0.153041152264045 0.165729435426339 0.139982934786792 0.14029715937358 0.15470427308951 0.160843837867506 0.154618531417774 0.163379263747409 0.140397171444632 0.128889464551547 0.123024238580626 0.0997594112931517 0.105137384465209 0.111059923916252 0.112992144240057 0.125845769573681 0.0961011246279318 0.0921256916665262 0.102796314545631 0.12113297972708 0.134129643750221 0.139277088590162 0.15287392777126 0.163851576648946 0.15228992350623 0.177476651280652 0.184123475877565 0.177210267881381 0.176474763416825 0.19567678379196 0.195668168203723 0.183968915605088 0.204042018045391 0.21465199301607 0.214401819845431 0.212277294819578 0.196421708566995 0.204120832825408 0.203099234787553 0.211764610679678 0.219057757564829 0.219231725339785 0.223547726733941 0.231059775242713 0.228866222463618 0.230948095574519 0.234225205407428 0.235246563613809 0.234319460971138 0.235179178041492 0.235321041246701 0.234311924172943 0.230526142890698 0.227995624107329 0.221285259741154 0.220842031822375 0.220003764397222 0.229157816486856 0.22570937594696 0.230415389949834 0.227867304133799 0.233753895696648 0.235148713631468 0.234305369701919 0.232372623482953 0.23263781314475 0.235502080748716 0.235560073255188 0.234601924567469 0.23453613497003 0.228903031807199 0.217833074793508 0.225014647813641 0.214885702651486 0.198578312227 0.199107747534066 0.214189567753113 0.203756475555387 0.201948407164772 0.206810350329716 0.189310509749008 0.190389398183372 0.184008875251207 0.180599220765857 0.167011684449435 0.178221357442983 0.181248235491297 0.195076760364745 0.175090442892007 0.172709420225267 0.18106134886919 0.190798382292936 0.188530073513405 0.195751109433154 0.175084937844165 0.168941833960604 0.181837055977783 0.191506903493975 0.20328577192108 0.204507650756608 0.212830420142023 0.212606742202791 0.212486667346293 0.205174577183577 0.206914914828648 0.225258137989053 0.219180329150864 0.227707174970826 0.229202127261193 0.232729933650028 0.235465784401739 0.235473950102882 0.235107635581425 0.231960874790446 0.23337609641087 0.232811868558263 0.234764069109658 0.23510677011032 0.230112845643654 0.229960660771608 0.22582885509981 0.220196338631323 0.219419963987802 0.22469513588636 0.228885325418774 0.225410714073183 0.233604110897727 0.23447389976226 0.235620744473 0.233093177199136 0.23442631036922 0.235590031582961 0.235613483048124 0.234863448735925 0.233354145769465 0.229998254799211 0.226659531036474 0.220758724468598 0.216568152622035 0.209128288074797 0.201364209659768 0.198782012056107 0.208202811580259 0.215306946443765 0.216702354144173 0.210855563495204 0.202485215509371 0.197819265723913 0.195876809540852 0.184483065087577 0.187240683212152 0.172789769904552 0.170554320292336 0.193084635444866 0.181314169974476 0.154817106846237 0.136985381753219 0.141224211325712 0.123976205608165 0.109901930896079 0.09095951078153 0.116125987707656 0.107274613852159 0.0926687776009179 0.110409356134033 0.121271469100865 0.136259935194957 0.145174297136673 0.161052155054278 0.159848511112739 0.145913802607745 0.13541003547918 0.137572533081422 0.165222360212265 0.15200773066087 0.158207203756585 0.147388366122538 0.122598867531131 0.129982203778242 0.118707143691171 0.0969127554285863 0.106814807153943 0.092582074314916 0.0973387328120819 0.118953146270669 0.102201308865634 0.0616639713481179 0.0658143532202399 0.0775555987902696 0.0757553838355077 0.08743702022459 0.0642636177023788 0.0589332296621645 0.0432300261210726 0.0232829314459679 0.0136483594579271 0.00967704534265983 0.0441245481397962 0.0243842551422889 0.0241832573069472 0.00989024177187839 0.00988991619117657 0.0242417735912031 0.0485453839695816 0.0866607371472261 0.0894499873402381 0.079328316351005 0.0614922727283536 0.0484127998288157 0.0496824205559755 0.0831315875090547 0.0596063907226296 0.034604207082198 0.0223639926289507 0.0202797073941304 0.00798785583294512 
</DataArray>
<DataArray type="Float64" Name="velocity_p0" NumberOfComponents="3" format="ascii">