<?xml version="1.0"?>
<VTKFile type="UnstructuredGrid" version="0.1" byte_order="LittleEndian">
<UnstructuredGrid>
<Piece NumberOfPoints="3764" NumberOfCells="1271">
<Points>
<DataArray type="Float64" NumberOfComponents="3" format="ascii">
0.1000000000 0.0000000000 0.0000000000 0.1000000000 0.0204081633 0.0000000000 0.1000000000 0.0204081633 0.0000000000 0.1000000000 0.0408163265 0.0000000000 0.1000000000 0.0408163265 0.0000000000 0.1000000000 0.0612244898 0.0000000000 0.1000000000 0.0612244898 0.0000000000 0.1000000000 0.0816326531 0.0000000000 0.1000000000 0.0816326531 0.0000000000 0.1000000000 0.1020408163 0.0000000000 0.1000000000 0.1020408163 0.0000000000 0.1000000000 0.1224489796 0.0000000000 0.1000000000 0.1224489796 0.0000000000 0.1000000000 0.1428571429 0.0000000000 0.1000000000 0.1428571429 0.0000000000 0.1000000000 0.1632653061 0.0000000000 0.1000000000 0.1632653061 0.0000000000 0.1000000000 0.1836734694 0.0000000000 0.1000000000 0.1836734694 0.0000000000 0.1000000000 0.2040816327 0.0000000000 0.1000000000 0.2040816327 0.0000000000 0.1000000000 0.2244897959 0.0000000000 0.1000000000 0.2244897959 0.0000000000 0.1000000000 0.2448979592 0.0000000000 0.1000000000 0.2448979592 0.0000000000 0.1000000000 0.2653061224 0.0000000000 0.1000000000 0.2653061224 0.0000000000 0.1000000000 0.2857142857 0.0000000000 0.1000000000 0.2857142857 0.0000000000 0.1000000000 0.3061224490 0.0000000000 0.1000000000 0.3061224490 0.0000000000 0.1000000000 0.3265306122 0.0000000000 0.1000000000 0.3265306122 0.0000000000 0.1000000000 0.3469387755 0.0000000000 0.1000000000 0.3469387755 0.0000000000 0.1000000000 0.3673469388 0.0000000000 0.1000000000 0.3673469388 0.0000000000 0.1000000000 0.3877551020 0.0000000000 0.1000000000 0.3877551020 0.0000000000 0.1000000000 0.4081632653 0.0000000000 0.1000000000 0.4081632653 0.0000000000 0.1000000000 0.4285714286 0.0000000000 0.1000000000 0.4285714286 0.0000000000 0.1000000000 0.4489795918 0.0000000000 0.1000000000 0.4489795918 0.0000000000 0.1000000000 0.4693877551 0.0000000000 0.1000000000 0.4693877551 0.0000000000 0.1000000000 0.4897959184 0.0000000000 0.1000000000 0.4897959184 0.0000000000 0.1000000000 0.5102040816 0.0000000000 0.1000000000 0.5102040816 0.0000000000 0.1000000000 0.5306122449 0.0000000000 0.1000000000 0.5306122449 0.0000000000 0.1000000000 0.5510204082 0.0000000000 0.1000000000 0.5510204082 0.0000000000 0.1000000000 0.5714285714 0.0000000000 0.1000000000 0.5714285714 0.0000000000 0.1000000000 0.5918367347 0.0000000000 0.1000000000 0.5918367347 0.0000000000 0.1000000000 0.6122448980 0.0000000000 0.1000000000 0.6122448980 0.0000000000 0.1000000000 0.6326530612 0.0000000000 0.1000000000 0.6326530612 0.0000000000 0.1000000000 0.6530612245 0.0000000000 0.1000000000 0.6530612245 0.0000000000 0.1000000000 0.6734693878 0.0000000000 0.1000000000 0.6734693878 0.0000000000 0.1000000000 0.6938775510 0.0000000000 0.1000000000 0.6938775510 0.0000000000 0.1000000000 0.7142857143 0.0000000000 0.1000000000 0.7142857143 0.0000000000 0.1000000000 0.7346938776 0.0000000000 0.1000000000 0.7346938776 0.0000000000 0.1000000000 0.7551020408 0.0000000000 0.1000000000 0.7551020408 0.0000000000 0.1000000000 0.7755102041 0.0000000000 0.1000000000 0.7755102041 0.0000000000 0.1000000000 0.7959183673 0.0000000000 0.1000000000 0.7959183673 0.0000000000 0.1000000000 0.8163265306 0.0000000000 0.1000000000 0.8163265306 0.0000000000 0.1000000000 0.8367346939 0.0000000000 0.1000000000 0.8367346939 0.0000000000 0.1000000000 0.8571428571 0.0000000000 0.1000000000 0.8571428571 0.0000000000 0.1000000000 0.8775510204 0.0000000000 0.1000000000 0.8775510204 0.0000000000 0.1000000000 0.8979591837 0.0000000000 0.1000000000 0.8979591837 0.0000000000 0.1000000000 0.9183673469 0.0000000000 0.1000000000 0.9183673469 0.0000000000 0.1000000000 0.9387755102 0.0000000000 0.1000000000 0.9387755102 0.0000000000 0.1000000000 0.9591836735 0.0000000000 0.1000000000 0.9591836735 0.0000000000 0.1000000000 0.9795918367 0.0000000000 0.1000000000 0.9795918367 0.0000000000 0.1000000000 1.0000000000 0.0000000000 0.0500000000 0.5114756178 0.0000000000 0.0622815197 0.5312445519 0.0000000000 0.0375191417 0.5312592799 0.0000000000 0.0313354216 0.4639238697 0.0000000000 0.0240985166 0.4410528110 0.0000000000 0.0464826086 0.4547803401 0.0000000000 0.0000000000 0.9387755102 0.0000000000 0.0000000000 0.9183673469 0.0000000000 0.0194446262 0.9288128947 0.0000000000 0.1000000000 0.5306122449 0.0000000000 0.1000000000 0.5510204082 0.0000000000 0.0801219714 0.5416148681 0.0000000000 0.0000000000 0.5510204082 0.0000000000 0.0000000000 0.5306122449 0.0000000000 0.0196306482 0.5416826924 0.0000000000 0.0000000000 0.8571428571 0.0000000000 0.0000000000 0.8367346939 0.0000000000 0.0194790789 0.8466968164 0.0000000000 0.0000000000 0.7959183673 0.0000000000 0.0000000000 0.7755102041 0.0000000000 0.0225856308 0.7856795525 0.0000000000 0.0000000000 0.7346938776 0.0000000000 0.0000000000 0.7142857143 0.0000000000 0.0225856308 0.7244550627 0.0000000000 0.1000000000 0.5918367347 0.0000000000 0.1000000000 0.6122448980 0.0000000000 0.0774143692 0.6020060831 0.0000000000 0.0000000000 0.4489795918 0.0000000000 0.0000000000 0.4285714286 0.0000000000 0.0240985166 0.4410528110 0.0000000000 0.0000000000 0.6734693878 0.0000000000 0.0000000000 0.6530612245 0.0000000000 0.0198670797 0.6633683121 0.0000000000 0.1000000000 0.6530612245 0.0000000000 0.1000000000 0.6734693878 0.0000000000 0.0776934398 0.6632834119 0.0000000000 0.0000000000 0.3877551020 0.0000000000 0.0000000000 0.3673469388 0.0000000000 0.0225856308 0.3775857536 0.0000000000 0.0000000000 0.6122448980 0.0000000000 0.0000000000 0.5918367347 0.0000000000 0.0195448086 0.6024198660 0.0000000000 0.1000000000 0.7142857143 0.0000000000 0.1000000000 0.7346938776 0.0000000000 0.0804551914 0.7248688456 0.0000000000 0.0000000000 0.3265306122 0.0000000000 0.0000000000 0.3061224490 0.0000000000 0.0226130086 0.3164931899 0.0000000000 0.1000000000 0.1224489796 0.0000000000 0.1000000000 0.1428571429 0.0000000000 0.0774143692 0.1326877945 0.0000000000 0.1000000000 0.0612244898 0.0000000000 0.1000000000 0.0816326531 0.0000000000 0.0804838278 0.0716593913 0.0000000000 0.0000000000 0.2653061225 0.0000000000 0.0000000000 0.2448979592 0.0000000000 0.0225856308 0.2551367741 0.0000000000 0.1000000000 0.1836734694 0.0000000000 0.1000000000 0.2040816327 0.0000000000 0.0802133524 0.1935601468 0.0000000000 0.1000000000 0.7755102041 0.0000000000 0.1000000000 0.7959183673 0.0000000000 0.0803747593 0.7858789372 0.0000000000 0.0000000000 0.2040816327 0.0000000000 0.0000000000 0.1836734694 0.0000000000 0.0225909094 0.1938769015 0.0000000000 0.1000000000 0.2448979592 0.0000000000 0.1000000000 0.2653061224 0.0000000000 0.0803747593 0.2549373894 0.0000000000 0.0000000000 0.1428571429 0.0000000000 0.0000000000 0.1224489796 0.0000000000 0.0195448086 0.1322740115 0.0000000000 0.1000000000 0.3061224490 0.0000000000 0.1000000000 0.3265306122 0.0000000000 0.0803747593 0.3161618792 0.0000000000 0.0000000000 0.0816326531 0.0000000000 0.0000000000 0.0612244898 0.0000000000 0.0199049861 0.0708290139 0.0000000000 0.1000000000 0.3673469388 0.0000000000 0.1000000000 0.3877551020 0.0000000000 0.0803747593 0.3773863690 0.0000000000 0.1000000000 0.4285714286 0.0000000000 0.1000000000 0.4489795918 0.0000000000 0.0805695471 0.4385461699 0.0000000000 0.0326151109 0.9565680924 0.0000000000 0.0517299981 0.9474011240 0.0000000000 0.0431065956 0.9757244431 0.0000000000 0.0674162390 0.0434310413 0.0000000000 0.0505846442 0.0499900043 0.0000000000 0.0571377577 0.0242687154 0.0000000000 0.0484753029 0.4365357781 0.0000000000 0.0464826086 0.4547803401 0.0000000000 0.0240985166 0.4410528110 0.0000000000 0.0647773020 0.9625014114 0.0000000000 0.0517299981 0.9474011240 0.0000000000 0.0745715796 0.9407665676 0.0000000000 0.0000000000 0.0612244898 0.0000000000 0.0183134899 0.0501798758 0.0000000000 0.0199049861 0.0708290139 0.0000000000 0.0647773020 0.9625014114 0.0000000000 0.0431065956 0.9757244431 0.0000000000 0.0517299981 0.9474011240 0.0000000000 0.0351941661 0.0362679901 0.0000000000 0.0571377577 0.0242687154 0.0000000000 0.0505846442 0.0499900043 0.0000000000 0.0647773020 0.9625014114 0.0000000000 0.0745715796 0.9407665676 0.0000000000 0.0843143580 0.9535984961 0.0000000000 0.0313354216 0.4639238697 0.0000000000 0.0143008774 0.4595965242 0.0000000000 0.0240985166 0.4410528110 0.0000000000 0.0494661076 0.5444404961 0.0000000000 0.0375191417 0.5312592799 0.0000000000 0.0622815197 0.5312445519 0.0000000000 0.0745715796 0.9407665676 0.0000000000 0.0517299981 0.9474011240 0.0000000000 0.0643035904 0.9264344800 0.0000000000 0.0488418322 0.9281154917 0.0000000000 0.0643035904 0.9264344800 0.0000000000 0.0517299981 0.9474011240 0.0000000000 0.0000000000 0.9183673469 0.0000000000 0.0164958023 0.9088287779 0.0000000000 0.0194446262 0.9288128947 0.0000000000 0.0250000000 1.0000000000 0.0000000000 0.0190759755 0.9730289872 0.0000000000 0.0431065956 0.9757244431 0.0000000000 0.0750000000 0.0000000000 0.0000000000 0.0809502819 0.0269702787 0.0000000000 0.0571377577 0.0242687154 0.0000000000 0.0000000000 0.4489795918 0.0000000000 0.0240985166 0.4410528110 0.0000000000 0.0143008774 0.4595965242 0.0000000000 0.1000000000 0.4489795918 0.0000000000 0.0834040877 0.4582550121 0.0000000000 0.0805695471 0.4385461699 0.0000000000 0.0000000000 0.8571428571 0.0000000000 0.0194790789 0.8466968164 0.0000000000 0.0167441144 0.8668887797 0.0000000000 0.1000000000 0.6734693878 0.0000000000 0.0821686544 0.6841453384 0.0000000000 0.0776934398 0.6632834119 0.0000000000 0.1000000000 0.7346938776 0.0000000000 0.0823861467 0.7451717129 0.0000000000 0.0804551914 0.7248688456 0.0000000000 0.0000000000 0.1836734694 0.0000000000 0.0178629399 0.1729994583 0.0000000000 0.0225909094 0.1938769015 0.0000000000 0.0000000000 0.1224489796 0.0000000000 0.0175244843 0.1117329240 0.0000000000 0.0195448086 0.1322740115 0.0000000000 0.1000000000 0.7959183673 0.0000000000 0.0827258244 0.8062046608 0.0000000000 0.08037475
[...]
<CellData Scalars="temperature," Vectors="" Tensors="">
<DataArray type="Float64" Name="temperature" format="ascii">
1.0000334266 0.9995860072 0.9986948011 0.9973918854 0.9956902399 0.9936228164 0.9912108618 0.9884825456 0.9854677560 0.9821875974 0.9786666362 0.9749256744 0.9709809433 0.9668493079 0.9625439028 0.9580732826 0.9534517905 0.9486918353 0.9437934781 0.9387644146 0.9336131659 0.9283446666 0.9229641972 0.9174727136 0.9118763714 0.9061785234 0.9003852991 0.8944976349 0.8885226375 0.8824577909 0.8763126664 0.8700954295 0.8637988469 0.8574291033 0.8509964948 0.8445005483 0.8379429868 0.8313326549 0.8246724649 0.8179627142 0.8112152671 0.8044450320 0.7976521964 0.7908548738 0.7840666725 0.7773178193 0.7706430255 0.7640779660 0.7577446833 0.7813939189 0.7908697623 0.6076041281 0.8516133537 0.7435660706 0.6308972689 0.6523438238 0.6747235970 0.8298510560 0.7825724475 0.6973518086 0.8096820116 0.8062507506 0.7203968197 0.7910650555 0.8303878120 0.9678778212 0.9842382180 0.8558470484 0.9528120123 0.7701422048 0.8838293895 0.9364258737 0.9158747760 0.9194688899 0.9531565728 0.9018983931 0.8838180777 0.6252926487 0.9813886560 0.7995195676 0.6566608561 0.9603580469 0.6384811528 0.9802685594 0.6759075136 0.7826763517 0.7772429147 0.6591001546 0.6466279518 0.6113122015 0.6098415368 0.9934645943 0.7797376400 0.8698185360 0.6290707064 0.7926155704 0.7737901153 0.8899116457 0.9225112139 0.7529139096 0.7179673447 0.9304057812 0.9124438856 0.8941269527 0.8754588390 0.7410318713 0.7879684289 0.8129950133 0.8116350984 0.8358447361 0.8615031656 0.6358410258 0.6503884118 0.6576946089 0.6726202181 0.6801728337 0.6950687344 0.9648561759 0.9588104071 0.9777906526 0.9479561255 0.8800058734 0.7994655059 0.8527077482 0.8200121382 0.8276326850 0.8037183071 0.8354849336 0.8424691737 0.7485529730 0.9837949446 0.9898510332 0.6031520889 0.6068718285 0.7776083103 0.7564180044 0.6703972439 0.8182911924 0.8415244350 0.6926861448 0.8657202444 0.8916731709 0.9410223741 0.7533104955 0.8958730588 0.9001029611 0.7890534140 0.9346144623 0.7678502642 0.9373834801 0.9193866941 0.9012999856 0.8827359894 0.7100065590 0.7026449078 0.7255996166 0.9422859239 0.7808051361 0.7593103639 0.9243086722 0.9062514148 0.9111374489 0.8877606848 0.9473427472 0.7738936509 0.7997544370 0.8220043027 0.8453202361 0.8697164280 0.6672575730 0.6894493159 0.9446648737 0.7330382899 0.6169996793 0.7415138729 0.8903910904 0.8683822060 0.8468367124 0.7007665797 0.9266528961 0.7226589837 0.8523111929 0.7628410324 0.7314509111 0.9036289327 0.8830199710 0.8625598065 0.7201626526 0.9217591459 0.7418208739 0.7042262321 0.9940250491 0.6006864140 0.7021226869 0.6221734114 0.6351135704 0.8093259074 0.7953853214 0.8191332945 0.8437743970 0.8702084443 0.6426250577 0.9722301445 0.6645534184 0.9545150136 0.6872091319 0.9964411954 0.6186910432 0.8300686564 0.8481659452 0.7198800555 0.9127017337 0.8555333657 0.7664923413 0.9665367230 0.8085846086 0.8185164956 0.9593114873 0.7092565489 0.9241944698 0.7651924382 0.9034466600 0.7435165466 0.9370106228 0.9224774095 0.9024382767 0.8827732247 0.8629255389 0.7153478226 0.7381291181 0.9568248884 0.9781649718 0.9861085743 0.6084625103 0.6126458962 0.6353716983 0.8259010326 0.6453635872 0.6547413800 0.8370814580 0.6530200901 0.7390871852 0.7855926035 0.8005865108 0.8240382454 0.8483145084 0.8742481379 0.9635204451 0.6485202638 0.9419109392 0.6705102332 0.6930242278 0.6036518366 0.9961113378 0.8070062145 0.9664198468 0.7718025111 0.7979496914 0.7636881435 0.9871939660 0.6134621246 0.6319675378 0.6289460186 0.7398173749 0.8419311182 0.6429981500 0.7785476643 0.8303274410 0.9712329946 0.7360312982 0.6139652077 0.8061902244 0.8938527732 0.7856654520 0.9277105938 0.7650787877 0.7125675469 0.9429886792 0.9263180402 0.9090619268 0.8911593038 0.7357066807 0.7901667110 0.8138820182 0.8263043720 0.8384073968 0.8645648618 0.6376064162 0.6446971154 0.6593153783 0.6667848810 0.6819224221 0.6895611503 0.9744784290 0.9796774357 0.9641581686 0.9589277128 0.8738707267 0.8468694517 0.8196775558 0.8219233082 0.8398274553 0.7980109835 0.8465078320 0.6505818176 0.6382492173 0.8657007345 0.7583774965 0.9497071746 0.9444679155 0.9218439351 0.8978013598 0.8748064150 0.8527118913 0.8309843496 0.9141842492 0.8879632478 0.8637455501 0.8407289600 0.8182769768 0.6690841391 0.7347665303 0.6907841674 0.7133726117 0.7570429851 0.6841204561 0.7490668217 0.7278976608 0.7053959748 0.7709873590 0.6180761072 0.9799446075 0.7548016099 0.6639744924 0.7734464033 0.8339776726 0.8501326803 0.7554209025 0.6789161523 0.7180965156 0.7048019787 0.7279134751 0.9484899938 0.9317841518 0.9147221719 0.8970109880 0.7783238725 0.9402591606 0.7994767444 0.9046533079 0.6502045768 0.8597608916 0.7508809135 0.7018736092 0.7871513281 0.6823663494 0.9978556910 0.6719556448 0.7311687945 0.7246490592 0.7138507146 0.8037688184 0.6224979206 0.6652957164 0.9991122052 0.6005289126 0.6282009470 0.9701347327 0.6764824628 0.6702301692 0.7640013590 0.7261828539 0.7432179224 0.8891182221 0.8663962895 0.8443754404 0.8232323366 0.6895184108 0.9345533185 0.7113482908 0.9047033723 0.7364468192 0.6934761113 0.7603905400 0.6211460182 0.6164417601 0.6432163136 0.7499529139 0.9746451091 0.7087716632 0.7024785280 0.7200281125 0.6645807844 0.8730545382 0.7672265238 0.6817055616 0.7520018305 0.6707879509 0.9592802608 0.6621296774 0.9309819047 0.6827809885 0.7050465846 0.8948521031 0.8701842755 0.7441837789 0.8468133081 0.8241461111 0.7658542795 0.8113935885 0.8332311071 0.7567022664 0.8560581722 0.8798506570 0.6751607709 0.9411532594 0.6971704087 0.7223898972 0.9121448827 0.7770285890 0.9721718464 0.7254563783 0.6332538121 0.6376563709 0.6465262784 0.6566574557 0.9858507095 0.9969731495 0.7397560317 0.9066129808 0.7174482680 0.9369531195 0.6961515227 0.8997483201 0.8775993245 0.8561020923 0.8348617210 0.7323806687 0.7579539532 0.9010660995 0.7363898605 0.9327756570 0.7155983280 0.9121015244 0.8914505583 0.8711097025 0.8507476987 0.7228132578 0.9810370188 0.7547587166 0.7455228085 0.6351266192 0.9790859157 0.7118356904 0.9621953408 0.7998265070 0.8121079089 0.8009063332 0.7945202607 0.8240297384 0.8176951649 0.7781112033 0.7891236778 0.8479040762 0.8415634665 0.8731872319 0.8667640504 0.7011334146 0.6787829547 0.6566047427 0.9551777170 0.7008942628 0.6779578994 0.6559386531 0.9559389430 0.9341180941 0.9324059771 0.8795999070 0.7743141721 0.9894883588 0.6034950821 0.7545862056 0.7606797898 0.8142482835 0.8178856978 0.6242060992 0.9838329146 0.8293044903 0.7595870815 0.9668027297 0.9727308417 0.8101350489 0.8327402582 0.7597132853 0.8559889366 0.8804454517 0.9486160208 0.9217951595 0.7114277711 0.6882974951 0.6663623226 0.7815852210 0.6123179515 0.9928921798 0.7664762246 0.7676938085 0.8289306981 0.8210059021 0.6505274116 0.9925582899 0.7296267145 0.7515701363 0.6961736133 0.7183138972 0.9038807690 0.8806107311 0.8581598951 0.8362102829 0.9245007777 0.9551376915 0.7038528274 0.6420036253 0.6646738974 0.6870933990 0.6712354271 0.6491071745 0.6937080981 0.9471552872 0.9396493849 0.9704803343 0.9635351075 0.8808296358 0.8835589989 0.7724164525 0.7765662485 0.8549147478 0.8569563667 0.8307282844 0.7938774911 0.8323686893 0.7976921302 0.8073778686 0.8087869065 0.7087505520 0.7156911894 0.7313495688 0.7382576038 0.9275032956 0.9186700248 0.9073690773 0.8977512277 0.8875528411 0.8773334057 0.8676599130 0.8569148878 0.7286001441 0.7342758161 0.7506412113 0.7561696059 0.9444030478 0.9492570927 0.9107778771 0.9142053354 0.9955740295 0.6006401051 0.7769691541 0.8442451738 0.7039211773 0.7689435038 0.7492945457 0.8944204401 0.9254523140 0.7281142203 0.7235315186 0.9145763905 0.8947274850 0.8749341976 0.8550952607 0.7100348512 0.7463450844 0.7950077109 0.7472292250 0.7340539236 0.7031307690 0.6915678109 0.9854177066 0.7749285195 0.7845284009 0.7965865799 0.8026716699 0.7037466663 0.6813565102 0.6594450548 0.9301400564 0.9571703920 0.8874247683 0.8624279054 0.7543405244 0.8388827154 0.7761909931 0.8160302756 0.7880097703 0.8133732967 0.9889855282 0.6285869809 0.6192276817 0.7482031609 0.7258247116 0.8409023492 0.8623174070 0.8840041319 0.9064249237 0.7095373495 0.9477557541 0.9160246764 0.7316287357 0.9697444961 0.6749396881 0.8140650161 0.6779099180 0.6947402285 0.8209701001 0.8066592269 0.7830093439 0.7749082201 0.9933447958 0.6327049541 0.9982679656 0.5988992803 0.7005490331 0.6870575273 0.6814116779 0.9762965045 0.6245822675 0.6805487766 0.8027772886 0.7912093027 0.6708996097 0.8650798994 0.7720649370 0.9936200038 0.6980563505 0.7181599849 0.6807277745 0.7157264186 0.7372853954 0.6975742343 0.9945131017 0.9919142985 0.9500130166 0.7896333859 0.9908345442 0.9767164996 0.8627340967 0.8281281838 0.9819141151 0.9944213726 0.8675632809 0.8253374783 0.8140163239 0.6896327986 0.9741392196 0.9275918835 0.9419721524 0.7824404003 0.9234392200 0.8645639581 0.9581382565 0.8939734313 0.8386972105 0.8647480379 0.6593704905 0.7564786996 0.8388118888 0.7328702205 0.7086434826 0.7685099573 0.6164205386 0.7816677539 0.9894319601 0.9851555275 0.8043687710 0.8498163491 0.8171021613 0.7783038896 0.6204296894 0.9971336310 0.9965107054 0.7377918837 0.9446142232 0.7286977889 0.7278422663 0.6213184654 0.6125224578 0.6316506513 0.7856872109 0.6762960041 0.8113013740 0.6873049043 0.7153463148 0.6592800194 0.7192371317 0.7278705569 0.9845926519 0.9636286572 0.6481718294 0.6979598236 0.9723076167 0.9341027142 0.7875739881 0.8499135376 0.7397031761 0.6644592681 0.9166526909 0.8357460480 0.8897044191 0.7457511590 0.8300995571 0.9659870179 0.8192424664 0.9001935594 0.8611145953 0.8441883085 0.9360020651 0.9478629022 0.9105107709 0.8558383645 0.6572403816 0.9223199495 0.6947676427 0.9973017226 0.9909064947 0.6347890867 0.9054210877 0.8499102041 0.9008259171 0.8830852337 0.9254357350 0.8792988346 0.9304956841 0.8700575320 0.9538984831 0.7800963848 0.8793735218 0.8539358580 0.9606113532 0.7669032695 0.8792645914 0.8986447630 0.8230630745 0.8163304284 0.6932463993 0.8725352156 0.9105083500 0.7127546312 0.8082043510 0.8064292397 0.9627464284 0.9365335061 0.6264846696 0.8155741133 0.6930458068 0.6933545795 0.8017750682 0.7631906868 0.9981100921 0.9955423824 0.7279642532 0.8272895790 0.7927467886 0.7142389858 0.6703070920 0.6447591816 0.8652134302 0.9000234580 0.7749572261 0.9427994955 0.9635896612 0.9426264514 0.8522436667 0.9108042825 0.9206324839 0.6946831837 0.7086743226 0.9819505848 0.9569119014 0.8058003121 0.7113010773 0.6414296337 0.8679339488 0.8968011087 0.9313277913 0.9091704659 0.8826528872 0.9492917748 0.9897590100 0.9677289675 0.8169044805 0.7987552637 0.7027877937 0.6767643561 0.7004358327 0.6528863540 0.8840563211 0.8424939739 0.8144884539 0.8255111911 0.7772018322 0.7906164350 0.6943111611 0.6742231360 0.7066725184 0.6599672385 0.6576008130 0.9884421614 0.9788756038 0.6887326694 0.6807124323 0.8983917653 0.7434174351 0.7941632471 0.6242389796 0.7193044333 0.8565755926 0.9280259675 0.9137693314 0.9582456391 0.9484927876 0.7498513039 0.9468482401 0.7386730136 0.7707720609 0.8107833390 0.8071357143 0.8064383566 0.8031128963 0.6886474793 0.6852853611 0.6919211718 0.6892152722 0.7579161036 0.6709233548 0.6994454085 0.7208539330 0.6489385627 0.7067343669 0.7066926893 0.7788338085 0.7607656344 0.6527421577 0.9317918115 0.8834622837 0.8300208147 0.7646562780 0.8270433977 0.9695362209 0.8724651356 0.9044706721 0.8468548822 0.9480553052 0.8555339371 0.9535752293 0.9203949595 0.6519351323 0.9157401602 0.7725403823 0.7826425911 0.7022749174 0.6559052162 0.6674127749 0.7113904394 0.8228074502 0.8301378447 0.7131488221 0.8272317503 0.5993629306 0.6012458428 0.6925678380 0.6762012863 0.7944393019 0.9309602920 0.9238737300 0.8080525798 0.8597285978 0.8473724596 0.8717718958 0.8825734010 0.8953104271 0.9046288772 0.7980671065 0.8525602349 0.7433785094 0.6743275140 0.8043958029 0.9543547576 0.7672704935 0.6826613879 0.8537765809 0.7324032619 0.9375621051 0.8736747477 0.9642686547 0.7746605878 0.6790325392 0.6036469630 0.9523420128 0.9701165878 0.7190948927 0.8312627747 0.8452069001 0.9362471347 0.8200136684 0.8179516059 0.8796931647 0.6450550117 0.9163483370 0.7710532734 0.8339512382 0.7200352660 0.8348644554 0.6513822016 0.7808739061 0.8241053770 0.7056951967 0.8220248777 0.6616979202 0.7480997156 0.7405658360 0.6221866497 0.7861455015 0.7799944900 0.9649349112 0.9713084735 0.6926832312 0.9325753016 0.7974404244 0.8864865734 0.8924034564 0.6283477127 0.7952568051 0.8439596421 0.6718364117 0.7333828608 0.9746788389 0.9566626622 0.6370634250 0.9094449454 0.8864204410 0.7993406643 0.8233549313 0.6766794897 0.7102664287 0.6061568845 0.6122669260 0.7584092594 0.7774449102 0.7725513928 0.8532624788 0.7525692778 0.6356291366 0.7377985772 0.9395286411 0.7109354754 0.8546449449 0.9031571703 0.8751004311 0.6849626398 0.7119590265 0.8011905380 0.9750510778 0.9627949840 0.7735149278 0.7288260383 0.7051085077 0.6852858126 0.6795235408 0.8155450148 0.8373444853 0.8083367081 0.8032452707 0.7607816071 0.7557904535 0.6919138711 0.7515435892 0.7518063380 0.7445857129 0.6264110089 0.7641836227 0.7581746094 0.7560081542 0.7281196020 0.6064952721 0.7372194421 0.8436837655 0.7601980625 0.6429571381 0.7272218587 0.7040816216 0.6353906176 0.9844109824 0.9520051927 0.6110758958 0.8411476587 0.7656256754 0.6465784313 0.7257803701 0.7809267209 0.8315690780 0.8218969163 0.8370720440 0.7672168760 0.6489296527 0.7204611351 0.9140717838 0.8792713689 0.8971812503 0.6828883542 0.6323404410 0.8685073519 0.8745712764 0.8645766353 0.6500710585 0.9087645934 0.7571391804 0.6110228534 0.7251197637 0.7280505745 0.7928738405 0.6418879631 0.8305983765 0.7351500139 0.6144226370 0.7407179509 0.8646253505 0.9116326627 0.8653550553 0.7992701275 0.9332654670 0.6030025437 0.7818510054 0.7696706828 0.7321225007 0.8247850776 0.8333191671 0.7039923142 0.7144483999 0.6249423571 0.7437681429 0.7587383981 0.8204381566 0.7921944842 0.8111789809 0.8086922476 0.7971648076 0.6882455890 0.6918684293 0.6748928053 0.6809236836 0.6659236265 0.6537892895 0.6980367938 0.8853463370 0.8456645958 0.8953243414 0.7165881086 0.8985207374 0.8379590148 0.8893313776 0.8905817420 0.8433047071 0.6551551416 0.9392373286 0.9478594636 0.7993045525 0.7877296081 0.8164072172 0.9842095830 0.9824818177 0.8239369126 0.6208779399 0.9209883606 0.9248005183 0.6507071665 0.8833827003 0.8919356909 0.8498262243 0.9338109793 0.8561390806 0.9247996366 0.8290605994 0.8336057909 0.6969695443 0.7900337364 0.8604184071 0.7517816098 0.6666154980 0.6512812645 0.6602007895 0.6593937162 0.6683766294 0.9800185870 0.9397945138 0.8683724867 0.8640937105 0.9132227564 0.8102069757 0.9258944449 0.7956696957 0.7405598895 0.6818802558 0.8475004640 0.8059357998 0.7772590495 0.6149329559 0.6074867639 0.7200638403 0.7696100761 0.7535886379 0.6386170964 0.7358188179 0.7629525829 0.9715533493 0.9742864586 0.7842272787 0.7811384326 0.7210128730 0.7849133962 0.7258200193 0.8892207821 0.8876999916 0.9208830880 0.8035210225 0.8403440959 0.6289514421 0.7378381342 0.6387535917 0.8652312518 0.9181075588 0.8635362500 0.9207886370 0.9044540715 0.9111776011 0.6630041736 0.6626018290 0.7114125469 0.6160382581 0.8807293994 0.8741476286 0.9143108652 0.9411085516 0.9049383141 0.7853909037 0.9400922622 0.7844986798 0.7055545624 0.6769399313 0.9000276481 0.8402198838 0.8928336464 0.7215160964 0.7380805169 0.9557655332 0.7014849835 0.9052847080 0.8936164839 0.6305459655 0.9464510702 0.9711507604 0.7240943635 0.7509499993 0.7356901595 0.7889540627 0.6181222170 0.8019262763 0.7285915049 0.7572881043 0.6265980165 0.7583448507 0.7471735633 0.7439540008 0.9063436170 0.8709561543 0.9164193412 0.6728782805 0.6179763983 0.7210039948 0.7462711157 0.7637270949 0.7692205713 0.7423730033 0.7519517654 0.6375571267 0.8589937421 0.8705510418 0.6720296887 0.9633673860 0.9540618010 0.6249207576 0.8875625769 0.8916070613 0.9304352935 0.7942573670 0.7172120465 0.7915811212 0.7744813562 0.6006479687 0.7234037220 0.9606651026 0.9643123753 0.8392372285 0.8711140918 0.8758383584 0.8492862308 0.8479569884 0.6461558547 0.6441278114 0.6958006871 0.7335342582 0.7676931833 0.7647937090 0.8627752672 0.8489181876 0.7581311478 0.7512648366 0.6399388174 0.6326129870 0.7339726339 0.7505711079 0.7017910612 0.7179941141 0.9808312451 0.9671181366 0.7013558565 0.7413958523 0.9802065432 0.9754958588 0.8066783782 0.9782718915 0.9457176307 0.9829160626 0.9732328581 0.7399444034 0.7582019860 0.7552741490 0.6250591596 0.7534962867 0.6593067534 0.7070153945 0.8976937588 0.8803798812 0.6344667856 0.6760260882 0.7537525241 0.8638664451 0.8808217995 0.6377458406 0.6086176513 0.6008595185 0.6721836432 0.6047517742 0.7386798733 0.7507567498 0.6621972124 0.7735935085 0.6710559131 0.7497238237 0.6541038832 0.6352567789 0.6074918920 0.7369217215 0.7219055946 
</DataArray>
</CellData>
</Piece>
</UnstructuredGrid>
</VTKFile>
