<?xml version="1.0"?>
<VTKFile type="UnstructuredGrid" version="0.1" byte_order="LittleEndian">
<UnstructuredGrid>
<Piece NumberOfPoints="594" NumberOfCells="198">
<Points>
<DataArray type="Float64" NumberOfComponents="3" format="ascii">
2.499999999996205e+00 0.000000000000000e+00 0.000000000000000e+00 2.999999999996966e+00 0.000000000000000e+00 0.000000000000000e+00 2.761574074072416e+00 5.243055555554663e-01 0.000000000000000e+00 9.999999999999911e-01 1.000000000000000e+00 0.000000000000000e+00 1.249999999998182e+00 4.791666666661778e-01 0.000000000000000e+00 1.499999999999992e+00 1.000000000000000e+00 0.000000000000000e+00 3.499999999997728e+00 0.000000000000000e+00 0.000000000000000e+00 3.999999999998489e+00 0.000000000000000e+00 0.000000000000000e+00 3.753637566137116e+00 5.205026455027371e-01 0.000000000000000e+00 2.499999999996205e+00 0.000000000000000e+00 0.000000000000000e+00 2.761574074072416e+00 5.243055555554663e-01 0.000000000000000e+00 2.265689300409039e+00 5.024434156380889e-01 0.000000000000000e+00 1.754629629626973e+00 4.976851851849655e-01 0.000000000000000e+00 1.499999999999992e+00 1.000000000000000e+00 0.000000000000000e+00 1.249999999998182e+00 4.791666666661778e-01 0.000000000000000e+00 7.172619047612346e-01 5.069444444443194e-01 0.000000000000000e+00 1.249999999998182e+00 4.791666666661778e-01 0.000000000000000e+00 9.999999999999911e-01 1.000000000000000e+00 0.000000000000000e+00 3.249999999999996e+00 5.000000000005678e-01 0.000000000000000e+00 3.499999999997728e+00 0.000000000000000e+00 0.000000000000000e+00 3.753637566137116e+00 5.205026455027371e-01 0.000000000000000e+00 4.282738095237837e+00 4.970238095238522e-01 0.000000000000000e+00 3.753637566137116e+00 5.205026455027371e-01 0.000000000000000e+00 3.999999999998489e+00 0.000000000000000e+00 0.000000000000000e+00 3.249999999999996e+00 5.000000000005678e-01 0.000000000000000e+00 2.761574074072416e+00 5.243055555554663e-01 0.000000000000000e+00 2.999999999996966e+00 0.000000000000000e+00 0.000000000000000e+00 1.754629629626973e+00 4.976851851849655e-01 0.000000000000000e+00 1.999999999995513e+00 0.000000000000000e+00 0.000000000000000e+00 2.265689300409039e+00 5.024434156380889e-01 0.000000000000000e+00 1.754629629626973e+00 4.976851851849655e-01 0.000000000000000e+00 2.265689300409039e+00 5.024434156380889e-01 0.000000000000000e+00 1.999999999999994e+00 1.000000000000000e+00 0.000000000000000e+00 1.999999999995513e+00 0.000000000000000e+00 0.000000000000000e+00 2.499999999996205e+00 0.000000000000000e+00 0.000000000000000e+00 2.265689300409039e+00 5.024434156380889e-01 0.000000000000000e+00 2.499999999999995e+00 1.000000000000000e+00 0.000000000000000e+00 1.999999999999994e+00 1.000000000000000e+00 0.000000000000000e+00 2.265689300409039e+00 5.024434156380889e-01 0.000000000000000e+00 1.999999999999994e+00 1.000000000000000e+00 0.000000000000000e+00 1.499999999999992e+00 1.000000000000000e+00 0.000000000000000e+00 1.754629629626973e+00 4.976851851849655e-01 0.000000000000000e+00 4.999999999995947e-01 0.000000000000000e+00 0.000000000000000e+00 9.999999999984134e-01 0.000000000000000e+00 0.000000000000000e+00 7.172619047612346e-01 5.069444444443194e-01 0.000000000000000e+00 9.999999999999911e-01 1.000000000000000e+00 0.000000000000000e+00 4.999999999999956e-01 1.000000000000000e+00 0.000000000000000e+00 7.172619047612346e-01 5.069444444443194e-01 0.000000000000000e+00 1.499999999996955e+00 0.000000000000000e+00 0.000000000000000e+00 1.999999999995513e+00 0.000000000000000e+00 0.000000000000000e+00 1.754629629626973e+00 4.976851851849655e-01 0.000000000000000e+00 3.499999999997728e+00 0.000000000000000e+00 0.000000000000000e+00 3.249999999999996e+00 5.000000000005678e-01 0.000000000000000e+00 2.999999999996966e+00 0.000000000000000e+00 0.000000000000000e+00 4.499999999999245e+00 0.000000000000000e+00 0.000000000000000e+00 4.282738095237837e+00 4.970238095238522e-01 0.000000000000000e+00 3.999999999998489e+00 0.000000000000000e+00 0.000000000000000e+00 4.499999999999999e+00 1.000000000000000e+00 0.000000000000000e+00 3.999999999999998e+00 1.000000000000000e+00 0.000000000000000e+00 4.282738095237837e+00 4.970238095238522e-01 0.000000000000000e+00 2.999999999999996e+00 1.000000000000000e+00 0.000000000000000e+00 3.249999999999996e+00 5.000000000005678e-01 0.000000000000000e+00 3.499999999999997e+00 1.000000000000000e+00 0.000000000000000e+00 7.172619047612346e-01 5.069444444443194e-01 0.000000000000000e+00 9.999999999984134e-01 0.000000000000000e+00 0.000000000000000e+00 1.249999999998182e+00 4.791666666661778e-01 0.000000000000000e+00 1.754629629626973e+00 4.976851851849655e-01 0.000000000000000e+00 1.249999999998182e+00 4.791666666661778e-01 0.000000000000000e+00 1.499999999996955e+00 0.000000000000000e+00 0.000000000000000e+00 4.282738095237837e+00 4.970238095238522e-01 0.000000000000000e+00 3.999999999999998e+00 1.000000000000000e+00 0.000000000000000e+00 3.753637566137116e+00 5.205026455027371e-01 0.000000000000000e+00 3.249999999999996e+00 5.000000000005678e-01 0.000000000000000e+00 3.753637566137116e+00 5.205026455027371e-01 0.000000000000000e+00 3.499999999999997e+00 1.000000000000000e+00 0.000000000000000e+00 3.249999999999996e+00 5.000000000005678e-01 0.000000000000000e+00 2.999999999999996e+00 1.000000000000000e+00 0.000000000000000e+00 2.761574074072416e+00 5.243055555554663e-01 0.000000000000000e+00 2.499999999999995e+00 1.000000000000000e+00 0.000000000000000e+00 2.265689300409039e+00 5.024434156380889e-01 0.000000000000000e+00 2.761574074072416e+00 5.243055555554663e-01 0.000000000000000e+00 3.499999999999997e+00 1.000000000000000e+00 0.000000000000000e+00 3.753637566137116e+00 5.205026455027371e-01 0.000000000000000e+00 3.999999999999998e+00 1.000000000000000e+00 0.000000000000000e+00 1.499999999996955e+00 0.000000000000000e+00 0.000000000000000e+00 1.249999999998182e+00 4.791666666661778e-01 0.000000000000000e+00 9.999999999984134e-01 0.000000000000000e+00 0.000000000000000e+00 2.499999999999995e+00 1.000000000000000e+00 0.000000000000000e+00 2.761574074072416e+00 5.243055555554663e-01 0.000000000000000e+00 2.999999999999996e+00 1.000000000000000e+00 0.000000000000000e+00 7.172619047612346e-01 5.069444444443194e-01 0.000000000000000e+00 4.999999999999956e-01 1.000000000000000e+00 0.000000000000000e+00 3.060515873017599e-01 6.905092592594075e-01 0.000000000000000e+00 4.282738095237837e+00 4.970238095238522e-01 0.000000000000000e+00 4.499999999999245e+00 0.000000000000000e+00 0.000000000000000e+00 4.693948412698078e+00 3.100198412695943e-01 0.000000000000000e+00 0.000000000000000e+00 0.000000000000000e+00 0.000000000000000e+00 3.281084656080592e-01 3.513271604940242e-01 0.000000000000000e+00 0.000000000000000e+00 5.000000000020591e-01 0.000000000000000e+00 5.000000000000000e+00 1.000000000000000e+00 0.000000000000000e+00 4.625000000000250e+00 6.249999999999233e-01 0.000000000000000e+00 5.000000000000000e+00 4.999999999986940e-01 0.000000000000000e+00 7.172619047612346e-01 5.069444444443194e-01 0.000000000000000e+00 3.281084656080592e-01 3.513271604940242e-01 0.000000000000000e+00 4.999999999995947e-01 0.000000000000000e+00 0.000000000000000e+00 0.000000000000000e+00 0.000000000000000e+00 0.000000000000000e+00 4.999999999995947e-01 0.000000000000000e+00 0.000000000000000e+00 3.281084656080592e-01 3.513271604940242e-01 0.000000000000000e+00 5.000000000000000e+00 1.000000000000000e+00 0.000000000000000e+00 4.499999999999999e+00 1.000000000000000e+00 0.000000000000000e+00 4.625000000000250e+00 6.249999999999233e-01 0.000000000000000e+00 4.282738095237837e+00 4.970238095238522e-01 0.000000000000000e+00 4.625000000000250e+00 6.249999999999233e-01 0.000000000000000e+00 4.499999999999999e+00 1.000000000000000e+00 0.000000000000000e+00 4.625000000000250e+00 6.249999999999233e-01 0.000000000000000e+00 4.282738095237837e+00 4.970238095238522e-01 0.000000000000000e+00 4.693948412698078e+00 3.100198412695943e-01 0.000000000000000e+00 7.172619047612346e-01 5.069444444443194e-01 0.000000000000000e+00 3.060515873017599e-01 6.905092592594075e-01 0.000000000000000e+00 3.281084656080592e-01 3.513271604940242e-01 0.000000000000000e+00 0.000000000000000e+00 1.000000000000000e+00 0.000000000000000e+00 3.060515873017599e-01 6.905092592594075e-01 0.000000000000000e+00 4.999999999999956e-01 1.000000000000000e+00 0.000000000000000e+00 5.000000000000000e+00 0.000000000000000e+00 0.000000000000000e+00 4.693948412698078e+00 3.100198412695943e-01 0.000000000000000e+00 4.499999999999245e+00 0.000000000000000e+00 0.000000000000000e+00 0.000000000000000e+00 1.000000000000000e+00 0.000000000000000e+00 0.000000000000000e+00 5.000000000020591e-01 0.000000000000000e+00 3.060515873017599e-01 6.905092592594075e-01 0.000000000000000e+00 5.000000000000000e+00 4.999999999986940e-01 0.000000000000000e+00 4.693948412698078e+00 3.100198412695943e-01 0.000000000000000e+00 5.000000000000000e+00 0.000000000000000e+00 0.000000000000000e+00 0.000000000000000e+00 5.000000000020591e-01 0.000000000000000e+00 3.281084656080592e-01 3.513271604940242e-01 0.000000000000000e+00 3.060515873017599e-01 6.905092592594075e-01 0.000000000000000e+00 4.625000000000250e+00 6.249999999999233e-01 0.000000000000000e+00 4.693948412698078e+00 3.100198412695943e-01 0.000000000000000e+00 5.000000000000000e+00 4.999999999986940e-01 0.000000000000000e+00 5.666666666666361e+00 1.000000000000000e+00 -6.666666666663608e-01 5.861111111110660e+00 4.928823381205197e-01 -8.611111111106604e-01 5.458333333332905e+00 5.000000000000361e-01 -4.583333333329067e-01 5.666666666666663e+00 0.000000000000000e+00 -6.666666666666634e-01 5.458333333332905e+00 5.000000000000361e-01 -4.583333333329067e-01 5.861111111110660e+00 4.928823381205197e-01 -8.611111111106604e-01 7.333333333333325e+00 0.000000000000000e+00 -2.333333333333325e+00 7.138888888887410e+00 4.835600907032339e-01 -2.138888888887410e+00 7.544179894178556e+00 5.093285357700812e-01 -2.544179894178557e+00 7.333333333331314e+00 1.000000000000000e+00 -2.3333
[...]
<PointData Scalars="A_conc," Vectors="" Tensors="">
<DataArray type="Float64" Name="A_conc" format="ascii">
9.973396989161082e-01 9.946651594548698e-01 9.960057606223545e-01 9.999607546771248e-01 9.997872929171006e-01 9.995716035909852e-01 9.911355213951537e-01 9.858550641559468e-01 9.885448020113590e-01 9.971993273647956e-01 9.960077623266789e-01 9.981507969239655e-01 9.992270438514607e-01 9.995746782999543e-01 9.998500996398565e-01 1.000018009014848e+00 9.997849230219636e-01 9.999128277158158e-01 9.931478503511113e-01 9.909515633381685e-01 9.885450399095845e-01 9.823180848040582e-01 9.887500265737519e-01 9.858661515219861e-01 9.929667180015455e-01 9.961456122506149e-01 9.946693170181581e-01 9.993269729197547e-01 9.987535335418019e-01 9.980301457769821e-01 9.993256427388113e-01 9.980295373379198e-01 9.987540122382600e-01 9.988654593790242e-01 9.971921135046121e-01 9.980280693126200e-01 9.971926463917711e-01 9.988659711014009e-01 9.980273970586347e-01 9.987485648739460e-01 9.996537529748574e-01 9.992286239132392e-01 1.000016352759705e+00 9.999114758316824e-01 9.999784102635245e-01 9.999116319232331e-01 1.000016452287737e+00 9.999782025394162e-01 9.996533341649241e-01 9.987481111750032e-01 9.992289895042591e-01 9.909486532938272e-01 9.929686944515629e-01 9.948322289689862e-01 9.792363427188249e-01 9.823018669174465e-01 9.860729949255124e-01 9.792373615644487e-01 9.860740242602248e-01 9.822999665371488e-01 9.948327964149458e-01 9.929678273379102e-01 9.909492205764532e-01 1.000015794372878e+00 9.999125360311526e-01 9.997846680646725e-01 9.992273369324368e-01 9.998524322878023e-01 9.995742973961527e-01 9.823162198541955e-01 9.858671624681794e-01 9.887586063465488e-01 9.931399905107997e-01 9.885447318352277e-01 9.909517714466218e-01 9.929658906218145e-01 9.946698638952916e-01 9.961520708907764e-01 9.971994345204808e-01 9.981451739248338e-01 9.960075620078476e-01 9.911357303250771e-01 9.885444928430324e-01 9.858552817794652e-01 9.995711801038137e-01 9.997871289888893e-01 9.999604137294520e-01 9.973398068015504e-01 9.960055589431263e-01 9.946652764130097e-01 9.999745560852208e-01 9.999963999432754e-01 1.000006843185335e+00 9.824139735698452e-01 9.792325439785219e-01 9.762418619882313e-01 1.000000407396059e+00 9.999991552008922e-01 1.000000407396058e+00 9.709822541676568e-01 9.775441572827761e-01 9.709718689993075e-01 9.999746816981502e-01 1.000005450749663e+00 9.999963398838592e-01 1.000005363471638e+00 9.999951711131543e-01 9.999988394870023e-01 9.710594835382188e-01 9.793960020825354e-01 9.773825570622277e-01 9.823867007178348e-01 9.773128436158141e-01 9.792232670726685e-01 9.773153278272985e-01 9.825550175931572e-01 9.761951074573960e-01 9.999779607162050e-01 1.000003696212652e+00 1.000002968179156e+00 1.000004953556745e+00 9.999994072756143e-01 9.999950673057392e-01 9.710307846839034e-01 9.762736662512501e-01 9.794244927964734e-01 1.000000309983617e+00 1.000000309983726e+00 9.999993587105178e-01 9.709688833124382e-01 9.763659197132329e-01 9.709837360057096e-01 1.000001759048132e+00 9.999989194773249e-01 9.999991709590565e-01 9.774010181802588e-01 9.762409574528795e-01 9.710329112728106e-01 9.485734003135771e-01 9.406395692758999e-01 9.567156074305805e-01 9.485759174382351e-01 9.567056333133379e-01 9.406351499967793e-01 8.621170660154353e-01 8.743825447639778e-01 8.484797566697033e-01 8.621075384032437e-01 8.484994266888323e-01 8.743904570347990e-01 9.608982700608293e-01 9.485815342725742e-01 9.563787884569886e-01 9.485842054711011e-01 9.609009402001706e-01 9.563735577964533e-01 8.403634195631620e-01 8.484716969945817e-01 8.622717141588641e-01 8.403724264782770e-01 8.622809594663368e-01 8.484525952533999e-01 8.621158358262300e-01 8.826730920734741e-01 8.741417329699295e-01 9.014859643882107e-01 9.190891616510092e-01 9.103576064716958e-01 9.488092383383119e-01 9.345883541871528e-01 9.406142793935206e-01 9.345908403737345e-01 9.488117264304855e-01 9.406099224779730e-01 7.936534309101190e-01 8.055961386211067e-01 8.176241348547013e-01 9.190820106871628e-01 9.014789412865595e-01 9.103693090561242e-01 7.690360082914702e-01 7.436021935856829e-01 7.563318508532435e-01 7.177529120629913e-01 7.053949425031508e-01 6.914780961295726e-01 7.177552133234983e-01 6.914799909969799e-01 7.053919045103614e-01 7.690338052061091e-01 7.563337350733121e-01 7.436003030641568e-01 8.621044617939742e-01 8.741616894820288e-01 8.826613934072467e-01 8.176243329173603e-01 8.055942417486395e-01 7.936537236274203e-01 9.345975900554011e-01 9.269565630943780e-01 9.407717616709339e-01 9.188796924212275e-01 9.103702664153898e-01 9.271616527646156e-01 9.014764304705200e-01 8.923892970536745e-01 9.105348474569078e-01 7.177189426058889e-01 7.308475283299684e-01 7.053941367935728e-01 7.689617589140598e-01 7.814674932427952e-01 7.563344478480470e-01 7.435979982286144e-01 7.563884057751293e-01 7.308077446058749e-01 8.825003336842433e-01 8.741439399794844e-01 8.925483429126289e-01 7.936517359950618e-01 8.056825971917190e-01 7.813896008815003e-01 9.014846668470828e-01 9.105056991833691e-01 8.921969503853765e-01 7.689640716230028e-01 7.563323472496601e-01 7.814698779315170e-01 9.345994129838565e-01 9.407569095016249e-01 9.269639650910710e-01 7.177214699111323e-01 7.053906524420200e-01 7.307466733980232e-01 7.436001905318719e-01 7.307149186993888e-01 7.563807808095681e-01 9.188869506529589e-01 9.271571779198390e-01 9.103583402481991e-01 7.936515988731592e-01 7.813971147763008e-01 8.056789248967593e-01 8.825122939644655e-01 8.923234611633345e-01 8.741234507110363e-01 8.175120497527281e-01 8.055974779542816e-01 8.291936153395039e-01 8.175122562400168e-01 8.283078511793946e-01 8.055955631305622e-01 8.403835080807893e-01 8.485493035001671e-01 8.282080378709262e-01 6.914760826868289e-01 6.819144462251563e-01 7.054113293488764e-01 9.188757413624111e-01 9.269556976863196e-01 9.348122955262050e-01 7.177208051489820e-01 7.436509636797762e-01 7.308069615557878e-01 7.689620587009197e-01 7.937437508532492e-01 7.813883896736162e-01 9.016624516208668e-01 8.825075603410333e-01 8.923907945054897e-01 6.914741991602231e-01 7.054131350975631e-01 6.828158707984946e-01 9.107696052824192e-01 8.923490971753565e-01 8.921089771986833e-01 7.814179950267170e-01 7.814152329032708e-01 7.563775383858777e-01 9.269099351062606e-01 9.268881454158926e-01 9.410066687420983e-01 7.054169647628522e-01 7.308195791042384e-01 7.307155263195899e-01 7.564620748015132e-01 7.306866058301774e-01 7.307905618848852e-01 9.270497096616528e-01 9.104688245759031e-01 9.270282659541739e-01 7.813621207018756e-01 8.058104048773020e-01 7.813591330725337e-01 8.742197339365064e-01 8.922103390246394e-01 8.924536139274757e-01 8.403709722467636e-01 8.290827942760783e-01 8.485524941374476e-01 8.175099799535315e-01 8.405186007168114e-01 8.282003099772942e-01 8.282420253321152e-01 8.291213564405181e-01 8.056586768188521e-01 6.650102820965227e-01 6.828264499748412e-01 6.650024917163307e-01 6.650147071511914e-01 6.914901188230660e-01 6.828193110578999e-01 9.606888010391536e-01 9.563408482822742e-01 9.641993496621051e-01 9.606914866089963e-01 9.647305262160506e-01 9.563355828046073e-01 9.710541062850769e-01 9.641526786167951e-01 9.710436414525018e-01 9.713113732291683e-01 9.606831302187819e-01 9.640956971707687e-01 8.281669745046062e-01 8.486958829345421e-01 8.290372162731100e-01 9.710310137178393e-01 9.646498310389172e-01 9.710458924626495e-01 6.650017059061900e-01 6.819227003605985e-01 6.650105606022182e-01 9.712958198656088e-01 9.646074813900752e-01 9.606894631754762e-01 6.650148863684947e-01 6.819172186555374e-01 6.914921871304228e-01 8.175048071906782e-01 8.290809473829432e-01 8.405033092669008e-01 9.348141386654520e-01 9.269630724983177e-01 9.188774495588896e-01 9.016721063842786e-01 8.921955479970612e-01 8.825123284999696e-01 7.689616329462901e-01 7.813956723373927e-01 7.937437280328077e-01 7.436534357782454e-01 7.177217502328087e-01 7.307135272488777e-01 7.054374197056171e-01 6.819076409874746e-01 6.828107141712807e-01 9.563961809404076e-01 9.646700453066392e-01 9.641487578062501e-01 6.650079402278237e-01 6.828156623687290e-01 6.819119632586809e-01 9.711713204623060e-01 9.640793814618261e-01 9.645850658736432e-01 5.328383880386988e-01 6.895833826055640e-01 3.936704170979644e-01 5.328984415430404e-01 3.936593963541541e-01 6.899686871954368e-01 1.493535570406483e-02 8.647473889094152e-03 2.306657786575709e-02 2.298104283513559e-02 8.517913851301861e-03 1.500251533630637e-02 5.341116663212588e-01 7.947574417491036e-01 6.979394908434539e-01 5.340784376670733e-01 6.981123841514795e-01 7.946880013594028e-01 1.408683378529860e-02 8.721827681676128e-03 6.327421331423733e-03 1.403058841214281e-02 6.279253787478707e-03 8.830870582293182e-03 3.314125409644774e-02 1.478475626870295e-02 2.498242600614212e-02 1.541023238041684e-01 7.686007241825404e-02 1.128109905365573e-01 5.233511785972140e-01 3.943237546101998e-01 3.093797372638805e-01 5.234340318190924e-01 3.094270335818802e-01 3.942619767460769e-01 2.380054117006657e-03 1.609951646914545e-03 9.934596588297561e-04 7.707771592210572e-02 1.543557602574936e-01 1.124658643756711e-01 3.581003724242952e-04 2.434144666235652e-04 1.434665236345974e-04 1.930874121632860e-05 3.544319525277449e-05 5.022076845550099e-05 5.018730111282783e-05 3.540381406004150e-05 1.930061898466927e-05 1.430504518631255e-04 2.449450686545866e-04 3.578004547591485e-04 1.489557808758885e-02 3.328096443380695e-02 2.479230979688228e-02 2.372832210206694e-03 9.869522256149826e-04 1.626302917421266e-03 3.089623051193829e-01 3.872769556505711e-01 2.247810273152804e-01 1.607149322801860e-01 2.172038852813561e-01 1.122129367699002e-01 7.732364324079413e-02 1.082606988917896e-01 5.239880336013476e-02 5.396553849554513e-05 3.554836944246718e-05 8.515214242776148e-05 2.296941941148581e-04 1.450325180365047e-04 9.027324701963117e-05 2.489374274099519e-02 3.504451673468539e-02 5.030814450739340e-02 2.440643585625197e-04 5.885042141595907e-04 3.837402460916197e-04 1.531703540084126e-03 9.970784558818791e-04 6.228395618132067e-04 7.712653176202541e-02 5.237859318044619e-02 1.088269498687967e-01 2.422761849421859e-04 3.841525842661599e-04 5.829714111725465e-04 3.090742816256878e-01 2.239947446550884e-01 3.880111197991751e-01 3.551088484290274e-05 5.392759116589608e-05 8.457756490006382e-05 2.290534599429532e-04 8.888289687348102e-05 1.451990587392857e-04 1.604366667026486e-01 1.126088836266601e-01 2.172689659023892e-01 1.522279481026119e-03 6.122690436712730e-04 1.001320607611829e-03 3.488465321583757e-02 2.512028914098158e-02 5.049884930443235e-02 1.598828648002627e-03 2.542352431772861e-03 3.689727310615614e-03 2.533487360050874e-03 1.618353952406201e-03 3.690675327193089e-03 6.264198428168199e-03 3.857173691308742e-03 8.446771444220463e-03 3.344734923089381e-05 1.409982337365141e-05 1.977086224470854e-05 5.331548850594379e-05 9.080382017158189e-05 1.348970418534850e-04 2.997515850024726e-01 2.249403189308171e-01 1.606032315363267e-01 9.309720995410688e-04 3.806705884246949e-04 6.271850503008875e-04 3.486984761503567e-02 7.370114050176138e-02 5.256647659532859e-02 1.980156094546684e-05 1.481025777594552e-05 3.360046855195950e-05 5.358346627331862e-02 1.028960660600030e-01 5.408639238728211e-02 2.190413081314639e-04 6.149734351658563e-04 6.207348421050488e-04 2.269067392694346e-01 3.768933495276858e-01 2.277292404539383e-01 3.169089671982107e-05 8.979500463207641e-05 9.043474693310935e-05 2.108352177234178e-04 9.511164892664684e-05 9.433911198728902e-05 1.409986469502715e-03 6.524170796679340e-04 6.454565472291420e-04 2.215347942816708e-01 2.222613378114832e-01 1.083693871371584e-01 2.368516844095364e-02 5.196331945382360e-02 5.239840174811407e-02 8.372534273960541e-03 3.855818440448240e-03 6.305942241558984e-03 5.876270569303239e-03 2.525228208797674e-03 3.899913465166433e-03 3.851951492369801e-03 1.483589017635009e-03 3.842065965440098e-03 7.161160078762843e-06 7.933183360341645e-06 1.391656803608955e-05 1.849648306543338e-05 6.779632662505793e-06 1.450280243147647e-05 7.938342774605397e-01 6.995351328664425e-01 8.699819902298177e-01 7.939517776937530e-01 8.808795088814089e-01 6.992779237703188e-01 9.775879785220301e-01 8.713768268023447e-01 9.775774284107465e-01 9.963237160127177e-01 7.938967240529845e-01 8.661528184791226e-01 4.022035051950095e-03 4.011018100299694e-03 7.905131825227665e-03 9.767680820919422e-01 8.804002788698020e-01 9.767825471767730e-01 7.919627616045877e-06 7.185108320458484e-06 1.343984440387534e-05 9.952696891921611e-01 8.761006841746471e-01 7.944395298095324e-01 1.843264056580424e-05 1.389242087831738e-05 6.850593146645123e-06 2.546357006608976e-03 5.914658272986658e-03 3.901874960354319e-03 2.998491327242043e-01 1.607162984603432e-01 2.241701880270953e-01 7.351428566781740e-02 3.474975694075563e-02 5.253144523946724e-02 9.343341290772593e-04 6.183727659352792e-04 3.839013451174083e-04 5.356087122691783e-05 1.349824929171238e-04 8.961690357250727e-05 3.117420748251488e-05 1.533685630782105e-05 1.467268038710256e-05 7.016276334674825e-01 8.782801038811315e-01 8.676036725372758e-01 1.490474995436702e-05 7.441298979496701e-06 1.433149983772254e-05 9.883631325924985e-01 8.646488777181373e-01 8.744170539763507e-01 
</DataArray>
</PointData>
</Piece>
</UnstructuredGrid>
</VTKFile>
