<?xml version="1.0"?>
<VTKFile type="UnstructuredGrid" version="0.1" byte_order="LittleEndian">
<UnstructuredGrid>
<Piece NumberOfPoints="594" NumberOfCells="198">
<Points>
<DataArray type="Float64" NumberOfComponents="3" format="ascii">
2.499999999996205e+00 0.000000000000000e+00 0.000000000000000e+00 2.999999999996966e+00 0.000000000000000e+00 0.000000000000000e+00 2.761574074072416e+00 5.243055555554663e-01 0.000000000000000e+00 9.999999999999911e-01 1.000000000000000e+00 0.000000000000000e+00 1.249999999998182e+00 4.791666666661778e-01 0.000000000000000e+00 1.499999999999992e+00 1.000000000000000e+00 0.000000000000000e+00 3.499999999997728e+00 0.000000000000000e+00 0.000000000000000e+00 3.999999999998489e+00 0.000000000000000e+00 0.000000000000000e+00 3.753637566137116e+00 5.205026455027371e-01 0.000000000000000e+00 2.499999999996205e+00 0.000000000000000e+00 0.000000000000000e+00 2.761574074072416e+00 5.243055555554663e-01 0.000000000000000e+00 2.265689300409039e+00 5.024434156380889e-01 0.000000000000000e+00 1.754629629626973e+00 4.976851851849655e-01 0.000000000000000e+00 1.499999999999992e+00 1.000000000000000e+00 0.000000000000000e+00 1.249999999998182e+00 4.791666666661778e-01 0.000000000000000e+00 7.172619047612346e-01 5.069444444443194e-01 0.000000000000000e+00 1.249999999998182e+00 4.791666666661778e-01 0.000000000000000e+00 9.999999999999911e-01 1.000000000000000e+00 0.000000000000000e+00 3.249999999999996e+00 5.000000000005678e-01 0.000000000000000e+00 3.499999999997728e+00 0.000000000000000e+00 0.000000000000000e+00 3.753637566137116e+00 5.205026455027371e-01 0.000000000000000e+00 4.282738095237837e+00 4.970238095238522e-01 0.000000000000000e+00 3.753637566137116e+00 5.205026455027371e-01 0.000000000000000e+00 3.999999999998489e+00 0.000000000000000e+00 0.000000000000000e+00 3.249999999999996e+00 5.000000000005678e-01 0.000000000000000e+00 2.761574074072416e+00 5.243055555554663e-01 0.000000000000000e+00 2.999999999996966e+00 0.000000000000000e+00 0.000000000000000e+00 1.754629629626973e+00 4.976851851849655e-01 0.000000000000000e+00 1.999999999995513e+00 0.000000000000000e+00 0.000000000000000e+00 2.265689300409039e+00 5.024434156380889e-01 0.000000000000000e+00 1.754629629626973e+00 4.976851851849655e-01 0.000000000000000e+00 2.265689300409039e+00 5.024434156380889e-01 0.000000000000000e+00 1.999999999999994e+00 1.000000000000000e+00 0.000000000000000e+00 1.999999999995513e+00 0.000000000000000e+00 0.000000000000000e+00 2.499999999996205e+00 0.000000000000000e+00 0.000000000000000e+00 2.265689300409039e+00 5.024434156380889e-01 0.000000000000000e+00 2.499999999999995e+00 1.000000000000000e+00 0.000000000000000e+00 1.999999999999994e+00 1.000000000000000e+00 0.000000000000000e+00 2.265689300409039e+00 5.024434156380889e-01 0.000000000000000e+00 1.999999999999994e+00 1.000000000000000e+00 0.000000000000000e+00 1.499999999999992e+00 1.000000000000000e+00 0.000000000000000e+00 1.754629629626973e+00 4.976851851849655e-01 0.000000000000000e+00 4.999999999995947e-01 0.000000000000000e+00 0.000000000000000e+00 9.999999999984134e-01 0.000000000000000e+00 0.000000000000000e+00 7.172619047612346e-01 5.069444444443194e-01 0.000000000000000e+00 9.999999999999911e-01 1.000000000000000e+00 0.000000000000000e+00 4.999999999999956e-01 1.000000000000000e+00 0.000000000000000e+00 7.172619047612346e-01 5.069444444443194e-01 0.000000000000000e+00 1.499999999996955e+00 0.000000000000000e+00 0.000000000000000e+00 1.999999999995513e+00 0.000000000000000e+00 0.000000000000000e+00 1.754629629626973e+00 4.976851851849655e-01 0.000000000000000e+00 3.499999999997728e+00 0.000000000000000e+00 0.000000000000000e+00 3.249999999999996e+00 5.000000000005678e-01 0.000000000000000e+00 2.999999999996966e+00 0.000000000000000e+00 0.000000000000000e+00 4.499999999999245e+00 0.000000000000000e+00 0.000000000000000e+00 4.282738095237837e+00 4.970238095238522e-01 0.000000000000000e+00 3.999999999998489e+00 0.000000000000000e+00 0.000000000000000e+00 4.499999999999999e+00 1.000000000000000e+00 0.000000000000000e+00 3.999999999999998e+00 1.000000000000000e+00 0.000000000000000e+00 4.282738095237837e+00 4.970238095238522e-01 0.000000000000000e+00 2.999999999999996e+00 1.000000000000000e+00 0.000000000000000e+00 3.249999999999996e+00 5.000000000005678e-01 0.000000000000000e+00 3.499999999999997e+00 1.000000000000000e+00 0.000000000000000e+00 7.172619047612346e-01 5.069444444443194e-01 0.000000000000000e+00 9.999999999984134e-01 0.000000000000000e+00 0.000000000000000e+00 1.249999999998182e+00 4.791666666661778e-01 0.000000000000000e+00 1.754629629626973e+00 4.976851851849655e-01 0.000000000000000e+00 1.249999999998182e+00 4.791666666661778e-01 0.000000000000000e+00 1.499999999996955e+00 0.000000000000000e+00 0.000000000000000e+00 4.282738095237837e+00 4.970238095238522e-01 0.000000000000000e+00 3.999999999999998e+00 1.000000000000000e+00 0.000000000000000e+00 3.753637566137116e+00 5.205026455027371e-01 0.000000000000000e+00 3.249999999999996e+00 5.000000000005678e-01 0.000000000000000e+00 3.753637566137116e+00 5.205026455027371e-01 0.000000000000000e+00 3.499999999999997e+00 1.000000000000000e+00 0.000000000000000e+00 3.249999999999996e+00 5.000000000005678e-01 0.000000000000000e+00 2.999999999999996e+00 1.000000000000000e+00 0.000000000000000e+00 2.761574074072416e+00 5.243055555554663e-01 0.000000000000000e+00 2.499999999999995e+00 1.000000000000000e+00 0.000000000000000e+00 2.265689300409039e+00 5.024434156380889e-01 0.000000000000000e+00 2.761574074072416e+00 5.243055555554663e-01 0.000000000000000e+00 3.499999999999997e+00 1.000000000000000e+00 0.000000000000000e+00 3.753637566137116e+00 5.205026455027371e-01 0.000000000000000e+00 3.999999999999998e+00 1.000000000000000e+00 0.000000000000000e+00 1.499999999996955e+00 0.000000000000000e+00 0.000000000000000e+00 1.249999999998182e+00 4.791666666661778e-01 0.000000000000000e+00 9.999999999984134e-01 0.000000000000000e+00 0.000000000000000e+00 2.499999999999995e+00 1.000000000000000e+00 0.000000000000000e+00 2.761574074072416e+00 5.243055555554663e-01 0.000000000000000e+00 2.999999999999996e+00 1.000000000000000e+00 0.000000000000000e+00 7.172619047612346e-01 5.069444444443194e-01 0.000000000000000e+00 4.999999999999956e-01 1.000000000000000e+00 0.000000000000000e+00 3.060515873017599e-01 6.905092592594075e-01 0.000000000000000e+00 4.282738095237837e+00 4.970238095238522e-01 0.000000000000000e+00 4.499999999999245e+00 0.000000000000000e+00 0.000000000000000e+00 4.693948412698078e+00 3.100198412695943e-01 0.000000000000000e+00 0.000000000000000e+00 0.000000000000000e+00 0.000000000000000e+00 3.281084656080592e-01 3.513271604940242e-01 0.000000000000000e+00 0.000000000000000e+00 5.000000000020591e-01 0.000000000000000e+00 5.000000000000000e+00 1.000000000000000e+00 0.000000000000000e+00 4.625000000000250e+00 6.249999999999233e-01 0.000000000000000e+00 5.000000000000000e+00 4.999999999986940e-01 0.000000000000000e+00 7.172619047612346e-01 5.069444444443194e-01 0.000000000000000e+00 3.281084656080592e-01 3.513271604940242e-01 0.000000000000000e+00 4.999999999995947e-01 0.000000000000000e+00 0.000000000000000e+00 0.000000000000000e+00 0.000000000000000e+00 0.000000000000000e+00 4.999999999995947e-01 0.000000000000000e+00 0.000000000000000e+00 3.281084656080592e-01 3.513271604940242e-01 0.000000000000000e+00 5.000000000000000e+00 1.000000000000000e+00 0.000000000000000e+00 4.499999999999999e+00 1.000000000000000e+00 0.000000000000000e+00 4.625000000000250e+00 6.249999999999233e-01 0.000000000000000e+00 4.282738095237837e+00 4.970238095238522e-01 0.000000000000000e+00 4.625000000000250e+00 6.249999999999233e-01 0.000000000000000e+00 4.499999999999999e+00 1.000000000000000e+00 0.000000000000000e+00 4.625000000000250e+00 6.249999999999233e-01 0.000000000000000e+00 4.282738095237837e+00 4.970238095238522e-01 0.000000000000000e+00 4.693948412698078e+00 3.100198412695943e-01 0.000000000000000e+00 7.172619047612346e-01 5.069444444443194e-01 0.000000000000000e+00 3.060515873017599e-01 6.905092592594075e-01 0.000000000000000e+00 3.281084656080592e-01 3.513271604940242e-01 0.000000000000000e+00 0.000000000000000e+00 1.000000000000000e+00 0.000000000000000e+00 3.060515873017599e-01 6.905092592594075e-01 0.000000000000000e+00 4.999999999999956e-01 1.000000000000000e+00 0.000000000000000e+00 5.000000000000000e+00 0.000000000000000e+00 0.000000000000000e+00 4.693948412698078e+00 3.100198412695943e-01 0.000000000000000e+00 4.499999999999245e+00 0.000000000000000e+00 0.000000000000000e+00 0.000000000000000e+00 1.000000000000000e+00 0.000000000000000e+00 0.000000000000000e+00 5.000000000020591e-01 0.000000000000000e+00 3.060515873017599e-01 6.905092592594075e-01 0.000000000000000e+00 5.000000000000000e+00 4.999999999986940e-01 0.000000000000000e+00 4.693948412698078e+00 3.100198412695943e-01 0.000000000000000e+00 5.000000000000000e+00 0.000000000000000e+00 0.000000000000000e+00 0.000000000000000e+00 5.000000000020591e-01 0.000000000000000e+00 3.281084656080592e-01 3.513271604940242e-01 0.000000000000000e+00 3.060515873017599e-01 6.905092592594075e-01 0.000000000000000e+00 4.625000000000250e+00 6.249999999999233e-01 0.000000000000000e+00 4.693948412698078e+00 3.100198412695943e-01 0.000000000000000e+00 5.000000000000000e+00 4.999999999986940e-01 0.000000000000000e+00 5.666666666666361e+00 1.000000000000000e+00 -6.666666666663608e-01 5.861111111110660e+00 4.928823381205197e-01 -8.611111111106604e-01 5.458333333332905e+00 5.000000000000361e-01 -4.583333333329067e-01 5.666666666666663e+00 0.000000000000000e+00 -6.666666666666634e-01 5.458333333332905e+00 5.000000000000361e-01 -4.583333333329067e-01 5.861111111110660e+00 4.928823381205197e-01 -8.611111111106604e-01 7.333333333333325e+00 0.000000000000000e+00 -2.333333333333325e+00 7.138888888887410e+00 4.835600907032339e-01 -2.138888888887410e+00 7.544179894178556e+00 5.093285357700812e-01 -2.544179894178557e+00 7.333333333331314e+00 1.000000000000000e+00 -2.3333
[...]
<PointData Scalars="A_conc," Vectors="" Tensors="">
<DataArray type="Float64" Name="A_conc" format="ascii">
9.999999999983756e-01 9.999999999978525e-01 1.000000000000423e+00 9.999999999995456e-01 1.000000000000237e+00 9.999999999996235e-01 9.999999999990253e-01 9.999999999812067e-01 9.999999999923163e-01 9.999999999982339e-01 1.000000000000435e+00 1.000000000000595e+00 1.000000000000270e+00 9.999999999996009e-01 1.000000000000213e+00 1.000000000000186e+00 1.000000000000238e+00 9.999999999995450e-01 1.000000000000883e+00 9.999999999956558e-01 9.999999999922459e-01 9.999999999571265e-01 9.999999999992139e-01 9.999999999826258e-01 9.999999999992362e-01 1.000000000000702e+00 9.999999999979192e-01 1.000000000000466e+00 9.999999999983230e-01 1.000000000000559e+00 1.000000000000442e+00 1.000000000000409e+00 9.999999999993897e-01 9.999999999982593e-01 9.999999999982204e-01 1.000000000000520e+00 9.999999999993020e-01 9.999999999993729e-01 1.000000000000421e+00 9.999999999994192e-01 9.999999999996099e-01 1.000000000000422e+00 9.999999999997538e-01 9.999999999997549e-01 1.000000000000151e+00 9.999999999995977e-01 9.999999999995488e-01 1.000000000000071e+00 9.999999999986656e-01 9.999999999983182e-01 1.000000000000464e+00 9.999999999953297e-01 9.999999999992655e-01 9.999999999987554e-01 9.999999999212454e-01 9.999999999565923e-01 9.999999999949275e-01 9.999999999211368e-01 9.999999999945309e-01 9.999999999563124e-01 9.999999999986697e-01 9.999999999992215e-01 9.999999999952012e-01 1.000000000000166e+00 9.999999999996745e-01 1.000000000000172e+00 1.000000000000375e+00 1.000000000000694e+00 9.999999999986483e-01 9.999999999570108e-01 9.999999999821571e-01 9.999999999994604e-01 1.000000000000808e+00 9.999999999922961e-01 9.999999999953929e-01 9.999999999992183e-01 9.999999999978829e-01 1.000000000000901e+00 9.999999999992401e-01 1.000000000000505e+00 1.000000000000325e+00 9.999999999989102e-01 9.999999999921610e-01 9.999999999807287e-01 9.999999999986077e-01 1.000000000000595e+00 9.999999999993358e-01 1.000000000000117e+00 1.000000000000485e+00 9.999999999978454e-01 9.999999999999727e-01 9.999999999996961e-01 1.000000000000035e+00 9.999999999663598e-01 9.999999999220427e-01 9.999999998642290e-01 1.000000000000001e+00 9.999999999999685e-01 1.000000000000000e+00 9.999999997051452e-01 9.999999999292321e-01 9.999999997002067e-01 1.000000000000150e+00 1.000000000000134e+00 9.999999999997555e-01 1.000000000000126e+00 9.999999999997579e-01 9.999999999999560e-01 9.999999997190774e-01 9.999999999476398e-01 9.999999998963308e-01 9.999999999639194e-01 9.999999998842859e-01 9.999999999205377e-01 9.999999998858194e-01 9.999999999812569e-01 9.999999998587654e-01 9.999999999999093e-01 1.000000000000220e+00 1.000000000000222e+00 1.000000000000069e+00 9.999999999997478e-01 9.999999999998573e-01 9.999999997153134e-01 9.999999998711913e-01 9.999999999525797e-01 9.999999999999633e-01 1.000000000000073e+00 9.999999999998000e-01 9.999999996965026e-01 9.999999998912669e-01 9.999999997063346e-01 1.000000000000185e+00 1.000000000000126e+00 1.000000000000196e+00 9.999999999007245e-01 9.999999998670268e-01 9.999999997087989e-01 9.999999972659790e-01 9.999999949952513e-01 9.999999991128748e-01 9.999999972700778e-01 9.999999990947509e-01 9.999999949729858e-01 9.999998280151796e-01 9.999998970011816e-01 9.999997337469717e-01 9.999998275264472e-01 9.999997349623246e-01 9.999998971134751e-01 9.999999992686419e-01 9.999999972325717e-01 9.999999985647330e-01 9.999999972339215e-01 9.999999992705081e-01 9.999999985560801e-01 9.999996647710049e-01 9.999997330311772e-01 9.999998411812544e-01 9.999996654032498e-01 9.999998417518221e-01 9.999997316450541e-01 9.999998266593477e-01 9.999999207375292e-01 9.999998825945079e-01 9.999999594462277e-01 9.999999844575435e-01 9.999999724038185e-01 9.999999978518025e-01 9.999999925925374e-01 9.999999949565518e-01 9.999999925973454e-01 9.999999978579091e-01 9.999999949303816e-01 9.999989106681949e-01 9.999991683975439e-01 9.999994193131027e-01 9.999999844020370e-01 9.999999593847874e-01 9.999999725671541e-01 9.999982113931485e-01 9.999968999845935e-01 9.999975611240107e-01 9.999951368605202e-01 9.999937307511781e-01 9.999921034439028e-01 9.999951452696331e-01 9.999921130596442e-01 9.999937173908806e-01 9.999982088077760e-01 9.999975642110682e-01 9.999968968652423e-01 9.999998262917678e-01 9.999998834286001e-01 9.999999204097801e-01 9.999994189102736e-01 9.999991685356110e-01 9.999989101329086e-01 9.999999926708169e-01 9.999999882895377e-01 9.999999955175393e-01 9.999999821775870e-01 9.999999724884300e-01 9.999999899508513e-01 9.999999595355188e-01 9.999999404277204e-01 9.999999750591829e-01 9.999949898192891e-01 9.999961500205512e-01 9.999937235233897e-01 9.999981361189387e-01 9.999986187482458e-01 9.999975634050058e-01 9.999969004046605e-01 9.999976370632678e-01 9.999960292509553e-01 9.999999136232324e-01 9.999998824021299e-01 9.999999454641976e-01 9.999989120645412e-01 9.999992013031629e-01 9.999985590980888e-01 9.999999596153956e-01 9.999999745807522e-01 9.999999402215020e-01 9.999981385380388e-01 9.999975606920611e-01 9.999986193953420e-01 9.999999926729788e-01 9.999999954460946e-01 9.999999883082760e-01 9.999949976320118e-01 9.999937114399705e-01 9.999961429219847e-01 9.999969034406240e-01 9.999960349462436e-01 9.999976247200986e-01 9.999999822215574e-01 9.999999898989909e-01 9.999999723492332e-01 9.999989124806276e-01 9.999985621111931e-01 9.999991987813370e-01 9.999999138988954e-01 9.999999445460162e-01 9.999998816778223e-01 9.999993873857764e-01 9.999991681132926e-01 9.999995688819353e-01 9.999993869961230e-01 9.999995534413318e-01 9.999991682139862e-01 9.999996675876242e-01 9.999997423254565e-01 9.999995311653542e-01 9.999921050941151e-01 9.999906853589786e-01 9.999938296461577e-01 9.999999820298635e-01 9.999999883434660e-01 9.999999938037535e-01 9.999949848403646e-01 9.999970053950026e-01 9.999960316321780e-01 9.999981320780706e-01 9.999989606145840e-01 9.999985601025023e-01 9.999999636043727e-01 9.999999135963145e-01 9.999999406468054e-01 9.999920921678446e-01 9.999938363014758e-01 9.999908232691459e-01 9.999999792840168e-01 9.999999400400716e-01 9.999999387567755e-01 9.999985883616638e-01 9.999985850049518e-01 9.999975926340320e-01 9.999999881709090e-01 9.999999880146354e-01 9.999999965168688e-01 9.999937828781860e-01 9.999960856591148e-01 9.999960684720394e-01 9.999977543723674e-01 9.999959927866070e-01 9.999960083625369e-01 9.999999891951679e-01 9.999999731872203e-01 9.999999890076284e-01 9.999985499260741e-01 9.999992566872629e-01 9.999985469028378e-01 9.999998845289879e-01 9.999999415435569e-01 9.999999430364994e-01 9.999996661926789e-01 9.999995438596769e-01 9.999997418345163e-01 9.999993848738091e-01 9.999996882872753e-01 9.999995305991840e-01 9.999995415170164e-01 9.999995549592215e-01 9.999991807492180e-01 9.999878111140100e-01 9.999910046722705e-01 9.999877229532198e-01 9.999878711489388e-01 9.999922745873880e-01 9.999908732345950e-01 9.999999990507517e-01 9.999999985144687e-01 9.999999993856381e-01 9.999999990518048e-01 9.999999994346140e-01 9.999999985073895e-01 9.999999997300777e-01 9.999999993370990e-01 9.999999997241262e-01 9.999999998481401e-01 9.999999990429065e-01 9.999999993140825e-01 9.999995266576867e-01 9.999997606169339e-01 9.999995383595485e-01 9.999999997163007e-01 9.999999993677975e-01 9.999999997279445e-01 9.999877079211914e-01 9.999908376681411e-01 9.999878190789466e-01 9.999999998414225e-01 9.999999993518441e-01 9.999999990456162e-01 9.999878781825376e-01 9.999907253377621e-01 9.999922929857959e-01 9.999993841382669e-01 9.999995446345121e-01 9.999996861377120e-01 9.999999938027936e-01 9.999999883669485e-01 9.999999820321193e-01 9.999999637060539e-01 9.999999403980805e-01 9.999999137010313e-01 9.999981328858912e-01 9.999985633011548e-01 9.999989609168290e-01 9.999970083571458e-01 9.999949892641420e-01 9.999960373789056e-01 9.999940181532788e-01 9.999906438464787e-01 9.999907953832478e-01 9.999999985527174e-01 9.999999993976316e-01 9.999999993572887e-01 9.999877891468365e-01 9.999908617102529e-01 9.999907002735012e-01 9.999999997734869e-01 9.999999993118133e-01 9.999999993440992e-01 1.000006047345506e+00 1.000208648935801e+00 9.996816183316596e-01 1.000008532748625e+00 9.996670107997150e-01 1.000200766351601e+00 8.424819557038851e-01 7.727334167307621e-01 8.989742905791072e-01 8.990841290472258e-01 7.731133820480282e-01 8.423095214335807e-01 9.999732484338800e-01 1.000040341851045e+00 1.000001001998351e+00 9.999745781608477e-01 1.000000062504931e+00 1.000041182996787e+00 8.456226188073575e-01 7.724571206228800e-01 7.291608821597916e-01 8.457791839953183e-01 7.293044270973564e-01 7.721103426179950e-01 9.277489501247933e-01 8.425368984438610e-01 8.933375792797574e-01 9.957331847733375e-01 9.716829121805490e-01 9.846042118506835e-01 1.000383955185860e+00 9.996775391534742e-01 9.989875152004611e-01 1.000387222729780e+00 9.989858395857246e-01 9.996620133927446e-01 5.969657818614054e-01 5.298708609413313e-01 4.636195972495085e-01 9.715774885955327e-01 9.956460080469253e-01 9.848222618398162e-01 3.375965892917206e-01 2.870883377030461e-01 2.378089962780415e-01 1.010538002895370e-01 1.296257117452086e-01 1.560964704409807e-01 1.559827545031088e-01 1.297628084346027e-01 1.009496646394440e-01 2.378978043615524e-01 2.870064964668219e-01 3.376814498223467e-01 8.423204279422715e-01 9.275387981869168e-01 8.937129243621195e-01 5.969903705500803e-01 4.636513528338914e-01 5.298140385983906e-01 9.990814385076631e-01 1.000183948422659e+00 9.969556842470443e-01 9.928980714693414e-01 9.990744522038582e-01 9.846862152889533e-01 9.716521537447343e-01 9.877147673388877e-01 9.520907440343183e-01 1.585430754622939e-01 1.297018250407740e-01 1.934269682736229e-01 2.845110734564352e-01 2.378991387930525e-01 1.959629875627388e-01 8.932759188650436e-01 9.235539597711785e-01 9.560254709324597e-01 2.870249715338110e-01 3.975869857232167e-01 3.405406598598589e-01 5.285370314952614e-01 4.635036840880755e-01 4.002518693072840e-01 9.717636637693320e-01 9.521825461520556e-01 9.872818058268288e-01 2.871098705026534e-01 3.404556508216885e-01 3.975515624258780e-01 9.990681364242961e-01 9.970043576181528e-01 1.000093946925494e+00 1.298483157257729e-01 1.584250624328403e-01 1.934588106070818e-01 2.847387126794056e-01 1.958514976366038e-01 2.378138079017016e-01 9.929741192867451e-01 9.844914496612495e-01 9.990008601895086e-01 5.286855176136602e-01 4.001355600797711e-01 4.634916098739992e-01 9.237643451895073e-01 8.928947564035243e-01 9.558968149392605e-01 5.299836889297497e-01 5.977453112149359e-01 6.619642668321455e-01 5.977769626735808e-01 5.299114711749890e-01 6.600555260428442e-01 7.293476548531386e-01 6.601963766523471e-01 7.735699451433367e-01 1.281721782944611e-01 8.518725580639931e-02 1.011702583665678e-01 1.585219218714690e-01 1.959584894835719e-01 2.350268980719512e-01 1.000353530653419e+00 9.970628201947890e-01 9.927270529952653e-01 4.613185203337195e-01 3.406618399863246e-01 4.001688032992990e-01 9.236662358093950e-01 9.756210527274586e-01 9.522493734258635e-01 1.012993105386911e-01 8.689847071762075e-02 1.281473987089574e-01 9.513854451578349e-01 9.923185930522499e-01 9.509226935944071e-01 2.857559285960871e-01 3.990537637731936e-01 3.989259109427148e-01 9.969183710702213e-01 1.001181812105624e+00 9.966945912213667e-01 1.283605755875372e-01 1.951943966391387e-01 1.950322709707464e-01 2.807785321561592e-01 1.967714003730054e-01 1.969451341525828e-01 5.261878425753886e-01 4.006090567030454e-01 4.007452230743977e-01 9.981715043327754e-01 9.979066645975058e-01 9.855386203852249e-01 8.950464935136212e-01 9.538193447328522e-01 9.533608500738099e-01 7.738083293476292e-01 6.621393878260844e-01 7.292181091329277e-01 7.305407253815719e-01 5.979524492593405e-01 6.599966099708779e-01 6.597460981590331e-01 5.300776545405748e-01 6.617255044969028e-01 6.221458643835919e-02 6.295891219787110e-02 8.547669515812763e-02 9.955060174579519e-02 6.169599321398750e-02 8.648728216367034e-02 1.000007401571962e+00 9.999934834158968e-01 1.000000721432898e+00 1.000006768967870e+00 1.000001547374852e+00 9.999940985556626e-01 1.000000040472926e+00 1.000000032387159e+00 1.000000040416833e+00 1.000000632322522e+00 1.000006513843448e+00 9.999978529389608e-01 6.595402802059395e-01 6.615292729557897e-01 7.755051351310391e-01 1.000000029871772e+00 1.000000006506639e+00 1.000000029967018e+00 6.302598156420512e-02 6.217953495426524e-02 8.406042421132687e-02 1.000000572502905e+00 9.999982374268236e-01 1.000005624312447e+00 9.937543724285974e-02 8.487986760354975e-02 6.169743868297283e-02 5.978956286521857e-01 7.304311102104689e-01 6.619127036661366e-01 1.000330558148539e+00 9.927135725521863e-01 9.971281501589668e-01 9.757312163150572e-01 9.238237375943924e-01 9.523498631942108e-01 4.613149479252327e-01 4.000317252831508e-01 3.406452957910214e-01 1.584425800816639e-01 2.349420837243031e-01 1.958422306225286e-01 1.258964033431963e-01 8.730213675982264e-02 8.572370826656314e-02 9.999973455782314e-01 1.000001957403279e+00 1.000001868766066e+00 8.671979127488200e-02 6.236211403253102e-02 8.524079023878868e-02 1.000000181731611e+00 1.000000309355050e+00 1.000000249103582e+00 
</DataArray>
</PointData>
</Piece>
</UnstructuredGrid>
</VTKFile>
