<?xml version="1.0"?>
<VTKFile type="UnstructuredGrid" version="0.1" byte_order="LittleEndian">
<UnstructuredGrid>
<Piece NumberOfPoints="2028" NumberOfCells="724">
<Points>
<DataArray type="Float64" NumberOfComponents="3" format="ascii">
0.6 0.7 0 0.949999999999237 1.27499999999875 0 0.949999999999237 1.27499999999875 0 1.29999999999838 1.84999999999734 0 1.29999999999838 1.84999999999734 0 1.64999999999907 2.42499999999847 0 1.64999999999907 2.42499999999847 0 2 3 0 5.75 0.7 0 5.50000000000083 1.19999999999835 0 5.50000000000083 1.19999999999835 0 5.25000000000071 1.69999999999859 0 5.25000000000071 1.69999999999859 0 5 2.2 0 5 2.2 0 4.40000000000013 2.35999999999996 0 4.40000000000013 2.35999999999996 0 3.8000000000002 2.51999999999995 0 3.8000000000002 2.51999999999995 0 3.20000000000014 2.67999999999996 0 3.20000000000014 2.67999999999996 0 2.60000000000008 2.83999999999998 0 2.60000000000008 2.83999999999998 0 2 3 0 2 3 0 2.08333333333292 3.59999999999702 0 2.08333333333292 3.59999999999702 0 2.16666666666627 4.19999999999716 0 2.16666666666627 4.19999999999716 0 2.25 4.8 0 2.25 4.8 0 1.75 5 0 2.25 4.8 0 2.83333333333312 5.09999999999989 0 2.83333333333312 5.09999999999989 0 3.41666666666727 5.40000000000031 0 3.41666666666727 5.40000000000031 0 4 5.7 0 4 5.7 0 3.62500000000722 5.99999999999422 0 3.62500000000722 5.99999999999422 0 3.25 6.3 0 4 5.7 0 4.49999999999954 5.99999999999973 0 4.49999999999954 5.99999999999973 0 5 6.3 0 6 3.8 0 6.37499999999994 3.89999999999998 0 6.37499999999994 3.89999999999998 0 6.75 4 0 6 3.8 0 5.62500000000006 3.89999999999998 0 5.62500000000006 3.89999999999998 0 5.25 4 0 4.25 4.8 0 4.75000000000034 4.39999999999973 0 4.75000000000034 4.39999999999973 0 5.25 4 0 4.75 4 0 5.25 4 0 3.5 4 0 3.08333333333459 4.26666666666586 0 3.08333333333459 4.26666666666586 0 2.66666666666806 4.53333333333244 0 2.66666666666806 4.53333333333244 0 2.25 4.8 0 3.5 4 0 3.87499999999237 3.75000000000508 0 3.87499999999237 3.75000000000508 0 4.25 3.5 0 1 6.2 0 1.59999999999711 6.10000000000048 0 1.59999999999711 6.10000000000048 0 2.19999999999569 6.00000000000072 0 2.19999999999569 6.00000000000072 0 2.79999999999713 5.90000000000048 0 2.79999999999713 5.90000000000048 0 3.39999999999856 5.80000000000024 0 3.39999999999856 5.80000000000024 0 4 5.7 0 4.75 7.2 0 4.5 6.7 0 4.5 6.7 0 4.25 6.2 0 4.25 6.2 0 4 5.7 0 2.75 4 0 3.12499999998898 4 0 3.12499999998898 4 0 3.5 4 0 5 2.2 0 4.75 2.8 0 5 2.2 0 5.24999999999962 2.49999999999954 0 5.24999999999962 2.49999999999954 0 5.5 2.8 0 5.5 2.8 0 5.25000000000033 3.19999999999948 0 5.25000000000033 3.19999999999948 0 5.0000000000003 3.59999999999952 0 5.0000000000003 3.59999999999952 0 4.75 4 0 5.5 2.8 0 5.9166666666663 3.19999999999965 0 5.9166666666663 3.19999999999965 0 6.333333333333 3.59999999999968 0 6.333333333333 3.59999999999968 0 6.75 4 0 5.5 2.8 0 5.75 2.5 0 5.75 2.5 0 6.37499999999998 2.35 0 6.37499999999998 2.35 0 7 2.2 0 7 2.2 0 7.49999999999998 2.34999999999999 0 7.49999999999998 2.34999999999999 0 8 2.5 0 7.5 2 0 7.75 2.25 0 7.75 2.25 0 8 2.5 0 8 2.5 0 8.16666666666618 1.90000000000174 0 8.16666666666618 1.90000000000174 0 8.33333333333291 1.30000000000152 0 8.33333333333291 1.30000000000152 0 8.5 0.7 0 8 2.5 0 8.49999999999995 2.59999999999999 0 8.49999999999995 2.59999999999999 0 9 2.7 0 9 2.7 0 9.46666666666447 2.56666666666729 0 9.46666666666447 2.56666666666729 0 9.93333333332953 2.43333333333442 0 9.93333333332953 2.43333333333442 0 10.4 2.3 0 10.4 2.3 0 10.7833333333323 1.90000000000107 0 10.7833333333323 1.90000000000107 0 11.166666666667 1.49999999999966 0 11.166666666667 1.49999999999966 0 11.55 1.1 0 8 2.5 0 8.4375 2.875 0 8.4375 2.875 0 8.875 3.25 0 8.875 3.25 0 9.3125 3.625 0 9.3125 3.625 0 9.75 4 0 9.75 4 0 9.25000000000007 3.90000000000002 0 9.25000000000007 3.90000000000002 0 8.74999999999996 3.79999999999999 0 8.74999999999996 3.79999999999999 0 8.25 3.7 0 7.5 3.7 0 7.74999999999975 3.10000000000059 0 7.74999999999975 3.10000000000059 0 8 2.5 0 6.75 4 0 7.24999999998975 4.3333333333265 0 7.24999999998975 4.3333333333265 0 7.74999999998975 4.66666666665984 0 7.74999999998975 4.66666666665984 0 8.25 5 0 7.5 4.8 0 7.87500000001364 4.90000000000364 0 7.87500000001364 4.90000000000364 0 8.25 5 0 8.25 5 0 8.75 5.16666666666667 0 8.75 5.16666666666667 0 9.25 5.33333333333333 0 9.25 5.33333333333333 0 9.75 5.5 0 8.25 5 0 8.625 5.25 0 8.625 5.25 0 9 5.5 0 7.75 5.5 0 8 5.25 0 8 5.25 0 8.25 5 0 9.75 4 0 9.25 4.33333333333333 0 9.25 4.33333333333333 0 8.75 4.66666666666667 0 8.75 4.66666666666667 0 8.25 5 0 9.75 4 0 10.25 4.1 0 10.25 4.1 0 10.7500000000001 4.20000000000003 0 10.7500000000001 4.20000000000003 0 11.25 4.3 0 11.25 4.3 0 10.875 4.55 0 10.875 4.55 0 10.5 4.8 0 11.25 4.3 0 11.7499999999997 4.39999999999995 0 11.7499999999997 4.39999999999995 0 12.2499999999998 4.49999999999996 0 12.2499999999998 4.49999999999996 0 12.75 4.6 0 11.25 4.3 0 11.4124999999997 4.97499999999896 0 11.4124999999997 4.97499999999896 0 11.5749999999991 5.64999999999639 0 11.5749999999991 5.64999999999639 0 11.7374999999994 6.32499999999759 0 11.7374999999994 6.32499999999759 0 11.9 7 0 10.4 2.3 0 10.6124999999999 2.79999999999987 0 10.6124999999999 2.79999999999987 0 10.8249999999996 3.29999999999912 0 10.8249999999996 3.29999999999912 0 11.0374999999996 3.79999999999912 0 11.0374999999996 3.79999999999912 0 11.25 4.3 0 12 3.7 0 11.6250000000003 3.99999999999973 0 11.6250000000003 3.99999999999973 0 11.25 4.3 0 4 5.7 0 4.41666666666686 5.46666666666656 0 4.41666666666686 5.46666666666656 0 4.83333333333373 5.23333333333311 0 4.83333333333373 5.23333333333311 0 5.25 5 0 5.25 5 0 5.74999999998975 4.6666666666735 0 5.74999999998975 4.6666666666735 0 6.24999999998975 4.33333333334016 0 6.24999999998975 4.33333333334016 0 6.75 4 0 5.25 5 0 4.75 4.7 0 3.5 5 0 3.74999999999926 5.34999999999897 0 3.74999999999926 5.34999999999897 0 4 5.7 0 5 6.3 0 5.5 6.35 0 5.5 6.35 0 6 6.4 0 6 6.4 0 6.62499999999985 6.20000000000005 0 6.62499999999985 6.20000000000005 0 7.25 6 0 7.25 6 0 7.6875 6.5 0 7.6875 6.5 0 8.125 7 0 8.125 7 0 8.5625 7.5 0 8.5625 7.5 0 9 8 0 7.25 6 0 6.87500000000078 5.65000000000073 0 6.87500000000078 5.65000000000073 0 6.5 5.3 0 5.25 5 0 5.75 5.25 0 5.75 5.25 0 6.25 5.5 0 6.25 5.5 0 6.75 5.75 0 6.75 5.75 0 7.25 6 0 7.65 6.2 0 7.25 6 0 5 2.2 0 4.6250000000005 1.85000000000047 0 4.6250000000005 1.85000000000047 0 4.25 1.5 0 0 3.7 0 0.562499999998241 3.97499999999914 0 0.562499999998241 3.97499999999914 0 1.12499999999642 4.24999999999825 0 1.12499999999642 4.24999999999825 0 1.68749999999941 4.52499999999971 0 1.68749999999941 4.52499999999971 0 2.25 4.8 0 0 0.7 0 0 1.63196399302199 0 0.6 0.7 0 0.6 0.7 0 0 1.63196399302199 0 0.949999999999237 1.27499999999875 0 2.16666666666627 4.19999999999716 0 1.68749999999941 4.52499999999971 0 2.25 4.8 0 1.01330161616962 3.61287417198111 0 0.562499999998241 3.97499999999914 0 1.12499999999642 4.24999999999825 0 0 3.11417863697563 0 0.709930085018308 2.90541813969645 0 0 2.43030394096465 0 0.681422922177531 2.10631319418203 0 1.29999999999838 1.84999999999734 0 0.949999999999237 1.27499999999875 0 0 1.63196399302199 0 0.681422922177531 2.10631319418203 0 0.949999999999237 1.27499999999875 0 1.59342895722992 3.88970357744513 0 1.68749999999941 4.52499999999971 0 2.16666666666627 4.19999999999716 0 2.08333333333292 3.59999999999702 0 1.59342895722992 3.88970357744513 0 2.16666666666627 4.19999999999716 0 1.59342895722992 3.88970357744513 0 1.12499999999642 4.24999999999825 0 1.68749999999941 4.52499999999971 0 1.59342895722992 3.88970357744513 0 1.01330161616962 3.61287417198111 0 1.12499999999642 4.24999999999825 0 0 2.43030394096465 0 0.681422922177531 2.10631319418203 0 0 1.63196399302199 0 0.681422922177531 2.10631319418203 0 0 2.43030394096465 0 0.709930085018308 2.90541813969645 0 0.709930085018308 2.90541813969645 0 1.18646728946124 2.48825915784634 0 0.681422922177531 2.10631319418203 0 1.45178778108394 3.11022608666643 0 1.01330161616962 3.61287417198111 0 1.59342895722992 3.88970357744513 0 1.45178778108394 3.11022608666643 0 2.08333333333292 3.59999999999702 0 2 3 0 1.59342895722992 3.88970357744513 0 2.08333333333292 3.59999999999702 0 1.45178778108394 3.11022608666643 0 1.29999999999838 1.84999999999734 0 1.18646728946124 2.48825915784634 0 1.64999999999907 2.42499999999847 0 1.29999999999838 1.84999999999734 0 0.681422922177531 2.10631319418203 0 1.18646728946124 2.48825915784634 0 1.64999999999907 2.42499999999847 0 1.45178778108394 3.11022608666643 0 2 3 0 1.64999999999907 2.42499999999847 0 1.18646728946124 2.48825915784634 0 1.45178778108394 3.11022608666643 0 1.01330161616962 3.61287417198111 0 1.45178778108394 3.11022608666643 0 0.709930085018308 2.90541813969645 0 1.18646728946124 2.48825915784634 0 0.709930085018308 2.90541813969645 0 1.45178778108394 3.11022608666643 0 0.457146340237234 3.46149418973047 0 0.562499999998241 3.97499999999914 0 1.01330161616962 3.61287417198111 0 0.709930085018308 2.90541813969645 0 0.457146340237234 3.46149418973047 0 1.01330161616962 3.61287417198111 0 0.457146340237234 3.46149418973047 0 0 3.7 0 0.562499999998241 3.97499999999914 0 0 3.7 0 0.457146340237234 3.46149418973047 0 0 3.11417863697563 0 0.457146340237234 3.46149418973047 0 0.709930085018308 2.90541813969645 0 0 3.11417863697563 0 5.10625000000121 0.7 0 5.50000000000083 1.19999999999835 0 5.75 0.7 0 1.24375000000139 0.7 0 0.6 0.7 0 0.949999999999237 1.27499999999875 0 5.25000000000071 1.69999999999859 0 4.6250000000005 1.85000000000047 0 5 2.2 0 4.6250000000005 1.85000000000047 0 4.40000000000013 2.35999999999996 0 5 2.2 0 0.949999999999237 1.27499999999875 0 1.62694975199716 1.39780443046149 0 1.24375000000139 0.7 0 1.62694975199716 1.39780443046149 0 1.88750000000329 0.7 0 1.24375000000139 0.7 0 1.29999999999838 1.84999999999734 0 1.62694975199716 1.39780443046149 0 0.949999999999237 1.27499999999875 0 3.81875000000451 0.7 0 4.21983179209416 1.10827359693862 0 4.4625000000026 0.7 0 5.25000000000071 1.
[...]
<PointData Scalars="A_conc,B_conc,region_id," Vectors="" Tensors="">
<DataArray type="Float64" Name="A_conc" format="ascii">
0.058551296186257 0.323662889100325 0.297462257888087 0.435063122876092 0.434447978098153 0.542043378044627 0.534777811949599 0.566597062421627 0.00462760109976677 -0.00654633387647256 -0.011472754544904 0.0372567201131159 0.0255347587714118 0.107997938656135 0.572505825191048 0.570452322653747 0.570437367440759 0.568470910826566 0.568457117864934 0.566577379377731 0.566556802210355 0.564788923490588 0.565199033729099 0.559643499289052 0.589775428545057 0.272258930183806 0.14661783910232 0.121476904755105 0.218281528547693 0.437450512556922 0.438043937859563 0.417911565603686 0.439882470025208 0.456621291767085 0.456599866495669 0.477884890150771 0.478202166632957 0.486804454682367 0.487032530206564 0.479194552474472 0.483851205868709 0.456571843058751 0.173957489207013 0.184657508602294 0.189123828961384 0.204868222880108 0.768975593574769 0.774988185205926 0.774714784748399 0.777684626765845 0.769088980435619 0.760555173509449 0.760606779009455 0.744255851487805 0.716399308597177 0.741107282998445 0.736730588232059 0.743430680723355 0.590225375380911 0.237432633716467 0.434084867374395 0.442928713805719 0.444614373097832 0.443033097590624 0.445926452142062 0.42813762025383 0.432630775278868 0.442848621613465 0.457204072911989 0.532761159607003 0.47505710188699 0.480176104036985 0.479390469256685 0.481265686901733 0.481226619375421 0.48295238799059 0.482955150188438 0.484732119316403 0.484750814942983 0.486646960161307 -0.00419167059751951 0.0302088966599984 0.0124905307574068 0.0968505134715239 0.118613878457888 0.472567119044114 0.195311838786295 0.283305607342978 0.270328079010534 0.417233675039082 0.631532181102688 0.344547224809784 0.633137418148181 0.642238570606564 0.641103310320813 0.644785911818906 0.644620866961534 0.631240026601704 0.632974842579662 0.602757018202323 0.610133446489472 0.547033922817101 0.28848006041207 0.343505494074926 0.352793624318917 0.446653993912024 0.447877152074476 0.655728589880028 0.715187667912916 0.727615388245293 0.727219171477045 0.731172022439509 0.730997121281201 0.733195795392188 0.733204654187535 0.735025493988818 0.735028798949801 0.736864604752245 0.588293172965801 0.738566731892612 0.709922594147135 0.739571635789701 0.207310097269668 -0.0721179979718153 -0.0257239404587047 0.0122513873070196 0.00250107361445507 0.0042452080564088 0.709306406434919 0.726937137268024 0.72690799016004 0.734604608211262 0.734381937653268 0.740232091980558 0.740170103386372 0.743523289976427 0.743487173868344 0.74653982446726 0.431405225967305 0.521794440922437 0.523817845946961 0.626573958086973 0.636210407279723 0.749463743569878 0.789652318006089 0.817787004542636 0.817927977349117 0.857362289972909 0.857642988652894 0.905684799107162 0.906055953942522 0.956467922242721 0.955866691786659 0.946871595683139 0.950213703608892 0.92616745080529 0.963356301035007 0.784662998342281 0.562201930417928 0.718981201564722 0.689189419118923 0.744971287534745 0.77766030500604 0.814564278694549 0.812308767273765 0.837994212677228 0.838852508424399 0.860252645867335 0.794024720234581 0.864598868044362 0.849799241652783 0.860941491592487 0.213091414831322 0.260266848675985 0.263190404480939 0.321500688460661 0.30976645427177 0.351721705641383 0.885635823125933 0.731465673876354 0.795463853142337 0.0618364770183087 0.795892760873153 0.865010128331574 0.850444549145594 0.860923577613362 0.955125518603356 0.952938548792843 0.953225253748188 0.947818669948628 0.948324036149329 0.93418284884881 0.954829025081369 0.958883490701826 0.958506285484983 0.958942703219546 0.958942739983052 0.959379092436654 0.961194890903466 0.949885165915458 0.980061255323765 0.85004860226969 0.993736484742726 0.999716257142939 0.999058260069263 1.00017707166277 0.999970475642948 1.00001706897534 0.426256200655974 0.497210390889099 0.496451477710575 0.571397188219072 0.570887893937773 0.673459909383866 0.674282944680799 0.66027380415609 0.825761824744229 0.866043683876822 0.866177123183487 0.904616250742394 0.903888499748809 0.936473079954607 0.936503127643 0.958490868092169 0.823804593428785 0.737109854492046 0.738845712121003 0.634394534422099 0.654685284818698 0.671169792971368 0.670451996194542 0.67842333765546 0.678469898983206 0.679754364336436 0.739399588984366 0.767826166683794 0.767294246847224 0.775477600293023 0.774902227391459 0.777904198524817 0.0838557425856238 0.357864624294046 0.32978184006288 0.275202331660253 0.267989978557015 0.137021902602482 0.205231446385279 0.215243719600678 0.215351373159466 0.223940630537141 0.223988298235191 0.230564378776868 0.230594133767858 0.236281220812161 0.0851906443347786 0.10340409212825 0.105796993779981 0.158539577513606 0.164178078995395 0.235422454957146 0.228843979479066 0.281992878800626 0.527571721948986 0.476660566086715 0.466459300336114 0.441028647992758 0.160918386286835 0.19629499809471 0.193782544564531 0.214191284898833 0.198533676125912 0.193067986592596 0.198134549191279 0.234688180460465 0.0363078044892316 0.284344141431036 0.573177160944343 0.561918321425465 0.56922622795489 0.527123848454155 0.378417537313392 0.413105285239552 0.412895088858059 0.428636713506697 0.427963689816855 0.43379624279266 0.433297447314349 0.434825514942072 0.0702282874365177 0.32719766825591 0.0833776078980403 0.0813401248658789 0.331280919600124 0.316986631269507 0.220993306702422 0.367829529077394 0.434727863987874 0.0487941028152887 0.163005130878322 0.220964317437309 0.393536478348295 0.483100999594335 0.406290936707357 0.426346664971022 0.43541853587212 0.301419237301424 0.296531125880603 0.424020841181457 0.303664565572352 0.0545888348255288 0.365307559762097 0.185596150381924 0.145903665206098 0.105770873357036 0.121592863342766 0.0614920221190984 0.270861438529508 0.360657205444733 0.0611107184577633 0.0454253441699199 0.223513115631902 0.409585747217261 0.427866982363538 0.304719006992157 0.435124306416865 0.393202483192782 0.470712409998444 0.471564430285982 0.50587056814646 0.434011754706732 0.498352680288186 0.141162320884684 0.0546973315866418 0.496743102520263 0.274975315443587 0.589052666407862 0.0504726022000679 0.230313715762043 0.504290913824806 0.435976126816171 0.510642557572409 0.54191469939834 0.43728078538975 0.417306513129454 0.509753972142015 0.536328819574249 0.523860638650826 0.56975632703702 0.537224702132324 0.50035691409972 0.523253278441093 0.165365389752311 0.503811977400754 0.520206525277166 0.501154730509621 0.460019597154227 0.523555291321949 0.0930723342620298 0.125757139354141 0.0689698821337683 0.515446418639814 0.180462561044925 0.168154557844381 0.0936119484953121 0.0984386734781662 0.12507187665897 0.0316186574473705 0.140767102341769 0.313389808667319 0.184630171416006 0.511782558413975 0.338198572739612 0.002176834635722 -0.00468785216001091 0.00346234652964871 -0.0292279527504802 -0.0274190081443493 0.0636823630978243 -0.12765474998239 0.524397495341628 0.278512854724904 0.53064020383787 0.519644556807285 0.575846549958416 0.0699287389230219 0.116926079097403 -0.0324084270468907 0.122925605755928 -0.0396346934907604 -0.040288750434928 0.106437128372171 0.134959322118126 0.0854241099387408 0.00901139547342377 -0.020899859351686 0.00905793409583759 -0.0863048303114674 -0.137037751108706 0.420948158173965 0.355005435247153 0.571384359291216 0.556733336670892 -0.0505446571934953 0.1146517179111 -0.0131116769050306 0.433116640964515 0.329203507839071 0.325770276712338 0.540347723500047 0.394893776696279 0.543661856594596 0.337009363776582 0.573733159900268 0.353407727035298 0.392906848688703 0.365398174074713 0.546543437127631 0.434024435081651 0.325869681074228 0.430918520090037 -0.0790883612183746 0.648855669157288 0.481598916996702 -0.0168460812339871 0.633135256893931 -0.0699624791823292 0.278178995739508 0.297471361951144 0.214342552492368 0.332194141816017 0.298828744508043 0.279162562990847 0.532256177687097 0.432530189890082 0.520737627023893 0.482002227212451 0.573687304770859 0.34658582264186 0.618373457859165 -0.00232265502308945 0.232566812034496 0.456387721653337 0.563954595029448 0.542056614390332 0.434637102209838 0.455786336947076 0.543648205357871 0.342773010323489 0.576200704947211 0.57242104660198 0.217726450327244 0.355250031811346 0.286657645578758 -0.0436603738306357 0.105161889491719 -0.0457885095217968 0.352291717853337 0.373724429387428 0.478734682475531 0.0090714884192522 -0.0210338788700559 -0.00886700072932005 -0.000954280810234338 -0.00071664724844534 0.00143403552405387 0.321276503104255 0.163693827948737 0.409898759424442 0.0669299719776902 0.100764848347829 -0.0372103541566842 0.168129987753117 0.24010561603129 0.404726951921263 0.276032513820799 0.195856898176487 0.231481776150214 -0.0307638346940353 0.0606595284451499 -0.033980856424537 -0.0684699065085986 0.22505571521684 0.101279644295848 0.252288493003836 0.122608315882375 0.0767514457580701 0.150238799340261 0.141602203317317 0.0984709026646877 0.201142444279213 0.152887572610954 0.225657850510275 0.145524507423641 -0.0448183148178674 0.133410796067227 0.199006191674296 0.14003895019812 0.153296783698363 0.159323624029178 0.217735856402465 -0.0572004959470377 -0.0509831506933679 0.146823652450444 -0.0510006587415127 0.57548731802805 0.314662733606117 0.55273083967835 0.315954927205092 0.577751610504802 0.341689021363495 0.184647283246107 0.278369387525977 0.294337001011395 0.184960572392419 0.128721092306358 0.273834838835646 0.314138923515814 0.273556359388709 0.552278918669541 0.120862353424562 0.259453229991163 0.280346161154078 0.00179040757714106 -0.00410524798022678 -0.00116098569719674 -0.00512172574001202 0.00671649939938062 0.0296913235551807 0.402975113980541 0.401246807001144 0.683080040355214 0.396361761269119 0.0747935703223154 0.373288836544436 -0.00365229239328205 -0.000743281278458543 0.00555438504233317 0.0114224897102846 0.185767450578802 0.0258233248382986 0.289092325722635 0.225915879580038 -0.0081502928371573 0.0665514392758492 0.4114519903122 0.344582892226498 0.0853224177820337 0.0792475583779469 0.312079722412788 0.0772777075396884 0.000506841122754787 0.068388536438128 0.00615049183385428 0.0181533878730654 -0.00608122613804472 0.00863184389349158 0.0288905713356127 -0.00586083650948229 -0.00395743151686513 0.00614773285853078 0.0596458755350446 0.00684629424084481 0.0190348044601956 0.0232274501914332 0.0249968026525786 0.019727703066753 0.0588174354875574 0.0641568714381529 0.0164576088265352 0.0381279743725362 0.905541828246059 0.896596938023461 0.978780276909913 0.890278139860321 0.657069385289209 0.93233951396374 0.645315763434275 0.673379287824744 0.920256462361837 0.923869040670618 0.68026523572218 0.903342218222439 0.170840654710887 0.568103915126483 0.284554451019572 0.940846485771255 0.651738191638761 0.961682615317537 0.696465444765408 0.64346649711104 0.970001728784819 0.688656897335242 0.254165758966695 0.62895531116429 0.652912472740151 0.262566185895461 0.321514818316692 0.669616035575074 0.630002734435593 0.25480810186567 0.248058267866256 0.0676020199813226 0.304758949329871 0.127535990007536 0.0742142936306232 0.245318670257969 0.281467564165396 0.651975704651764 0.389691988111949 0.368547352275074 0.118487600215887 0.27621445195061 0.117240271050582 0.0320458464059414 0.0732726382012153 0.0379099060693232 0.105170051217093 0.0698084282816956 0.240012763567775 0.186127670472074 0.111746730251946 0.111599077830472 0.175921657562668 0.0711903864447555 0.80413480999777 0.585141847415659 0.166331554614286 0.179991189034752 0.887560003482565 0.814973224431909 0.632437318941946 0.922058386155156 0.401773816703194 0.403771198786291 -0.114394598136724 0.175479003765836 0.137883169727923 0.211383991002996 0.0698998290957876 -0.0982628534460329 0.605505405559959 0.734009174511647 -0.137790164274388 0.42373385529026 -0.0401974791151678 0.0355532444962379 0.0515642735903945 0.00701271991198337 0.135293408629276 0.0590982269252567 0.0376633725369959 0.179726615994157 0.0279557769602113 0.181883911981713 0.0291398328609676 0.00863181582737487 0.000903481070661066 0.0358811425845569 0.0407844219027904 -0.000927768234494968 0.0450384123275621 0.193897287149971 0.196999360872101 0.170142237955558 0.0543295662281582 0.0368076012824127 0.178881018751797 0.0431395433330868 0.156910196048021 0.0305320630779393 0.00173986989461041 0.00176247141459906 -0.126602991034378 0.744137002079389 0.381675986774252 0.00319337368276481 0.0080990744142845 0.0323374626098553 0.0362150057264814 0.0373724934042893 0.000718286260168637 0.0357429968385957 0.141747981419767 0.0490602111279709 0.38923557711219 0.339591514003444 0.417312541987952 0.408173127168914 0.408350743556023 0.437280152711765 0.398367230849315 0.394275415614159 0.430157798501681 0.443105859059975 0.441189724576582 0.489483623434383 0.407191819543093 0.445730584383916 0.456913432615555 0.115254900059316 0.0513875400600415 0.158222498961797 0.490923151819716 0.392626801792573 0.46928104330773 0.411887422761605 0.471081298349254 0.480166519270331 0.419865351474567 0.375230854817515 0.451132382594405 0.167800543564568 0.0242021523386536 0.173547169663275 0.160884985877337 0.081481341710921 0.0302265333276074 0.200640701567362 -0.00334715520325885 0.236841736794238 0.00685976876979745 -0.00148420739105687 0.0019124752400134 0.199544702249946 0.367844746560774 0.225536183260384 0.375039887867235 0.189775077663327 0.385279992558297 0.354140206938322 0.500682276052759 0.477134684469303 0.362045683156686 0.176922131630689 0.297887927416102 0.187161778560165 0.357497380357663 0.345798143102109 0.418645939988311 0.343033841933919 0.330295608411357 0.400057072961999 0.30652517049934 0.393362301174163 0.260516311726066 0.462505486546535 0.425428511674562 0.4192939977101 0.418582745461824 0.330377674993928 0.407038200089503 0.410774342819565 0.344559745900957 0.170273807458733 -0.048012354774616 0.154457153395618 0.424169215603576 0.420092547157604 0.345769331673901 0.420298514188742 0.329712856259704 0.345601293872249 0.435254434792441 0.271677165910806 0.426928076648167 0.420782564269086 0.27239373067126 0.437018885122538 0.464338169527359 0.258773658770424 0.324339615823607 0.266979070343808 0.368233991806966 0.235893454432111 0.236489613377571 0.367727433950747 0.310799419481954 0.402661706209847 0.496956596699069 0.488133376101376 0.402024583245306 0.409767266167038 0.498337254954053 0.297718304602598 0.225626493706205 0.368765931677911 0.140443193083657 0.478702707676947 0.50276689824331 0.000456160870030466 -0.00184572223912287 -0.0013094970192172 -0.0017901338362846 0.0234734761800732 -0.0061472211171656 -0.0070262713913577 0.12361529953105 0.0916396476222321 -0.0330201003218409 0.1418199028917 -0.03680207395795 0.0223003465104899 0.00641341783535639 0.0757270080102392 0.010085679835382 0.0166084423945564 -0.000906053531715899 0.307322740977762 0.400262503889576 0.414702585400705 0.508622007174359 0.276625672072727 0.4543473236895 -0.00131368480184286 0.00117964221504546 -0.000899374302298468 0.279416235965409 0.303863746203299 0.417277193470514 0.362500239597349 0.456089176616471 0.371039185635089 -0.0158446732618562 0.00471657105798217 0.00427799583089723 0.125618377960631 0.172548217456174 -0.0470224834105041 0.0883124553333712 0.0758271217447035 0.00197107530960432 0.523159992783331 0.3976778748515 -0.00609328225307479 0.00193992317006872 0.340842609752274 -0.0840801511340904 0.00157891254096225 0.0279071433787158 0.0094849439563745 0.0306910441626763 -0.00594689918847578 0.016750681497912 0.0364906568645326 0.116992119937055 0.00262198705099496 0.0505137040811047 0.14596148083635 0.487319319162383 0.0910135017097261 -0.0337236388380965 -0.0346405634477873 -0.0568680671509529 0.110110805010208 0.187641457407178 0.536450138030188 0.129562333658286 0.484417419236287 0.53295036757993 -0.0250254662334174 0.114923174930133 0.0429165413845205 0.0182239517360274 0.0895590968690069 0.0197607093572749 0.0337768685350078 -0.00588137667925854 0.0303649959172305 0.0113823460182285 -0.00275548570837668 0.206581101385572 0.154860586101244 0.0285928851529799 0.0193358679507171 0.162592370591099 0.0396257333815027 -0.0181317347836487 -0.0165220974574009 0.00457715678762459 0.0697841448783628 0.306573217688846 0.308140803105311 -0.0691319599701178 0.319739732697112 0.0186710116141833 -0.00152424021625829 0.003808916252053 0.00151526112859701 0.00425586676451282 -0.00201636916014077 -0.00142111042836676 0.000372875155475978 -0.00111496373966539 0.000405720740470493 0.514400048393364 0.346559655548743 0.492455127486857 -0.00495730713541636 0.0147788805736265 0.0399661600705727 0.0169820936472559 0.159595678548414 0.0442149324416624 0.00616453035098211 0.167603254123998 0.175844849263689 -0.000133447876792426 0.000940094824941065 -0.000274863888696187 0.00133139728957478 -0.000290069331106194 0.00522089938711765 0.000274176354577674 0.00164754998741756 0.00793811125977372 0.175125402560631 -0.0562189440195416 0.141504271814818 -0.0388913765913729 0.153561980998323 0.0226738214322968 -0.0425480608620665 -0.0290068809884613 0.124360203249753 0.00135203901737989 0.00019929620425073 -0.000305549694752857 3.12679430635741e-05 0.000944795712182972 0.000272743222576938 0.539767423534345 0.162299193507404 0.33252603018375 0.299261127812978 0.131376877286465 0.0765791217266542 -0.0393169242503366 0.0187959011804086 0.100347894406447 -0.00252465400114573 0.00043270351185722 -0.0108957888387374 0.000412860818616457 -0.00254405976428103 -0.00209836977504368 0.000608495931583738 0.000380685741127959 -0.00193455542231078 4.67287803369711e-05 0.00020358324873273 -3.6113518908735e-05 0.539024876691851 0.223070186004914 0.162749026936918 0.528017589340255 0.473854230037043 0.267818759805495 0.50003655930842 0.409193688481227 0.400529239017458 0.00360956400573406 0.000520689915560996 0.00245778531915076 -0.210876775127607 0.690615137629294 0.371513798036645 0.610439357947041 0.671176503361448 0.712893723340428 0.577354536983688 0.630487298285455 0.683852413321768 0.675480811410968 0.675719266483854 0.745691266748846 0.737028697503951 0.381767322264493 0.712311915798439 0.00216323705927302 -0.00268436550724115 0.00293348993149762 0.194688628011464 0.007174711256314 0.111186625041734 0.705428577975178 0.226859509440561 0.714906595733543 -0.00325773532886138 -0.006551968610827 0.00327439995586512 0.0124001641466086 -0.0281374157501544 -0.0171337367892231 0.0107145887859365 0.00990537312047752 -0.0248534980078681 0.20887783408317 0.00690787680012006 -0.0090371940430592 0.0053170960466067 -0.0144422324211119 -0.0213919728812239 0.592601478505805 0.498494581350257 0.615810104999639 0.694777565088888 0.290008649267102 0.24286957425311 0.252219466149116 -0.00364726922314333 0.231631331435191 0.655742563525032 0.295728165058651 0.693367731794321 -0.0473109446278173 0.525143763272237 0.728847218096517 -0.10358303896636 0.478429095398427 -0.0325708678728014 -0.0291631202221976 0.016863109901521 -0.0349141605628364 -0.100732912356044 0.780077071317787 0.701617492730462 -0.0810366735692754 -0.0721741298126441 0.743761960905411 -0.000121699904518979 0.00231065053155844 0.00270714827265718 -0.0291204396804264 0.00914283291150015 -0.017215449368908 0.0117343187052269 -0.0308652173989292 0.0146943647554577 -0.000462073494143758 0.00204328460598431 -5.95788467001163e-05 0.00390303928902601 -0.00703298582409981 0.00488024443827162 0.253356060768456 -0.0756767295824471 -0.0204626114839293 -0.0470073294828089 -0.0905602184428027 0.276474772856213 0.494901953417529 0.356715502936119 0.620008265609093 0.347493635449457 0.45942140605776 -0.0717927214489061 0.0747385248171912 0.368813090573354 0.220536131799522 0.380719896230558 0.713453346880219 0.228209937933056 0.38616397084371 0.547839574906359 0.712713001345504 0.366815167816701 0.0820717454844452 0.323346037148463 0.54195183901486 0.389128806933963 0.316896526714878 0.871966883895616 0.846141206649729 0.661783392937737 1.01680696954517 1.01680696954517 0.931269838011