<?xml version="1.0"?>
<VTKFile type="UnstructuredGrid" version="0.1" byte_order="LittleEndian">
<UnstructuredGrid>
<Piece NumberOfPoints="69" NumberOfCells="124">
<Points>
<DataArray type="Float64" NumberOfComponents="3" format="ascii">
0.000000000000000e+00 1.000000000000000e+00 0.000000000000000e+00 1.000000000000000e+00 1.000000000000000e+00 0.000000000000000e+00 1.000000000000000e+00 0.000000000000000e+00 0.000000000000000e+00 0.000000000000000e+00 0.000000000000000e+00 0.000000000000000e+00 2.500000000000000e-01 -0.000000000000000e+00 0.000000000000000e+00 0.000000000000000e+00 2.500000000000000e-01 0.000000000000000e+00 5.000000000000000e-01 5.000000000000000e-01 -0.000000000000000e+00 7.500000000000000e-01 1.000000000000000e+00 0.000000000000000e+00 6.875000000000000e-01 8.750000000000000e-01 0.000000000000000e+00 6.250000000000000e-01 7.500000000000000e-01 0.000000000000000e+00 5.625000000000000e-01 6.250000000000000e-01 0.000000000000000e+00 1.249999999997599e-01 3.124999999998800e-01 0.000000000000000e+00 2.499999999996086e-01 3.749999999998043e-01 0.000000000000000e+00 3.749999999997349e-01 4.374999999998674e-01 0.000000000000000e+00 4.375000000000694e-01 3.750000000001388e-01 0.000000000000000e+00 3.750000000002776e-01 2.500000000005551e-01 0.000000000000000e+00 3.125000000002082e-01 1.250000000004163e-01 0.000000000000000e+00 1.000000000000000e+00 8.333333333335646e-01 0.000000000000000e+00 1.000000000000000e+00 6.666666666673605e-01 0.000000000000000e+00 1.000000000000000e+00 5.000000000013877e-01 0.000000000000000e+00 1.000000000000000e+00 3.333333333344898e-01 0.000000000000000e+00 1.000000000000000e+00 1.666666666673605e-01 0.000000000000000e+00 8.750000000000000e-01 1.000000000000000e+00 0.000000000000000e+00 5.625000000008674e-01 1.000000000000000e+00 0.000000000000000e+00 3.750000000006939e-01 1.000000000000000e+00 0.000000000000000e+00 1.875000000005205e-01 1.000000000000000e+00 0.000000000000000e+00 0.000000000000000e+00 8.125000000010408e-01 0.000000000000000e+00 0.000000000000000e+00 6.250000000006939e-01 0.000000000000000e+00 0.000000000000000e+00 4.375000000003469e-01 0.000000000000000e+00 0.000000000000000e+00 1.250000000003469e-01 0.000000000000000e+00 1.249999999997554e-01 0.000000000000000e+00 0.000000000000000e+00 4.374999999991326e-01 0.000000000000000e+00 0.000000000000000e+00 6.249999999989591e-01 0.000000000000000e+00 0.000000000000000e+00 8.124999999994795e-01 0.000000000000000e+00 0.000000000000000e+00 2.798796021293082e-01 8.344274147057053e-01 0.000000000000000e+00 2.645244370067465e-01 5.156353158163987e-01 0.000000000000000e+00 4.139414069912184e-01 6.056325264010037e-01 0.000000000000000e+00 4.492710539671537e-01 8.556512408515589e-01 0.000000000000000e+00 2.758946705068648e-01 6.605885315643570e-01 0.000000000000000e+00 1.390078959961168e-01 7.261831610706000e-01 0.000000000000000e+00 1.492912418697525e-01 4.458279356810638e-01 0.000000000000000e+00 5.014585693307863e-01 7.367466304650486e-01 0.000000000000000e+00 1.392858751591214e-01 5.733980610567744e-01 0.000000000000000e+00 3.813620468049507e-01 7.403859221383123e-01 0.000000000000000e+00 1.271010713601231e-01 8.709480661820344e-01 0.000000000000000e+00 5.677751205718758e-01 8.470224641095303e-01 0.000000000000000e+00 5.698670717843664e-01 3.776209365087199e-01 0.000000000000000e+00 7.125974780784441e-01 6.384669131570183e-01 0.000000000000000e+00 8.608728669021763e-01 2.520652359795942e-01 0.000000000000000e+00 8.578792739151740e-01 7.535325208825020e-01 0.000000000000000e+00 5.447576766858295e-01 1.431838882066932e-01 0.000000000000000e+00 7.150899340618379e-01 1.571595685477760e-01 0.000000000000000e+00 8.612746697781972e-01 5.794807697879764e-01 0.000000000000000e+00 7.533843026232094e-01 4.929444342317560e-01 0.000000000000000e+00 8.055298449100090e-01 8.871112287212741e-01 0.000000000000000e+00 8.656940847709105e-01 4.098367391676661e-01 0.000000000000000e+00 7.182603949284063e-01 3.456402071721618e-01 0.000000000000000e+00 6.323653418237701e-01 5.029675640633227e-01 0.000000000000000e+00 6.110846258508276e-01 2.575059958234323e-01 0.000000000000000e+00 4.945749328930023e-01 2.625170377655549e-01 0.000000000000000e+00 7.385779517043357e-01 7.773678856428465e-01 0.000000000000000e+00 8.769890164881212e-01 1.160638338657984e-01 0.000000000000000e+00 9.063795342218008e-01 9.020858332805730e-01 0.000000000000000e+00 4.287911518546233e-01 1.545544542796670e-01 0.000000000000000e+00 2.403886547178353e-01 2.418881479267384e-01 0.000000000000000e+00 1.840276181286450e-01 1.117324051466445e-01 0.000000000000000e+00 3.381944444444832e-01 3.381944444445634e-01 0.000000000000000e+00 1.008171452988615e-01 1.888570369725047e-01 0.000000000000000e+00 8.435242216391163e-02 8.645171265626619e-02 0.000000000000000e+00 
</DataArray>
</Points>
<Cells>
<DataArray type="Int32" Name="connectivity" format="ascii">
7 8 8 9 9 10 10 6 5 11 11 12 12 13 13 6 6 14 14 15 15 16 16 4 13 36 35 13 6 36 5 11 28 8 7 23 36 38 35 34 39 38 28 40 42 24 37 23 28 42 27 24 34 37 24 25 34 34 38 43 23 37 45 8 23 45 10 36 6 28 11 40 0 26 44 13 35 12 25 0 44 26 27 39 12 40 11 38 39 42 37 34 43 34 44 39 10 41 36 25 44 34 12 35 40 35 38 42 10 9 41 36 41 43 8 45 9 9 45 41 27 42 39 36 43 38 26 39 44 35 42 40 37 41 45 37 43 41 46 56 57 53 57 56 49 47 52 4 31 16 49 60 47 52 55 19 51 48 56 52 53 55 31 32 50 54 49 62 17 62 49 17 49 18 21 20 48 32 51 50 33 51 32 18 49 52 1 62 17 53 56 55 18 52 19 52 47 53 16 31 63 51 61 48 20 19 55 14 46 6 51 56 58 10 47 9 55 56 48 8 54 7 22 7 54 20 55 48 33 61 51 33 2 61 31 50 63 6 46 57 21 61 2 10 57 47 46 58 56 51 58 50 53 47 57 14 59 46 9 47 60 10 6 57 54 60 49 8 60 54 15 59 14 1 22 62 21 48 61 8 9 60 46 59 58 16 63 15 15 63 59 50 59 63 22 54 62 50 58 59 14 6 13 11 67 64 4 65 30 4 16 65 13 12 66 15 14 66 65 64 67 16 15 64 12 11 64 15 66 64 12 64 66 11 5 67 16 64 65 14 13 66 3 68 29 3 30 68 29 67 5 30 65 68 29 68 67 67 68 65 
</DataArray>
<DataArray type="Int32" Name="offsets" format="ascii">
2 4 6 8 10 12 14 16 18 20 22 24 27 30 33 36 39 42 45 48 51 54 57 60 63 66 69 72 75 78 81 84 87 90 93 96 99 102 105 108 111 114 117 120 123 126 129 132 135 138 141 144 147 150 153 156 159 162 165 168 171 174 177 180 183 186 189 192 195 198 201 204 207 210 213 216 219 222 225 228 231 234 237 240 243 246 249 252 255 258 261 264 267 270 273 276 279 282 285 288 291 294 297 300 303 306 309 312 315 318 321 324 327 330 333 336 339 342 345 348 351 354 357 360 
</DataArray>
<DataArray type="UInt8" Name="types" format="ascii">
3 3 3 3 3 3 3 3 3 3 3 3 5 5 5 5 5 5 5 5 5 5 5 5 5 5 5 5 5 5 5 5 5 5 5 5 5 5 5 5 5 5 5 5 5 5 5 5 5 5 5 5 5 5 5 5 5 5 5 5 5 5 5 5 5 5 5 5 5 5 5 5 5 5 5 5 5 5 5 5 5 5 5 5 5 5 5 5 5 5 5 5 5 5 5 5 5 5 5 5 5 5 5 5 5 5 5 5 5 5 5 5 5 5 5 5 5 5 5 5 5 5 5 5 
</DataArray>
</Cells>
<CellData Scalars="age_conc,U235_conc," Vectors="" Tensors="">
<DataArray type="Float64" Name="age_conc" format="ascii">
1.985517357736084e-03 4.023977924398244e-03 6.142055778671823e-03 8.394042288983078e-03 2.498629747453271e-02 2.095004329759778e-02 1.678345501617952e-02 1.257089510502300e-02 1.281522434698583e-02 1.717876746207496e-02 2.142749466439600e-02 2.548518829082206e-02 1.169803385056899e-01 1.021918976548203e-01 1.638231673560610e-01 1.006271803335731e-02 9.349638775817458e-02 6.872601744011861e-02 1.331613410748937e-01 1.453809411760333e-02 1.117277694638229e-01 2.912647548176309e-02 2.099478079931772e-02 5.547866868723857e-02 3.230512721077328e-02 1.797492704871553e-02 8.387688004230104e-02 1.526662160997019e-01 3.137602719241315e-02 1.307410014545219e-01 1.974280443640707e-02 6.642585961014079e-02 1.530542481086220e-01 8.213973946900278e-02 4.364046082639987e-02 4.560720192219876e-02 6.874079063679515e-02 3.162149978760516e-02 1.406392986179585e-01 1.044121432762614e-01 5.274524072587619e-02 6.933516767646156e-02 2.926962499204780e-02 4.020149771485106e-02 9.303975566437235e-02 7.843906316848986e-02 5.176337321779909e-02 1.160180566149541e-01 4.327071527461112e-02 5.458417971666053e-02 1.005111606716176e-01 8.932550210812823e-02 6.027831316149569e-02 1.812315932107899e-01 6.402906627063339e-02 3.955052865647023e-02 7.817914863201809e-02 5.835035117773500e-02 1.295015018836942e-01 3.692121588119598e-02 2.697340981373560e-02 2.304870353757760e-02 2.451960152283818e-02 1.149835715966183e-01 8.037270282220832e-02 3.726123144724063e-02 1.275406141213365e-02 7.115206246911047e-02 2.569406270126656e-02 7.205391894538801e-02 1.707283668975948e-01 6.074937830254664e-02 2.468503509598644e-02 1.309928051476044e-01 9.619578621587739e-02 8.649394221521708e-02 6.379772185708923e-02 3.773701722734712e-02 2.290526795795681e-02 3.781698858749911e-02 6.612742324268880e-02 3.305065860539592e-02 1.542164341277289e-01 1.197644159707305e-01 2.170409111094614e-02 9.956797610891957e-02 1.114354250274931e-01 1.073827886789617e-01 8.499264993754689e-02 1.419954589415170e-01 7.435291924607450e-02 1.108693301123774e-01 4.863169911500551e-02 5.158001701676156e-02 1.531461933605060e-01 1.316152587943540e-02 3.440349772069496e-02 6.423584339832493e-02 1.228058979789009e-01 1.731674136181389e-01 1.621666613337329e-01 1.404920225638607e-01 2.414921623971536e-02 1.304229863476785e-01 3.698688688524580e-02 1.235560055469784e-01 1.615285791407136e-01 1.354092342239677e-01 6.017300956497611e-02 6.034224830271114e-02 1.513819317518862e-01 9.746780588082483e-02 9.679706925320590e-02 8.774668183590076e-02 8.740646553483118e-02 1.338361037778803e-01 1.237845519170110e-01 5.461032893247135e-02 1.890260371900618e-01 1.923322337704368e-01 1.558702427744254e-01 1.775047202175679e-01 1.742549227569930e-01 1.692527354226026e-01 
</DataArray>
<DataArray type="Float64" Name="U235_conc" format="ascii">
9.999230969912145e-01 9.998441241707910e-01 9.997620410211929e-01 9.996747273744560e-01 9.990310630394414e-01 9.991877014134685e-01 9.993493734957721e-01 9.995127776931769e-01 9.995032444771219e-01 9.993339372738079e-01 9.991690449542625e-01 9.990115589491975e-01 9.954470323301492e-01 9.960249750692677e-01 9.936124163677842e-01 9.996100193610480e-01 9.963644658675561e-01 9.973299997615453e-01 9.948140578973479e-01 9.994363819221689e-01 9.956520252536982e-01 9.988701803255231e-01 9.991856480430307e-01 9.978458284206987e-01 9.987468631823042e-01 9.993031949709137e-01 9.967398079233672e-01 9.940499276118762e-01 9.987825957851691e-01 9.949087808390167e-01 9.992341802346727e-01 9.974194658363944e-01 9.940348080665216e-01 9.968072674557464e-01 9.983062209415779e-01 9.982296291946877e-01 9.973297394682301e-01 9.987731267837672e-01 9.945212505205407e-01 9.959382025684215e-01 9.979524466869211e-01 9.973065698837529e-01 9.988648223515252e-01 9.984401755446759e-01 9.963819944854513e-01 9.969517601847635e-01 9.979901745572710e-01 9.954847455383264e-01 9.983208065091458e-01 9.978808515956350e-01 9.960901052996665e-01 9.965266238157902e-01 9.976586482245746e-01 9.929287741549698e-01 9.975131190663051e-01 9.984647310965591e-01 9.969607645212890e-01 9.977333827538704e-01 9.949560386413101e-01 9.985675077023171e-01 9.989538261492098e-01 9.991059325877886e-01 9.990484606355208e-01 9.955238564231190e-01 9.968750086922173e-01 9.985539740104865e-01 9.995056136937694e-01 9.972349206529109e-01 9.990029561093339e-01 9.972001079495114e-01 9.933411975036111e-01 9.976394303840717e-01 9.990420423442914e-01 9.948989863370741e-01 9.962579112033774e-01 9.966376271361745e-01 9.975210378128858e-01 9.985355141024956e-01 9.991115418437995e-01 9.985320273688303e-01 9.974300711481356e-01 9.987173336782301e-01 9.939888013047735e-01 9.953381958514907e-01 9.991578471740536e-01 9.961273837841549e-01 9.956634309202155e-01 9.958211106834733e-01 9.966957758628121e-01 9.944681877107705e-01 9.971109203554054e-01 9.956860002081781e-01 9.981123215684036e-01 9.979973687410422e-01 9.940312766092050e-01 9.994898033499017e-01 9.986646933237409e-01 9.975048480375035e-01 9.952189421946747e-01 9.932458073923762e-01 9.936775012297161e-01 9.945266639675481e-01 9.990635140465469e-01 9.949208102801612e-01 9.985645544936996e-01 9.951865237805726e-01 9.936951196086936e-01 9.947199655538728e-01 9.976621331441313e-01 9.976555111358326e-01 9.940963838819328e-01 9.962063899434805e-01 9.962326279041972e-01 9.965871040658558e-01 9.966004189902702e-01 9.947813496801715e-01 9.951775546838204e-01 9.978792177859332e-01 9.926161290673174e-01 9.924864458118343e-01 9.939163087490024e-01 9.930691721135398e-01 9.931964907285007e-01 9.933953051815536e-01 
</DataArray>
</CellData>
</Piece>
</UnstructuredGrid>
</VTKFile>
