<?xml version="1.0"?>
<VTKFile type="UnstructuredGrid" version="0.1" byte_order="LittleEndian">
<UnstructuredGrid>
<Piece NumberOfPoints="69" NumberOfCells="124">
<Points>
<DataArray type="Float64" NumberOfComponents="3" format="ascii">
0.000000000000000e+00 1.000000000000000e+00 0.000000000000000e+00 1.000000000000000e+00 1.000000000000000e+00 0.000000000000000e+00 1.000000000000000e+00 0.000000000000000e+00 0.000000000000000e+00 0.000000000000000e+00 0.000000000000000e+00 0.000000000000000e+00 2.500000000000000e-01 -0.000000000000000e+00 0.000000000000000e+00 0.000000000000000e+00 2.500000000000000e-01 0.000000000000000e+00 5.000000000000000e-01 5.000000000000000e-01 -0.000000000000000e+00 7.500000000000000e-01 1.000000000000000e+00 0.000000000000000e+00 6.875000000000000e-01 8.750000000000000e-01 0.000000000000000e+00 6.250000000000000e-01 7.500000000000000e-01 0.000000000000000e+00 5.625000000000000e-01 6.250000000000000e-01 0.000000000000000e+00 1.249999999997599e-01 3.124999999998800e-01 0.000000000000000e+00 2.499999999996086e-01 3.749999999998043e-01 0.000000000000000e+00 3.749999999997349e-01 4.374999999998674e-01 0.000000000000000e+00 4.375000000000694e-01 3.750000000001388e-01 0.000000000000000e+00 3.750000000002776e-01 2.500000000005551e-01 0.000000000000000e+00 3.125000000002082e-01 1.250000000004163e-01 0.000000000000000e+00 1.000000000000000e+00 8.333333333335646e-01 0.000000000000000e+00 1.000000000000000e+00 6.666666666673605e-01 0.000000000000000e+00 1.000000000000000e+00 5.000000000013877e-01 0.000000000000000e+00 1.000000000000000e+00 3.333333333344898e-01 0.000000000000000e+00 1.000000000000000e+00 1.666666666673605e-01 0.000000000000000e+00 8.750000000000000e-01 1.000000000000000e+00 0.000000000000000e+00 5.625000000008674e-01 1.000000000000000e+00 0.000000000000000e+00 3.750000000006939e-01 1.000000000000000e+00 0.000000000000000e+00 1.875000000005205e-01 1.000000000000000e+00 0.000000000000000e+00 0.000000000000000e+00 8.125000000010408e-01 0.000000000000000e+00 0.000000000000000e+00 6.250000000006939e-01 0.000000000000000e+00 0.000000000000000e+00 4.375000000003469e-01 0.000000000000000e+00 0.000000000000000e+00 1.250000000003469e-01 0.000000000000000e+00 1.249999999997554e-01 0.000000000000000e+00 0.000000000000000e+00 4.374999999991326e-01 0.000000000000000e+00 0.000000000000000e+00 6.249999999989591e-01 0.000000000000000e+00 0.000000000000000e+00 8.124999999994795e-01 0.000000000000000e+00 0.000000000000000e+00 2.798796021293082e-01 8.344274147057053e-01 0.000000000000000e+00 2.645244370067465e-01 5.156353158163987e-01 0.000000000000000e+00 4.139414069912184e-01 6.056325264010037e-01 0.000000000000000e+00 4.492710539671537e-01 8.556512408515589e-01 0.000000000000000e+00 2.758946705068648e-01 6.605885315643570e-01 0.000000000000000e+00 1.390078959961168e-01 7.261831610706000e-01 0.000000000000000e+00 1.492912418697525e-01 4.458279356810638e-01 0.000000000000000e+00 5.014585693307863e-01 7.367466304650486e-01 0.000000000000000e+00 1.392858751591214e-01 5.733980610567744e-01 0.000000000000000e+00 3.813620468049507e-01 7.403859221383123e-01 0.000000000000000e+00 1.271010713601231e-01 8.709480661820344e-01 0.000000000000000e+00 5.677751205718758e-01 8.470224641095303e-01 0.000000000000000e+00 5.698670717843664e-01 3.776209365087199e-01 0.000000000000000e+00 7.125974780784441e-01 6.384669131570183e-01 0.000000000000000e+00 8.608728669021763e-01 2.520652359795942e-01 0.000000000000000e+00 8.578792739151740e-01 7.535325208825020e-01 0.000000000000000e+00 5.447576766858295e-01 1.431838882066932e-01 0.000000000000000e+00 7.150899340618379e-01 1.571595685477760e-01 0.000000000000000e+00 8.612746697781972e-01 5.794807697879764e-01 0.000000000000000e+00 7.533843026232094e-01 4.929444342317560e-01 0.000000000000000e+00 8.055298449100090e-01 8.871112287212741e-01 0.000000000000000e+00 8.656940847709105e-01 4.098367391676661e-01 0.000000000000000e+00 7.182603949284063e-01 3.456402071721618e-01 0.000000000000000e+00 6.323653418237701e-01 5.029675640633227e-01 0.000000000000000e+00 6.110846258508276e-01 2.575059958234323e-01 0.000000000000000e+00 4.945749328930023e-01 2.625170377655549e-01 0.000000000000000e+00 7.385779517043357e-01 7.773678856428465e-01 0.000000000000000e+00 8.769890164881212e-01 1.160638338657984e-01 0.000000000000000e+00 9.063795342218008e-01 9.020858332805730e-01 0.000000000000000e+00 4.287911518546233e-01 1.545544542796670e-01 0.000000000000000e+00 2.403886547178353e-01 2.418881479267384e-01 0.000000000000000e+00 1.840276181286450e-01 1.117324051466445e-01 0.000000000000000e+00 3.381944444444832e-01 3.381944444445634e-01 0.000000000000000e+00 1.008171452988615e-01 1.888570369725047e-01 0.000000000000000e+00 8.435242216391163e-02 8.645171265626619e-02 0.000000000000000e+00 
</DataArray>
</Points>
<Cells>
<DataArray type="Int32" Name="connectivity" format="ascii">
7 8 8 9 9 10 10 6 5 11 11 12 12 13 13 6 6 14 14 15 15 16 16 4 13 36 35 13 6 36 5 11 28 8 7 23 36 38 35 34 39 38 28 40 42 24 37 23 28 42 27 24 34 37 24 25 34 34 38 43 23 37 45 8 23 45 10 36 6 28 11 40 0 26 44 13 35 12 25 0 44 26 27 39 12 40 11 38 39 42 37 34 43 34 44 39 10 41 36 25 44 34 12 35 40 35 38 42 10 9 41 36 41 43 8 45 9 9 45 41 27 42 39 36 43 38 26 39 44 35 42 40 37 41 45 37 43 41 46 56 57 53 57 56 49 47 52 4 31 16 49 60 47 52 55 19 51 48 56 52 53 55 31 32 50 54 49 62 17 62 49 17 49 18 21 20 48 32 51 50 33 51 32 18 49 52 1 62 17 53 56 55 18 52 19 52 47 53 16 31 63 51 61 48 20 19 55 14 46 6 51 56 58 10 47 9 55 56 48 8 54 7 22 7 54 20 55 48 33 61 51 33 2 61 31 50 63 6 46 57 21 61 2 10 57 47 46 58 56 51 58 50 53 47 57 14 59 46 9 47 60 10 6 57 54 60 49 8 60 54 15 59 14 1 22 62 21 48 61 8 9 60 46 59 58 16 63 15 15 63 59 50 59 63 22 54 62 50 58 59 14 6 13 11 67 64 4 65 30 4 16 65 13 12 66 15 14 66 65 64 67 16 15 64 12 11 64 15 66 64 12 64 66 11 5 67 16 64 65 14 13 66 3 68 29 3 30 68 29 67 5 30 65 68 29 68 67 67 68 65 
</DataArray>
<DataArray type="Int32" Name="offsets" format="ascii">
2 4 6 8 10 12 14 16 18 20 22 24 27 30 33 36 39 42 45 48 51 54 57 60 63 66 69 72 75 78 81 84 87 90 93 96 99 102 105 108 111 114 117 120 123 126 129 132 135 138 141 144 147 150 153 156 159 162 165 168 171 174 177 180 183 186 189 192 195 198 201 204 207 210 213 216 219 222 225 228 231 234 237 240 243 246 249 252 255 258 261 264 267 270 273 276 279 282 285 288 291 294 297 300 303 306 309 312 315 318 321 324 327 330 333 336 339 342 345 348 351 354 357 360 
</DataArray>
<DataArray type="UInt8" Name="types" format="ascii">
3 3 3 3 3 3 3 3 3 3 3 3 5 5 5 5 5 5 5 5 5 5 5 5 5 5 5 5 5 5 5 5 5 5 5 5 5 5 5 5 5 5 5 5 5 5 5 5 5 5 5 5 5 5 5 5 5 5 5 5 5 5 5 5 5 5 5 5 5 5 5 5 5 5 5 5 5 5 5 5 5 5 5 5 5 5 5 5 5 5 5 5 5 5 5 5 5 5 5 5 5 5 5 5 5 5 5 5 5 5 5 5 5 5 5 5 5 5 5 5 5 5 5 5 
</DataArray>
</Cells>
<CellData Scalars="age_conc,U235_conc," Vectors="" Tensors="">
<DataArray type="Float64" Name="age_conc" format="ascii">
9.999227158038723e-01 9.998433508069321e-01 9.997608590408091e-01 9.996731091286737e-01 9.990262153737989e-01 9.991836419413365e-01 9.993461266490911e-01 9.995103501484088e-01 9.995007668493470e-01 9.993306088131639e-01 9.991648862757132e-01 9.990066071386055e-01 9.954235863768266e-01 9.960046042248749e-01 9.935790287902599e-01 9.996080776318426e-01 9.963458868878052e-01 9.973164506041634e-01 9.947872169826095e-01 9.994335682291718e-01 9.956296580530675e-01 9.988645156232243e-01 9.991815664309980e-01 9.978349436609026e-01 9.987405795984668e-01 9.992997184743230e-01 9.967232000364634e-01 9.940189361649794e-01 9.987764791952711e-01 9.948824497179525e-01 9.992303406615122e-01 9.974063748081026e-01 9.940037382517124e-01 9.967910005248234e-01 9.982976912085406e-01 9.982207035026651e-01 9.973162018206156e-01 9.987669648524116e-01 9.944928260677379e-01 9.959173701625478e-01 9.979421199280494e-01 9.972929115422331e-01 9.988591384093377e-01 9.984323393866523e-01 9.963634954230157e-01 9.969362560148898e-01 9.979800223978419e-01 9.954615052460922e-01 9.983123595688110e-01 9.978701554943752e-01 9.960700577485944e-01 9.965088720059296e-01 9.976467848888420e-01 9.928915963469267e-01 9.975005250905147e-01 9.984569903098981e-01 9.969452602574367e-01 9.977218916740214e-01 9.949299069221820e-01 9.985603133572054e-01 9.989485858048661e-01 9.991014496415627e-01 9.990436729782397e-01 9.955007668824608e-01 9.968590466374811e-01 9.985466982037731e-01 9.995031482151084e-01 9.972208550483266e-01 9.989979425763784e-01 9.971858751461624e-01 9.933063048016284e-01 9.976274314271645e-01 9.990372225162945e-01 9.948726057512287e-01 9.962387204098827e-01 9.966204800658912e-01 9.975084400311960e-01 9.985281455991681e-01 9.991070887962548e-01 9.985246258587011e-01 9.974169926022852e-01 9.987108777466953e-01 9.939574606223427e-01 9.953141698715959e-01 9.991536147456312e-01 9.961075522716430e-01 9.956411240164545e-01 9.957996124260822e-01 9.966789161969738e-01 9.944394786982125e-01 9.970962405261993e-01 9.956638325354664e-01 9.981028084808692e-01 9.979872559863932e-01 9.940001915179163e-01 9.994872584227745e-01 9.986579670023151e-01 9.974922024771218e-01 9.951942646025114e-01 9.932104040412990e-01 9.936444767283861e-01 9.944982537556923e-01 9.990588289586604e-01 9.948945262349514e-01 9.985573287834610e-01 9.951614398029138e-01 9.936559705876433e-01 9.946911028393696e-01 9.976502619113621e-01 9.976436043016428e-01 9.940648557293456e-01 9.961868307478883e-01 9.962132113668973e-01 9.965696192979497e-01 9.965830061864716e-01 9.947525186477509e-01 9.951524170431534e-01 9.978684879161435e-01 9.925659680465846e-01 9.924355450824449e-01 9.938777313726355e-01 9.930258676204189e-01 9.931538110728959e-01 9.933592152395163e-01 
</DataArray>
<DataArray type="Float64" Name="U235_conc" format="ascii">
9.999225142552348e-01 9.998429432396583e-01 9.997602386582369e-01 9.996722644993512e-01 9.990237350947689e-01 9.991815567299887e-01 9.993444503276783e-01 9.995090897363403e-01 9.994994852000565e-01 9.993288987995089e-01 9.991627611008721e-01 9.990040856588094e-01 9.954128139180446e-01 9.959950674517706e-01 9.935645770786314e-01 9.996070670164645e-01 9.963370953987973e-01 9.973098673550487e-01 9.947751275126673e-01 9.994321173750575e-01 9.956193397851376e-01 9.988616393165648e-01 9.991794914142120e-01 9.978295704359047e-01 9.987373901451329e-01 9.992979220238521e-01 9.967152460040134e-01 9.940053274561010e-01 9.987733967120787e-01 9.948705550318766e-01 9.992283909131819e-01 9.974000066842682e-01 9.939900944009168e-01 9.967832146025223e-01 9.982934285005058e-01 9.982162615259635e-01 9.973096009766582e-01 9.987638554456055e-01 9.944801451410512e-01 9.959076475781037e-01 9.979369872106194e-01 9.972862576778430e-01 9.988562384295685e-01 9.984283887874710e-01 9.963547591394484e-01 9.969287872491754e-01 9.979750049232388e-01 9.954508066195817e-01 9.983081212587995e-01 9.978648541947627e-01 9.960606910219754e-01 9.965004746494814e-01 9.976409881132464e-01 9.928758898621708e-01 9.974943590813801e-01 9.984531387876548e-01 9.969378744285590e-01 9.977162884113524e-01 9.949181827972711e-01 9.985566824475842e-01 9.989459158973397e-01 9.990991738517736e-01 9.990412727065592e-01 9.954902284788174e-01 9.968514794726770e-01 9.985430507571444e-01 9.995018721701669e-01 9.972140823119805e-01 9.989954234355491e-01 9.971790040279489e-01 9.932913568984271e-01 9.976216378078500e-01 9.990348058836704e-01 9.948606862988092e-01 9.962297606930091e-01 9.966123013950881e-01 9.975023517937303e-01 9.985244513435299e-01 9.991048249480599e-01 9.985209432230318e-01 9.974107055216719e-01 9.987076451322132e-01 9.939437532145692e-01 9.953031657252287e-01 9.991514840262903e-01 9.960982417560612e-01 9.956308304600474e-01 9.957896965346240e-01 9.966708911133557e-01 9.944266870421119e-01 9.970891420928947e-01 9.956535617404871e-01 9.980980668373824e-01 9.979822524277104e-01 9.939865350642019e-01 9.994859423619313e-01 9.986546088948461e-01 9.974860287531808e-01 9.951830282940430e-01 9.931952564395965e-01 9.936301411101727e-01 9.944856035925285e-01 9.990564313217664e-01 9.948826796159518e-01 9.985537122859174e-01 9.951503400721546e-01 9.936430646562643e-01 9.946794018064179e-01 9.976445077085510e-01 9.976378364338500e-01 9.940516913392494e-01 9.961778699760988e-01 9.962043046242390e-01 9.965614223389175e-01 9.965748364467946e-01 9.947409954705750e-01 9.951413013697084e-01 9.978632163538348e-01 9.925518107030656e-01 9.924211701510629e-01 9.938653663351145e-01 9.930118541235642e-01 9.931400426698531e-01 9.933448487363028e-01 
</DataArray>
</CellData>
</Piece>
</UnstructuredGrid>
</VTKFile>
