<?xml version="1.0"?>
<VTKFile type="UnstructuredGrid" version="0.1" byte_order="LittleEndian">
<UnstructuredGrid>
<Piece NumberOfPoints="69" NumberOfCells="124">
<Points>
<DataArray type="Float64" NumberOfComponents="3" format="ascii">
0.000000000000000e+00 1.000000000000000e+00 0.000000000000000e+00 1.000000000000000e+00 1.000000000000000e+00 0.000000000000000e+00 1.000000000000000e+00 0.000000000000000e+00 0.000000000000000e+00 0.000000000000000e+00 0.000000000000000e+00 0.000000000000000e+00 2.500000000000000e-01 -0.000000000000000e+00 0.000000000000000e+00 0.000000000000000e+00 2.500000000000000e-01 0.000000000000000e+00 5.000000000000000e-01 5.000000000000000e-01 -0.000000000000000e+00 7.500000000000000e-01 1.000000000000000e+00 0.000000000000000e+00 6.875000000000000e-01 8.750000000000000e-01 0.000000000000000e+00 6.250000000000000e-01 7.500000000000000e-01 0.000000000000000e+00 5.625000000000000e-01 6.250000000000000e-01 0.000000000000000e+00 1.249999999997599e-01 3.124999999998800e-01 0.000000000000000e+00 2.499999999996086e-01 3.749999999998043e-01 0.000000000000000e+00 3.749999999997349e-01 4.374999999998674e-01 0.000000000000000e+00 4.375000000000694e-01 3.750000000001388e-01 0.000000000000000e+00 3.750000000002776e-01 2.500000000005551e-01 0.000000000000000e+00 3.125000000002082e-01 1.250000000004163e-01 0.000000000000000e+00 1.000000000000000e+00 8.333333333335646e-01 0.000000000000000e+00 1.000000000000000e+00 6.666666666673605e-01 0.000000000000000e+00 1.000000000000000e+00 5.000000000013877e-01 0.000000000000000e+00 1.000000000000000e+00 3.333333333344898e-01 0.000000000000000e+00 1.000000000000000e+00 1.666666666673605e-01 0.000000000000000e+00 8.750000000000000e-01 1.000000000000000e+00 0.000000000000000e+00 5.625000000008674e-01 1.000000000000000e+00 0.000000000000000e+00 3.750000000006939e-01 1.000000000000000e+00 0.000000000000000e+00 1.875000000005205e-01 1.000000000000000e+00 0.000000000000000e+00 0.000000000000000e+00 8.125000000010408e-01 0.000000000000000e+00 0.000000000000000e+00 6.250000000006939e-01 0.000000000000000e+00 0.000000000000000e+00 4.375000000003469e-01 0.000000000000000e+00 0.000000000000000e+00 1.250000000003469e-01 0.000000000000000e+00 1.249999999997554e-01 0.000000000000000e+00 0.000000000000000e+00 4.374999999991326e-01 0.000000000000000e+00 0.000000000000000e+00 6.249999999989591e-01 0.000000000000000e+00 0.000000000000000e+00 8.124999999994795e-01 0.000000000000000e+00 0.000000000000000e+00 2.798796021293082e-01 8.344274147057053e-01 0.000000000000000e+00 2.645244370067465e-01 5.156353158163987e-01 0.000000000000000e+00 4.139414069912184e-01 6.056325264010037e-01 0.000000000000000e+00 4.492710539671537e-01 8.556512408515589e-01 0.000000000000000e+00 2.758946705068648e-01 6.605885315643570e-01 0.000000000000000e+00 1.390078959961168e-01 7.261831610706000e-01 0.000000000000000e+00 1.492912418697525e-01 4.458279356810638e-01 0.000000000000000e+00 5.014585693307863e-01 7.367466304650486e-01 0.000000000000000e+00 1.392858751591214e-01 5.733980610567744e-01 0.000000000000000e+00 3.813620468049507e-01 7.403859221383123e-01 0.000000000000000e+00 1.271010713601231e-01 8.709480661820344e-01 0.000000000000000e+00 5.677751205718758e-01 8.470224641095303e-01 0.000000000000000e+00 5.698670717843664e-01 3.776209365087199e-01 0.000000000000000e+00 7.125974780784441e-01 6.384669131570183e-01 0.000000000000000e+00 8.608728669021763e-01 2.520652359795942e-01 0.000000000000000e+00 8.578792739151740e-01 7.535325208825020e-01 0.000000000000000e+00 5.447576766858295e-01 1.431838882066932e-01 0.000000000000000e+00 7.150899340618379e-01 1.571595685477760e-01 0.000000000000000e+00 8.612746697781972e-01 5.794807697879764e-01 0.000000000000000e+00 7.533843026232094e-01 4.929444342317560e-01 0.000000000000000e+00 8.055298449100090e-01 8.871112287212741e-01 0.000000000000000e+00 8.656940847709105e-01 4.098367391676661e-01 0.000000000000000e+00 7.182603949284063e-01 3.456402071721618e-01 0.000000000000000e+00 6.323653418237701e-01 5.029675640633227e-01 0.000000000000000e+00 6.110846258508276e-01 2.575059958234323e-01 0.000000000000000e+00 4.945749328930023e-01 2.625170377655549e-01 0.000000000000000e+00 7.385779517043357e-01 7.773678856428465e-01 0.000000000000000e+00 8.769890164881212e-01 1.160638338657984e-01 0.000000000000000e+00 9.063795342218008e-01 9.020858332805730e-01 0.000000000000000e+00 4.287911518546233e-01 1.545544542796670e-01 0.000000000000000e+00 2.403886547178353e-01 2.418881479267384e-01 0.000000000000000e+00 1.840276181286450e-01 1.117324051466445e-01 0.000000000000000e+00 3.381944444444832e-01 3.381944444445634e-01 0.000000000000000e+00 1.008171452988615e-01 1.888570369725047e-01 0.000000000000000e+00 8.435242216391163e-02 8.645171265626619e-02 0.000000000000000e+00 
</DataArray>
</Points>
<Cells>
<DataArray type="Int32" Name="connectivity" format="ascii">
7 8 8 9 9 10 10 6 5 11 11 12 12 13 13 6 6 14 14 15 15 16 16 4 13 36 35 13 6 36 5 11 28 8 7 23 36 38 35 34 39 38 28 40 42 24 37 23 28 42 27 24 34 37 24 25 34 34 38 43 23 37 45 8 23 45 10 36 6 28 11 40 0 26 44 13 35 12 25 0 44 26 27 39 12 40 11 38 39 42 37 34 43 34 44 39 10 41 36 25 44 34 12 35 40 35 38 42 10 9 41 36 41 43 8 45 9 9 45 41 27 42 39 36 43 38 26 39 44 35 42 40 37 41 45 37 43 41 46 56 57 53 57 56 49 47 52 4 31 16 49 60 47 52 55 19 51 48 56 52 53 55 31 32 50 54 49 62 17 62 49 17 49 18 21 20 48 32 51 50 33 51 32 18 49 52 1 62 17 53 56 55 18 52 19 52 47 53 16 31 63 51 61 48 20 19 55 14 46 6 51 56 58 10 47 9 55 56 48 8 54 7 22 7 54 20 55 48 33 61 51 33 2 61 31 50 63 6 46 57 21 61 2 10 57 47 46 58 56 51 58 50 53 47 57 14 59 46 9 47 60 10 6 57 54 60 49 8 60 54 15 59 14 1 22 62 21 48 61 8 9 60 46 59 58 16 63 15 15 63 59 50 59 63 22 54 62 50 58 59 14 6 13 11 67 64 4 65 30 4 16 65 13 12 66 15 14 66 65 64 67 16 15 64 12 11 64 15 66 64 12 64 66 11 5 67 16 64 65 14 13 66 3 68 29 3 30 68 29 67 5 30 65 68 29 68 67 67 68 65 
</DataArray>
<DataArray type="Int32" Name="offsets" format="ascii">
2 4 6 8 10 12 14 16 18 20 22 24 27 30 33 36 39 42 45 48 51 54 57 60 63 66 69 72 75 78 81 84 87 90 93 96 99 102 105 108 111 114 117 120 123 126 129 132 135 138 141 144 147 150 153 156 159 162 165 168 171 174 177 180 183 186 189 192 195 198 201 204 207 210 213 216 219 222 225 228 231 234 237 240 243 246 249 252 255 258 261 264 267 270 273 276 279 282 285 288 291 294 297 300 303 306 309 312 315 318 321 324 327 330 333 336 339 342 345 348 351 354 357 360 
</DataArray>
<DataArray type="UInt8" Name="types" format="ascii">
3 3 3 3 3 3 3 3 3 3 3 3 5 5 5 5 5 5 5 5 5 5 5 5 5 5 5 5 5 5 5 5 5 5 5 5 5 5 5 5 5 5 5 5 5 5 5 5 5 5 5 5 5 5 5 5 5 5 5 5 5 5 5 5 5 5 5 5 5 5 5 5 5 5 5 5 5 5 5 5 5 5 5 5 5 5 5 5 5 5 5 5 5 5 5 5 5 5 5 5 5 5 5 5 5 5 5 5 5 5 5 5 5 5 5 5 5 5 5 5 5 5 5 5 
</DataArray>
</Cells>
<CellData Scalars="age_conc,U235_conc," Vectors="" Tensors="">
<DataArray type="Float64" Name="age_conc" format="ascii">
2.027871292394811e+04 4.089420244206070e+04 6.154845452159439e+04 8.243409573529268e+04 2.119963359095218e+05 1.876786013848863e+05 1.568271309708678e+05 1.211596264322910e+05 1.215744460079010e+05 1.572010933428379e+05 1.879222886175354e+05 2.121269469870754e+05 2.499734780340424e+05 2.499326085484849e+05 2.499999484476944e+05 9.107352962398279e+04 2.497752141353046e+05 2.467015311944670e+05 2.499958877538698e+05 1.138877412451878e+05 2.499437012230813e+05 1.912475621203328e+05 1.368058337678696e+05 2.419888114044818e+05 2.088465744130155e+05 1.516170242872742e+05 2.495831158899398e+05 2.499995556130113e+05 1.932386803028640e+05 2.499957654020254e+05 1.318617333171098e+05 2.465235339333983e+05 2.499997591948218e+05 2.491907109485671e+05 2.267304643861320e+05 2.287243778614347e+05 2.482218039137767e+05 1.924776836969267e+05 2.499981424182355e+05 2.498979924864373e+05 2.425275534433721e+05 2.486776187343020e+05 1.968173069305970e+05 2.274612460973137e+05 2.496276277854281e+05 2.489557884700733e+05 2.366664918399511e+05 2.499797561665992e+05 2.336105661691650e+05 2.446174812927269e+05 2.494572281329096e+05 2.480881578277165e+05 2.318459633986106e+05 2.499999377759962e+05 2.459479365355372e+05 1.921021129849388e+05 2.448420204785712e+05 2.260455928620033e+05 2.499508565696870e+05 2.133457726236601e+05 1.798025291238833e+05 1.315825501457457e+05 1.313179902320273e+05 2.497074823102618e+05 2.471074095581669e+05 1.950017268755001e+05 9.987636882612979e+04 2.419560800153837e+05 1.256205430130466e+05 2.435093937550850e+05 2.499994857741582e+05 2.301668375043986e+05 1.225459617832560e+05 2.499829642312386e+05 2.485714070217605e+05 2.492296884684011e+05 2.318000076626702e+05 1.790107638978379e+05 1.181987516855263e+05 1.901972167494952e+05 2.388258263476152e+05 1.925235733649262e+05 2.499960857718331e+05 2.499200225792593e+05 1.320289070697034e+05 2.496430582416643e+05 2.498675981938977e+05 2.496643675689792e+05 2.478584954006262e+05 2.499962706728891e+05 2.473569056454450e+05 2.499064710273932e+05 2.346456216839046e+05 2.226668311764124e+05 2.499994402981305e+05 1.049128137145721e+05 1.863263642909380e+05 2.385862050555086e+05 2.499717583542224e+05 2.499999150203448e+05 2.499993391630862e+05 2.499925499183459e+05 1.711727562829176e+05 2.499623980858494e+05 2.096809021467572e+05 2.489029127432110e+05 2.494168704067421e+05 2.467692663551262e+05 2.344232093639159e+05 2.344003078435189e+05 2.498387934056775e+05 2.443340754780622e+05 2.442355668570650e+05 2.469456662042141e+05 2.469369687189333e+05 2.464987006430220e+05 2.489073890205194e+05 2.377705139753293e+05 2.499931845290354e+05 2.499924776470100e+05 2.493659985864020e+05 2.499447985468542e+05 2.499497360915695e+05 2.499713325193482e+05 
</DataArray>
<DataArray type="Float64" Name="U235_conc" format="ascii">
9.982378466085471e-01 9.934227531976351e-01 9.849879133118811e-01 9.665579776988822e-01 2.389356679373500e-01 4.301570808821379e-01 6.570663189255948e-01 8.546941490112572e-01 8.519547459024630e-01 6.544330309054225e-01 4.285056659596885e-01 2.381557122637323e-01 9.705976915364362e-05 2.396306582283343e-04 1.123378094554958e-07 8.401814013229354e-01 1.006284640880928e-03 1.895091329960084e-02 1.344262545994257e-05 7.349871120736745e-01 2.370342111301581e-04 3.645170207335141e-01 6.175313487278737e-01 4.822025074178715e-02 2.628298674027363e-01 6.023884087515119e-01 1.809040269730856e-03 1.191578798176662e-06 3.509302446124016e-01 1.279017765651109e-05 6.376303918529163e-01 2.018409079653661e-02 5.595830415213309e-07 4.126287701532756e-03 1.476035581619449e-01 1.348477461912893e-01 9.096891507478557e-03 3.559607882011900e-01 5.324260953004760e-06 4.339139406919240e-04 4.369376801590643e-02 6.566969938287238e-03 3.385967546724482e-01 1.424262084820245e-01 1.840439988604657e-03 5.412508294071814e-03 8.320147635568001e-02 7.239761417702822e-05 1.018326646021521e-01 3.063173931969114e-02 2.537754016941760e-03 1.027587848036033e-02 1.146909929352236e-01 1.431037900852811e-07 2.249345014876711e-02 3.584167388551380e-01 3.073302136301482e-02 1.522684418901593e-01 2.078253855482940e-04 2.351204084687124e-01 4.343473238653066e-01 6.407180573858560e-01 6.425677485445211e-01 1.446192228845175e-03 1.662548586977545e-02 3.401939651954302e-01 7.996504597033243e-01 4.855397462936584e-02 6.709543127530012e-01 3.897311315319832e-02 1.451149320601186e-06 1.257808063220270e-01 6.880440670975629e-01 5.445046292422878e-05 7.639660550327062e-03 3.631457552891392e-03 1.150406977272459e-01 4.366191481437282e-01 7.039339553663423e-01 3.703140277746738e-01 6.937157299364864e-02 3.548298063746450e-01 1.330816515178564e-05 3.086702668416393e-04 6.349235564669005e-01 1.607007185562979e-03 5.406973037100920e-04 1.549899988948548e-03 1.163990248799233e-02 1.013162691495099e-05 1.430234985410290e-02 3.573542261411191e-04 9.495780083098061e-02 1.741498810210485e-01 1.225825649153529e-06 7.770703787258209e-01 3.929470476006791e-01 7.023051956204764e-02 9.626168847027967e-05 1.718771440164844e-07 1.667134062129555e-06 2.353273598564136e-05 4.863381269600223e-01 1.434032968575316e-04 2.712257430102903e-01 4.921681882805039e-03 2.189035971333659e-03 1.582565300328295e-02 9.811808093298247e-02 9.827968329851580e-02 5.563220387478082e-04 3.207450327682679e-02 3.264280281534035e-02 1.590960873636064e-02 1.595505679425232e-02 1.716338520346263e-02 4.903171291524970e-03 7.323060092604496e-02 1.439073228612213e-05 1.592068465506867e-05 2.381475046467043e-03 1.557035404155259e-04 1.414017372004177e-04 7.597994193796049e-05 
</DataArray>
</CellData>
</Piece>
</UnstructuredGrid>
</VTKFile>
