<?xml version="1.0"?>
<VTKFile type="UnstructuredGrid" version="0.1" byte_order="LittleEndian">
<UnstructuredGrid>
<Piece NumberOfPoints="69" NumberOfCells="124">
<Points>
<DataArray type="Float64" NumberOfComponents="3" format="ascii">
0.000000000000000e+00 1.000000000000000e+00 0.000000000000000e+00 1.000000000000000e+00 1.000000000000000e+00 0.000000000000000e+00 1.000000000000000e+00 0.000000000000000e+00 0.000000000000000e+00 0.000000000000000e+00 0.000000000000000e+00 0.000000000000000e+00 2.500000000000000e-01 -0.000000000000000e+00 0.000000000000000e+00 0.000000000000000e+00 2.500000000000000e-01 0.000000000000000e+00 5.000000000000000e-01 5.000000000000000e-01 -0.000000000000000e+00 7.500000000000000e-01 1.000000000000000e+00 0.000000000000000e+00 6.875000000000000e-01 8.750000000000000e-01 0.000000000000000e+00 6.250000000000000e-01 7.500000000000000e-01 0.000000000000000e+00 5.625000000000000e-01 6.250000000000000e-01 0.000000000000000e+00 1.249999999997599e-01 3.124999999998800e-01 0.000000000000000e+00 2.499999999996086e-01 3.749999999998043e-01 0.000000000000000e+00 3.749999999997349e-01 4.374999999998674e-01 0.000000000000000e+00 4.375000000000694e-01 3.750000000001388e-01 0.000000000000000e+00 3.750000000002776e-01 2.500000000005551e-01 0.000000000000000e+00 3.125000000002082e-01 1.250000000004163e-01 0.000000000000000e+00 1.000000000000000e+00 8.333333333335646e-01 0.000000000000000e+00 1.000000000000000e+00 6.666666666673605e-01 0.000000000000000e+00 1.000000000000000e+00 5.000000000013877e-01 0.000000000000000e+00 1.000000000000000e+00 3.333333333344898e-01 0.000000000000000e+00 1.000000000000000e+00 1.666666666673605e-01 0.000000000000000e+00 8.750000000000000e-01 1.000000000000000e+00 0.000000000000000e+00 5.625000000008674e-01 1.000000000000000e+00 0.000000000000000e+00 3.750000000006939e-01 1.000000000000000e+00 0.000000000000000e+00 1.875000000005205e-01 1.000000000000000e+00 0.000000000000000e+00 0.000000000000000e+00 8.125000000010408e-01 0.000000000000000e+00 0.000000000000000e+00 6.250000000006939e-01 0.000000000000000e+00 0.000000000000000e+00 4.375000000003469e-01 0.000000000000000e+00 0.000000000000000e+00 1.250000000003469e-01 0.000000000000000e+00 1.249999999997554e-01 0.000000000000000e+00 0.000000000000000e+00 4.374999999991326e-01 0.000000000000000e+00 0.000000000000000e+00 6.249999999989591e-01 0.000000000000000e+00 0.000000000000000e+00 8.124999999994795e-01 0.000000000000000e+00 0.000000000000000e+00 2.798796021293082e-01 8.344274147057053e-01 0.000000000000000e+00 2.645244370067465e-01 5.156353158163987e-01 0.000000000000000e+00 4.139414069912184e-01 6.056325264010037e-01 0.000000000000000e+00 4.492710539671537e-01 8.556512408515589e-01 0.000000000000000e+00 2.758946705068648e-01 6.605885315643570e-01 0.000000000000000e+00 1.390078959961168e-01 7.261831610706000e-01 0.000000000000000e+00 1.492912418697525e-01 4.458279356810638e-01 0.000000000000000e+00 5.014585693307863e-01 7.367466304650486e-01 0.000000000000000e+00 1.392858751591214e-01 5.733980610567744e-01 0.000000000000000e+00 3.813620468049507e-01 7.403859221383123e-01 0.000000000000000e+00 1.271010713601231e-01 8.709480661820344e-01 0.000000000000000e+00 5.677751205718758e-01 8.470224641095303e-01 0.000000000000000e+00 5.698670717843664e-01 3.776209365087199e-01 0.000000000000000e+00 7.125974780784441e-01 6.384669131570183e-01 0.000000000000000e+00 8.608728669021763e-01 2.520652359795942e-01 0.000000000000000e+00 8.578792739151740e-01 7.535325208825020e-01 0.000000000000000e+00 5.447576766858295e-01 1.431838882066932e-01 0.000000000000000e+00 7.150899340618379e-01 1.571595685477760e-01 0.000000000000000e+00 8.612746697781972e-01 5.794807697879764e-01 0.000000000000000e+00 7.533843026232094e-01 4.929444342317560e-01 0.000000000000000e+00 8.055298449100090e-01 8.871112287212741e-01 0.000000000000000e+00 8.656940847709105e-01 4.098367391676661e-01 0.000000000000000e+00 7.182603949284063e-01 3.456402071721618e-01 0.000000000000000e+00 6.323653418237701e-01 5.029675640633227e-01 0.000000000000000e+00 6.110846258508276e-01 2.575059958234323e-01 0.000000000000000e+00 4.945749328930023e-01 2.625170377655549e-01 0.000000000000000e+00 7.385779517043357e-01 7.773678856428465e-01 0.000000000000000e+00 8.769890164881212e-01 1.160638338657984e-01 0.000000000000000e+00 9.063795342218008e-01 9.020858332805730e-01 0.000000000000000e+00 4.287911518546233e-01 1.545544542796670e-01 0.000000000000000e+00 2.403886547178353e-01 2.418881479267384e-01 0.000000000000000e+00 1.840276181286450e-01 1.117324051466445e-01 0.000000000000000e+00 3.381944444444832e-01 3.381944444445634e-01 0.000000000000000e+00 1.008171452988615e-01 1.888570369725047e-01 0.000000000000000e+00 8.435242216391163e-02 8.645171265626619e-02 0.000000000000000e+00 
</DataArray>
</Points>
<Cells>
<DataArray type="Int32" Name="connectivity" format="ascii">
7 8 8 9 9 10 10 6 5 11 11 12 12 13 13 6 6 14 14 15 15 16 16 4 13 36 35 13 6 36 5 11 28 8 7 23 36 38 35 34 39 38 28 40 42 24 37 23 28 42 27 24 34 37 24 25 34 34 38 43 23 37 45 8 23 45 10 36 6 28 11 40 0 26 44 13 35 12 25 0 44 26 27 39 12 40 11 38 39 42 37 34 43 34 44 39 10 41 36 25 44 34 12 35 40 35 38 42 10 9 41 36 41 43 8 45 9 9 45 41 27 42 39 36 43 38 26 39 44 35 42 40 37 41 45 37 43 41 46 56 57 53 57 56 49 47 52 4 31 16 49 60 47 52 55 19 51 48 56 52 53 55 31 32 50 54 49 62 17 62 49 17 49 18 21 20 48 32 51 50 33 51 32 18 49 52 1 62 17 53 56 55 18 52 19 52 47 53 16 31 63 51 61 48 20 19 55 14 46 6 51 56 58 10 47 9 55 56 48 8 54 7 22 7 54 20 55 48 33 61 51 33 2 61 31 50 63 6 46 57 21 61 2 10 57 47 46 58 56 51 58 50 53 47 57 14 59 46 9 47 60 10 6 57 54 60 49 8 60 54 15 59 14 1 22 62 21 48 61 8 9 60 46 59 58 16 63 15 15 63 59 50 59 63 22 54 62 50 58 59 14 6 13 11 67 64 4 65 30 4 16 65 13 12 66 15 14 66 65 64 67 16 15 64 12 11 64 15 66 64 12 64 66 11 5 67 16 64 65 14 13 66 3 68 29 3 30 68 29 67 5 30 65 68 29 68 67 67 68 65 
</DataArray>
<DataArray type="Int32" Name="offsets" format="ascii">
2 4 6 8 10 12 14 16 18 20 22 24 27 30 33 36 39 42 45 48 51 54 57 60 63 66 69 72 75 78 81 84 87 90 93 96 99 102 105 108 111 114 117 120 123 126 129 132 135 138 141 144 147 150 153 156 159 162 165 168 171 174 177 180 183 186 189 192 195 198 201 204 207 210 213 216 219 222 225 228 231 234 237 240 243 246 249 252 255 258 261 264 267 270 273 276 279 282 285 288 291 294 297 300 303 306 309 312 315 318 321 324 327 330 333 336 339 342 345 348 351 354 357 360 
</DataArray>
<DataArray type="UInt8" Name="types" format="ascii">
3 3 3 3 3 3 3 3 3 3 3 3 5 5 5 5 5 5 5 5 5 5 5 5 5 5 5 5 5 5 5 5 5 5 5 5 5 5 5 5 5 5 5 5 5 5 5 5 5 5 5 5 5 5 5 5 5 5 5 5 5 5 5 5 5 5 5 5 5 5 5 5 5 5 5 5 5 5 5 5 5 5 5 5 5 5 5 5 5 5 5 5 5 5 5 5 5 5 5 5 5 5 5 5 5 5 5 5 5 5 5 5 5 5 5 5 5 5 5 5 5 5 5 5 
</DataArray>
</Cells>
<CellData Scalars="age_conc,U235_conc," Vectors="" Tensors="">
<DataArray type="Float64" Name="age_conc" format="ascii">
2.042123341956561e+04 4.165512743150524e+04 6.345140923074066e+04 8.630750861259925e+04 2.434110291201746e+05 2.063980251312942e+05 1.679824021605772e+05 1.280286489518619e+05 1.290691708154931e+05 1.691489397309919e+05 2.074344406900000e+05 2.442544487739985e+05 4.480308747471725e+05 4.454223194093702e+05 4.499750353830860e+05 9.681082684596280e+04 4.422261247516481e+05 4.122486370722487e+05 4.495136991114948e+05 1.289268060169296e+05 4.474122192664189e+05 2.473162020972033e+05 1.688524514458851e+05 3.816564993041902e+05 2.744539810595594e+05 1.703928838419182e+05 4.360068785985415e+05 4.498938911455985e+05 2.572482466197381e+05 4.493907435833816e+05 1.632664583271755e+05 4.122797293959967e+05 4.499146551680934e+05 4.337193699029574e+05 3.275539463440528e+05 3.368956018849677e+05 4.178990352056037e+05 2.540256608671350e+05 4.496750517334907e+05 4.456573257505336e+05 3.766619135355480e+05 4.229669076416250e+05 2.464229634743338e+05 3.181692209905544e+05 4.409921276373324e+05 4.300367606964201e+05 3.657960768627693e+05 4.484048773525923e+05 3.407773444733545e+05 3.897826943901211e+05 4.356306522437010e+05 4.208800978447492e+05 3.496551096119911e+05 4.499744139747495e+05 3.989935613837276e+05 2.531206730261056e+05 4.021426987750365e+05 3.271568081080902e+05 4.477573366078142e+05 2.837936596047969e+05 2.221283161945223e+05 1.599963236661640e+05 1.608976301130539e+05 4.428188965710810e+05 4.168439704566813e+05 2.594446294829525e+05 1.087484058308043e+05 3.825619867343884e+05 1.519015753292845e+05 3.930400590961477e+05 4.498939469167889e+05 3.452492867277685e+05 1.455934442464207e+05 4.482351798100927e+05 4.272346744100687e+05 4.305176328521502e+05 3.501306571641563e+05 2.245105854853128e+05 1.385353194539981e+05 2.475865258758852e+05 3.755838682701127e+05 2.560219725726506e+05 4.495774231271740e+05 4.455987422562862e+05 1.636646788107631e+05 4.386919989196685e+05 4.440113778584046e+05 4.403433530942253e+05 4.190385945217224e+05 4.493174669786926e+05 4.114614606245040e+05 4.447330937371937e+05 3.426009762834248e+05 3.165825677680054e+05 4.497896683904065e+05 1.157026650888088e+05 2.414337945039874e+05 3.653228914224261e+05 4.476048661908922e+05 4.499548496568270e+05 4.498299656758469e+05 4.491434190802308e+05 2.049533601797760e+05 4.476997548221594e+05 2.713316741130825e+05 4.273503707678590e+05 4.316921190903810e+05 4.062246858280291e+05 3.471822835845492e+05 3.471496106059704e+05 4.423031761776058e+05 3.960347926623152e+05 3.952531635088035e+05 4.079809671857309e+05 4.078618745714561e+05 4.029461182474853e+05 4.274640049950522e+05 3.508956014209256e+05 4.486593363697819e+05 4.485458632755517e+05 4.302284077292094e+05 4.456256592464903e+05 4.459399420365499e+05 4.469514950348804e+05 
</DataArray>
<DataArray type="Float64" Name="U235_conc" format="ascii">
9.991609014971879e-01 9.957508175363119e-01 9.898352101515568e-01 9.798634334956835e-01 8.089266300535667e-01 8.924003417138554e-01 9.398901887183091e-01 9.643513087786532e-01 9.612776182205724e-01 9.359919692842181e-01 8.885529164074947e-01 8.055972842415270e-01 4.229754154499715e-03 1.047163011864604e-02 2.991682049231364e-05 9.636035289097169e-01 2.056415835269305e-02 1.253872892806248e-01 9.009796905247302e-04 9.084031594080608e-01 6.281811657586796e-03 6.722474228025114e-01 8.140415917504862e-01 2.380377373069110e-01 6.130181579863371e-01 8.820988734356170e-01 3.855981372997074e-02 1.583973630004065e-04 6.345382760276476e-01 1.080452426390889e-03 8.192303254793395e-01 1.260388264181551e-01 1.146254185968580e-04 4.895768768928626e-02 4.311217667412974e-01 3.972892720989959e-01 1.013208125468904e-01 6.462605485784829e-01 5.413019394838578e-04 1.085298917345414e-02 2.555109900089051e-01 8.313463144757489e-02 6.999980990187833e-01 4.727264406176555e-01 2.566222749561073e-02 6.042248000806865e-02 2.942658205059754e-01 3.380985643533790e-03 3.902979647335399e-01 2.060601689303270e-01 4.146641467232762e-02 9.365280918247094e-02 3.509847596571618e-01 3.204847160350759e-05 1.717692474787037e-01 6.493982178975874e-01 1.635968788443727e-01 4.321906568131320e-01 5.439628284063572e-03 5.857229943387112e-01 7.469608684430541e-01 8.330627288289438e-01 8.284735356129050e-01 2.029515979263454e-02 1.099306229826686e-01 6.297035039003229e-01 9.446370926751246e-01 2.352944652922487e-01 8.474942297691630e-01 1.966704406172999e-01 1.642500794386632e-04 3.669705242906128e-01 8.648950144582244e-01 3.542905125276709e-03 7.209738659632484e-02 5.706002564445308e-02 3.493492240605505e-01 7.316826536120272e-01 8.782620897554388e-01 6.677139144108701e-01 2.596069361725274e-01 6.371728480936981e-01 7.953392049081959e-04 1.050100260490810e-02 8.175196064782051e-01 3.105196743605398e-02 1.506059209296899e-02 2.707028491519158e-02 1.005091665699044e-01 1.156333226235366e-03 1.255301671073931e-01 1.254302847292820e-02 3.848496843337127e-01 4.666922608782652e-01 2.863013373338415e-04 9.331911911255563e-01 6.818029460963058e-01 2.986494696635955e-01 5.085283097776362e-03 5.390889668490750e-05 2.533364664508128e-04 1.641920597117083e-03 7.948453365185858e-01 5.247708801409061e-03 6.429379452833446e-01 7.408856653478274e-02 5.669238891530295e-02 1.587124888485898e-01 3.774090633236900e-01 3.775858406839203e-01 2.084634583098071e-02 1.968369337553122e-01 1.998512235114891e-01 1.446338362748477e-01 1.450429018349527e-01 1.711540333534488e-01 7.372299577692322e-02 3.633557622264278e-01 2.519934704445582e-03 2.754078135284845e-03 6.141222965817598e-02 1.063074353940696e-02 9.788519895559374e-03 6.712433194013834e-03 
</DataArray>
</CellData>
</Piece>
</UnstructuredGrid>
</VTKFile>
