<?xml version="1.0"?>
<VTKFile type="UnstructuredGrid" version="0.1" byte_order="LittleEndian">
<UnstructuredGrid>
<Piece NumberOfPoints="69" NumberOfCells="124">
<Points>
<DataArray type="Float64" NumberOfComponents="3" format="ascii">
0.000000000000000e+00 1.000000000000000e+00 0.000000000000000e+00 1.000000000000000e+00 1.000000000000000e+00 0.000000000000000e+00 1.000000000000000e+00 0.000000000000000e+00 0.000000000000000e+00 0.000000000000000e+00 0.000000000000000e+00 0.000000000000000e+00 2.500000000000000e-01 -0.000000000000000e+00 0.000000000000000e+00 0.000000000000000e+00 2.500000000000000e-01 0.000000000000000e+00 5.000000000000000e-01 5.000000000000000e-01 -0.000000000000000e+00 7.500000000000000e-01 1.000000000000000e+00 0.000000000000000e+00 6.875000000000000e-01 8.750000000000000e-01 0.000000000000000e+00 6.250000000000000e-01 7.500000000000000e-01 0.000000000000000e+00 5.625000000000000e-01 6.250000000000000e-01 0.000000000000000e+00 1.249999999997599e-01 3.124999999998800e-01 0.000000000000000e+00 2.499999999996086e-01 3.749999999998043e-01 0.000000000000000e+00 3.749999999997349e-01 4.374999999998674e-01 0.000000000000000e+00 4.375000000000694e-01 3.750000000001388e-01 0.000000000000000e+00 3.750000000002776e-01 2.500000000005551e-01 0.000000000000000e+00 3.125000000002082e-01 1.250000000004163e-01 0.000000000000000e+00 1.000000000000000e+00 8.333333333335646e-01 0.000000000000000e+00 1.000000000000000e+00 6.666666666673605e-01 0.000000000000000e+00 1.000000000000000e+00 5.000000000013877e-01 0.000000000000000e+00 1.000000000000000e+00 3.333333333344898e-01 0.000000000000000e+00 1.000000000000000e+00 1.666666666673605e-01 0.000000000000000e+00 8.750000000000000e-01 1.000000000000000e+00 0.000000000000000e+00 5.625000000008674e-01 1.000000000000000e+00 0.000000000000000e+00 3.750000000006939e-01 1.000000000000000e+00 0.000000000000000e+00 1.875000000005205e-01 1.000000000000000e+00 0.000000000000000e+00 0.000000000000000e+00 8.125000000010408e-01 0.000000000000000e+00 0.000000000000000e+00 6.250000000006939e-01 0.000000000000000e+00 0.000000000000000e+00 4.375000000003469e-01 0.000000000000000e+00 0.000000000000000e+00 1.250000000003469e-01 0.000000000000000e+00 1.249999999997554e-01 0.000000000000000e+00 0.000000000000000e+00 4.374999999991326e-01 0.000000000000000e+00 0.000000000000000e+00 6.249999999989591e-01 0.000000000000000e+00 0.000000000000000e+00 8.124999999994795e-01 0.000000000000000e+00 0.000000000000000e+00 2.798796021293082e-01 8.344274147057053e-01 0.000000000000000e+00 2.645244370067465e-01 5.156353158163987e-01 0.000000000000000e+00 4.139414069912184e-01 6.056325264010037e-01 0.000000000000000e+00 4.492710539671537e-01 8.556512408515589e-01 0.000000000000000e+00 2.758946705068648e-01 6.605885315643570e-01 0.000000000000000e+00 1.390078959961168e-01 7.261831610706000e-01 0.000000000000000e+00 1.492912418697525e-01 4.458279356810638e-01 0.000000000000000e+00 5.014585693307863e-01 7.367466304650486e-01 0.000000000000000e+00 1.392858751591214e-01 5.733980610567744e-01 0.000000000000000e+00 3.813620468049507e-01 7.403859221383123e-01 0.000000000000000e+00 1.271010713601231e-01 8.709480661820344e-01 0.000000000000000e+00 5.677751205718758e-01 8.470224641095303e-01 0.000000000000000e+00 5.698670717843664e-01 3.776209365087199e-01 0.000000000000000e+00 7.125974780784441e-01 6.384669131570183e-01 0.000000000000000e+00 8.608728669021763e-01 2.520652359795942e-01 0.000000000000000e+00 8.578792739151740e-01 7.535325208825020e-01 0.000000000000000e+00 5.447576766858295e-01 1.431838882066932e-01 0.000000000000000e+00 7.150899340618379e-01 1.571595685477760e-01 0.000000000000000e+00 8.612746697781972e-01 5.794807697879764e-01 0.000000000000000e+00 7.533843026232094e-01 4.929444342317560e-01 0.000000000000000e+00 8.055298449100090e-01 8.871112287212741e-01 0.000000000000000e+00 8.656940847709105e-01 4.098367391676661e-01 0.000000000000000e+00 7.182603949284063e-01 3.456402071721618e-01 0.000000000000000e+00 6.323653418237701e-01 5.029675640633227e-01 0.000000000000000e+00 6.110846258508276e-01 2.575059958234323e-01 0.000000000000000e+00 4.945749328930023e-01 2.625170377655549e-01 0.000000000000000e+00 7.385779517043357e-01 7.773678856428465e-01 0.000000000000000e+00 8.769890164881212e-01 1.160638338657984e-01 0.000000000000000e+00 9.063795342218008e-01 9.020858332805730e-01 0.000000000000000e+00 4.287911518546233e-01 1.545544542796670e-01 0.000000000000000e+00 2.403886547178353e-01 2.418881479267384e-01 0.000000000000000e+00 1.840276181286450e-01 1.117324051466445e-01 0.000000000000000e+00 3.381944444444832e-01 3.381944444445634e-01 0.000000000000000e+00 1.008171452988615e-01 1.888570369725047e-01 0.000000000000000e+00 8.435242216391163e-02 8.645171265626619e-02 0.000000000000000e+00 
</DataArray>
</Points>
<Cells>
<DataArray type="Int32" Name="connectivity" format="ascii">
7 8 8 9 9 10 10 6 5 11 11 12 12 13 13 6 6 14 14 15 15 16 16 4 13 36 35 13 6 36 5 11 28 8 7 23 36 38 35 34 39 38 28 40 42 24 37 23 28 42 27 24 34 37 24 25 34 34 38 43 23 37 45 8 23 45 10 36 6 28 11 40 0 26 44 13 35 12 25 0 44 26 27 39 12 40 11 38 39 42 37 34 43 34 44 39 10 41 36 25 44 34 12 35 40 35 38 42 10 9 41 36 41 43 8 45 9 9 45 41 27 42 39 36 43 38 26 39 44 35 42 40 37 41 45 37 43 41 46 56 57 53 57 56 49 47 52 4 31 16 49 60 47 52 55 19 51 48 56 52 53 55 31 32 50 54 49 62 17 62 49 17 49 18 21 20 48 32 51 50 33 51 32 18 49 52 1 62 17 53 56 55 18 52 19 52 47 53 16 31 63 51 61 48 20 19 55 14 46 6 51 56 58 10 47 9 55 56 48 8 54 7 22 7 54 20 55 48 33 61 51 33 2 61 31 50 63 6 46 57 21 61 2 10 57 47 46 58 56 51 58 50 53 47 57 14 59 46 9 47 60 10 6 57 54 60 49 8 60 54 15 59 14 1 22 62 21 48 61 8 9 60 46 59 58 16 63 15 15 63 59 50 59 63 22 54 62 50 58 59 14 6 13 11 67 64 4 65 30 4 16 65 13 12 66 15 14 66 65 64 67 16 15 64 12 11 64 15 66 64 12 64 66 11 5 67 16 64 65 14 13 66 3 68 29 3 30 68 29 67 5 30 65 68 29 68 67 67 68 65 
</DataArray>
<DataArray type="Int32" Name="offsets" format="ascii">
2 4 6 8 10 12 14 16 18 20 22 24 27 30 33 36 39 42 45 48 51 54 57 60 63 66 69 72 75 78 81 84 87 90 93 96 99 102 105 108 111 114 117 120 123 126 129 132 135 138 141 144 147 150 153 156 159 162 165 168 171 174 177 180 183 186 189 192 195 198 201 204 207 210 213 216 219 222 225 228 231 234 237 240 243 246 249 252 255 258 261 264 267 270 273 276 279 282 285 288 291 294 297 300 303 306 309 312 315 318 321 324 327 330 333 336 339 342 345 348 351 354 357 360 
</DataArray>
<DataArray type="UInt8" Name="types" format="ascii">
3 3 3 3 3 3 3 3 3 3 3 3 5 5 5 5 5 5 5 5 5 5 5 5 5 5 5 5 5 5 5 5 5 5 5 5 5 5 5 5 5 5 5 5 5 5 5 5 5 5 5 5 5 5 5 5 5 5 5 5 5 5 5 5 5 5 5 5 5 5 5 5 5 5 5 5 5 5 5 5 5 5 5 5 5 5 5 5 5 5 5 5 5 5 5 5 5 5 5 5 5 5 5 5 5 5 5 5 5 5 5 5 5 5 5 5 5 5 5 5 5 5 5 5 
</DataArray>
</Cells>
<CellData Scalars="age_conc,U235_conc," Vectors="" Tensors="">
<DataArray type="Float64" Name="age_conc" format="ascii">
9.999211336640227e-01 9.998390966307528e-01 9.997476085589958e-01 9.996045049677230e-01 9.978597884873797e-01 9.983886289793731e-01 9.989750588916955e-01 9.993770518243478e-01 9.990968277792764e-01 9.982660195638278e-01 9.972221654801414e-01 9.964159675319855e-01 9.619821238719255e-01 9.831956075896454e-01 7.756389057870785e-01 9.996003179026682e-01 9.903856404638689e-01 9.960542320218422e-01 9.237749534468762e-01 9.994218247018611e-01 9.636165941181672e-01 9.988330074036768e-01 9.991470772840898e-01 9.975777483980339e-01 9.987114909961400e-01 9.992858541968875e-01 9.942171530288384e-01 8.392646370059360e-01 9.986499435917613e-01 9.303187652764580e-01 9.991781151944901e-01 9.957990230902298e-01 8.407250329371203e-01 9.931182730811796e-01 9.982039617179319e-01 9.979704240665701e-01 9.967866958051259e-01 9.986940315175207e-01 8.967312833267111e-01 9.813583129965491e-01 9.978771510400135e-01 9.967159170731442e-01 9.988364016151544e-01 9.983996045841927e-01 9.873536632374711e-01 9.954129444895015e-01 9.975175878055071e-01 9.672254653543604e-01 9.982628054107352e-01 9.977630058447647e-01 9.781735840472647e-01 9.868916816317949e-01 9.966351705068752e-01 6.434267423049193e-01 9.970334712550890e-01 9.980518390928248e-01 9.861677341234203e-01 9.957804623480098e-01 8.957803198187745e-01 9.985230860713183e-01 9.989246353620073e-01 9.990734320117598e-01 9.984800447176707e-01 9.352168015441522e-01 9.790284039167156e-01 9.984468047090558e-01 9.994932542187080e-01 9.926934189832046e-01 9.988758731330332e-01 9.947692939441801e-01 7.191763403354303e-01 9.902035724408200e-01 9.987039218338134e-01 9.326410011536476e-01 9.709131628193759e-01 9.929093826277586e-01 9.926876048676221e-01 9.984314053444149e-01 9.990818837312536e-01 9.977060127913810e-01 9.876821118858969e-01 9.977911453260457e-01 8.175380233012856e-01 9.588332650809457e-01 9.986264009253243e-01 9.855357697812215e-01 9.646170101379747e-01 9.553777020163492e-01 9.906242012318260e-01 8.933613857671459e-01 9.956736708491617e-01 9.749439322505757e-01 9.980242613073098e-01 9.977205731841922e-01 8.418653872710560e-01 9.994770098468296e-01 9.977106853909948e-01 9.966834044145287e-01 9.428378973998317e-01 7.127910775528232e-01 7.875639104754903e-01 8.842323564030462e-01 9.990396037832935e-01 9.185632814333983e-01 9.972605749236891e-01 8.724298405580236e-01 6.837406694574434e-01 7.935846243285598e-01 9.912407392563254e-01 9.906457227585324e-01 7.665199959282973e-01 9.379807548506525e-01 9.400019966240825e-01 9.686709728612084e-01 9.698465693112670e-01 7.960551478354694e-01 8.714270580682110e-01 9.948989402750692e-01 5.671402865788877e-01 5.540423637256058e-01 6.988786939334645e-01 6.247432102008397e-01 6.362947364057377e-01 6.848854049224498e-01 
</DataArray>
<DataArray type="Float64" Name="U235_conc" format="ascii">
9.999210263316722e-01 9.998389829118588e-01 9.997480243357417e-01 9.996085036078695e-01 9.979015302186161e-01 9.984207685473334e-01 9.989935229277079e-01 9.993848545399735e-01 9.991176703209770e-01 9.983097565289731e-01 9.972844714381531e-01 9.964876435330844e-01 9.637946231753640e-01 9.840434072670721e-01 7.811488439650394e-01 9.995997705682999e-01 9.908610456537201e-01 9.961622197059126e-01 9.270978332215227e-01 9.994211246720833e-01 9.653304559974754e-01 9.988326194387830e-01 9.991480013500150e-01 9.975985886366082e-01 9.987103884178281e-01 9.992848974408327e-01 9.944285984844304e-01 8.441908233319113e-01 9.986584051050085e-01 9.332836733344119e-01 9.991808942285633e-01 9.959295725034790e-01 8.456909422238961e-01 9.934149340500531e-01 9.982087955377805e-01 9.979894951679695e-01 9.968324628831923e-01 9.986976171910864e-01 9.006401690318772e-01 9.823715170067968e-01 9.978780210341727e-01 9.967672327059782e-01 9.988349315147186e-01 9.983979022730707e-01 9.880051083237213e-01 9.955508049318105e-01 9.975553039652869e-01 9.689849126144194e-01 9.982627206757150e-01 9.977683349369646e-01 9.793304057139834e-01 9.875688792674628e-01 9.967197431021776e-01 6.486140269987000e-01 9.970738532047081e-01 9.980844120207560e-01 9.868136616742931e-01 9.959317556591006e-01 8.991511049969886e-01 9.985223948577413e-01 9.989236672912312e-01 9.990734962301339e-01 9.985179737721208e-01 9.376912831778188e-01 9.798613254545638e-01 9.984527600283231e-01 9.994925808105080e-01 9.930214181955959e-01 9.988848805112032e-01 9.949661761292179e-01 7.249316236760208e-01 9.906162007656580e-01 9.987292271475522e-01 9.359136888065076e-01 9.722668608799740e-01 9.932261741082471e-01 9.930124531289590e-01 9.984369293575734e-01 9.990816337476165e-01 9.977656348444373e-01 9.881892583339112e-01 9.978444720240639e-01 8.228680363316361e-01 9.610289694231489e-01 9.986584445170927e-01 9.863261695318082e-01 9.664371393743355e-01 9.573227581592691e-01 9.910811370868999e-01 8.978148839739348e-01 9.958008022470507e-01 9.763534353088359e-01 9.980270635993626e-01 9.977419827912564e-01 8.473776691682284e-01 9.994763220437191e-01 9.977720593797967e-01 9.967549327240643e-01 9.455580135346666e-01 7.189552164807166e-01 7.936310027803950e-01 8.886251508111476e-01 9.990384435113639e-01 9.220428578652728e-01 9.973168500059506e-01 8.749580664960654e-01 6.856264444455701e-01 7.959396912091123e-01 9.915230631516918e-01 9.909383925420823e-01 7.694703753098691e-01 9.395882891356635e-01 9.415968146795685e-01 9.696557217722541e-01 9.708218047519117e-01 7.983326300751059e-01 8.739467687694764e-01 9.950289336515169e-01 5.683546562264802e-01 5.551591635226653e-01 7.006870433340531e-01 6.265798660844569e-01 6.381744655541157e-01 6.876887142308806e-01 
</DataArray>
</CellData>
</Piece>
</UnstructuredGrid>
</VTKFile>
