<?xml version="1.0"?>
<VTKFile type="UnstructuredGrid" version="0.1" byte_order="LittleEndian">
<UnstructuredGrid>
<Piece NumberOfPoints="69" NumberOfCells="124">
<Points>
<DataArray type="Float64" NumberOfComponents="3" format="ascii">
0.000000000000000e+00 1.000000000000000e+00 0.000000000000000e+00 1.000000000000000e+00 1.000000000000000e+00 0.000000000000000e+00 1.000000000000000e+00 0.000000000000000e+00 0.000000000000000e+00 0.000000000000000e+00 0.000000000000000e+00 0.000000000000000e+00 2.500000000000000e-01 -0.000000000000000e+00 0.000000000000000e+00 0.000000000000000e+00 2.500000000000000e-01 0.000000000000000e+00 5.000000000000000e-01 5.000000000000000e-01 -0.000000000000000e+00 7.500000000000000e-01 1.000000000000000e+00 0.000000000000000e+00 6.875000000000000e-01 8.750000000000000e-01 0.000000000000000e+00 6.250000000000000e-01 7.500000000000000e-01 0.000000000000000e+00 5.625000000000000e-01 6.250000000000000e-01 0.000000000000000e+00 1.249999999997599e-01 3.124999999998800e-01 0.000000000000000e+00 2.499999999996086e-01 3.749999999998043e-01 0.000000000000000e+00 3.749999999997349e-01 4.374999999998674e-01 0.000000000000000e+00 4.375000000000694e-01 3.750000000001388e-01 0.000000000000000e+00 3.750000000002776e-01 2.500000000005551e-01 0.000000000000000e+00 3.125000000002082e-01 1.250000000004163e-01 0.000000000000000e+00 1.000000000000000e+00 8.333333333335646e-01 0.000000000000000e+00 1.000000000000000e+00 6.666666666673605e-01 0.000000000000000e+00 1.000000000000000e+00 5.000000000013877e-01 0.000000000000000e+00 1.000000000000000e+00 3.333333333344898e-01 0.000000000000000e+00 1.000000000000000e+00 1.666666666673605e-01 0.000000000000000e+00 8.750000000000000e-01 1.000000000000000e+00 0.000000000000000e+00 5.625000000008674e-01 1.000000000000000e+00 0.000000000000000e+00 3.750000000006939e-01 1.000000000000000e+00 0.000000000000000e+00 1.875000000005205e-01 1.000000000000000e+00 0.000000000000000e+00 0.000000000000000e+00 8.125000000010408e-01 0.000000000000000e+00 0.000000000000000e+00 6.250000000006939e-01 0.000000000000000e+00 0.000000000000000e+00 4.375000000003469e-01 0.000000000000000e+00 0.000000000000000e+00 1.250000000003469e-01 0.000000000000000e+00 1.249999999997554e-01 0.000000000000000e+00 0.000000000000000e+00 4.374999999991326e-01 0.000000000000000e+00 0.000000000000000e+00 6.249999999989591e-01 0.000000000000000e+00 0.000000000000000e+00 8.124999999994795e-01 0.000000000000000e+00 0.000000000000000e+00 2.798796021293082e-01 8.344274147057053e-01 0.000000000000000e+00 2.645244370067465e-01 5.156353158163987e-01 0.000000000000000e+00 4.139414069912184e-01 6.056325264010037e-01 0.000000000000000e+00 4.492710539671537e-01 8.556512408515589e-01 0.000000000000000e+00 2.758946705068648e-01 6.605885315643570e-01 0.000000000000000e+00 1.390078959961168e-01 7.261831610706000e-01 0.000000000000000e+00 1.492912418697525e-01 4.458279356810638e-01 0.000000000000000e+00 5.014585693307863e-01 7.367466304650486e-01 0.000000000000000e+00 1.392858751591214e-01 5.733980610567744e-01 0.000000000000000e+00 3.813620468049507e-01 7.403859221383123e-01 0.000000000000000e+00 1.271010713601231e-01 8.709480661820344e-01 0.000000000000000e+00 5.677751205718758e-01 8.470224641095303e-01 0.000000000000000e+00 5.698670717843664e-01 3.776209365087199e-01 0.000000000000000e+00 7.125974780784441e-01 6.384669131570183e-01 0.000000000000000e+00 8.608728669021763e-01 2.520652359795942e-01 0.000000000000000e+00 8.578792739151740e-01 7.535325208825020e-01 0.000000000000000e+00 5.447576766858295e-01 1.431838882066932e-01 0.000000000000000e+00 7.150899340618379e-01 1.571595685477760e-01 0.000000000000000e+00 8.612746697781972e-01 5.794807697879764e-01 0.000000000000000e+00 7.533843026232094e-01 4.929444342317560e-01 0.000000000000000e+00 8.055298449100090e-01 8.871112287212741e-01 0.000000000000000e+00 8.656940847709105e-01 4.098367391676661e-01 0.000000000000000e+00 7.182603949284063e-01 3.456402071721618e-01 0.000000000000000e+00 6.323653418237701e-01 5.029675640633227e-01 0.000000000000000e+00 6.110846258508276e-01 2.575059958234323e-01 0.000000000000000e+00 4.945749328930023e-01 2.625170377655549e-01 0.000000000000000e+00 7.385779517043357e-01 7.773678856428465e-01 0.000000000000000e+00 8.769890164881212e-01 1.160638338657984e-01 0.000000000000000e+00 9.063795342218008e-01 9.020858332805730e-01 0.000000000000000e+00 4.287911518546233e-01 1.545544542796670e-01 0.000000000000000e+00 2.403886547178353e-01 2.418881479267384e-01 0.000000000000000e+00 1.840276181286450e-01 1.117324051466445e-01 0.000000000000000e+00 3.381944444444832e-01 3.381944444445634e-01 0.000000000000000e+00 1.008171452988615e-01 1.888570369725047e-01 0.000000000000000e+00 8.435242216391163e-02 8.645171265626619e-02 0.000000000000000e+00 
</DataArray>
</Points>
<Cells>
<DataArray type="Int32" Name="connectivity" format="ascii">
7 8 8 9 9 10 10 6 5 11 11 12 12 13 13 6 6 14 14 15 15 16 16 4 13 36 35 13 6 36 5 11 28 8 7 23 36 38 35 34 39 38 28 40 42 24 37 23 28 42 27 24 34 37 24 25 34 34 38 43 23 37 45 8 23 45 10 36 6 28 11 40 0 26 44 13 35 12 25 0 44 26 27 39 12 40 11 38 39 42 37 34 43 34 44 39 10 41 36 25 44 34 12 35 40 35 38 42 10 9 41 36 41 43 8 45 9 9 45 41 27 42 39 36 43 38 26 39 44 35 42 40 37 41 45 37 43 41 46 56 57 53 57 56 49 47 52 4 31 16 49 60 47 52 55 19 51 48 56 52 53 55 31 32 50 54 49 62 17 62 49 17 49 18 21 20 48 32 51 50 33 51 32 18 49 52 1 62 17 53 56 55 18 52 19 52 47 53 16 31 63 51 61 48 20 19 55 14 46 6 51 56 58 10 47 9 55 56 48 8 54 7 22 7 54 20 55 48 33 61 51 33 2 61 31 50 63 6 46 57 21 61 2 10 57 47 46 58 56 51 58 50 53 47 57 14 59 46 9 47 60 10 6 57 54 60 49 8 60 54 15 59 14 1 22 62 21 48 61 8 9 60 46 59 58 16 63 15 15 63 59 50 59 63 22 54 62 50 58 59 14 6 13 11 67 64 4 65 30 4 16 65 13 12 66 15 14 66 65 64 67 16 15 64 12 11 64 15 66 64 12 64 66 11 5 67 16 64 65 14 13 66 3 68 29 3 30 68 29 67 5 30 65 68 29 68 67 67 68 65 
</DataArray>
<DataArray type="Int32" Name="offsets" format="ascii">
2 4 6 8 10 12 14 16 18 20 22 24 27 30 33 36 39 42 45 48 51 54 57 60 63 66 69 72 75 78 81 84 87 90 93 96 99 102 105 108 111 114 117 120 123 126 129 132 135 138 141 144 147 150 153 156 159 162 165 168 171 174 177 180 183 186 189 192 195 198 201 204 207 210 213 216 219 222 225 228 231 234 237 240 243 246 249 252 255 258 261 264 267 270 273 276 279 282 285 288 291 294 297 300 303 306 309 312 315 318 321 324 327 330 333 336 339 342 345 348 351 354 357 360 
</DataArray>
<DataArray type="UInt8" Name="types" format="ascii">
3 3 3 3 3 3 3 3 3 3 3 3 5 5 5 5 5 5 5 5 5 5 5 5 5 5 5 5 5 5 5 5 5 5 5 5 5 5 5 5 5 5 5 5 5 5 5 5 5 5 5 5 5 5 5 5 5 5 5 5 5 5 5 5 5 5 5 5 5 5 5 5 5 5 5 5 5 5 5 5 5 5 5 5 5 5 5 5 5 5 5 5 5 5 5 5 5 5 5 5 5 5 5 5 5 5 5 5 5 5 5 5 5 5 5 5 5 5 5 5 5 5 5 5 
</DataArray>
</Cells>
<CellData Scalars="age_conc,U235_conc," Vectors="" Tensors="">
<DataArray type="Float64" Name="age_conc" format="ascii">
2.037005917170935e+04 4.133985832038776e+04 6.259112330168222e+04 8.447684871323241e+04 2.347576499903474e+05 2.003739039546832e+05 1.635558736719128e+05 1.248858366180727e+05 1.256066109370838e+05 1.643154700840482e+05 2.009911211328805e+05 2.352010926900291e+05 3.496549711498613e+05 3.491358558141399e+05 3.499979842916264e+05 9.536215617412429e+04 3.481353822572269e+05 3.358028499223915e+05 3.499303860046819e+05 1.241890269538006e+05 3.494539095391207e+05 2.267203378557900e+05 1.569289318542489e+05 3.207515031577671e+05 2.508376843733272e+05 1.652130691204068e+05 3.464899087946278e+05 3.499886128573677e+05 2.322928751706512e+05 3.499182164479042e+05 1.513390491489916e+05 3.355218293703385e+05 3.499920497042612e+05 3.451194246340661e+05 2.867283645570603e+05 2.919097347838986e+05 3.396961378955167e+05 2.304113659441902e+05 3.499598433494193e+05 3.490461984958330e+05 3.199429988168303e+05 3.417527786062827e+05 2.299563695035054e+05 2.838510821475460e+05 3.475271746474582e+05 3.439151064080579e+05 3.098277495330560e+05 3.497261379529617e+05 2.980093970353154e+05 3.266038653396075e+05 3.460734078390442e+05 3.401133567222812e+05 2.994611317825656e+05 3.499978096368721e+05 3.310686356773736e+05 2.297125977436378e+05 3.303675463357982e+05 2.858487646494739e+05 3.495265855457558e+05 2.581668258786759e+05 2.076423269644286e+05 1.497671372257660e+05 1.498878726941704e+05 3.480489172504845e+05 3.375542332326192e+05 2.346491317454668e+05 1.062604856781015e+05 3.209310321123478e+05 1.421664582919973e+05 3.260170851790253e+05 3.499880249899650e+05 2.961536270256107e+05 1.373180478032847e+05 3.497218789229317e+05 3.424588399113432e+05 3.445554396825408e+05 2.995448498137448e+05 2.082629850649178e+05 1.316434430183741e+05 2.260048455311332e+05 3.152517583445485e+05 2.313045200304709e+05 3.499379348930641e+05 3.491097035825438e+05 1.517035221902111e+05 3.471461963758691e+05 3.486885297773188e+05 3.474713740429140e+05 3.392628744064969e+05 3.499145193394681e+05 3.366259896177762e+05 3.489400187330034e+05 2.996450093539137e+05 2.791082320522842e+05 3.499802158709940e+05 1.125484780139396e+05 2.205934050836561e+05 3.116140735268867e+05 3.495916488429428e+05 3.499963895249908e+05 3.499818914432371e+05 3.498726063016629e+05 1.940394348130742e+05 3.495611353096027e+05 2.483798990681512e+05 3.426637235488686e+05 3.447825533728896e+05 3.328684507224193e+05 2.996035693944852e+05 2.995599776112371e+05 3.481946525969403e+05 3.266628473140527e+05 3.262880091295369e+05 3.343994554378496e+05 3.343552663078154e+05 3.314951648799875e+05 3.426985110227801e+05 3.048429714758644e+05 3.498135958863745e+05 3.497959246036690e+05 3.443427377393689e+05 3.491355398856188e+05 3.492057898616798e+05 3.494722071592254e+05 
</DataArray>
<DataArray type="Float64" Name="U235_conc" format="ascii">
9.987767966556964e-01 9.947805355332758e-01 9.886131276667945e-01 9.782370848991555e-01 5.847550567065967e-01 7.532357242125020e-01 8.782073021262832e-01 9.481465876917198e-01 9.451445420571453e-01 8.746164354407294e-01 7.501258416692325e-01 5.825561225320763e-01 9.074928754834181e-04 2.329545583689757e-03 3.013984337504433e-06 9.237433013723951e-01 6.055689386473567e-03 5.900014787422906e-02 1.599250105456193e-04 8.441977431156709e-01 1.644299802568311e-03 5.355541827886094e-01 7.337765230480711e-01 1.279704969232068e-01 4.495379999827884e-01 7.786202337342167e-01 1.151903446371071e-02 2.117646442559697e-05 5.082759523763412e-01 1.769898009881685e-04 7.455758054374857e-01 6.071512303466597e-02 1.306430297052968e-05 1.811505892781192e-02 2.862529125901369e-01 2.623470055458624e-01 3.942383883024039e-02 5.171547955483929e-01 8.198299596823905e-05 2.932045931691524e-03 1.296588605931126e-01 3.060839377803953e-02 5.390378762118411e-01 3.018023225487858e-01 8.771884646402056e-03 2.280607348910378e-02 1.791758508627171e-01 7.083144819794277e-04 2.347846395470986e-01 9.857479653334779e-02 1.369034394312114e-02 3.914523773675743e-02 2.272141933954848e-01 3.452825265947232e-06 7.817757918702914e-02 5.204149837795612e-01 8.457097079653920e-02 2.905537689535118e-01 1.428646273609430e-03 4.190648590932801e-01 6.143457135106970e-01 7.545938567663781e-01 7.535086239567341e-01 6.895163575002002e-03 5.170739083699144e-02 4.990161077043148e-01 8.946817535643178e-01 1.275288894892767e-01 7.780179627385944e-01 1.043276500251766e-01 2.333179039902291e-05 2.429488662189610e-01 7.963755861411027e-01 6.623281645624699e-04 2.954308173244720e-02 1.919856922950630e-02 2.269175586829311e-01 6.061138335139702e-01 8.097462125314545e-01 5.366329425208671e-01 1.544409842464075e-01 5.114848209970750e-01 1.466931213605645e-04 2.550067827680063e-03 7.428142556607917e-01 9.489857584929167e-03 3.963198088649761e-03 8.630241150695451e-03 4.300068540283020e-02 1.712093950448504e-04 5.345360903271701e-02 3.013617212852700e-03 2.273684642409447e-01 3.202803831880794e-01 3.170791957400681e-05 8.779063412369741e-01 5.564767753969484e-01 1.712177752681785e-01 1.030830881247161e-03 5.229249368348143e-06 3.286181423986975e-05 2.948773811424748e-04 6.687600199404790e-01 1.221837235281137e-03 4.853569292335015e-01 2.787311700367826e-02 1.769593271478700e-02 7.275794485999627e-02 2.380168194666962e-01 2.382708640955355e-01 5.423383681697764e-03 1.057859990253817e-01 1.075562184482466e-01 6.495274966242795e-02 6.513695432006475e-02 7.874535865781689e-02 2.774867822270047e-02 2.069629471181103e-01 3.608600093636392e-04 3.970245959706778e-04 1.922031957474091e-02 2.225785919766910e-03 2.033912468708479e-03 1.241927382717428e-03 
</DataArray>
</CellData>
</Piece>
</UnstructuredGrid>
</VTKFile>
