<?xml version="1.0"?>
<VTKFile type="UnstructuredGrid" version="0.1" byte_order="LittleEndian">
<UnstructuredGrid>
<Piece NumberOfPoints="69" NumberOfCells="124">
<Points>
<DataArray type="Float64" NumberOfComponents="3" format="ascii">
0.000000000000000e+00 1.000000000000000e+00 0.000000000000000e+00 1.000000000000000e+00 1.000000000000000e+00 0.000000000000000e+00 1.000000000000000e+00 0.000000000000000e+00 0.000000000000000e+00 0.000000000000000e+00 0.000000000000000e+00 0.000000000000000e+00 2.500000000000000e-01 -0.000000000000000e+00 0.000000000000000e+00 0.000000000000000e+00 2.500000000000000e-01 0.000000000000000e+00 5.000000000000000e-01 5.000000000000000e-01 -0.000000000000000e+00 7.500000000000000e-01 1.000000000000000e+00 0.000000000000000e+00 6.875000000000000e-01 8.750000000000000e-01 0.000000000000000e+00 6.250000000000000e-01 7.500000000000000e-01 0.000000000000000e+00 5.625000000000000e-01 6.250000000000000e-01 0.000000000000000e+00 1.249999999997599e-01 3.124999999998800e-01 0.000000000000000e+00 2.499999999996086e-01 3.749999999998043e-01 0.000000000000000e+00 3.749999999997349e-01 4.374999999998674e-01 0.000000000000000e+00 4.375000000000694e-01 3.750000000001388e-01 0.000000000000000e+00 3.750000000002776e-01 2.500000000005551e-01 0.000000000000000e+00 3.125000000002082e-01 1.250000000004163e-01 0.000000000000000e+00 1.000000000000000e+00 8.333333333335646e-01 0.000000000000000e+00 1.000000000000000e+00 6.666666666673605e-01 0.000000000000000e+00 1.000000000000000e+00 5.000000000013877e-01 0.000000000000000e+00 1.000000000000000e+00 3.333333333344898e-01 0.000000000000000e+00 1.000000000000000e+00 1.666666666673605e-01 0.000000000000000e+00 8.750000000000000e-01 1.000000000000000e+00 0.000000000000000e+00 5.625000000008674e-01 1.000000000000000e+00 0.000000000000000e+00 3.750000000006939e-01 1.000000000000000e+00 0.000000000000000e+00 1.875000000005205e-01 1.000000000000000e+00 0.000000000000000e+00 0.000000000000000e+00 8.125000000010408e-01 0.000000000000000e+00 0.000000000000000e+00 6.250000000006939e-01 0.000000000000000e+00 0.000000000000000e+00 4.375000000003469e-01 0.000000000000000e+00 0.000000000000000e+00 1.250000000003469e-01 0.000000000000000e+00 1.249999999997554e-01 0.000000000000000e+00 0.000000000000000e+00 4.374999999991326e-01 0.000000000000000e+00 0.000000000000000e+00 6.249999999989591e-01 0.000000000000000e+00 0.000000000000000e+00 8.124999999994795e-01 0.000000000000000e+00 0.000000000000000e+00 2.798796021293082e-01 8.344274147057053e-01 0.000000000000000e+00 2.645244370067465e-01 5.156353158163987e-01 0.000000000000000e+00 4.139414069912184e-01 6.056325264010037e-01 0.000000000000000e+00 4.492710539671537e-01 8.556512408515589e-01 0.000000000000000e+00 2.758946705068648e-01 6.605885315643570e-01 0.000000000000000e+00 1.390078959961168e-01 7.261831610706000e-01 0.000000000000000e+00 1.492912418697525e-01 4.458279356810638e-01 0.000000000000000e+00 5.014585693307863e-01 7.367466304650486e-01 0.000000000000000e+00 1.392858751591214e-01 5.733980610567744e-01 0.000000000000000e+00 3.813620468049507e-01 7.403859221383123e-01 0.000000000000000e+00 1.271010713601231e-01 8.709480661820344e-01 0.000000000000000e+00 5.677751205718758e-01 8.470224641095303e-01 0.000000000000000e+00 5.698670717843664e-01 3.776209365087199e-01 0.000000000000000e+00 7.125974780784441e-01 6.384669131570183e-01 0.000000000000000e+00 8.608728669021763e-01 2.520652359795942e-01 0.000000000000000e+00 8.578792739151740e-01 7.535325208825020e-01 0.000000000000000e+00 5.447576766858295e-01 1.431838882066932e-01 0.000000000000000e+00 7.150899340618379e-01 1.571595685477760e-01 0.000000000000000e+00 8.612746697781972e-01 5.794807697879764e-01 0.000000000000000e+00 7.533843026232094e-01 4.929444342317560e-01 0.000000000000000e+00 8.055298449100090e-01 8.871112287212741e-01 0.000000000000000e+00 8.656940847709105e-01 4.098367391676661e-01 0.000000000000000e+00 7.182603949284063e-01 3.456402071721618e-01 0.000000000000000e+00 6.323653418237701e-01 5.029675640633227e-01 0.000000000000000e+00 6.110846258508276e-01 2.575059958234323e-01 0.000000000000000e+00 4.945749328930023e-01 2.625170377655549e-01 0.000000000000000e+00 7.385779517043357e-01 7.773678856428465e-01 0.000000000000000e+00 8.769890164881212e-01 1.160638338657984e-01 0.000000000000000e+00 9.063795342218008e-01 9.020858332805730e-01 0.000000000000000e+00 4.287911518546233e-01 1.545544542796670e-01 0.000000000000000e+00 2.403886547178353e-01 2.418881479267384e-01 0.000000000000000e+00 1.840276181286450e-01 1.117324051466445e-01 0.000000000000000e+00 3.381944444444832e-01 3.381944444445634e-01 0.000000000000000e+00 1.008171452988615e-01 1.888570369725047e-01 0.000000000000000e+00 8.435242216391163e-02 8.645171265626619e-02 0.000000000000000e+00 
</DataArray>
</Points>
<Cells>
<DataArray type="Int32" Name="connectivity" format="ascii">
7 8 8 9 9 10 10 6 5 11 11 12 12 13 13 6 6 14 14 15 15 16 16 4 13 36 35 13 6 36 5 11 28 8 7 23 36 38 35 34 39 38 28 40 42 24 37 23 28 42 27 24 34 37 24 25 34 34 38 43 23 37 45 8 23 45 10 36 6 28 11 40 0 26 44 13 35 12 25 0 44 26 27 39 12 40 11 38 39 42 37 34 43 34 44 39 10 41 36 25 44 34 12 35 40 35 38 42 10 9 41 36 41 43 8 45 9 9 45 41 27 42 39 36 43 38 26 39 44 35 42 40 37 41 45 37 43 41 46 56 57 53 57 56 49 47 52 4 31 16 49 60 47 52 55 19 51 48 56 52 53 55 31 32 50 54 49 62 17 62 49 17 49 18 21 20 48 32 51 50 33 51 32 18 49 52 1 62 17 53 56 55 18 52 19 52 47 53 16 31 63 51 61 48 20 19 55 14 46 6 51 56 58 10 47 9 55 56 48 8 54 7 22 7 54 20 55 48 33 61 51 33 2 61 31 50 63 6 46 57 21 61 2 10 57 47 46 58 56 51 58 50 53 47 57 14 59 46 9 47 60 10 6 57 54 60 49 8 60 54 15 59 14 1 22 62 21 48 61 8 9 60 46 59 58 16 63 15 15 63 59 50 59 63 22 54 62 50 58 59 14 6 13 11 67 64 4 65 30 4 16 65 13 12 66 15 14 66 65 64 67 16 15 64 12 11 64 15 66 64 12 64 66 11 5 67 16 64 65 14 13 66 3 68 29 3 30 68 29 67 5 30 65 68 29 68 67 67 68 65 
</DataArray>
<DataArray type="Int32" Name="offsets" format="ascii">
2 4 6 8 10 12 14 16 18 20 22 24 27 30 33 36 39 42 45 48 51 54 57 60 63 66 69 72 75 78 81 84 87 90 93 96 99 102 105 108 111 114 117 120 123 126 129 132 135 138 141 144 147 150 153 156 159 162 165 168 171 174 177 180 183 186 189 192 195 198 201 204 207 210 213 216 219 222 225 228 231 234 237 240 243 246 249 252 255 258 261 264 267 270 273 276 279 282 285 288 291 294 297 300 303 306 309 312 315 318 321 324 327 330 333 336 339 342 345 348 351 354 357 360 
</DataArray>
<DataArray type="UInt8" Name="types" format="ascii">
3 3 3 3 3 3 3 3 3 3 3 3 5 5 5 5 5 5 5 5 5 5 5 5 5 5 5 5 5 5 5 5 5 5 5 5 5 5 5 5 5 5 5 5 5 5 5 5 5 5 5 5 5 5 5 5 5 5 5 5 5 5 5 5 5 5 5 5 5 5 5 5 5 5 5 5 5 5 5 5 5 5 5 5 5 5 5 5 5 5 5 5 5 5 5 5 5 5 5 5 5 5 5 5 5 5 5 5 5 5 5 5 5 5 5 5 5 5 5 5 5 5 5 5 
</DataArray>
</Cells>
<CellData Scalars="age_conc,U235_conc," Vectors="" Tensors="">
<DataArray type="Float64" Name="age_conc" format="ascii">
2.036764514335296e-02 4.179434591864643e-02 6.452532340760045e-02 8.946309116057027e-02 2.571863241333217e-01 2.180018003662663e-01 1.768823362822220e-01 1.338739277975270e-01 1.361864805327085e-01 1.797646996375582e-01 2.208380138379945e-01 2.597748723703808e-01 7.435642487552928e-01 7.104150775244310e-01 7.847210943265021e-01 9.699126443323153e-02 6.880049916996610e-01 5.674710974336984e-01 7.702628871644586e-01 1.329202429961170e-01 7.407659373775781e-01 2.694202676840890e-01 1.845747379552362e-01 4.809399727594665e-01 2.964067824067612e-01 1.723323218444121e-01 6.432619716369828e-01 7.809748843560319e-01 2.905909869238313e-01 7.655434410628318e-01 1.793593948557169e-01 5.699751896374612e-01 7.812443015484410e-01 6.454561147344047e-01 3.829674725968762e-01 4.049329459829898e-01 5.685078420173506e-01 2.848050277535548e-01 7.734318592700127e-01 7.201220472574118e-01 4.579014382498137e-01 5.817813249829551e-01 2.628037929150006e-01 3.574903057934345e-01 6.897393548482171e-01 6.214844959296506e-01 4.591150710601561e-01 7.491499901976441e-01 3.909346021083726e-01 4.847608208273177e-01 6.576839108663634e-01 6.024910943473960e-01 4.417524314429725e-01 7.849223648889320e-01 5.162739181260622e-01 2.923192268422540e-01 5.526522804734606e-01 3.997115435361993e-01 7.473347923605412e-01 3.136421994343643e-01 2.379682016840269e-01 1.766607117487412e-01 1.803097540293984e-01 7.083320935420693e-01 5.918102682787152e-01 2.968141312674555e-01 1.120849723237930e-01 4.983296879639612e-01 1.726743389756794e-01 5.274953034985508e-01 7.815774045060105e-01 4.367425214030180e-01 1.635185469665705e-01 7.468849918082949e-01 6.281201776681570e-01 6.203951383369407e-01 4.446725315061208e-01 2.532196501444179e-01 1.526459850658763e-01 2.816960764475779e-01 4.905875396306549e-01 2.901932264740380e-01 7.731723053075266e-01 7.205131533244529e-01 1.813256860675418e-01 6.688695678669027e-01 7.077057469978613e-01 6.852328792906535e-01 5.962399084559726e-01 7.639875655726228e-01 5.546271326427608e-01 7.078498587835645e-01 3.997178526612840e-01 3.742139865991323e-01 7.755454860823739e-01 1.192096610363701e-01 2.727074097644787e-01 4.560231278480134e-01 7.387829762524988e-01 7.834693017263971e-01 7.786261425450253e-01 7.628282076554648e-01 2.159506275083586e-01 7.445480067898664e-01 2.999073450729903e-01 6.408133430647784e-01 6.685137627163823e-01 6.006975342966481e-01 4.264312312995681e-01 4.269473280527846e-01 7.061356913180010e-01 5.563669250835324e-01 5.539693853044630e-01 5.591802978461735e-01 5.583737678613109e-01 5.907579736869002e-01 6.414881129177178e-01 4.144797493262347e-01 7.582193517810557e-01 7.569459416234134e-01 6.614862715561762e-01 7.331096857795927e-01 7.350315510546449e-01 7.371344830049332e-01 
</DataArray>
<DataArray type="Float64" Name="U235_conc" format="ascii">
9.990174253849725e-01 9.968370928136637e-01 9.921585600045816e-01 9.834733695206801e-01 9.422716636823065e-01 9.500109989981181e-01 9.598422899301462e-01 9.714473412033902e-01 9.679029898031506e-01 9.552388452074131e-01 9.452181475738193e-01 9.375879761795884e-01 6.845775162384438e-02 1.337658529912443e-01 2.191978056389699e-03 9.939619785070959e-01 1.844156413590287e-01 4.552052230685957e-01 2.256577317626329e-02 9.817628808182385e-01 7.814429073360245e-02 9.115936695133044e-01 9.420040917818363e-01 6.356493424732820e-01 9.086477357405560e-01 9.841866710588408e-01 2.857508209588583e-01 6.733020716718580e-03 8.723555087550647e-01 2.881704931365920e-02 9.389016959435895e-01 4.484209440157421e-01 6.041791813916579e-03 2.833648249426916e-01 7.913578173206137e-01 7.491865316016443e-01 4.613007948749452e-01 8.836550785700710e-01 1.694443521953235e-02 1.173972679056704e-01 6.986539522726112e-01 4.304730479246335e-01 9.442494170022953e-01 8.570973139655722e-01 1.852595584705095e-01 3.354609330583827e-01 6.603716400040825e-01 5.881187719905340e-02 8.033357433310946e-01 6.426458285733124e-01 2.568089493078652e-01 3.811679847527974e-01 6.835251588935306e-01 2.062722496332752e-03 5.755213309481439e-01 8.721557491300030e-01 4.824466092625233e-01 7.554235148868719e-01 6.643298336857667e-02 8.935401097659358e-01 9.430027059109611e-01 9.515296454520603e-01 9.404102128817992e-01 1.471911554782903e-01 4.019207866016009e-01 8.732891251203299e-01 9.900692599305204e-01 5.972352390559855e-01 9.441703180948148e-01 5.352189557177985e-01 6.170164981570427e-03 6.847122579711397e-01 9.530517834265848e-01 6.162163682063324e-02 3.236802199097460e-01 3.392182283691585e-01 6.758354897191280e-01 9.222770430157834e-01 9.690030030880245e-01 8.874760203099259e-01 5.987099023515940e-01 8.720248929782191e-01 1.850031229999726e-02 1.152866981573120e-01 9.372692894358106e-01 2.275521353099768e-01 1.441314266863253e-01 1.961906953616096e-01 3.942209934141864e-01 3.100462417502059e-02 4.899129817071342e-01 1.396596607244329e-01 7.926223098425991e-01 8.032288133352300e-01 1.294359542395270e-02 9.877648075788443e-01 8.919079224497513e-01 6.820304197283104e-01 7.808139819946608e-02 3.397709544153458e-03 9.499228257855393e-03 3.469137826281464e-02 9.605654698765792e-01 6.918065035105730e-02 8.873856119407409e-01 3.018986542014558e-01 2.485995209270143e-01 3.845476713230494e-01 7.138373174643866e-01 7.127366524658679e-01 1.583666467864940e-01 4.657525674520954e-01 4.705455526684443e-01 4.767990275577041e-01 4.784875927656225e-01 4.059591138524463e-01 3.004139609032139e-01 7.606884267387547e-01 4.762005733002260e-02 5.024789474486760e-02 2.646388670931739e-01 1.018564591912992e-01 9.737718130902991e-02 8.933004986834633e-02 
</DataArray>
</CellData>
</Piece>
</UnstructuredGrid>
</VTKFile>
