<?xml version="1.0"?>
<VTKFile type="UnstructuredGrid" version="0.1" byte_order="LittleEndian">
<UnstructuredGrid>
<Piece NumberOfPoints="78" NumberOfCells="39">
<Points>
<DataArray type="Float64" NumberOfComponents="3" format="ascii">
0.0000000000 0.0000000000 0.0000000000 0.0500000000 0.0000000000 0.0000000000 0.0500000000 0.0000000000 0.0000000000 0.1000000000 0.0000000000 0.0000000000 0.1000000000 0.0000000000 0.0000000000 0.1500000000 0.0000000000 0.0000000000 0.1500000000 0.0000000000 0.0000000000 0.2000000000 0.0000000000 0.0000000000 0.2000000000 0.0000000000 0.0000000000 0.2500000000 0.0000000000 0.0000000000 0.2500000000 0.0000000000 0.0000000000 0.3000000000 0.0000000000 0.0000000000 0.3000000000 0.0000000000 0.0000000000 0.3500000000 0.0000000000 0.0000000000 0.3500000000 0.0000000000 0.0000000000 0.4000000000 0.0000000000 0.0000000000 0.4000000000 0.0000000000 0.0000000000 0.4500000000 0.0000000000 0.0000000000 0.4500000000 0.0000000000 0.0000000000 0.5000000000 0.0000000000 0.0000000000 0.5000000000 0.0000000000 0.0000000000 0.5500000000 0.0000000000 0.0000000000 0.5500000000 0.0000000000 0.0000000000 0.6000000000 0.0000000000 0.0000000000 0.6000000000 0.0000000000 0.0000000000 0.6500000000 0.0000000000 0.0000000000 0.6500000000 0.0000000000 0.0000000000 0.7000000000 0.0000000000 0.0000000000 0.7000000000 0.0000000000 0.0000000000 0.7500000000 0.0000000000 0.0000000000 0.7500000000 0.0000000000 0.0000000000 0.7750000000 0.0000000000 0.0000000000 0.7750000000 0.0000000000 0.0000000000 0.8000000000 0.0000000000 0.0000000000 0.8000000000 0.0000000000 0.0000000000 0.8250000000 0.0000000000 0.0000000000 0.8250000000 0.0000000000 0.0000000000 0.8500000000 0.0000000000 0.0000000000 0.8500000000 0.0000000000 0.0000000000 0.8750000000 0.0000000000 0.0000000000 0.8750000000 0.0000000000 0.0000000000 0.8875000000 0.0000000000 0.0000000000 0.8875000000 0.0000000000 0.0000000000 0.9000000000 0.0000000000 0.0000000000 0.9000000000 0.0000000000 0.0000000000 0.9125000000 0.0000000000 0.0000000000 0.9125000000 0.0000000000 0.0000000000 0.9250000000 0.0000000000 0.0000000000 0.9250000000 0.0000000000 0.0000000000 0.9375000000 0.0000000000 0.0000000000 0.9375000000 0.0000000000 0.0000000000 0.9500000000 0.0000000000 0.0000000000 0.9500000000 0.0000000000 0.0000000000 0.9562500000 0.0000000000 0.0000000000 0.9562500000 0.0000000000 0.0000000000 0.9625000000 0.0000000000 0.0000000000 0.9625000000 0.0000000000 0.0000000000 0.9687500000 0.0000000000 0.0000000000 0.9687500000 0.0000000000 0.0000000000 0.9750000000 0.0000000000 0.0000000000 0.9750000000 0.0000000000 0.0000000000 0.9812500000 0.0000000000 0.0000000000 0.9812500000 0.0000000000 0.0000000000 0.9843750000 0.0000000000 0.0000000000 0.9843750000 0.0000000000 0.0000000000 0.9875000000 0.0000000000 0.0000000000 0.9875000000 0.0000000000 0.0000000000 0.9906250000 0.0000000000 0.0000000000 0.9906250000 0.0000000000 0.0000000000 0.9937500000 0.0000000000 0.0000000000 0.9937500000 0.0000000000 0.0000000000 0.9953125000 0.0000000000 0.0000000000 0.9953125000 0.0000000000 0.0000000000 0.9968750000 0.0000000000 0.0000000000 0.9968750000 0.0000000000 0.0000000000 0.9984375000 0.0000000000 0.0000000000 0.9984375000 0.0000000000 0.0000000000 1.0000000000 0.0000000000 0.0000000000 
</DataArray>
</Points>
<Cells>
<DataArray type="UInt32" Name="connectivity" format="ascii">
0 1 2 3 4 5 6 7 8 9 10 11 12 13 14 15 16 17 18 19 20 21 22 23 24 25 26 27 28 29 30 31 32 33 34 35 36 37 38 39 40 41 42 43 44 45 46 47 48 49 50 51 52 53 54 55 56 57 58 59 60 61 62 63 64 65 66 67 68 69 70 71 72 73 74 75 76 77 
</DataArray>
<DataArray type="UInt32" Name="offsets" format="ascii">
2 4 6 8 10 12 14 16 18 20 22 24 26 28 30 32 34 36 38 40 42 44 46 48 50 52 54 56 58 60 62 64 66 68 70 72 74 76 78 
</DataArray>
<DataArray type="UInt32" Name="types" format="ascii">
3 3 3 3 3 3 3 3 3 3 3 3 3 3 3 3 3 3 3 3 3 3 3 3 3 3 3 3 3 3 3 3 3 3 3 3 3 3 3 
</DataArray>
</Cells>
<CellData Scalars="porosity,U235_conc," Vectors="" Tensors="">
<DataArray type="Float64" Name="porosity" format="ascii">
1.0152284264 1.0695187166 1.1299435028 1.1976047904 1.2738853503 1.3605442177 1.4598540146 1.5748031496 1.7094017094 1.8691588785 2.0618556701 2.2988505747 2.5974025974 2.9850746269 3.5087719298 4.0404040404 4.4943820225 5.0632911392 5.7971014493 6.7796610169 7.7669902912 8.6021505376 9.6385542168 10.9589041096 12.6984126984 15.0943396226 17.5824175824 19.7530864197 22.5352112676 26.2295081967 31.3725490196 36.7816091953 41.5584415584 47.7611940298 56.1403508771 64.6464646464 71.9101123595 81.0126582278 92.7536231884 
</DataArray>
<DataArray type="Float64" Name="U235_conc" format="ascii">
0.5000000000 0.5000000000 0.5000000000 0.5000000000 0.5000000000 0.5000000000 0.5000000000 0.5000000000 0.5000000000 0.5000000000 0.5000000000 0.5000000000 0.5000000000 0.5000000000 0.5000000000 0.5000000000 0.5000000000 0.5000000000 0.5000000000 0.5000000000 0.5000000000 0.5000000000 0.5000000000 0.5000000000 0.5000000000 0.5000000000 0.5000000000 0.5000000000 0.5000000000 0.5000000000 0.5000000000 0.5000000000 0.5000000000 0.5000000000 0.5000000000 0.5000000000 0.5000000000 0.5000000000 0.5000000000 
</DataArray>
</CellData>
</Piece>
</UnstructuredGrid>
</VTKFile>
