<?xml version="1.0"?>
<VTKFile type="UnstructuredGrid" version="0.1" byte_order="LittleEndian">
<UnstructuredGrid>
<Piece NumberOfPoints="714" NumberOfCells="1306">
<Points>
<DataArray type="Float64" NumberOfComponents="3" format="ascii">
0 0 0 0.099999999999928008 0 0 0.082799035591426873 0.082799035591510806 0 0 0.10000000000041601 0 0.066361468125430589 0.15903440181097661 0 0 0.20000000000083221 0 0 0.30000000000124832 0 0.089078158003765312 0.2493007687782936 0 0.140351188660986 0.16130415108589741 0 0.21725788110387281 0.17316968768743621 0 0.17318221359491059 0.27409688392309489 0 0.24783073444672249 0.24783073444648379 0 0.29145143692666958 0.13500804559578439 0 0.20669143849501961 0.085546078947938975 0 0.19999999999983389 0 0 0.29999999999973409 0 0 0.35933948296838258 0.073809900849860513 0 0.43504744109702559 0.077628892606360606 0 0.39999999999966429 0 0 0.49999999999959438 0 0 0.59999999999951659 0 0 0.57505385014294308 0.072457888465917331 0 0.50264032148191051 0.12292784096123539 0 0.49255105193724569 0.22337579986912359 0 0.5565830077206213 0.19095699352548859 0 0.58612580217118482 0.27813894450229909 0 0.41589935411558732 0.26752529264016389 0 0.40428440976105728 0.1643886070295453 0 0.33604819894646598 0.23280286076243209 0 0.34318159319555042 0.3314386771104964 0 0.38593969585746768 0.44843324941957241 0 0.42544665781957403 0.3726599289372452 0 0.49272830291620878 0.32528628960011152 0 0.56509579243166053 0.39588847936247551 0 0.47711113382803011 0.43513410852522788 0 0.55763912874459476 0.49619993861770217 0 0.56379254693201075 0.58472273515948836 0 0.46433624429412901 0.61260020600107856 0 0.45232393232070839 0.53082724112931345 0 0.34793494568226019 0.52426775179830853 0 0.38240158409674341 0.60644575028138747 0 0.27661118526457179 0.58730386222759956 0 0.16324260003398389 0.62262730759772122 0 0.1946526892501724 0.54636184660733622 0 0.27220668248394869 0.50912429725145214 0 0.29987747321592639 0.43430880093746571 0 0.2371857680100064 0.35865548441110112 0 0.16486701364709541 0.41592657376307979 0 0.21928696632013719 0.4676461135047027 0 0.083393126324559225 0.42307471369029392 0 0.13897501191807771 0.34545639364066222 0 0.0632094674441709 0.3449112819864934 0 0 0.40000000000166441 0 0 0.50000000000205869 0 0.12353277228144981 0.51086097771927308 0 0.070553891733833127 0.57745844360881338 0 0 0.60000000000138687 0 0 0.7000000000006934 0 0.089684836063650353 0.74720097194875412 0 0.079752623936563252 0.65630726580969023 0 0.25446499951716589 0.69023946426646743 0 0.22047232289835689 0.77501739045979867 0 0.16551550920047911 0.70947866912672319 0 0.29792158491427922 0.79537096033156995 0 0.2235202862591317 0.88873896332704583 0 0.1332109546178302 0.87498377138822103 0 0.1533088418661793 0.80370257472597129 0 0.074918724681641777 0.83311952320732263 0 0 0.79999999999999982 0 0 0.89999999999958358 0 0.075231054453351903 0.92314074346405706 0 0 1 0 0.14716362552681639 0.93861610753355362 0 0.099999999999999645 1 0 0.19999999999999929 1 0 0.30000000000000071 1 0 0.39999999999999952 1 0 0.49999999999999911 1 0 0.59999999999999964 1 0 0.5499999999999996 0.93976792513729512 0 0.56701461556202259 0.86335846433862784 0 0.62017612851329729 0.81451802170669263 0 0.51076728641122882 0.81691863363193817 0 0.45907587517201498 0.90165918271477563 0 0.37337282601342481 0.92616598444216514 0 0.31535921456193688 0.88154045330654418 0 0.36912581253574028 0.83088590731704637 0 0.43819239467549531 0.79296936871720936 0 0.33985912385126898 0.73174041004507751 0 0.32437633398017029 0.65970549827478953 0 0.42824324229177341 0.6924957961634054 0 0.5174764925733939 0.65338828204098198 0 0.52912171753951986 0.73993242892488531 0 0.62152629835360762 0.73285157302339954 0 0.59670004617370476 0.65981579440137683 0 0.6754414170471299 0.67700559910555169 0 0.69085763855200755 0.76120667115691065 0 0.74547688787239819 0.70026419381674654 0 0.81910554849723838 0.69100245438023977 0 0.90192269692920224 0.70295054578552552 0 0.84477163403336131 0.77519844632340484 0 0.91372311269140116 0.80486176357476358 0 0.93540888248908083 0.88281232945237675 0 0.8793859710393791 0.93083561064221121 0 0.82192606283926717 0.87651855948129354 0 0.73937541854631073 0.9288754054780668 0 0.76404828705430583 0.78174230667165401 0 0.71722872346306721 0.85096302760907838 0 0.64588148000090029 0.91512139508160772 0 0.70000000000000018 1 0 0.79999999999999982 1 0 0.89999999999999947 1 0 0.94997493298435887 0.94717135651053852 0 0.99999999999999911 1 0 1.1000000000000001 1 0 1.1999999999999991 1 0 1.246238897717278 0.90016207822659 0 1.2104878010462079 0.79638517641579154 0 1.130022579458912 0.80264790230838934 0 1.1492841477515361 0.89495863909300122 0 1.035017143854235 0.92577305964649748 0 1.039491394416145 0.83402983011495258 0 1.0785590511537511 0.75365885686631617 0 0.98491966670915287 0.745702719141624 0 0.9749171938312049 0.68304286407835557 0 1.05 0.67063679245255348 0 1.1595355377629719 0.69612720023346242 0 1.2316049928421089 0.71268197388690568 0 1.160572984923127 0.60155304747043781 0 1.1544259370261769 0.49580194535795907 0 1.2482752740169289 0.44264463249545388 0 1.1787318575418491 0.43180077319900678 0 1.193211192060164 0.36417169501775798 0 1.11366617971111 0.39530889117858181 0 1.049999999998295 0.45311778235774403 0 1.0499999999982661 0.33749999999944968 0 0.97284972811175952 0.32057650487681749 0 0.97803218086495292 0.39957666910545891 0 0.95438428234324713 0.50021891445525024 0 1.0610070115193291 0.56187728740506249 0 0.95554667482020261 0.61387123313571723 0 0.89730215834238125 0.56352362508531118 0 0.82099888937423493 0.54529350322201742 0 0.85383906663538056 0.62014574817393608 0 0.74991769371388628 0.60451627361984739 0 0.65500944633069913 0.60601350811213128 0 0.66278242936710119 0.53985356489900171 0 0.74775703275407246 0.49059679564787018 0 0.71094001953927277 0.41472992215547572 0 0.64897033023755402 0.45530630145656431 0 0.65823561246403328 0.35502292901158627 0 0.83603391221093415 0.31708941802047369 0 0.79315209058920677 0.38802315963964318 0 0.84897848255088726 0.46000674997733482 0 0.9184189969982266 0.43608586792060411 0 0.89716106756302072 0.36571612550017968 0 0.91043121937362004 0.26518856856736223 0 0.8520969719592798 0.19112077159544111 0 0.81051762114363357 0.25355176211442859 0 0.7545004114404561 0.31098089234202853 0 0.68811979868824935 0.26566684131589419 0 0.64669101990832323 0.1799054750174742 0 0.75284581776561577 0.20455093921856349 0 0.75434135135171976 0.12888799631625769 0 0.66267222434682926 0.078497159578092612 0 0.69999999999928797 0 0 0.73796379772146625 0.059893436010741673 0 0.79999999999899607 0 0 0.8072276847200428 0.07509171132446453 0 0.87151744524583186 0.1145610820769897 0 0.89999999999870417 0 0 0.99999999999841238 0 0 1.0527907183502181 0.1005001786211816 0 0.95940036225003311 0.0802667348803804 0 0.96758455917765662 0.17206502793490561 0 1.0273907165533489 0.25089655084417212 0 1.0673059847957449 0.1861726764986896 0 1.14543293599463 0.16096823716187 0 1.1317936052402791 0.27327200211975772 0 1.2189485028845071 0.28846717556219142 0 1.225209211892335 0.20648826945283069 0 1.09999999999812 0 0 1.1494214575391031 0.075340014825429069 0 1.199999999997829 0 0 1.2999999999975369 0 0 1.254652873386052 0.105753482544517 0 1.3681535985071449 0.13698083382674339 0 1.349999999997392 0.060567969661089648 0 1.399999999997245 0 0 1.4999999999969531 0 0 1.542152768646126 0.073248247890105089 0 1.53341268746562 0.14194251306413061 0 1.456639397274391 0.1016053838939758 0 1.4156792278190771 0.19574754335211339 0 1.4905184776249101 0.20629734327603311 0 1.545236949037224 0.29434567071731399 0 1.473286192129879 0.27883707652097373 0 1.3878996413210389 0.26723502210068018 0 1.316869459340541 0.18778020585802921 0 1.291408388555241 0.26372433042992383 0 1.2615469736996101 0.34090999671933891 0 1.347125314110625 0.32447518420453242 0 1.385017785528226 0.40713366384701549 0 1.3198129865007471 0.39133224900025881 0 1.2709684905841181 0.55537862536316829 0 1.3860523322451299 0.56073196187600105 0 1.3462106466432811 0.48060664220838062 0 1.4795754400412069 0.53983964974648579 0 1.445918816848357 0.6075709531782556 0 1.5386621965636409 0.60828218080060537 0 1.550364457075788 0.50467902559054656 0 1.551956040519719 0.40384519109247291 0 1.4491802319415681 0.4666714614197911 0 1.4507225717793131 0.3561247496431208 0 1.6419306970571019 0.3436055112169133 0 1.645895854313963 0.45222881216869149 0 1.645263810758179 0.55814977621663464 0 1.7537858687071439 0.50406839622489796 0 1.742806034420483 0.6006074591026016 0 1.8544400981153091 0.62488101477716596 0 1.8316048184152021 0.54157006606434721 0 1.850967139686138 0.45738417241574703 0 1.7808296409871709 0.43587276890434401 0 1.71976181471802 0.39635806210359681 0 1.787749129254824 0.36176402170097799 0 1.8620515405159661 0.32644761881501039 0 1.799219293849516 0.26438879273789773 0 1.8480644103363271 0.19193194889233381 0 1.7304700827703301 0.17386188770806579 0 1.714493154391862 0.28897291620938281 0 1.6351951680630969 0.23707571199064051 0 1.567491488875842 0.20218805454405439 0 1.6799832100487111 0.082202015566833181 0 1.609545399082946 0.1308291592921435 0 1.599999999996661 0 0 1.6999999999963691 0 0 1.75369588639865 0.074917217572982864 0 1.8299024103288899 0.1151394713368583 0 1.799999999996077 0 0 1.8999999999957851 0 0 1.894432874635162 0.07551835003504323 0 1.9999999999955109 0 0 1.9480526939991849 0.12898730409406539 0 1.949071218763063 0.20551835056699769 0 1.889482378851052 0.25355176211435237 0 1.9370762551310139 0.30659376302738528 0 2.0131266155023031 0.26735551396116869 0 2.0579369465445829 0.18492358211896681 0 2.109175777466048 0.28747319291998968 0 2.1529249143000921 0.20760117016104621 0 2.145863811971962 0.09449602309195497 0 2.0499999999955518 0.089783354580979427 0 2.0999999999955929 0 0 2.1999999999957449 0 0 2.2631085279260659 0.078835433122263737 0 2.2171573042311432 0.14903409558359759 0 2.2999999999958969 0 0 2.3999999999960488 0 0 2.
[...]
<CellData Scalars="A_conc,As-lin_conc,Bs-lang_conc,Cs-freund_conc," Vectors="" Tensors="">
<DataArray type="Float64" Name="A_conc" format="ascii">
1.3232286646512626e-06 1.1456567776199842e-06 1.3211739641242309e-06 5.8445679109855201e-07 5.648818883514375e-07 5.4357974754072422e-07 3.6325474413115509e-07 1.3385535640352369e-07 7.945375831335252e-08 3.4599980178313405e-08 3.7760275987756295e-08 1.3402632674577651e-07 1.3944454091892817e-07 9.1975223249003615e-08 1.3938423628224594e-07 6.9253867422945686e-09 1.0608470532790233e-08 1.2612191732922274e-07 1.3004674278900914e-07 6.120499603710486e-07 5.9210231403165218e-07 1.3890089130087096e-06 1.2716887170187862e-06 1.0241298258568915e-06 1.061465364234001e-06 1.604433676868054e-06 4.6705047518764609e-07 4.875401485301226e-07 4.7013689566259074e-07 1.290441910869986e-06 1.2541832262256059e-06 8.7777186140543495e-07 9.0127490925242777e-07 1.5066671473905839e-06 1.0420555665580856e-06 9.9922942739068714e-08 9.5742503750689126e-08 7.6375543199971067e-09 6.443745730779204e-08 8.7778509395515629e-09 4.4215191471255527e-09 3.7421482563716571e-09 3.3799791283314589e-08 6.0233206391489973e-08 3.1829856451377295e-08 1.5480195131906542e-07 1.153360408923418e-08 1.1050129000317503e-09 8.8259281345126827e-10 1.0160177468844504e-09 1.4299918927123239e-09 2.2830813818678374e-09 1.8771730146685209e-09 1.6395205621358913e-09 3.1085332244538354e-09 2.6462988998826308e-09 8.3141926267939302e-10 1.2571149753872367e-09 6.8945021647562679e-10 4.6265531339254069e-10 4.0591675941290925e-10 5.3496177798748162e-10 6.1441008870664463e-10 3.7813160621686076e-09 8.5448612868477584e-10 2.5480659400965621e-09 4.6162540399812881e-10 6.6852565892987465e-10 2.7591685826101012e-10 3.6582834698082908e-10 2.9185329000530368e-10 1.4374059609224674e-09 3.3034105868307851e-10 1.7278662422699415e-10 4.4578754236978014e-10 2.6461591390863027e-10 9.909894596205964e-11 1.3811395722735677e-10 1.843082835690137e-10 2.3592265291780761e-10 2.3363422799333043e-10 4.0740615206181494e-10 6.6842395541999619e-10 7.4076344790800946e-09 6.3991321338814228e-09 1.2961410914168551e-09 3.2692052992737523e-10 1.6709852042016362e-10 1.2241622497331313e-10 1.0776198044927148e-09 3.6160525673981786e-08 1.2179596986007861e-09 1.1245128316290922e-09 1.5542915816218886e-08 2.7964584287087242e-10 7.6469740988727474e-11 1.1488331353699212e-10 2.2943812707949944e-09 1.9430037171931911e-10 2.1263434941603408e-09 5.1412572932011468e-10 1.6221056164913835e-08 3.6298690300936049e-08 8.0141500224635431e-08 8.8628687748685641e-08 3.8195073241336606e-08 5.6627064239024962e-09 6.2098504471290027e-09 1.1818225794653585e-09 1.6967717633643401e-09 3.7134790686153374e-09 2.9081905180655453e-08 3.1084462964309447e-08 2.7015954087144252e-08 9.2315936445674164e-08 2.4292691658444951e-07 2.5290368332271634e-07 3.2518093196736154e-07 2.6178650517623531e-07 1.2214838551082229e-06 1.117708842593296e-06 1.0847779045186178e-06 6.7115232235005233e-07 1.3308999276663243e-07 2.3430031445292061e-07 1.2731358966719485e-07 4.5843517777091999e-07 6.4795947963948886e-07 1.5707425542760773e-06 1.3129640161687091e-06 1.5388724863928208e-06 1.7078179489671552e-06 1.4129439672889308e-06 1.4518950884887984e-06 1.8291767103436919e-06 1.388537075166896e-06 1.430164683638414e-06 1.0704699949347567e-06 9.5747199927539911e-07 1.5885082673272742e-06 3.6757467031186123e-07 1.1836742973758792e-07 2.505979345649293e-08 1.0424582809199629e-07 2.0956081978861855e-08 1.5154692567511519e-07 3.4545031633469723e-07 1.9964408211958463e-07 4.4323585774528798e-07 1.2686129088976845e-06 4.3088713518400515e-07 5.5724894177157328e-08 2.6573154254417888e-07 5.2599273182061279e-08 1.4248859553183919e-07 9.2889654266251442e-09 1.1858183073435123e-08 4.7056987714296771e-09 2.5439191684614377e-09 3.3271532003490556e-09 4.4594936351119755e-09 8.4405828991907927e-09 2.9101940775844161e-08 1.3642114290181167e-08 3.1409973338852583e-09 1.0695795466041302e-08 6.0514942339115574e-09 7.0663115445272435e-09 1.5230258378492683e-08 2.1226094029910644e-08 3.5111852502840741e-08 2.3958800597307473e-08 3.3968020641394944e-08 3.8025250094350462e-08 9.6183415215974328e-09 8.4588771931287682e-09 7.9758414133703808e-09 1.0877825730343991e-08 1.2151970229287437e-08 6.0229916316834914e-08 5.5498387618126283e-08 4.4235422200247186e-08 4.2237075651758068e-08 8.502647545361064e-08 1.252254565826278e-07 9.4969518299394537e-08 1.654340245324784e-07 1.9624263362412994e-07 3.2943668593978121e-07 3.0937510982998411e-07 2.1150696651645878e-07 7.4385551895118135e-08 5.834708502825245e-08 5.0178805939670019e-08 1.279551935885597e-07 1.9331470628413479e-07 9.9618530854717624e-07 5.4039913500326413e-07 6.4180237708218007e-07 4.9187351388454174e-07 2.665240063305751e-07 3.116375118715937e-07 2.8333123937293953e-07 3.0426191715954863e-07 3.3258145786170146e-07 3.6133558354495902e-07 4.2765792241532417e-07 2.4571140429976084e-07 3.9059954903838787e-07 2.6428673654929061e-07 2.3095456906014589e-07 2.1256677882819892e-07 2.2830108258548432e-07 2.0660376173454866e-07 2.1139784167344175e-07 8.8841586724017548e-08 1.4305652489879688e-07 1.1546712921162609e-07 9.9597736101623186e-08 4.0404329488588666e-08 3.4385440785673081e-08 3.7610957160676725e-08 1.3863184517885565e-08 9.3925503614535414e-09 8.5235295465605256e-09 4.4428703492271609e-08 7.104983072279968e-08 6.6940846986552112e-08 6.6427139936891262e-08 8.0749662922069475e-08 9.5373414062611791e-09 1.611581298062035e-08 6.3069536896067564e-10 3.0960043340419191e-10 2.6673255594543484e-10 1.5921132336900965e-10 2.8535086255090471e-10 1.0270322795670453e-09 1.0771727491379303e-09 3.4438893387766286e-09 3.679013665530548e-09 3.9018451417692231e-09 4.7007344564815448e-10 9.6837860055483769e-10 5.0990206478955715e-10 1.9623358184766671e-09 1.8362942816167854e-09 2.9171298801032918e-09 3.1613604479311601e-09 1.0094688145916828e-09 9.5447193054764261e-10 3.0508495614843346e-10 2.6662289243875376e-10 4.3661148636935154e-09 4.9157184402642856e-09 1.8698193330774512e-09 2.5018601246012186e-09 1.7262850703703608e-09 1.2331385116058764e-09 1.1134149181798453e-09 9.6220833128614729e-10 1.6493230891455267e-09 1.9419777597202329e-09 7.466595337709863e-10 9.2122575368803338e-10 7.5747074877944879e-10 1.1587814003127043e-09 9.8283711419071188e-10 9.2836950016024217e-10 8.0866752922406955e-10 1.4747346581634299e-09 2.4602027650195343e-09 2.1829515226410474e-09 3.3465540100565432e-09 3.4697083779321066e-09 1.2718825627973995e-09 1.0376324748328858e-09 1.4298957127942133e-09 8.6715422697761736e-10 1.7557599029925481e-09 5.4531386250428505e-09 5.06081955763899e-09 3.9786586446133158e-08 2.3355373470984153e-08 2.8602660903029831e-08 1.9139256509811121e-08 2.1220567711953234e-08 7.1775324305811705e-09 6.4942790487369967e-09 1.0498430543682812e-08 1.1461540954657557e-08 1.0128552403083346e-08 4.8653431912214782e-09 5.6794267241880584e-09 1.275658430274032e-08 2.4822829457958728e-08 1.2814556925215066e-07 1.2155040408363345e-07 6.7215217370210483e-08 1.157914496956412e-07 1.0754150180903959e-06 6.4431170494791597e-07 8.2938325273043894e-07 3.493293961270209e-07 3.3873933812625133e-07 3.5095167993019434e-08 7.573620568815646e-08 5.1469860907055666e-08 1.0520196003454415e-07 9.962572044319273e-08 8.4069885622132085e-08 1.3674823341708365e-07 8.9782917205860049e-08 5.3860487382030971e-08 5.8210293584218549e-08 5.5959975436993927e-08 2.5834336770108071e-08 8.2637431295875503e-09 9.1352181315140565e-09 9.7407300984469363e-09 3.0330849091085023e-08 3.2110323384521527e-08 3.240872537301198e-08 3.4188184528327808e-08 5.2177253736956558e-09 1.5842030661118864e-08 1.6814941978712226e-08 6.6098804241578937e-08 7.9338879671101959e-08 7.4202447361069352e-08 1.1207959501353484e-07 9.670824416951135e-08 1.1955653713218688e-07 1.3373985999508255e-07 1.2625456966556203e-07 1.1338192355146729e-07 8.5235134145016889e-08 1.2010025466082463e-07 1.672073054267908e-07 1.5885877058591373e-07 1.7420058190821832e-07 1.8254954722442755e-07 1.9705790602466141e-07 1.670349081290028e-07 1.7322177883226115e-07 8.4485349547324448e-08 7.8709468809135976e-08 2.2612093048831013e-08 8.1630744296568704e-08 3.6886894623161521e-08 1.5387862210877492e-08 1.4923965029317889e-08 3.3782271633671991e-09 5.5355034904919481e-09 2.1716990107317022e-08 2.4393735044236747e-08 6.0444582920085848e-09 2.57396370355299e-08 7.501807706749474e-08 7.0048422890247564e-08 2.3162922676713851e-08 4.9090848186987983e-09 4.7082372410178982e-09 1.9012036360136306e-09 2.0770651661206837e-09 5.2868858566208012e-09 2.0024550316203241e-09 5.0975938039869664e-10 2.163020582370748e-10 4.7788219269287288e-10 1.1302964306583507e-09 1.7906057637895602e-10 7.3379111213864537e-10 8.3271245158827515e-10 1.0225882891887971e-09 5.5733733968499329e-11 7.2975685448715458e-11 8.9939473627607962e-11 1.3698386725639982e-10 1.927189820495816e-10 1.6219027238850744e-10 9.7382705054314393e-11 4.2149385895444505e-11 2.7164896012737088e-10 2.8442593596342688e-10 6.5066097094121727e-10 6.8658317412295611e-10 2.7626923860352529e-12 1.425032862742043e-11 2.8920753794831121e-11 5.0771909380239237e-11 1.2106878608780553e-11 1.0343829123486472e-10 2.1686922396997974e-10 4.1762083615025259e-10 2.4688007812692713e-10 4.8778609916707568e-10 1.1995950797051191e-10 2.8291147466334986e-10 4.60334166961036e-10 8.4103698249926239e-11 7.3350862733092173e-12 5.327121797806525e-11 3.3402602181986338e-11 6.3586970439773734e-12 3.2993636209421305e-12 8.4120555000504053e-12 3.793993472660522e-12 3.2750853649819595e-12 5.4330873997390889e-10 2.3132650942869233e-08 4.8368503217547542e-09 2.8170947239923934e-12 3.6721830312722192e-09 1.6617951254268058e-09 1.5877950633349407e-09 1.5953533906185075e-08 3.9754717842687265e-08 4.103300045048564e-08 4.2122081424472179e-08 3.5318646447575208e-09 1.0382413532454851e-07 2.0571500336734744e-07 2.1118567684006135e-07 2.8489057833572197e-07 2.9612728476110965e-07 2.4858837902803089e-07 3.2329048226545476e-07 1.0800352242037457e-07 1.1109946302049759e-07 2.5464460567696079e-07 3.3258803501255568e-07 1.3099817699492831e-07 2.472013038886012e-07 1.3453628100543241e-07 4.6613304811587437e-09 2.4201620814567715e-08 1.2611678450768561e-07 3.1089246981801839e-09 6.6399136168434079e-10 6.1083424356637879e-12 1.2200524742738296e-11 1.9046252577053564e-11 1.8671674305913953e-11 4.0413443970984575e-11 3.2486260589360729e-09 1.6200250806850158e-10 3.7541085471555317e-11 8.1485369628600594e-11 3.3492662197046441e-10 3.4442874815791663e-10 7.3902358888398939e-10 4.9232310230807293e-09 1.9712266535085088e-07 9.9561761406629742e-08 1.0316916416920021e-07 3.3263288495751752e-08 2.4135887692888842e-08 1.9531413755686203e-09 1.1733677135298645e-08 5.0190783449745431e-09 1.4528511446867121e-08 3.5353893499790105e-08 8.7613101332394668e-08 2.2746094043494768e-07 5.3896413779376715e-07 9.2789297911366969e-08 4.0215570542440319e-07 2.0955405625314944e-07 6.9830219545216299e-08 3.069545381812055e-08 1.1623165257868865e-08 3.2108160243942686e-08 1.8159598132509184e-07 7.3276652197644626e-08 1.8068374255429002e-07 9.3925645916267249e-08 4.5565486507073833e-08 1.9401995917930722e-08 5.401925569498665e-09 2.1302780044547253e-09 9.3811793280896303e-10 7.7455487777756856e-10 1.969036493836215e-09 6.0857018793694529e-10 1.5137373764070596e-09 3.3169729741550392e-09 7.7642098747676445e-09 1.9439214236341964e-08 3.8541600062687699e-09 9.6121778736197122e-09 4.3540180330296444e-08 2.0824396202545428e-07 1.0597246467099324e-07 2.1524917486498604e-07 4.0679725523655123e-08 9.2779612568418661e-08 2.4406663267650594e-07 1.8906949479517293e-07 8.6559146916930663e-08 3.2294805930635496e-08 1.5595335391065486e-08 5.2936515707925337e-09 1.8220463581499883e-08 5.5430589852305555e-09 2.2259118315283923e-09 8.6006457153696797e-10 3.0248167313629286e-09 1.7600308065445182e-09 1.0853574187945678e-09 8.7444268092074837e-10 4.061341034527838e-10 2.988144277640131e-10 1.3691296164582756e-10 4.6760943377891377e-10 3.0563667243595875e-10 2.0109888153320081e-10 8.2412649347099384e-11 1.192500655517585e-10 4.3027220064222991e-11 5.7644596513656488e-11 2.3268031192343854e-11 8.1397798550417783e-12 1.0927205580589527e-11 4.7437228447822852e-12 1.0192845946490698e-11 4.5730487549192425e-11 1.7303229870060803e-11 9.5220948729996248e-11 1.0471542592452351e-10 2.2300407821556931e-10 3.4833509928503719e-10 1.8972780804473651e-10 5.2190176468513859e-10 1.4113957140821897e-09 1.3006582123401796e-09 1.5599277050064986e-09 6.8519206174007964e-10 3.7995330175000193e-09 4.0551768351955895e-09 1.7014636282963638e-08 1.9030668012622237e-08 1.7176589675950329e-07 4.0522825278167556e-07 4.2471212377532988e-07 5.0794507928450533e-08 4.8521790881736451e-08 8.3643800055734364e-08 4.0973520172074417e-07 1.3180263949527818e-07 6.5069737973959772e-07 8.880539657225726e-08 1.1590457401118155e-08 1.019845430084327e-08 9.4734373034710884e-09 1.5738263420277116e-09 1.4009603788318656e-09 8.3172693053721923e-10 1.8665490889080316e-09 1.0236323597315483e-09 2.3060901951470409e-09 3.6710914043223459e-09 1.3063598823240604e-08 2.3912985528224042e-08 1.0357582028727711e-08 6.5667746249810798e-09 2.2176106880725268e-08 4.6385624214997544e-08 2.3768101234324016e-07 1.0070771235521743e-07 1.0560143320130096e-07 2.426733728483542e-07 5.1783696199403796e-08 1.0007330590738164e-07 1.3090642112987502e-07 3.1609705684077893e-07 2.5660301560358651e-07 2.5398581987850513e-07 6.4245350028215544e-08 1.6741958740310437e-08 5.2294274954425621e-08 4.5463592855931126e-08 1.659991350291972e-08 1.3804397607902154e-07 4.4468280532831388e-07 4.6528362688371002e-07 3.0771529167768599e-07 3.2691693757565521e-07 5.2027254031818183e-07 8.712710633779283e-07 6.3222891076471416e-07 1.328913617304382e-06 1.2931989911602881e-06 1.7035465043008513e-06 1.1634904508161889e-06 8.8131730392382952e-07 1.1243393973204915e-06 1.1757711441144013e-06 1.2099488173405075e-06 1.2637891200198227e-06 1.2202015449374316e-06 5.1245534623761591e-07 5.7056052589030886e-07 4.9604895201509858e-07 1.7215246249952169e-07 1.3323229798728123e-07 1.4362109638167412e-07 1.3889673105383999e-07 1.6100599395174243e-08 1.3847651315422246e-08 1.1630755908617914e-09 8.6821889826175593e-10 1.5495982369030963e-08 1.6670666805022826e-08 1.0781634995636857e-08 7.4908494628173545e-10 3.0570950066540081e-09 9.350836428094084e-09 1.0093138156971462e-08 2.4307797669231327e-07 1.5869647297636585e-07 2.5394731462447966e-07 1.4438081380269407e-07 5.5091526317762258e-07 8.5021573530433167e-07 4.182275759120603e-07 3.9829385388733817e-07 6.7688321034898955e-07 3.5774755760095915e-07 2.684576992219089e-07 1.4304315493822427e-07 2.8342756656474053e-07 1.500783251674493e-07 5.4393193152698595e-08 4.2966170206564976e-08 2.7965237592088675e-09 2.4958118720451385e-09 2.2269894487865366e-09 4.0861092931707854e-08 1.3294060828313099e-07 2.2679361054129866e-08 2.4489996433053335e-08 1.8221555896994236e-08 1.7289192427877706e-08 1.2461487072262725e-07 1.1691820008436064e-07 3.0744331981964078e-07 3.4410409845938203e-07 4.8176033357092063e-07 4.5829063867425283e-07 3.2250916313804051e-07 5.8285509684852374e-07 6.1889488195436184e-07 6.4035644143657233e-07 8.0832962994454197e-07 0.024946351689669452 0.019476925148334306 0.032384767520519595 0.04554641512292093 0.039493320815722238 0.053593457544197254 0.053621626317784381 0.045576895949564586 0.039043036585962462 0.062784794476859876 0.059925053618273855 0.05468647084437122 0.059046395608560905 0.050699155437896264 0.042541773399074043 0.04788277040675689 0.039492648794731175 0.033636952947997276 0.021526246952997215 0.027100244241017198 0.023173990510687258 0.021522788729628473 0.027108428366571374 0.031619511169666999 0.032436537046878565 0.025978913295896629 0.013352686160409539 0.015223303682249138 0.0084337714815576406 0.0083581067988966647 0.0106727812489059 0.017547135790915238 0.019090287923262231 0.01247617137417477 0.016253488123237181 0.016556334696572222 0.013039531659843296 0.0097601880551797873 0.0065035165809416012 0.0073630339178055743 0.0096801417712290092 0.0047084458967776334 0.0049459433966426792 0.0051670659014109929 0.0036894355296875616 0.0034672316201295045 0.0023242561945474634 0.0019636627459677543 0.0022586148167266428 0.0030947424353243197 0.0065773411212853095 0.0059448449391854832 0.0047229805810012852 0.0063832832277559174 0.0035462053982218441 0.0022211601733443101 0.00295242951207636 0.0044032270170083548 0.011328362205250889 0.00097151681242946925 0.00023475001361407613 0.00041087377161252997 7.8594093939915945e-05 0.00014564365586443556 1.415887273123686e-06 8.4041575984999896e-07 2.7720522714774228e-06 5.7125666752591468e-06 1.1537025711977471e-05 2.1940461970294853e-05 4.2989349360909964e-05 2.3658062309657653e-05 4.6503381187633777e-05 4.4302158735250879e-05 2.3715756505628034e-05 5.2561822349304948e-06 1.0219842766367428e-05 1.1561777264116557e-05 6.7258031583426255e-06 1.5605086239033943e-06 3.2205805931588068e-06 8.2524920896071032e-07 4.3121227736818363e-07 2.6314022383864348e-06 1.0721190972308404e-06 2.1437602411050717e-06 4.8733393563759753e-07 9.7615743579251085e-07 5.2426299735590432e-07 1.2867183100808503e-05 6.3925785509823794e-06 4.6506314096329266e-06 1.1754636245630923e-05 2.4119644857922405e-05 2.6483913637589226e-05 0.00010058062975193538 5.4676248095116963e-05 0.00031468367507463428 0.00017654406026589378 9.6079021291724175e-05 5.4223636619809087e-05 0.00013476208806850127 7.9354144303446308e-05 8.2122385437074236e-05 0.00014644338166534956 0.0002297600336181132 0.00030731863061299076 0.00022391330741558153 0.00033038370826124464 0.00047428482495316643 0.0006564836198022395 0.00060718199833799261 0.0015639384804817637 0.001509514430404832 0.0010079493705917135 0.0013106444328660459 0.00082701419670553884 0.00052220161740912537 0.00045821876856015972 0.00070079087356472042 0.0015390263675154219 0.0010305899733463713 0.0014648318285215946 0.00079461909570076881 0.0010361183408727922 0.00030588814950630413 0.00049093363717688182 0.00033744541501484521 0.0010575530377955414 0.0016092461964877852 0.0011275206346419205 0.0014673878832984419 0.0012235903589810024 0.0018244001670995589 0.00041533632698430718 0.00073790803366649452 0.00067812237196879243 0.00023195787183349163 7.7320599512431884e-05 0.00013320765446259185 0.00011630654748900452 7.1011566897614939e-05 0.0001068939389209577 5.3761345719168505e-05 0.00019251411079289774 0.00018300989992178285 2.7294054427140021e-05 3.4063682574455944e-05 9.2249504563229428e-06 7.1071469080421962e-06 1.5214182181504132e-05 3.1421346074226396e-06 1.6688868808199371e-06 7.4836329279042504e-07 3.6832313859196418e-07 1.3056310471494928e-06 5.1460713896567026e-07 2.4620164508794833e-06 4.227800282338174e-06 4.4050316319966633e-06 3.0404965742611733e-06 1.4132487021379259e-06 5.3019023149090319e-07 6.9781223498607884e-07 4.2423989446375703e-07 1.390440037374826e-05 7.5035331609123488e-06 5.4970994563479882e-06 2.0087194579119201e-05 1.7121008127261241e-05 3.7347855467840399e-05 4.322476533801805e-05 2.6231427326939317e-05 3.1420575345430024e-05 4.8397586101438234e-05 1.4508434169349718e-05 8.1659903192014562e-06 1.8293688152036086e-05 1.096456670652524e-05 2.7366298617349002e-06 1.6093550059282475e-06 4.0843023035331369e-07 7.7770053964814678e-07 9.1342658858817386e-07 2.003124072744248e-06 3.9707154555939605e-06 4.4632945447051369e-06 1.896096897615409e-06 7.87517144564303e-07 1.0644675808341715e-06 2.3897265925560941e-06 5.4216415978578274e-06 1.1422918993787936e-05 8.9672205703189784e-06 1.9038911205921253e-05 3.6942347051802416e-05 4.4803578457904784e-05 2.2649307446283892e-05 8.8984884790321563e-05 0.00016487808350105601 0.00029337041751979314 0.00012360783617496211 6.9604483006146845e-05 8.6944912037206106e-05 0.00026251475350170871 0.00023995285404615596 0.00014969843452959734 0.00037552835428658257 0.00060883500987849782 0.00045164103626919611 0.00068200998631191985 0.0018173755439674921 0.0012259094958231643 0.001596322358777869 0.00091552260649223186 0.00097932541267905355 0.00059998533974800