<?xml version="1.0"?>
<VTKFile type="UnstructuredGrid" version="0.1" byte_order="LittleEndian">
<UnstructuredGrid>
<Piece NumberOfPoints="714" NumberOfCells="1306">
<Points>
<DataArray type="Float64" NumberOfComponents="3" format="ascii">
0 0 0 0 0.10000000000041601 0 0.082799035591426873 0.082799035591510806 0 0.099999999999928008 0 0 0.19999999999983389 0 0 0.20669143849501961 0.085546078947938975 0 0.29145143692666958 0.13500804559578439 0 0.29999999999973409 0 0 0.24783073444672249 0.24783073444648379 0 0.21725788110387281 0.17316968768743621 0 0.17318221359491059 0.27409688392309489 0 0.089078158003765312 0.2493007687782936 0 0.140351188660986 0.16130415108589741 0 0 0.20000000000083221 0 0.066361468125430589 0.15903440181097661 0 0 0.30000000000124832 0 0.0632094674441709 0.3449112819864934 0 0 0.40000000000166441 0 0.083393126324559225 0.42307471369029392 0 0.13897501191807771 0.34545639364066222 0 0.070553891733833127 0.57745844360881338 0 0 0.60000000000138687 0 0 0.50000000000205869 0 0.12353277228144981 0.51086097771927308 0 0.16324260003398389 0.62262730759772122 0 0.1946526892501724 0.54636184660733622 0 0.27220668248394869 0.50912429725145214 0 0.27661118526457179 0.58730386222759956 0 0.16486701364709541 0.41592657376307979 0 0.21928696632013719 0.4676461135047027 0 0.29987747321592639 0.43430880093746571 0 0.2371857680100064 0.35865548441110112 0 0.34318159319555042 0.3314386771104964 0 0.38593969585746768 0.44843324941957241 0 0.42544665781957403 0.3726599289372452 0 0.38240158409674341 0.60644575028138747 0 0.34793494568226019 0.52426775179830853 0 0.45232393232070839 0.53082724112931345 0 0.46433624429412901 0.61260020600107856 0 0.55763912874459476 0.49619993861770217 0 0.56379254693201075 0.58472273515948836 0 0.49272830291620878 0.32528628960011152 0 0.47711113382803011 0.43513410852522788 0 0.56509579243166053 0.39588847936247551 0 0.58612580217118482 0.27813894450229909 0 0.49255105193724569 0.22337579986912359 0 0.5565830077206213 0.19095699352548859 0 0.59999999999951659 0 0 0.57505385014294308 0.072457888465917331 0 0.49999999999959438 0 0 0.50264032148191051 0.12292784096123539 0 0.43504744109702559 0.077628892606360606 0 0.39999999999966429 0 0 0.35933948296838258 0.073809900849860513 0 0.33604819894646598 0.23280286076243209 0 0.41589935411558732 0.26752529264016389 0 0.40428440976105728 0.1643886070295453 0 0 1 0 0.099999999999999645 1 0 0.14716362552681639 0.93861610753355362 0 0.19999999999999929 1 0 0.30000000000000071 1 0 0.29792158491427922 0.79537096033156995 0 0.2235202862591317 0.88873896332704583 0 0.1332109546178302 0.87498377138822103 0 0.075231054453351903 0.92314074346405706 0 0 0.89999999999958358 0 0 0.79999999999999982 0 0.074918724681641777 0.83311952320732263 0 0.1533088418661793 0.80370257472597129 0 0.089684836063650353 0.74720097194875412 0 0 0.7000000000006934 0 0.079752623936563252 0.65630726580969023 0 0.16551550920047911 0.70947866912672319 0 0.22047232289835689 0.77501739045979867 0 0.25446499951716589 0.69023946426646743 0 0.32437633398017029 0.65970549827478953 0 0.33985912385126898 0.73174041004507751 0 0.42824324229177341 0.6924957961634054 0 0.5174764925733939 0.65338828204098198 0 0.59670004617370476 0.65981579440137683 0 0.62152629835360762 0.73285157302339954 0 0.52912171753951986 0.73993242892488531 0 0.51076728641122882 0.81691863363193817 0 0.62017612851329729 0.81451802170669263 0 0.56701461556202259 0.86335846433862784 0 0.45907587517201498 0.90165918271477563 0 0.43819239467549531 0.79296936871720936 0 0.36912581253574028 0.83088590731704637 0 0.37337282601342481 0.92616598444216514 0 0.31535921456193688 0.88154045330654418 0 0.39999999999999952 1 0 0.49999999999999911 1 0 0.59999999999999964 1 0 0.5499999999999996 0.93976792513729512 0 0.70000000000000018 1 0 0.79999999999999982 1 0 0.89999999999999947 1 0 0.8793859710393791 0.93083561064221121 0 0.93540888248908083 0.88281232945237675 0 0.91372311269140116 0.80486176357476358 0 0.82192606283926717 0.87651855948129354 0 0.73937541854631073 0.9288754054780668 0 0.64588148000090029 0.91512139508160772 0 0.76404828705430583 0.78174230667165401 0 0.71722872346306721 0.85096302760907838 0 0.69085763855200755 0.76120667115691065 0 0.6754414170471299 0.67700559910555169 0 0.74547688787239819 0.70026419381674654 0 0.81910554849723838 0.69100245438023977 0 0.84477163403336131 0.77519844632340484 0 0.90192269692920224 0.70295054578552552 0 0.9749171938312049 0.68304286407835557 0 0.98491966670915287 0.745702719141624 0 1.0785590511537511 0.75365885686631617 0 1.05 0.67063679245255348 0 1.1595355377629719 0.69612720023346242 0 1.2316049928421089 0.71268197388690568 0 1.130022579458912 0.80264790230838934 0 1.2104878010462079 0.79638517641579154 0 1.246238897717278 0.90016207822659 0 1.1492841477515361 0.89495863909300122 0 1.035017143854235 0.92577305964649748 0 1.039491394416145 0.83402983011495258 0 0.99999999999999911 1 0 0.94997493298435887 0.94717135651053852 0 1.1000000000000001 1 0 1.1999999999999991 1 0 0.8520969719592798 0.19112077159544111 0 0.81051762114363357 0.25355176211442859 0 0.91043121937362004 0.26518856856736223 0 0.87151744524583186 0.1145610820769897 0 0.89999999999870417 0 0 0.8072276847200428 0.07509171132446453 0 0.79999999999899607 0 0 0.75434135135171976 0.12888799631625769 0 0.73796379772146625 0.059893436010741673 0 0.69999999999928797 0 0 0.66267222434682926 0.078497159578092612 0 0.64669101990832323 0.1799054750174742 0 0.75284581776561577 0.20455093921856349 0 0.7545004114404561 0.31098089234202853 0 0.68811979868824935 0.26566684131589419 0 0.65823561246403328 0.35502292901158627 0 0.64897033023755402 0.45530630145656431 0 0.71094001953927277 0.41472992215547572 0 0.65500944633069913 0.60601350811213128 0 0.66278242936710119 0.53985356489900171 0 0.74775703275407246 0.49059679564787018 0 0.74991769371388628 0.60451627361984739 0 0.85383906663538056 0.62014574817393608 0 0.82099888937423493 0.54529350322201742 0 0.89730215834238125 0.56352362508531118 0 0.79315209058920677 0.38802315963964318 0 0.83603391221093415 0.31708941802047369 0 0.84897848255088726 0.46000674997733482 0 0.9184189969982266 0.43608586792060411 0 0.89716106756302072 0.36571612550017968 0 0.97284972811175952 0.32057650487681749 0 0.97803218086495292 0.39957666910545891 0 1.049999999998295 0.45311778235774403 0 1.0499999999982661 0.33749999999944968 0 0.95554667482020261 0.61387123313571723 0 0.95438428234324713 0.50021891445525024 0 1.0610070115193291 0.56187728740506249 0 1.160572984923127 0.60155304747043781 0 1.1544259370261769 0.49580194535795907 0 1.11366617971111 0.39530889117858181 0 1.1787318575418491 0.43180077319900678 0 1.2482752740169289 0.44264463249545388 0 1.193211192060164 0.36417169501775798 0 1.2189485028845071 0.28846717556219142 0 1.225209211892335 0.20648826945283069 0 1.14543293599463 0.16096823716187 0 1.1317936052402791 0.27327200211975772 0 1.0273907165533489 0.25089655084417212 0 1.0673059847957449 0.1861726764986896 0 0.96758455917765662 0.17206502793490561 0 0.99999999999841238 0 0 0.95940036225003311 0.0802667348803804 0 1.0527907183502181 0.1005001786211816 0 1.1494214575391031 0.075340014825429069 0 1.09999999999812 0 0 1.199999999997829 0 0 1.2999999999975369 0 0 1.254652873386052 0.105753482544517 0 1.3681535985071449 0.13698083382674339 0 1.399999999997245 0 0 1.349999999997392 0.060567969661089648 0 1.291408388555241 0.26372433042992383 0 1.316869459340541 0.18778020585802921 0 1.3878996413210389 0.26723502210068018 0 1.473286192129879 0.27883707652097373 0 1.4156792278190771 0.19574754335211339 0 1.4905184776249101 0.20629734327603311 0 1.545236949037224 0.29434567071731399 0 1.456639397274391 0.1016053838939758 0 1.53341268746562 0.14194251306413061 0 1.542152768646126 0.073248247890105089 0 1.4999999999969531 0 0 1.599999999996661 0 0 1.6999999999963691 0 0 1.6799832100487111 0.082202015566833181 0 1.609545399082946 0.1308291592921435 0 1.567491488875842 0.20218805454405439 0 1.6351951680630969 0.23707571199064051 0 1.714493154391862 0.28897291620938281 0 1.7304700827703301 0.17386188770806579 0 1.799219293849516 0.26438879273789773 0 1.8480644103363271 0.19193194889233381 0 1.8299024103288899 0.1151394713368583 0 1.799999999996077 0 0 1.75369588639865 0.074917217572982864 0 1.7537858687071439 0.50406839622489796 0 1.742806034420483 0.6006074591026016 0 1.8544400981153091 0.62488101477716596 0 1.8316048184152021 0.54157006606434721 0 1.850967139686138 0.45738417241574703 0 1.8620515405159661 0.32644761881501039 0 1.787749129254824 0.36176402170097799 0 1.7808296409871709 0.43587276890434401 0 1.71976181471802 0.39635806210359681 0 1.645895854313963 0.45222881216869149 0 1.6419306970571019 0.3436055112169133 0 1.645263810758179 0.55814977621663464 0 1.5386621965636409 0.60828218080060537 0 1.550364457075788 0.50467902559054656 0 1.4795754400412069 0.53983964974648579 0 1.445918816848357 0.6075709531782556 0 1.551956040519719 0.40384519109247291 0 1.4491802319415681 0.4666714614197911 0 1.4507225717793131 0.3561247496431208 0 1.347125314110625 0.32447518420453242 0 1.385017785528226 0.40713366384701549 0 1.3198129865007471 0.39133224900025881 0 1.2615469736996101 0.34090999671933891 0 1.3860523322451299 0.56073196187600105 0 1.3462106466432811 0.48060664220838062 0 1.2709684905841181 0.55537862536316829 0 1.2546738886072291 0.63615646469940468 0 1.3545060270195819 0.65002758689694418 0 1.4000454837723419 0.73943313674757749 0 1.3035852436207409 0.73866974635260263 0 1.2914654457895349 0.81843301378315825 0 1.3255948392482531 0.88328132587465524 0 1.3864786876100039 0.92208751032957958 0 1.386174597084219 0.82350876346868962 0 1.482119963281066 0.782586299849238 0 1.463012078585596 0.89209645917012148 0 1.546104640467868 0.9195568013001878 0 1.535346256113697 0.70153336654872078 0 1.4534042830965781 0.68426123045930609 0 1.2999999999999989 1 0 1.399999999999999 1 0 1.5 1 0 1.599999999999999 1 0 1.6999999999999991 1 0 1.7999999999999989 1 0 1.6597641702579149 0.778
[...]
<CellData Scalars="A_conc,As-lin_conc,Bs-lang_conc,Cs-freund_conc," Vectors="" Tensors="">
<DataArray type="Float64" Name="A_conc" format="ascii">
7.1672718986582269e-07 8.6645646158903541e-07 1.9529052610731082e-07 3.1024668016240384e-07 3.3607879842777166e-07 3.5989593723694028e-07 8.8858169762968371e-07 9.7368007702464139e-07 3.8253208744709885e-07 4.0664794474595022e-07 7.1249994862551581e-07 8.9928745675658829e-07 4.3354498257152923e-09 6.8132040110412813e-08 7.2020289488823794e-08 7.7498665215649586e-08 4.7985360104703342e-08 2.656695238970391e-09 1.8626970517310889e-08 7.1587280697239261e-08 7.2176220191320974e-08 6.5921491452450596e-08 1.5354781140783054e-08 3.5833270497356955e-08 3.1909779932896615e-10 6.4519807460107611e-09 6.1926628432791525e-11 3.0459001802970403e-10 1.4525704275923855e-17 3.6940110658305799e-10 1.6974581724164535e-08 7.3398703677425939e-10 1.4979649404620393e-10 3.4096007172480999e-18 5.5380894760466621e-12 8.2800777518063822e-12 8.2503597867824681e-10 9.6361553902621283e-12 1.5699511349588014e-11 5.7323246535729739e-16 2.0063017375661666e-16 5.6630116398058599e-15 1.4806682862180971e-15 6.4129088161517116e-16 2.1822544060025175e-15 3.8214603825827497e-10 2.3535121657843828e-09 5.9570486160028576e-17 4.3597365391075084e-17 1.4125737637024403e-16 2.342779625101809e-16 2.9080350586712044e-09 1.6123535243526913e-15 6.5963375453684393e-16 4.7952407121284091e-15 8.5501150333129353e-15 2.0289835369919592e-15 8.82362107968973e-16 1.650155639810503e-14 9.9834196131228631e-14 3.2825916601674452e-15 2.2865673304238178e-14 8.9330892074406247e-15 4.4685181289414386e-14 1.2770578226548876e-13 2.8251293261830017e-13 1.6528335539205602e-12 5.2103240914787148e-14 1.9086374059757752e-13 6.9459171893021749e-13 4.490808530943171e-13 6.4243472402362842e-12 1.59766719549706e-14 7.9864057994417908e-14 8.1163972213113799e-14 1.642908220138463e-13 8.0636047461006371e-15 1.6956146170289666e-14 1.6398460464271842e-15 3.1284333152481436e-08 1.2313645250445957e-16 2.6163439618109001e-16 5.0511811990118503e-08 6.6615959102917788e-07 1.0322506656593092e-06 6.0126550238240242e-07 5.7678830502957348e-07 4.8287190356105372e-08 2.9807301944279395e-07 3.0753431175429551e-07 9.4825756114004979e-07 9.0547390834231911e-07 1.2098080568375401e-06 7.5795203979736735e-07 2.8604532192054425e-07 8.8649616803169306e-08 1.4533229423905074e-08 4.7533248183611396e-09 7.5978210039812874e-16 2.9086081914277092e-08 1.5546095343370418e-08 8.4615227674672893e-07 1.0521153399387002e-06 1.0661113281324267e-06 1.2187120865379094e-06 1.0242656987770081e-06 1.0738735523425219e-06 9.1806883366384954e-07 1.7083161888866747e-07 2.1880784298849189e-07 1.6097800241767735e-07 1.4956200317931064e-07 7.8098129455042671e-07 7.3851301204830373e-07 4.3682689306147435e-07 4.0712858454761762e-07 2.7312111283200564e-07 6.7967567813464325e-08 1.3946910952407531e-07 7.4645765288334899e-08 2.023273724182684e-08 5.0236198628119331e-08 3.9685757254324012e-08 1.8259393983763846e-08 7.5383816720587475e-09 2.1805004525931817e-09 3.9777416134707473e-11 2.4340261920545325e-09 1.2074069709984135e-08 5.4013373601663145e-08 1.3177218271315477e-08 1.4117594194747356e-08 1.6924923028392508e-10 4.627109981293865e-11 3.4626912498671099e-13 1.856456765292311e-10 4.1884095437189026e-10 3.7964130464971234e-10 8.2029603095795504e-13 5.930631801103944e-12 1.895052606527205e-12 1.3037161310080185e-11 3.3652068426910488e-12 8.6393116740068039e-11 2.6694327676111551e-11 7.6828015958325062e-08 8.7328251557768541e-10 9.4992458235091254e-10 3.185692115507105e-08 2.1764592910837021e-07 3.4502998232166537e-08 2.0408670794017009e-07 1.0337728971573588e-07 3.0989594122943813e-07 7.2387114446922245e-08 2.6115253118824826e-08 2.4753178240151053e-08 1.7664338390534504e-07 9.7635873180489792e-07 2.9787408533619929e-07 1.4520936208946542e-06 1.0682226901848058e-06 1.1155656473552335e-06 7.7796875994356005e-07 1.1985312287800395e-06 6.4070165920744604e-07 3.2903839834067379e-07 6.7158823257043925e-07 4.0049110100020528e-07 1.9740835595522813e-07 1.1596556671962585e-08 5.9179004154213847e-09 9.9491362471624693e-09 2.6899269375689518e-09 4.6951181494866704e-09 1.7892584249212907e-09 1.0756857881603967e-07 1.0198396860732913e-07 6.4226330631048415e-08 6.0282386772060692e-08 3.6201859042669722e-08 3.577442789963804e-10 6.1394924226576005e-10 1.103527043629054e-09 5.1279534574933358e-10 1.6450172896055551e-10 3.3360475395686378e-10 1.0366910139516112e-10 1.6510614326745641e-10 2.8993905999274712e-11 4.8223303769786036e-11 1.6567421491195966e-11 5.4461435006442367e-11 8.7749608636169423e-11 9.8717810639849961e-11 1.9822303320024662e-10 1.1096800020604999e-09 7.6550009134758101e-10 2.5703623937832639e-09 1.885188656458401e-09 2.9861929061100031e-10 4.7754356175917951e-10 3.9372820238163216e-10 2.0633466902501914e-09 1.4865123093197813e-09 2.6797030369452692e-09 7.6377377331169759e-09 7.2780430018642731e-10 1.0237561864566639e-09 2.0982699885945459e-09 1.2924870417939316e-08 9.4466520863615371e-09 3.721673911139212e-09 8.6970804589386908e-09 7.1252297240032955e-09 3.2972522295646395e-08 2.5128325580041849e-08 5.0022491741078248e-08 6.9712967988174176e-08 4.0166259176644933e-08 2.1867326494006954e-08 1.1134566903729317e-08 5.1206421887611815e-09 7.4687047691622377e-09 1.3142375423168068e-08 1.547556666642477e-08 1.6860420662017137e-08 2.4125211918448112e-08 3.1055791732595375e-08 4.1874814066604844e-08 5.4770673633292812e-08 8.7942763957713984e-08 1.1406239073253806e-15 1.9927385926008081e-15 6.0101513995587363e-16 2.0974065244173438e-16 5.8515921382049814e-15 1.6474232280006084e-14 1.3599720478571261e-14 5.1440520389559206e-14 3.150323140952898e-08 3.0245371040205854e-08 2.1178454847645885e-07 2.0421424826620414e-07 4.0372323018595762e-15 2.0906662285401579e-08 5.6299470298252064e-08 5.9033915900663037e-08 5.1108650658305347e-07 6.9845244277773721e-07 3.887709101050446e-07 5.906674080951656e-08 2.6277804896036774e-08 6.2106878913267135e-17 3.1957644425380001e-16 4.4685736366770594e-16 1.717060368267122e-16 5.6833637679818057e-16 2.0762648386278804e-14 9.6266377159116733e-15 1.6064675941435555e-13 5.1361441709806609e-13 9.0467636686798191e-13 1.4121549811877458e-13 7.9309554979967354e-14 2.5004029852999349e-12 1.254010046399489e-12 1.4142360379721763e-12 4.2493951340655292e-12 7.4837118948171514e-12 1.5271635266740324e-11 2.6622740608914923e-11 1.3660915731070472e-11 8.2119034625136208e-12 1.9803560279905879e-11 4.9531161779025996e-11 4.7535864240238558e-11 4.1371612776250287e-15 1.9311418388558899e-15 2.508839104579655e-14 1.4519944681581976e-12 4.9093923207372249e-14 1.1313838647058424e-13 6.3167645673427657e-14 9.7298985431923797e-16 2.3828302320088012e-15 1.9090286340742299e-15 4.9459675954569554e-15 1.9704044971008172e-13 2.801464024852259e-13 1.8748216557286661e-14 8.1662452077244351e-15 6.5508726485017084e-11 1.6846154548416755e-12 9.840148973585049e-13 3.2410370430539572e-10 2.2107937034819766e-10 4.5489082729380646e-12 8.003054680614056e-14 7.111228347957141e-12 2.5799700572861793e-11 1.375862710796162e-13 6.4501822158274821e-14 3.2275368188704531e-14 1.3227037727190979e-14 7.7904966452549575e-14 4.5432075612398224e-14 1.6110014613680711e-13 2.9763242540150955e-13 5.9627859338742787e-13 3.0642322968332908e-12 1.4447748497862315e-12 3.6084799693151276e-13 7.7723728182921371e-12 1.9216526676326722e-12 9.4847430879880778e-13 2.6335338763154205e-14 5.9523772098091961e-14 4.1345823536307868e-13 1.6242004915553799e-13 4.8354541203847022e-14 8.8471103182137139e-15 4.7966483595428728e-13 4.6885731094866106e-08 1.350915635364331e-13 3.0177878058820069e-13 7.5884749658960856e-13 1.0852044658885268e-12 6.7524664967464141e-12 2.6267536585064479e-12 1.9567125973236736e-12 4.4504912200007238e-12 1.4904621745859227e-11 2.9727681872204831e-11 6.0193637591656779e-11 5.5141930050011236e-11 3.629418143410206e-11 1.1017832866855024e-10 2.5671963871745943e-10 1.3892614688431045e-10 2.4122811916117534e-12 1.3862062387120664e-12 1.6133966968053379e-11 7.4237725840217175e-12 7.6092901645808604e-11 2.7691939427125509e-11 1.4308080987785249e-11 5.4026507516260762e-12 1.8029263865440258e-11 4.8233145700704197e-11 7.9403376407421687e-11 2.1829188795772754e-10 1.5336958710373614e-10 3.0354270209185716e-10 2.7174455724880489e-11 1.0649799432246788e-10 4.2268324791143925e-10 1.3770142834272222e-10 7.5735956904088481e-10 3.3349415502822516e-10 1.1460411615123609e-09 1.1783631165220516e-09 7.216767749688997e-10 2.4740030783545806e-09 1.8611438054313043e-09 3.7976271546521041e-09 5.4710782609930045e-09 2.6100378540473165e-09 4.6831288500845155e-10 6.6022186260375316e-10 1.3783636739342249e-10 2.2991642049069643e-10 2.134804799303909e-10 8.7273220563169741e-10 5.0874134489302873e-10 1.1668960287074499e-09 7.1875260950863731e-10 2.5037430742759067e-10 6.2749605313745195e-10 1.1118920365192517e-09 3.7525942415928732e-09 1.3450652801383983e-08 1.2049495632825606e-08 9.9657234596758013e-09 7.3393281508439029e-09 3.7309926147867234e-09 4.793487319089537e-09 2.7567455176579809e-11 5.442195648662953e-11 1.5046022914876867e-11 7.0678831618270358e-11 8.806546799984557e-11 3.3894838634963362e-10 1.4045197867229206e-10 2.7672398999626866e-11 2.3441350863722411e-11 5.3975004021887821e-11 1.8130990768340337e-11 4.0441592450495841e-11 1.0081112852962396e-10 4.7010083458196684e-11 9.1544090927244807e-12 2.5394439273296179e-11 6.2526041921064451e-12 1.0477598987920251e-11 1.7388812207786364e-11 2.332663160876e-11 5.4380103932963777e-12 1.3430736220574283e-11 3.4765653581699051e-12 1.8759726312856352e-12 2.4359800550334109e-12 1.192023150276267e-12 1.0204790027435179e-12 2.7450269560569037e-11 5.0453128826849078e-12 5.1357258792061811e-12 8.0485621250337434e-12 3.7933188862270167e-12 1.0286269884246296e-11 2.3622614049127239e-12 2.2321930917877393e-12 1.3848395653059872e-12 7.0177129574489396e-13 5.4722648974822255e-13 1.2507533985123884e-12 5.1436656661233629e-11 7.6801632664325715e-11 5.9566567245896644e-13 2.5710319993516378e-13 1.9224651796027458e-13 3.7821151605761e-11 2.5683495984745979e-09 2.9722270468385733e-09 5.0983983410795321e-09 4.214711299399202e-09 3.0360740181418257e-08 2.1383231159742785e-08 2.5565169207709722e-08 1.0667802930229765e-07 6.8413629216140835e-08 8.8125278624858196e-08 1.2188371668209823e-07 7.0903503494223563e-08 7.5279107789265366e-08 3.609605834578958e-08 9.7126704720580515e-08 2.2656175322126096e-07 1.2985288956856503e-07 8.5187145748628395e-08 4.4461361473467584e-08 1.0600619833080445e-08 1.439487696179616e-08 3.2526955215855641e-10 2.5798882708968569e-10 2.0091023022602382e-10 9.4482591265345738e-09 1.6044308691369412e-07 2.0049401234070697e-07 1.8532738422941344e-07 2.858920779352159e-07 3.399712612384751e-07 4.8952729659558492e-07 4.5004061516869316e-07 5.1621267339377095e-07 5.5702081877721122e-07 5.9304043818047733e-07 1.9328928615153778e-09 5.0368604812636572e-11 3.9150233762447762e-10 1.6790746296445913e-09 1.4299804166171368e-09 8.121186661785069e-08 4.9959422202725543e-08 1.4376587602132203e-07 3.1675876644656568e-07 2.1373628193714353e-07 4.6248808728898808e-08 8.8538271769664771e-08 5.8124747984743234e-08 4.2369921651311869e-08 2.2841124058270649e-07 2.0345799250733882e-07 2.1605433029812194e-07 4.6200856463529991e-08 4.9560649318978321e-08 3.8467679473983153e-09 2.9596022928047321e-09 3.689597228709908e-09 3.1319542290090709e-09 8.3425640163844375e-11 1.5235506255958555e-10 2.8121049617865967e-10 2.1831423545373596e-10 1.8373286449862602e-10 3.744181466200325e-10 1.0428348303369525e-09 1.24287944371413e-09 4.4427205462365051e-09 5.424291822171409e-09 6.2384920882081252e-08 1.6109616976559889e-07 1.7707232701625949e-07 1.7041194388432424e-08 1.5160802228839466e-08 3.0695761514123038e-08 1.7251796023227967e-07 2.9716783707196889e-07 5.6727928530564756e-08 3.5452677341201964e-08 4.8404952085816875e-09 3.4842835946401172e-10 7.0715694647431865e-10 4.6659902940896481e-10 2.5422231510886095e-10 3.2040798070614907e-09 3.8381701507643081e-09 5.6814017599949817e-10 9.1594524411135656e-07 5.9142156381272339e-07 6.7196277529402287e-07 7.0463045210880247e-07 2.8085962327598599e-07 4.1067016116285073e-07 2.081914860186658e-07 2.2624008078441926e-07 1.5599900474680871e-07 1.5023815398465505e-07 2.0532723950960775e-07 5.2746607807089755e-09 1.758565844156342e-09 1.5617185462140593e-09 8.443013758016718e-10 5.8763136512617233e-09 1.2286222944025982e-09 2.3218911012275336e-08 7.5809140584563734e-09 6.2623187278411174e-08 2.9654350708779672e-08 1.3059094861020775e-07 2.6444810673980756e-08 6.2964631375125673e-09 3.4876939000266404e-08 7.494559137059281e-08 1.5384443638667471e-08 1.8505766907932795e-08 3.3608987523252604e-09 4.0761840333958815e-09 6.4211565915683308e-09 2.1550868325811668e-10 2.7186133842920392e-10 4.076454599980713e-10 4.1764720681740231e-10 2.3382349565467116e-11 3.2325460542446915e-11 8.4843242668709944e-12 5.3824309168531598e-12 2.9001018533124961e-11 4.7151648278826488e-11 1.2641452845163366e-11 3.1165467791988977e-11 1.3959217320230923e-11 2.0824682908033838e-11 1.2841991002426964e-11 8.6392802734208049e-12 3.9541313406905686e-10 4.643910815221625e-10 5.140861282965259e-11 6.8827749745430194e-11 3.6996107871061494e-11 4.9973397395744763e-11 1.5892253278817762e-10 2.1202280809701939e-10 1.1355611557764815e-10 1.4939926593324058e-10 8.8592838301435108e-11 1.1502405225342708e-10 4.060865871050899e-10 1.579291450221365e-09 5.7966789883130099e-10 1.6738876617087502e-08 4.5120229933397601e-09 3.9766687692819119e-09 2.6756035575222329e-09 4.7149485465067864e-10 3.644417324469315e-10 1.3416546681183776e-07 1.4601067799570186e-07 6.7270733703774879e-08 1.8542538208810656e-08 6.2032377184488872e-08 3.2497499281797962e-08 2.8606044422546044e-08 1.011386159229e-07 9.1948331634278884e-08 8.34082030716998e-08 2.9551787046826321e-08 2.6602668022729613e-08 2.3149343265109389e-08 5.8113717168378549e-08 7.4768058080829638e-08 2.3844962360713793e-09 9.9916259677753223e-09 8.8301192528581748e-09 2.0502626614003446e-09 1.0716478151309741e-09 1.7574629995234982e-09 1.2305342726181128e-08 3.5222750872602846e-09 7.6169410801578426e-10 2.9779310567129907e-09 5.0884924639785271e-08 1.4251176691417721e-08 1.1798426164274138e-08 4.4366005700338911e-08 3.7732799370097504e-08 2.4933399982963637e-08 9.6608656097910124e-09 1.703157009468376e-08 5.2013334620407695e-09 1.7190031854466866e-08 2.1422715459448393e-08 1.4443002396233504e-09 6.2101985529071642e-10 2.4151654257429156e-09 6.099552813341624e-09 1.5765853596873276e-09 4.7812903519074188e-09 1.2515405399189974e-09 8.1835193714680357e-10 1.1373491237081458e-10 3.0415134658338802e-10 3.7682454010661268e-10 7.2299632632400445e-11 9.5126148697536451e-11 4.2081711085983102e-11 4.0879457911190803e-11 2.9183682559551336e-11 2.125626320023344e-11 8.0740414677127727e-11 3.3829199714655735e-11 8.9255027714653821e-11 4.9605362142076078e-11 2.5393498835288442e-11 3.3543638768981078e-11 7.3671474935292951e-11 1.1596908787902555e-10 2.8966624745665189e-10 3.1932439806526807e-10 9.4715500614727128e-11 1.9411325195049133e-11 4.584024794694743e-10 3.7374675250932035e-10 1.1240576675867044e-10 1.4009932799015285e-11 0.13081728095729109 0.12477766887829971 0.13906470455230446 0.15336565265811192 0.15822422776191392 0.14522128390918015 0.16257215236060987 0.17059811486191734 0.16150422596744007 0.16086776885351914 0.16892029233276012 0.16091816090376232 0.15314284116416382 0.15348455454564772 0.1485249102686835 0.16955049843612033 0.16155263213068463 0.16703823992121458 0.15446225244879996 0.13939305325444518 0.13777483516301109 0.14598124101249987 0.14304070795246526 0.12323292557072243 0.12911936279039518 0.1259024554902648 0.13278748715143285 0.14239271108373019 0.13422371321494184 0.13676525415385332 0.12903607424849622 0.12118718132511863 0.12062357154627359 0.10372791064087296 0.11436343251635898 0.11137857641867262 0.098282794330705456 0.11940842970861376 0.11050329592796704 0.11562514205342964 0.10647220256554354 0.098535168992329253 0.093902796474155531 0.10287285580794445 0.079024430048034042 0.088154414742998691 0.078591994781264496 0.081680075562752627 0.071789419324360809 0.072777521390876398 0.091786471699438391 0.082131381066563411 0.089905537014104545 0.072501990277942879 0.070038838085187946 0.071596397402869008 0.074611782104087365 0.083274996552344133 0.089674424719401749 0.11642271485805676 0.11008719451534021 0.10406735644317229 0.095549756023307286 0.12568802331026258 0.13196080077951106 0.13402540669129226 0.14296345813689981 0.14019998809673467 0.15345654129717248 0.15375902594113491 0.14561725222470939 0.16257215300002581 0.17059811561520036 0.16181761978981096 0.16168440671173906 0.14751738660328273 0.15335430457973798 0.15216021112730244 0.16892029606740022 0.16091817123250368 0.16703824639706955 0.16135987055414569 0.14643178283819838 0.14223086345034519 0.13450359041865015 0.12438097619904709 0.12684812849396071 0.13324173950393656 0.12899469549547965 0.12698834287439803 0.13458716549737704 0.14101583317742611 0.13419301736818101 0.14128874989369153 0.13979086690835424 0.1540443201442363 0.15466371891830666 0.16935900825078548 0.16076889156416796 0.16645003908472836 0.14781113283208824 0.14995809714569946 0.15800250798240958 0.16661263935715118 0.16112503981829671 0.15380301221392859 0.14531567435693113 0.13912748717443513 0.13197759535468945 0.12518679728977805 0.13063130999001701 0.11252643911671541 0.11844666708974402 0.11128688858616001 0.1052708821980233 0.098076342670416192 0.098122650635496023 0.10646289962123413 0.085636482032877909 0.093186365065535071 0.080348848367129008 0.072671714693943817 0.068579950895349268 0.090326846838273495 0.084694516690616506 0.090602436116597976 0.083421979902208981 0.07805502082730871 0.069418735101939189 0.073966482114764337 0.06646599043040087 0.082094211254890428 0.097293631087100152 0.10527661051543541 0.10456800411335188 0.11924140754993982 0.11176962222688218 0.11264784151447479 0.12123402026833636 0.11859808933406132 0.11172465859337509 0.11905458118826169 0.09594617908351416 0.1052543005616875 0.093417266000542537 0.086159989164608958 0.07229404244139781 0.079388489840402171 0.071969312796897542 0.079707217194640329 0.08629514479482274 0.092007395536887471 0.083354844814643794 0.069584451656066332 0.074030583905341868 0.070493579464641312 0.079572969428025761 0.088200148262211453 0.10406230546364979 0.095545740341172219 0.10047718151306699 0.10866431927464676 0.11521969872860373 0.11216654372633636 0.12055414249362439 0.023439891670285595 0.027760113500356627 0.03380297700175118 0.040613095462710518 0.032908935242927741 0.047873846903035595 0.061847787765285468 0.056314252956876566 0.047760974183330696 0.041575400322026106 0.054690838281543634 0.04569495696501305 0.065229807607283391 0.062458426990581919 0.063714848075418884 0.057864700953503975 0.051010059883869974 0.039964191627771095 0.034802835514297512 0.039968104161304613 0.029521543015622959 0.019137174693995122 0.023742067698821315 0.022193811938475878 0.028454581439812787 0.019183828111081071 0.026524364361123643 0.019717337532830365 0.033355332633995552 0.041993733372480462 0.051732532328063789 0.058415230996411646 0.055331399442542242 0.063374410446281781 0.049633815655225039 0.041255604173338255 0.049549727773167615 0.055390074212288212 0.062975672186467685 0.057955038237670606 0.062357813513502863 0.051920114697131307 0.046132357889991787 0.033394959744894238 0.038930404579895897 0.032605365955087721 0.02553623033331804 0.021775425109156539 0.028635342792305007 0.014680574513617074 0.011763570735814426 0.018529963160358098 0.010326961111411487 0.01406880890424167 0.0070663970692479445 0.0068676152077182364 0.0090342144868073883 0.003221218030125139 0.0047625172690813136 0.0034477964000650761 0.0013612798368124457 0.0012025279507154106 0.0020722227972849922 0.0018518745778355597 0.0048616923010015214 0.0030450862627091923 0.0033729701680467461 0.0021042863537348014 0.0011900222053692943 0.0013333196235970862 0.0046079142636533971 0.005383083818022258