<?xml version="1.0"?>
<VTKFile type="UnstructuredGrid" version="0.1" byte_order="LittleEndian">
<UnstructuredGrid>
<Piece NumberOfPoints="714" NumberOfCells="1306">
<Points>
<DataArray type="Float64" NumberOfComponents="3" format="ascii">
0 0 0 0.099999999999928008 0 0 0.082799035591426873 0.082799035591510806 0 0 0.10000000000041601 0 0.066361468125430589 0.15903440181097661 0 0 0.20000000000083221 0 0 0.30000000000124832 0 0.089078158003765312 0.2493007687782936 0 0.140351188660986 0.16130415108589741 0 0.21725788110387281 0.17316968768743621 0 0.17318221359491059 0.27409688392309489 0 0.24783073444672249 0.24783073444648379 0 0.29145143692666958 0.13500804559578439 0 0.20669143849501961 0.085546078947938975 0 0.19999999999983389 0 0 0.29999999999973409 0 0 0.35933948296838258 0.073809900849860513 0 0.43504744109702559 0.077628892606360606 0 0.39999999999966429 0 0 0.49999999999959438 0 0 0.59999999999951659 0 0 0.57505385014294308 0.072457888465917331 0 0.50264032148191051 0.12292784096123539 0 0.49255105193724569 0.22337579986912359 0 0.5565830077206213 0.19095699352548859 0 0.58612580217118482 0.27813894450229909 0 0.41589935411558732 0.26752529264016389 0 0.40428440976105728 0.1643886070295453 0 0.33604819894646598 0.23280286076243209 0 0.34318159319555042 0.3314386771104964 0 0.38593969585746768 0.44843324941957241 0 0.42544665781957403 0.3726599289372452 0 0.49272830291620878 0.32528628960011152 0 0.56509579243166053 0.39588847936247551 0 0.47711113382803011 0.43513410852522788 0 0.55763912874459476 0.49619993861770217 0 0.56379254693201075 0.58472273515948836 0 0.46433624429412901 0.61260020600107856 0 0.45232393232070839 0.53082724112931345 0 0.34793494568226019 0.52426775179830853 0 0.38240158409674341 0.60644575028138747 0 0.27661118526457179 0.58730386222759956 0 0.16324260003398389 0.62262730759772122 0 0.1946526892501724 0.54636184660733622 0 0.27220668248394869 0.50912429725145214 0 0.29987747321592639 0.43430880093746571 0 0.2371857680100064 0.35865548441110112 0 0.16486701364709541 0.41592657376307979 0 0.21928696632013719 0.4676461135047027 0 0.083393126324559225 0.42307471369029392 0 0.13897501191807771 0.34545639364066222 0 0.0632094674441709 0.3449112819864934 0 0 0.40000000000166441 0 0 0.50000000000205869 0 0.12353277228144981 0.51086097771927308 0 0.070553891733833127 0.57745844360881338 0 0 0.60000000000138687 0 0 0.7000000000006934 0 0.089684836063650353 0.74720097194875412 0 0.079752623936563252 0.65630726580969023 0 0.25446499951716589 0.69023946426646743 0 0.22047232289835689 0.77501739045979867 0 0.16551550920047911 0.70947866912672319 0 0.29792158491427922 0.79537096033156995 0 0.2235202862591317 0.88873896332704583 0 0.1332109546178302 0.87498377138822103 0 0.1533088418661793 0.80370257472597129 0 0.074918724681641777 0.83311952320732263 0 0 0.79999999999999982 0 0 0.89999999999958358 0 0.075231054453351903 0.92314074346405706 0 0 1 0 0.14716362552681639 0.93861610753355362 0 0.099999999999999645 1 0 0.19999999999999929 1 0 0.30000000000000071 1 0 0.39999999999999952 1 0 0.49999999999999911 1 0 0.59999999999999964 1 0 0.5499999999999996 0.93976792513729512 0 0.56701461556202259 0.86335846433862784 0 0.62017612851329729 0.81451802170669263 0 0.51076728641122882 0.81691863363193817 0 0.45907587517201498 0.90165918271477563 0 0.37337282601342481 0.92616598444216514 0 0.31535921456193688 0.88154045330654418 0 0.36912581253574028 0.83088590731704637 0 0.43819239467549531 0.79296936871720936 0 0.33985912385126898 0.73174041004507751 0 0.32437633398017029 0.65970549827478953 0 0.42824324229177341 0.6924957961634054 0 0.5174764925733939 0.65338828204098198 0 0.52912171753951986 0.73993242892488531 0 0.62152629835360762 0.73285157302339954 0 0.59670004617370476 0.65981579440137683 0 0.6754414170471299 0.67700559910555169 0 0.69085763855200755 0.76120667115691065 0 0.74547688787239819 0.70026419381674654 0 0.81910554849723838 0.69100245438023977 0 0.90192269692920224 0.70295054578552552 0 0.84477163403336131 0.77519844632340484 0 0.91372311269140116 0.80486176357476358 0 0.93540888248908083 0.88281232945237675 0 0.8793859710393791 0.93083561064221121 0 0.82192606283926717 0.87651855948129354 0 0.73937541854631073 0.9288754054780668 0 0.76404828705430583 0.78174230667165401 0 0.71722872346306721 0.85096302760907838 0 0.64588148000090029 0.91512139508160772 0 0.70000000000000018 1 0 0.79999999999999982 1 0 0.89999999999999947 1 0 0.94997493298435887 0.94717135651053852 0 0.99999999999999911 1 0 1.1000000000000001 1 0 1.1999999999999991 1 0 1.246238897717278 0.90016207822659 0 1.2104878010462079 0.79638517641579154 0 1.130022579458912 0.80264790230838934 0 1.1492841477515361 0.89495863909300122 0 1.035017143854235 0.92577305964649748 0 1.039491394416145 0.83402983011495258 0 1.0785590511537511 0.75365885686631617 0 0.98491966670915287 0.745702719141624 0 0.9749171938312049 0.68304286407835557 0 1.05 0.67063679245255348 0 1.1595355377629719 0.69612720023346242 0 1.2316049928421089 0.71268197388690568 0 1.160572984923127 0.60155304747043781 0 1.1544259370261769 0.49580194535795907 0 1.2482752740169289 0.44264463249545388 0 1.1787318575418491 0.43180077319900678 0 1.193211192060164 0.36417169501775798 0 1.11366617971111 0.39530889117858181 0 1.049999999998295 0.45311778235774403 0 1.0499999999982661 0.33749999999944968 0 0.97284972811175952 0.32057650487681749 0 0.97803218086495292 0.39957666910545891 0 0.95438428234324713 0.50021891445525024 0 1.0610070115193291 0.56187728740506249 0 0.95554667482020261 0.61387123313571723 0 0.89730215834238125 0.56352362508531118 0 0.82099888937423493 0.54529350322201742 0 0.85383906663538056 0.62014574817393608 0 0.74991769371388628 0.60451627361984739 0 0.65500944633069913 0.60601350811213128 0 0.66278242936710119 0.53985356489900171 0 0.74775703275407246 0.49059679564787018 0 0.71094001953927277 0.41472992215547572 0 0.64897033023755402 0.45530630145656431 0 0.65823561246403328 0.35502292901158627 0 0.83603391221093415 0.31708941802047369 0 0.79315209058920677 0.38802315963964318 0 0.84897848255088726 0.46000674997733482 0 0.9184189969982266 0.43608586792060411 0 0.89716106756302072 0.36571612550017968 0 0.91043121937362004 0.26518856856736223 0 0.8520969719592798 0.19112077159544111 0 0.81051762114363357 0.25355176211442859 0 0.7545004114404561 0.31098089234202853 0 0.68811979868824935 0.26566684131589419 0 0.64669101990832323 0.1799054750174742 0 0.75284581776561577 0.20455093921856349 0 0.75434135135171976 0.12888799631625769 0 0.66267222434682926 0.078497159578092612 0 0.69999999999928797 0 0 0.73796379772146625 0.059893436010741673 0 0.79999999999899607 0 0 0.8072276847200428 0.07509171132446453 0 0.87151744524583186 0.1145610820769897 0 0.89999999999870417 0 0 0.99999999999841238 0 0 1.0527907183502181 0.1005001786211816 0 0.95940036225003311 0.0802667348803804 0 0.96758455917765662 0.17206502793490561 0 1.0273907165533489 0.25089655084417212 0 1.0673059847957449 0.1861726764986896 0 1.14543293599463 0.16096823716187 0 1.1317936052402791 0.27327200211975772 0 1.2189485028845071 0.28846717556219142 0 1.225209211892335 0.20648826945283069 0 1.09999999999812 0 0 1.1494214575391031 0.075340014825429069 0 1.199999999997829 0 0 1.2999999999975369 0 0 1.254652873386052 0.105753482544517 0 1.3681535985071449 0.13698083382674339 0 1.349999999997392 0.060567969661089648 0 1.399999999997245 0 0 1.4999999999969531 0 0 1.542152768646126 0.073248247890105089 0 1.53341268746562 0.14194251306413061 0 1.456639397274391 0.1016053838939758 0 1.4156792278190771 0.19574754335211339 0 1.4905184776249101 0.20629734327603311 0 1.545236949037224 0.29434567071731399 0 1.473286192129879 0.27883707652097373 0 1.3878996413210389 0.26723502210068018 0 1.316869459340541 0.18778020585802921 0 1.291408388555241 0.26372433042992383 0 1.2615469736996101 0.34090999671933891 0 1.347125314110625 0.32447518420453242 0 1.385017785528226 0.40713366384701549 0 1.3198129865007471 0.39133224900025881 0 1.2709684905841181 0.55537862536316829 0 1.3860523322451299 0.56073196187600105 0 1.3462106466432811 0.48060664220838062 0 1.4795754400412069 0.53983964974648579 0 1.445918816848357 0.6075709531782556 0 1.5386621965636409 0.60828218080060537 0 1.550364457075788 0.50467902559054656 0 1.551956040519719 0.40384519109247291 0 1.4491802319415681 0.4666714614197911 0 1.4507225717793131 0.3561247496431208 0 1.6419306970571019 0.3436055112169133 0 1.645895854313963 0.45222881216869149 0 1.645263810758179 0.55814977621663464 0 1.7537858687071439 0.50406839622489796 0 1.742806034420483 0.6006074591026016 0 1.8544400981153091 0.62488101477716596 0 1.8316048184152021 0.54157006606434721 0 1.850967139686138 0.45738417241574703 0 1.7808296409871709 0.43587276890434401 0 1.71976181471802 0.39635806210359681 0 1.787749129254824 0.36176402170097799 0 1.8620515405159661 0.32644761881501039 0 1.799219293849516 0.26438879273789773 0 1.8480644103363271 0.19193194889233381 0 1.7304700827703301 0.17386188770806579 0 1.714493154391862 0.28897291620938281 0 1.6351951680630969 0.23707571199064051 0 1.567491488875842 0.20218805454405439 0 1.6799832100487111 0.082202015566833181 0 1.609545399082946 0.1308291592921435 0 1.599999999996661 0 0 1.6999999999963691 0 0 1.75369588639865 0.074917217572982864 0 1.8299024103288899 0.1151394713368583 0 1.799999999996077 0 0 1.8999999999957851 0 0 1.894432874635162 0.07551835003504323 0 1.9999999999955109 0 0 1.9480526939991849 0.12898730409406539 0 1.949071218763063 0.20551835056699769 0 1.889482378851052 0.25355176211435237 0 1.9370762551310139 0.30659376302738528 0 2.0131266155023031 0.26735551396116869 0 2.0579369465445829 0.18492358211896681 0 2.109175777466048 0.28747319291998968 0 2.1529249143000921 0.20760117016104621 0 2.145863811971962 0.09449602309195497 0 2.0499999999955518 0.089783354580979427 0 2.0999999999955929 0 0 2.1999999999957449 0 0 2.2631085279260659 0.078835433122263737 0 2.2171573042311432 0.14903409558359759 0 2.2999999999958969 0 0 2.3999999999960488 0 0 2.
[...]
<CellData Scalars="A_conc,As-lin_conc,Bs-lang_conc,Cs-freund_conc," Vectors="" Tensors="">
<DataArray type="Float64" Name="A_conc" format="ascii">
0.00066481629466992251 0.00047985466158463369 0.00093660191804884236 0.00098380728412990684 0.0007605248515129379 0.00057085534941231993 0.00044553688587722754 0.00057840596822581272 0.00039991689472125411 0.00053750547809956479 0.00093411180865751774 0.0010026867511324421 0.00076628997828673143 0.0016971271956929387 0.0013074255934302267 0.0017003042523133674 0.0030233678512960778 0.0022288125811051099 0.0026957856463398129 0.0018883670837700119 0.0014733652517991409 0.001379821072320532 0.0018959017842448294 0.0025745122963156918 0.0033497588300829186 0.0040708044035348842 0.0040338338000453153 0.0052957107369206932 0.00653099573798668 0.0065583433641541351 0.0053604341551643352 0.0084617141109533806 0.010016990728892831 0.012398347272246394 0.015528037816058906 0.013253582818741724 0.0113614135399547 0.011503027397753145 0.009809592252187662 0.013743108528467152 0.0089534863077220563 0.0073355077068133542 0.0060965025862752828 0.0077519184234399047 0.0049376480446273342 0.0035215090235115026 0.003936391187937982 0.0045552835132648337 0.0035963517196480397 0.0058551232999762047 0.0075307698816536291 0.006114903009269197 0.0049125347211328415 0.0088405141093497105 0.013439305864181447 0.010975639815812784 0.013063510442716197 0.016196021693728847 0.010654365048690006 0.0081314125428909711 0.0097677912515562633 0.012595476302481369 0.015673064676692793 0.014037697090758763 0.007508904483400987 0.0096263036818674368 0.0045241423334423086 0.006052674881851473 0.0049437859446598478 0.00646149411266724 0.0037700632172253099 0.0033440259310559919 0.0034245357206051964 0.0020806230436303027 0.0014677930811932121 0.0011818143546613829 0.0014095635060237983 0.0018480908500329431 0.0024802451652378428 0.0026708979322348139 0.0030706843790851679 0.0020796009711213865 0.0027117212673961584 0.0021533515208690956 0.0012693908751368011 0.001179297520695184 0.0016859664605162485 0.0012014618596995741 0.00091330088964851157 0.00088220854144150165 0.00071135956275830171 0.00066895349387840499 0.0005006691659242338 0.00040372231477384227 0.00042675738997658249 0.00060844608588426184 0.00058277515763331309 0.00071186766277686077 0.00090394278262137626 0.00054239138755651545 0.00043845206316566718 0.00041300684256753229 0.00057865946534825107 0.00040565689154063494 0.0010249828026536697 0.00078617323622285793 0.0010559600480528029 0.0014056897363212649 0.0019305519584091931 0.0026668646582906548 0.003017956752699971 0.0022149263933046947 0.0027569923269275356 0.0017044504973758904 0.0013128117072597775 0.0011196482978104605 0.0014647258771972157 0.0023839877029394226 0.0018391175343295439 0.0026655064310838542 0.0011062181481849324 0.00086815745468511187 0.00070175247249174998 0.0007470400705941897 0.00087270604259437985 0.00055570331023802814 0.0004054959896961721 0.00053136067989562996 0.00060549168460690295 0.00044425110545157325 0.00085695325879679642 0.001141275827050182 0.001579923213341211 0.001963940177186361 0.004404707044187421 0.0057846525811829155 0.0070107846241057514 0.0090243827107541787 0.014751911414167639 0.011737509415425553 0.012059581095436714 0.014897434886167802 0.01060968292160679 0.011679858220241509 0.0087206305760390828 0.0072696719414755834 0.0095055610953135514 0.0086755322313920059 0.0046305427149477751 0.0034938003893306337 0.003923129450494979 0.0043752073974364352 0.0031381505817270447 0.0036508143494535907 0.0059200196434831785 0.0052170280280916179 0.0066934778801410058 0.0037963665096970392 0.0047154099934394525 0.0059885404770144987 0.007499597942754779 0.008414566972834589 0.013730556818932121 0.012938061539404896 0.011724823157562528 0.010636343372045245 0.017207237844587539 0.020176156672723242 0.015967079499920926 0.019237079576989214 0.016888022834048739 0.022049332068489434 0.025538721686138795 0.029189007646136182 0.028031849957377907 0.024381310252943926 0.032467791358203088 0.039525947914926231 0.044807290727831989 0.049432152068338321 0.044534643048368239 0.038384345619781594 0.03314062751884797 0.032608452268244242 0.041840137366626014 0.037523411348793202 0.040585404134972844 0.048946193503923673 0.036653994818371061 0.032149559246938159 0.025519047628872422 0.027637028464665595 0.023761641878845552 0.019900424423557123 0.017274611899335539 0.021329464813165725 0.017711317176496277 0.021805755414160605 0.026698664336620673 0.041542116441257437 0.048696373112931589 0.055333989201350589 0.063645568303639558 0.070282179050679947 0.079488492393507679 0.089082612731476288 0.10923814345593032 0.096811958751097354 0.099016040835811614 0.10645982774535362 0.089186679278642544 0.079819145620519796 0.069367759389658418 0.060554994272821773 0.054184258858008483 0.056743789578162021 0.049848961735619667 0.074612999972834451 0.065832122309808505 0.065853053837093389 0.053995021364879957 0.060275969127818969 0.052114980021283619 0.057919197676241631 0.084745656947241066 0.074026598216973993 0.089294945431624972 0.082943266110645147 0.097628465967961098 0.10405218183784203 0.095488178461234238 0.10428232074725488 0.10628755542478464 0.092650354869028548 0.083197519983893922 0.10215402484961154 0.094203070477344872 0.099001003288696085 0.10532345848661108 0.10302408959955177 0.079293379790998292 0.086281142307271338 0.079867706546701722 0.091674146237881809 0.088287823567082188 0.073576830190849277 0.067016834200680719 0.053021931448779792 0.059490808209116897 0.058230032397043351 0.054011956150745569 0.072567297165603964 0.063688301544655102 0.065517632661175232 0.074465352751724584 0.055712314937559591 0.043325431692619779 0.051104903386065256 0.043377005580736358 0.038707154341973082 0.033001063984333827 0.031690773602528491 0.037590906761535862 0.016034753870498044 0.019614170467316599 0.019365623376244659 0.028233003194027648 0.023881867359986424 0.026892170766130392 0.022848336258045027 0.019672129087710551 0.025634302584275688 0.021887520454198908 0.030323264705412977 0.035328818846124668 0.037358598952311133 0.030779821021035401 0.043654506073659727 0.047584061808733633 0.048015596981946726 0.048064874958750461 0.043077737934652083 0.041322959835063532 0.04668642552643891 0.028578147431515769 0.034509134993643435 0.040303443384986398 0.036221437176728558 0.031390925572485781 0.02595985977634311 0.029497571749263207 0.016586196903039124 0.01641726063152452 0.020244295732269157 0.020844986182225946 0.023305486306640331 0.029435167391660563 0.025271662768677448 0.01987722917661687 0.016411344012820139 0.018597514506587021 0.022820701064202427 0.026309138822834931 0.035783397674056451 0.031675898348465084 0.034122968238171153 0.033662359258950239 0.050023936348529641 0.047642693655829939 0.042307877428776161 0.063581872025906191 0.055317683828672359 0.070869183194891078 0.065300531597267092 0.074000938554542442 0.057202947720842182 0.054604725877652527 0.053924620177674819 0.06266944896161035 0.069112438136715512 0.075010103441756723 0.065291157981843914 0.083321259290074598 0.090662386928778482 0.094394298910161989 0.097903823325739783 0.10689128277287013 0.10107183795762359 0.090273298725973672 0.081065371488760127 0.090580285129808633 0.080061667811273843 0.10051657461502564 0.11991962593377327 0.10961626436237876 0.12207491665399275 0.12036200867759961 0.13312266305972312 0.1425345254191438 0.13210308606655385 0.15125766279153652 0.16162839144274924 0.17111679407292654 0.16420794687316503 0.17262645840773289 0.15908278496061057 0.14405352485609563 0.1528970831654973 0.15167066357771877 0.16657117387471784 0.16752669775774062 0.16110038177177105 0.15591242266416272 0.14642671604838234 0.14483442771145599 0.12444772489763534 0.12740359400437445 0.13420184731601068 0.13440226607081154 0.11056373621398709 0.11556332022862241 0.11748856050912686 0.11096622173861512 0.11960486732719752 0.13389456586860113 0.13793662128057033 0.12783341845758509 0.12700489139744231 0.13451234732419826 0.11797407574759947 0.1120527286275341 0.11283323045618281 0.11666920587594722 0.12576446747747599 0.1380490506234831 0.12432673312950167 0.13605016340437112 0.1458254128569263 0.14802035034526317 0.1661907249588524 0.15666427785227788 0.15583710103413029 0.16327122776045633 0.1464771650632577 0.15324388961102697 0.16451752226895003 0.17462671425736542 0.20115432158131313 0.1937010327595719 0.20139967834848999 0.17374524264265997 0.18440373052043366 0.18247357974383976 0.17304802207911218 0.18426749762395633 0.20436852382854179 0.19483622033999523 0.19209424999983044 0.21446866709910439 0.22215297442286439 0.22298408780428899 0.22193656081403659 0.21498416411531202 0.21045932194203418 0.21562787765599317 0.208605539864989 0.2273452357353298 0.22333754992064542 0.23168600542505802 0.22959453789913672 0.22072721420221847 0.21772937261044351 0.21536321196022956 0.20924525333836458 0.19332766234929061 0.183884030668645 0.17531834420143869 0.17464144608824034 0.18172671707104837 0.18772017729590496 0.20067548533482035 0.19610749496508934 0.18133098766052014 0.1877222303610985 0.1945919607212834 0.20456451193152156 0.22201069615965141 0.21223143850019774 0.20578692924088243 0.21287929887303719 0.22837149915448865 0.2324077302342554 0.25142936613678396 0.24196871016884447 0.25846685137338948 0.26301404388153143 0.23170399728825114 0.24156069937130117 0.24294547736696046 0.2385817383573928 0.23993199793966308 0.24853851944942901 0.25788738164982949 0.25359978000536582 0.26178000849400812 0.25247386407257022 0.27871363377462183 0.26564836890040933 0.27082473388494521 0.287636463518187 0.28171079757179296 0.29020005923443976 0.27274569745307992 0.26798558540912321 0.27718729584582702 0.28571683497825084 0.30571614013613718 0.29475357883740005 0.29808049400075198 0.31532587524517403 0.30763146147068249 0.31457750288001685 0.32299906173236193 0.33171756948746833 0.34035426736353003 0.34893688134517525 0.33380650214455226 0.34846939742966881 0.34129766912800397 0.33181949851073994 0.32465969975099951 0.31849387175825689 0.32710759599628175 0.34112358410629012 0.33421959800995893 0.34310390743435432 0.3378298377568939 0.33200262697213306 0.32484525304969891 0.3123392123126783 0.30230217429902428 0.29465574257448401 0.2955123750145629 0.30446210586198974 0.29461305901844576 0.30205972120562297 0.30728074045431419 0.31403340356879278 0.32193558911163928 0.31071924287702468 0.31833377118612316 0.32863161641270588 0.34475319285545986 0.33555182329689315 0.3416076461178133 0.32752004851853228 0.3353554926471235 0.34476784423911788 0.34481450241255196 0.33814925127032452 0.32831101313275812 0.32266880178954871 0.31276795528063539 0.32091808717029324 0.30978356435252485 0.30278457895264455 0.29501627384294565 0.30583738764624346 0.29974871800108727 0.29159019103551798 0.27740940884327914 0.26841832793195086 0.27533130927502186 0.26829347295032641 0.28411934771121877 0.28751839997821443 0.2836850451197297 0.27507012419263516 0.27939573905630466 0.26904494284937841 0.25379549675601992 0.26330772523265394 0.24715437998822704 0.25422711655905389 0.24045401994330173 0.23420157296127653 0.24270506023026822 0.24023558758277658 0.23133616479441946 0.25983794212055911 0.25179375693915645 0.2598392957354197 0.24066671011587118 0.23230543312605878 0.24476819637294397 0.23778029058345729 0.25348798798198258 0.26051878075569079 0.25890835616398017 0.26496683823145689 0.24171317318376839 0.2496629191066202 0.24025950886458167 0.24604401545239901 0.25592598187895699 0.25873720618517276 0.25175815390252909 0.26623877487492498 0.26285682679055467 0.28591605247551877 0.28126168862975798 0.276197805464034 0.28530474131878236 0.27665108565339558 0.26946436668539814 0.27850531924891675 0.27148896459680538 0.26964967247063798 0.28671221319672929 0.28401919828183547 0.29344639737701811 0.30008763171235314 0.29408954249695163 0.31997113810802819 0.314603456682083 0.30992367111944347 0.32478101560598627 0.33071918380514587 0.34470087731790194 0.33675484776725861 0.33665706982965948 0.34447554308645817 0.32878584123949606 0.32893057515026602 0.3368631944437761 0.346339369397062 0.33964836460761683 0.31486478102559284 0.31875010870090786 0.31170463368814172 0.31197103958935057 0.30452357693910442 0.30425303672905391 0.29355571900174687 0.29769991957742953 0.30600631679643842 0.32558724639271214 0.33428464766341504 0.34005870066815475 0.28869081897857024 0.27475466291995049 0.26553096049057667 0.25873903979986534 0.24935502045021818 0.24116648016197079 0.18910743776958969 0.19701564530152157 0.20696215583676031 0.2134838040699874 0.23159726837528821 0.2232492664320945 0.2157927283023148 0.20159662409955531 0.20881716934270075 0.21037619358075915 0.21832678487412405 0.23167873860412558 0.22565404485560009 0.2343942893225297 0.22486196701511391 0.2283165565482646 0.21639803764698459 0.20779386452752813 0.21714290660099012 0.19538637366871259 0.20492446122090946 0.17192599574151698 0.17934234563630613 0.18779924237735338 0.18373748437111284 0.17651515252764041 0.19178131715630989 0.20140700625429334 0.19430278080777522 0.18163121131036886 0.17544548139258898 0.16631117448673058 0.16253221050952493 0.1393144175512408 0.14787864956497032 0.14026001927900097 0.15711430616986891 0.16701145300752218 0.16693528543150232 0.15837780991525846 0.16343448228848145 0.15377123493610989 0.14382050076132868 0.15116598909019802 0.13016700741600712 0.12982377779431886 0.13985603675088809 0.11835340924405433 0.11218587758110757 0.12081132548738657 0.1120752022045359 0.12240836269993799 0.13296245240583582 0.12745703019636839 0.11957105735296669 0.11454738282491671 0.13557628137455888 0.14601776522671223 0.15216095681078273 0.17141712196230749 0.50745186611836612 0.49984780384278865 0.51630965824021957 0.52971740494821118 0.5238343549543365 0.53722738641764667 0.53717990193685938 0.52993037442823754 0.52359435042748947 0.54529154513645572 0.54290847656098917 0.53840251990710319 0.54224640821969283 0.53493094460002166 0.52736834583729286 0.5323125955747765 0.52434492130551624 0.51838394781353025 0.50380482006799676 0.51101037996820586 0.50603761329195751 0.50328137699222297 0.51073465992550715 0.51586904567504666 0.5165440365390227 0.50895368225468296 0.49032633164790157 0.49296359806458312 0.47850769357456518 0.47941347666136869 0.48493347047404345 0.49765122384151983 0.50044785314895091 0.48919360038645388 0.49618025762907914 0.49637534453386234 0.49038275322513142 0.48344748147252287 0.47421047574660535 0.47726030357042176 0.48324847436475504 0.4675731078613275 0.46875032751801426 0.4697033123068155 0.46324452126840016 0.46196969164979357 0.45473330750335728 0.45126758678830514 0.45328027654908942 0.45940396795743826 0.47436892070227371 0.47201393507872674 0.46704012471932371 0.47243927799308272 0.46165565309224138 0.4521620833876247 0.45682633611119794 0.46465409942836555 0.48528656751611565 0.43833598019693693 0.41766147377284907 0.42571591397308089 0.40350099929755751 0.41164356861156248 0.35559483273023795 0.34864344086523569 0.36406364028781452 0.37225960716329093 0.38060973426664957 0.38799559446885967 0.39623886201392805 0.39078119897382557 0.39871152151083761 0.39947335954843377 0.39229248263132577 0.37502419304554169 0.38207927483476517 0.38223194531222449 0.37674555246187846 0.36213712073429843 0.36881226682207557 0.35612317737692112 0.34633152144253876 0.36799670670598045 0.35834077716708967 0.36516943566541799 0.3506345668688472 0.35723968360412983 0.35175259758171501 0.38536463868880355 0.37783218869749063 0.37332288108196598 0.3833556032905675 0.39163465181782681 0.39367090315792802 0.40998978103267736 0.40253897126196503 0.42453256996270994 0.41663874587753541 0.40878055601374746 0.4018940224198394 0.41286634596754096 0.40639264047474333 0.40554366473133624 0.41278570568129747 0.4184955160791704 0.42299782103099076 0.41936069351182137 0.42437545905629021 0.42892087321152472 0.433359290386231 0.43119891666417287 0.44626780824662204 0.44629482897628409 0.43985336973153216 0.44453419810636513 0.4376094908616891 0.43082083801693871 0.43036508700107762 0.43631399833342394 0.44802106175005907 0.4417403678092236 0.44764523863482042 0.43796338188953204 0.44241614901187043 0.42475054851486493 0.43091850930976144 0.42415127056688545 0.4415592407406474 0.44780380236695028 0.44170460940616502 0.44534780907242622 0.44259720386210116 0.44892416466639157 0.42590552165498996 0.43443107934175418 0.43363947678918663 0.41745721453857304 0.4036154348851505 0.41042786568585865 0.40873369260036235 0.40276958969171461 0.40988366294558681 0.40102258211497405 0.41637783733051448 0.41802052603334933 0.39314852527592803 0.39433999870914138 0.37956792791667132 0.37798095094549761 0.38680297450320028 0.37055890894339516 0.36459041314025642 0.35670863032868527 0.35038718752847764 0.36107468894678513 0.35132172962331032 0.3670005169034089 0.37305231043464343 0.37149039141244072 0.36743418885854157 0.35957553168765033 0.34910687435103949 0.3541529477347039 0.35090360555591071 0.38405192303757985 0.37754022667222054 0.375820457079242 0.38771019992078409 0.38623805842223896 0.39486798919515687 0.39659433807912448 0.39110250532101687 0.3948044848114759 0.39939551998916967 0.38570386300325221 0.38010170847565489 0.38869236392942647 0.38352348058739738 0.36873543964376021 0.3640380686186801 0.35057855222234396 0.35720036338641492 0.35799019870872045 0.36575661377166907 0.37247793960284686 0.37258527513860951 0.3631476501594606 0.35450612288933714 0.35530432787280769 0.3637753939073084 0.37284247019040218 0.38118867437889381 0.3799663310270347 0.38874957511520303 0.39642766612695834 0.39725296841157831 0.38901630573097845 0.40597189493325853 0.41409892744579407 0.42201903768564836 0.41105332191106003 0.40407655682568289 0.40697526089344932 0.42051889258237063 0.42029180585226072 0.41374661102791455 0.42621169964751238 0.43317703077038594 0.42821986088835123 0.43383906438167924 0.45012521515294113 0.44375699905832844 0.44829713304212182 0.43914320214024199 0.44028446090495693 0.43279711097626483 0.43004697908292078 0.44612630448824825 0.43819389549947768 0.46015556191096518 0.4523031055812069 0.46360923659676234 0.47039182582313127 0.47473712250347527 0.46692988436542443 0.47470256666075084 0.48790306506319714 0.48020019321123553 0.49379835567267699 0.49664618521789256 0.49295393015824684 0.47995545819707203 0.48214834714462523 0.48305235765799526 0.48791642280706937 0.4979480798526999 0.49992497711155948 0.49519241348955406 0.48420543183730891 0.48928452775154324 0.46870381979464537 0.47486166519122147 0.46754043683965024 0.47497870548797161 0.46058535268414119 0.45554879950014271 0.45616809916111267 0.46238350028953773 0.45631957729483297 0.46395237539947937 0.45735175290405383 0.45276316597397381 0.4538850801419666 0.45934101742851552 0.45214330631731775 0.4578518478414435 0.46247399541033174 0.46933798749785971 0.46802992395395959 0.47473350183659319 0.48205380860147323 0.47479137477443556 0.48353348371327493 0.48853077974782988 0.49022750459372411 0.49643401578059743 0.48828239619036057 0.49717057306328316 0.48090630074490565 0.47649213515286093 0.47218534215460978 0.48843563499362669 0.49404023019975835 0.50180070266953747 0.51803284859588228 0.51075235071530545 0.50307194975885106 0.5039963321635369 0.51972015325328569 0.51228476164243431 0.51105599196382523 0.51913916536117155 0.52633702959469886 0.54206521486965631 0.53366702997044391 0.53979248661772128 0.53383135880756116 0.53833130659917205 0.52640929824154947 0.52576550460589078 0.534538005359114 0.5397143526147864 0.54225285418586167 0.53888062432185801 0.5308195763660285 0.52572760953442288 0.53621962905093556 0.52536959354073776 0.51402430663173893 0.52047036751008058 0.50677783063220461 0.50978817227348938 0.50365435768665334 0.5161770338466305 0.51741063926930786 0.50809532332225071 0.5022333428513045 0.50049040352589791 0.50809109611664771 0.51670558132356392 0.53043769100527915 0.52422820759992061 0.53117369346658627 0.52519909703553025 0.53789663200924331 0.54368864539501149 0.5510882080861329 0