<?xml version="1.0"?>
<VTKFile type="UnstructuredGrid" version="0.1" byte_order="LittleEndian">
<UnstructuredGrid>
<Piece NumberOfPoints="568" NumberOfCells="1054">
<Points>
<DataArray type="Float64" NumberOfComponents="3" format="ascii">
0 0 0 0 1 0 1 1 0 1 0 0 0.049999999999899652 0 0 0.099999999999814668 0 0 0.14999999999970359 0 0 0.19999999999955789 0 0 0.24999999999941211 0 0 0.29999999999926641 0 0 0.34999999999912063 0 0 0.3999999999989749 0 0 0.44999999999882923 0 0 0.49999999999869432 0 0 0.5499999999988151 0 0 0.59999999999894682 0 0 0.64999999999907843 0 0 0.69999999999921003 0 0 0.74999999999934175 0 0 0.79999999999947335 0 0 0.84999999999960507 0 0 0.89999999999973679 0 0 0.94999999999986839 0 0 1 0.049999999999899652 0 1 0.099999999999814668 0 1 0.14999999999970359 0 1 0.19999999999955789 0 1 0.24999999999941211 0 1 0.29999999999926641 0 1 0.34999999999912063 0 1 0.3999999999989749 0 1 0.44999999999882923 0 1 0.49999999999869432 0 1 0.5499999999988151 0 1 0.59999999999894682 0 1 0.64999999999907843 0 1 0.69999999999921003 0 1 0.74999999999934175 0 1 0.79999999999947335 0 1 0.84999999999960507 0 1 0.89999999999973679 0 1 0.94999999999986839 0 0.94999999999979179 1 0 0.89999999999958358 1 0 0.84999999999965292 1 0 0.79999999999999982 1 0 0.75000000000034661 1 0 0.7000000000006934 1 0 0.65000000000104008 1 0 0.60000000000138687 1 0 0.55000000000173355 1 0 0.50000000000205869 1 0 0.45000000000187229 1 0 0.40000000000166441 1 0 0.35000000000145642 1 0 0.30000000000124832 1 0 0.25000000000104028 1 0 0.20000000000083221 1 0 0.15000000000062411 1 0 0.10000000000041601 1 0 0.050000000000207989 1 0 0 0.94999999999979179 0 0 0.89999999999958358 0 0 0.84999999999965292 0 0 0.79999999999999982 0 0 0.75000000000034661 0 0 0.7000000000006934 0 0 0.65000000000104008 0 0 0.60000000000138687 0 0 0.55000000000173355 0 0 0.50000000000205869 0 0 0.45000000000187229 0 0 0.40000000000166441 0 0 0.35000000000145642 0 0 0.30000000000124832 0 0 0.25000000000104028 0 0 0.20000000000083221 0 0 0.15000000000062411 0 0 0.10000000000041601 0 0 0.050000000000207989 0 0.50333998054938722 0.50119715791968966 0 0.70252050881959183 0.70358884261915833 0 0.29641115738084339 0.70252050881958938 0 0.70358884261915744 0.29747949118041561 0 0.29747949118041711 0.2964111573808435 0 0.50000000000002642 0.7803135888501761 0 0.2196864111498267 0.50000000000003153 0 0.78031358885017377 0.49999999999997569 0 0.49999999999997108 0.21968641114982909 0 0.8289812646369813 0.82898126463698818 0 0.17101873536300011 0.82898126463696109 0 0.83199780613337848 0.1690131600686714 0 0.16901316006868169 0.16800219386663079 0 0.56566515596461675 0.63670464971409091 0 0.35984320557492089 0.56698606271778873 0 0.640156794425081 0.43301393728221721 0 0.43301393728221038 0.35984320557492139 0 0.63969251517836323 0.84598529912890386 0 0.1540147008710982 0.63969251517836956 0 0.84598529912889664 0.36030748482164038 0 0.3603074848216346 0.15401470087110539 0 0.84598529912884157 0.63969251517827153 0 0.36030748482174152 0.84598529912882459 0 0.63969251517826664 0.15401470087115929 0 0.15401470087117619 0.36030748482174652 0 0.4434591735942961 0.66641640622551224 0 0.66548584431530877 0.55616712808283064 0 0.33382663527330159 0.44130125047503482 0 0.5586987495249669 0.33382663527330653 0 0.53432142347292233 0.88563193847251998 0 0.1143680615274819 0.53432142347292733 0 0.88561059063756964 0.46572761956237563 0 0.46567857652706018 0.1143680615275231 0 0.74198804864688339 0.90892718720327403 0 0.091072812796719582 0.74198804864687795 0 0.89586000931544074 0.25714619498770419 0 0.25714619498771307 0.1041399906845497 0 0.88949062093135778 0.73694585442531257 0 0.73688246401832591 0.11047754041323141 0 0.26305414557470391 0.88949062093136155 0 0.1104775404132264 0.2631175359816938 0 0.59819537371016407 0.74380966024143391 0 0.25619033975856881 0.59819537371016862 0 0.74380966024142703 0.40180462628984132 0 0.40180462628983732 0.2561903397585753 0 0.74417394063200648 0.6049203001048884 0 0.39507969989512881 0.74417394063201048 0 0.60492030010488373 0.25582605936799729 0 0.25582605936799319 0.39507969989513358 0 0.90045039720880915 0.9020090423547924 0 0.90082758526900886 0.098076845682916511 0 0.097990957645208238 0.90045039720880915 0 0.098076845682915317 0.099172414730993488 0 0.43590673999053309 0.90289902042279657 0 0.097100979577207341 0.43590673999053198 0 0.90289902042272274 0.56409326000946114 0 0.56409326000946236 0.097100979577281268 0 0.73982803480991577 0.79629608696991705 0 0.20370391303007401 0.73982803480989479 0 0.79629608696994103 0.26017196519011448 0 0.26017196519013502 0.20370391303005 0 0.77998481823117694 0.71397317153691997 0 0.28602682846308641 0.77998481823117594 0 0.71397317153692708 0.22001518176882201 0 0.22001518176882229 0.28602682846307981 0 0.49189101320880302 0.59024331187324797 0 0.57387636360620708 0.54318431390135336 0 0.41009598069569558 0.49083935749285379 0 0.54901591374940373 0.42306523525165751 0 0.6519524273377173 0.64249931920594539 0 0.35944937237716967 0.65164789808436319 0 0.6424993192059415 0.3480475726622802 0 0.34804757266227387 0.35750068079406011 0 0.81709574086843206 0.91318696080656769 0 0.086813039193431391 0.81709574086842884 0 0.91838802593870927 0.18172590289757809 0 0.18172590289758209 0.08161197406129285 0 0.91838802593884228 0.81827409710237209 0 0.82118136511706341 0.082875076569723011 0 0.1817259028976386 0.91838802593888857 0 0.08287507656968085 0.1788186348829835 0 0.51484304721220842 0.69707233951836334 0 0.30292766048163949 0.51484304721221474 0 0.70015119067225129 0.48481914991727459 0 0.48378871228000903 0.29745177826977359 0 0.60938371359314658 0.91847489683800321 0 0.081525103161997597 0.6093837135931508 0 0.91890123454466932 0.39094742729597309 0 0.39061628640684498 0.081525103161991672 0 0.92670321183853355 0.65773042910151081 0 0.65773042910151891 0.073296788161472337 0 0.3422695708985129 0.92670321183858773 0 0.073296788161418117 0.34226957089850552 0 0.43087117257049001 0.8215422551712771 0 0.8215422551712277 0.56912882742954496 0 0.17845774482872559 0.43087117257049429 0 0.56912882742954041 0.17845774482877461 0 0.46102425708533701 0.43254199134332588 0 0.56759263990989184 0.81794319034601648 0 0.18205680965398621 0.56759263990989739 0 0.81794319034597418 0.43240736009009317 0 0.43240736009008851 0.18205680965402779 0 0.66820316019503978 0.77769800602796979 0 0.22230199397202771 0.66820316019503168 0 0.77769800602796679 0.33179683980497482 0 0.33179683980498331 0.2223019939720311 0 0.67757268808231397 0.93106206656183088 0 0.068937933438162791 0.67757268808231053 0 0.93106206656185309 0.32242731191769503 0 0.32242731191769902 0.068937933438140794 0 0.43565339604028508 0.55159384357101338 0 0.58981073711177334 0.48140931020849848 0 0.49854341599767982 0.37075914768127122 0 0.44764943295894188 0.73752415265401661 0 0.73752415265401194 0.55235056704108476 0 0.26247584734598628 0.44764943295894732 0 0.55175647814720108 0.26104505532086641 0 0.39419886675318527 0.41912225240070788 0 0.48669777060454272 0.93510666819646593 0 0.064893331803534807 0.48669777060454478 0 0.93510666819640953 0.51330222939551939 0 0.5133022293955174 0.064893331803591428 0 0.40653508887824003 0.61580573377480397 0 0.49771727055908782 0.83998685797641781 0 0.16001314202358469 0.49771727055909287 0 0.83998574657308889 0.50228528270184081 0 0.50228272944093777 0.16001314202359701 0 0.70085728320704077 0.84350379029875056 0 0.1564962097012354 0.70085728320703999 0 0.84350379029877964 0.29914271679296989 0 0.29914271679297122 0.15649620970120659 0 0.839908789927305 0.77106070975262608 0 0.22893929024737289 0.83990878992727813 0 0.77216325087772952 0.15899695163319821 0 0.15899695163321451 0.22783674912227669 0 0.76395804595204597 0.67808171673060369 0 0.32191828326940508 0.76395804595204586 0 0.67808171673060202 0.23604195404795861 0 0.2360419540479583 0.32191828326940741 0 0.64518564541690571 0.69601563325001548 0 0.30421635384321521 0.64514939193436716 0 0.69601563325001248 0.35481435458309712 0 0.35481435458309307 0.30398436674998969 0 0.61233489393901674 0.60846740003560018 0 0.60122390529523662 0.39097801071820221 0 0.93946948561981514 0.60485373571037115 0 0.6048537357103756 0.060530514380187868 0 0.39514626428973221 0.93946948561985189 0 0.06053051438015096 0.39514626428972788 0 0.64455163611866495 0.50369301794551069 0 0.94156647488778256 0.058433525112256718 0 0.058433525112266523 0.058433525112214509 0 0.94156647488775558 0.94156647488774259 0 0.058433525112254137 0.94156647488774581 0 0.77688977118331393 0.94706199857866258 0 0.052938001421335763 0.77688977118331159 0 0.94465622530468663 0.23167460333446291 0 0.23167460333446299 0.05534377469531044 0 0.9442075111696665 0.76777356182390766 0 0.76543419162344684 0.056452228708420968 0 0.23222643817617661 0.94420751116970569 0 0.056452228708379938 0.23456580837661581 0 0.78284912262770068 0.83746308049763585 0 0.16253691950235041 0.78284912262768558 0 0.84534053180161173 0.2262639405833009 0 0.22626394058331961 0.15465946819838111 0 0.55307204985744796 0.94819812235491685 0 0.051801877645083663 0.55307204985745195 0 0.94812782820415209 0.44708943904932719 0 0.44692795014265252 0.051801877645060238 0 0.85607519768343354 0.69380468830529196 0 0.69379929796456197 0.14392209494791061 0 0.30619531169472608 0.85607519768342955 0 0.14392209494791439 0.30620070203545702 0 0.51172471858873747 0.64015771271794875 0 0.35815651743779398 0.51113440447909086 0 0.57051182622447827 0.69668652018496713 0 0.30429740679959738 0.56913905146460098 0 0.69595787604187809 0.43071000156707989 0 0.43059486795334201 0.30395973419063538 0 0.54465502325161819 0.74717983044080061 0 0.25287139441262568 0.54458355434492378 0 0.74730218607442667 0.45539100053644521 0 0.45533136021725079 0.2525687312087147 0 0.86696410734367158 0.94753096683315619 0 0.052469033166843738 0.86696410734366991 0 0.94100406608115506 0.1383574446607955 0 0.1383574446607988 0.058995933918849157 0 0.94095916274074942 0.861652780
[...]
<CellData Scalars="pressure_p0," Vectors="velocity_p0," Tensors="">
<DataArray type="Float64" Name="pressure_p0" format="ascii">
0.0074212424695794116 5.3727347118630036 8.0866859348303788e-05 0.30424074534778567 0.46146180433283901 0.82826414427962014 1.0430456847092353 1.0599677260411022 7.1668329999471121 6.5248105145275177e-08 61.763987441870732 5.7977621658840972e-05 41.273991192877673 7.2802206243396023e-09 7.4334369770982646e-09 5.1895633374474199e-07 41.298745248018932 92.35628986618201 92.360009358403119 5.388122514456791e-07 82.205437143855605 1.0933871432836939e-05 15.818857678791016 2.0877328326510076e-08 82.083727603236468 14.647741543570726 1.0615002023039812e-05 2.1244035938970171e-08 0.068719973476617763 6.5955211537579994e-06 17.144437002866511 0.038669138558723941 11.144660601953021 8.9038058849154376e-09 89.517753638726759 2.2391717280097835e-05 89.422513655045748 10.502486499970331 2.151173700422079e-05 1.0305426738452929e-08 79.53990538303978 6.7922440464058225 5.4104915328797311e-05 2.7421668083661718e-08 33.62567506982019 3.1478045627277783e-06 0.0078389197570551284 8.1145035253973514 3.713805352668298e-05 0.29224261596933071 36.87286514809324 2.2463643916156709e-08 2.3837683625967214e-08 8.1946274504482351e-07 36.776270376140609 81.350406832127916 81.367894849147035 8.5016745956254776e-07 6.2458484619518159e-07 9.1615431595671026 38.525427917379503 2.9168842723976478e-05 4.8404820872743874 1.2363430778138285e-07 54.342418837653632 0.00010987075800977488 0.91824724550188419 56.21319487510533 1.2236384086152481e-07 0.001861794832269268 0.095975847147194607 3.0165198002466133e-06 22.176920869574001 0.027651265994769997 30.724286544002322 1.5247252354307113e-06 30.879115855329545 1.5311753569273531e-06 7.741640045193607e-07 13.039018548301499 33.391963427700517 3.1936511463324465e-06 0.000712428471535324 7.9282955075800787 4.0027837257361479e-05 1.6200193828675116 6.3534135241462782e-05 1.0558631230582537e-07 60.195885927589771 6.3061950905498056 1.3845273934368059e-05 36.785033352977912 0.0014641510438568772 7.1681021968314029 5.141563277138618e-05 1.0230199778500033 0.15809181755343379 80.465978609823892 0.39875040877242168 0.0053045974031865929 2.2466267295089507e-08 0.017096190896538108 7.6674222237530009e-08 62.461236390242476 0.15896307585569611 0.21408074107483471 89.842039187580639 4.7844790868592231 0.00010960894360450115 9.5770363217015965e-09 35.36959075305522 0.0093685504934128017 0.26059092533575284 7.1565887034948671e-07 39.845574262350091 0.4498475316540691 0.0048256443774035455 4.7019193829056422e-07 4.2298533768355879 0.0040836648731744172 0.46259459611754061 0.00013639741861312999 0.14939265072971353 0.00013096557854730235 4.3462268798704731 0.017214587871283625 67.459113476846227 8.8866377243235062e-06 17.004420260505537 6.1936767727052433e-08 67.325165889309758 16.126759921471219 8.8175395611503675e-06 5.8387062354516646e-08 0.27720664485160668 7.9749863896598665e-05 5.5107645004418879 0.0084649694950631234 16.848897340771714 0.00018568589043471952 3.7226975836838738 6.4194202091421921e-06 23.10012219546693 3.2964197608352741 0.0002312654437580696 2.747958027733091e-06 2.7493495341587093 0.0012712509507044265 1.0552251367416097 0.00031261226679017506 1.6526216966402789 2.3976674016587065 1.5546518640107554e-06 1.5692724872047704e-06 27.995222381391358 27.721475088994985 0.00069791992180879225 0.00038868610701827116 0.037465242441001495 0.1177774981823138 0.025894269957251647 1.6483672030665573e-07 51.847235026990802 0.10985562464573517 0.070990989024177012 0.12939767074461103 1.3158087588493415 47.693587501463021 0.001028466665365818 2.4797254487203692e-07 20.268801158278617 9.538878221644908e-06 15.829909283454374 4.1464161493122247e-06 19.742824524206384 0.001238557310313823 1.1880002525435687 4.201757200955531e-06 0.89475434681026611 9.7101893575283214 1.6102663679388412e-07 13.80585058636699 1.5260038574870714e-07 10.637373080103238 15.966271268093804 6.2305676624430108e-06 4.086284818949318e-06 18.569054780478456 21.436286581510821 2.4785445212222632e-05 9.6472609255730106e-06 54.685157385188973 63.835322782762802 54.765115130210852 8.931584764453395e-08 63.756362772396834 1.6713172653553627e-07 9.2179641672678233e-08 1.610967363238496e-07 52.510492825479218 0.0044176982297274665 0.48679542948133192 1.6748451517578102e-07 1.0320905067711097 0.00055139322870215754 1.9187799679595894 0.0013779562989813241 91.720301733960383 0.26884911878313278 0.0088200088913622226 6.8744568750897521e-09 81.495383700202723 9.5442119208276822e-08 62.846881393632806 81.487539897021776 62.830491841358068 2.5921993480892225e-08 2.6757525784242552e-08 9.1774794979295785e-08 0.24210522184290276 1.8222673181957324e-08 82.499424136614564 0.010013391761503877 16.606262435137126 1.7077668461108539e-06 5.3403292744623077 2.8008442195768522e-06 23.102537941774585 9.0917174175072067e-05 0.062181256524765083 6.6226484021331173e-07 36.219218130232449 0.045351181366604057 1.7380770184055224e-07 0.00013919874893423997 4.2863236943993366 53.097523788722128 12.518089813432695 0.00029620943567305587 2.7508022819129159 1.3771466694311727e-05 27.959609219266994 8.220456994245969e-06 1.9660014250716189 2.4577218315888976 9.0199226209428041 0.00020261341086231927 3.3742381037285649 2.8697590204289714e-05 43.462509786107205 8.4237585398855791e-08 63.750523802289891 63.663955792358948 43.409682576266832 4.0828670342258221e-07 3.9328419640594516e-07 8.8533852218473788e-08 0.24386599618218974 0.07831298683149189 1.2771488366942194 0.039048418529911491 5.791582451040371e-06 17.572475028962931 0.069351080988233088 4.38985696380551 8.0169557935079524e-07 33.887518786589716 0.00013510036159233851 4.5835039245104676 0.0019120958110805197 0.82920789095898262 0.00011997162709245305 29.773112689762257 7.0883725304318812 5.0459896214141933e-05 1.3974835214824797e-06 0.52523014826511893 0.0084532330986057547 0.0067018961126855386 0.0097589888841514965 0.0070710913115074395 38.933441187649095 2.6367507897160608e-05 0.0022524936759375728 7.4986444341252225 2.1365859630829623e-08 80.121084536720204 5.3818136304504215e-05 63.208905032711002 0.30579537104857729 0.0076629623838384781 7.4326234901803939e-08 0.0066293675911477251 0.012761395742031778 0.020427910456200925 0.93007204062845727 6.4585945525211232e-09 91.601562414063295 0.0017687457912936892 8.6482632258352972 2.7140028540789867e-05 9.6628771808271416 3.3012473574685457e-05 82.87907923429745 4.7447738368014777e-08 73.752092107953743 2.3531237388832076e-08 82.871870978818521 73.740923978270771 4.4498841663106207e-08 2.2124168144594375e-08 52.214610894605059 7.7884793904613736e-07 54.985696009893026 54.719069015470495 1.9775835609319438e-06 2.1003565992066977e-06 52.025829842795574 8.2586299414208058e-07 0.40418212158677647 0.34745368077057459 0.0011920380892099381 14.717730041120575 8.7715635859266874e-06 1.1910972663704684 0.0018447749850908058 0.0010432707737282033 0.0030023440735647126 0.094737583549567822 1.183284442160793e-06 30.588490145392729 0.028956842771699964 0.0020949335021530169 2.4815984809867913 0.00069486400153268067 1.6132254558298718 0.0003748630561519523 4.2450854113507299 5.6538449131383295e-06 18.240351267979801 0.00013783051303256242 0.006225013600965351 8.1681095645863255 3.0764403679001058e-06 23.268344258490547 4.3590098279690112e-05 0.35799460368504388 24.462581038163407 1.9726301496629923 0.00055620283299425051 2.2593891403680061e-06 1.4337078079947496e-05 10.847107619585804 2.085468992279514e-05 12.621755826318902 0.032637409375341438 0.34075184892408455 0.64087078740106251 4.6094117112058175 0.00030300982543856236 6.4580786048458583 0.00039208119895141769 2.8745133522644544 0.00010453146147836449 2.4464100405143308 5.7273529130587197e-05 5.4984901176345513 3.4916115090218255e-07 40.389133526910094 8.8456520395211293e-05 0.75902001834194732 1.2147778753149847 3.0372321251378689e-05 1.9558147048279472e-05 9.0292520470728519 10.583335487291128 0.0021181573416538674 0.001122693118003532 68.996145689386978 1.0143610839220367 0.0015749917994974517 4.8504240710039972e-08 1.592394323471757 0.00048092453725722615 2.0864205598865846 0.00071847365087392492 5.8836122000579287 2.9939174942974623e-05 9.306621204331087 7.0711336486080218e-05 0.0085463571475990364 0.0066811338084910559 92.158358388585953 5.6861457891736134e-09 0.34833792816877801 92.363077207324238 1.8154487044017537e-07 56.139261062212235 7.4208596172823141e-09 92.359657870587228 56.157889876771357 1.7460654255642254e-07 7.6356959886322806e-09 31.514520847784009 4.7093132123321455 0.00011148356571082888 1.1145936283301062e-06 0.080171684473382632 8.2677589804016236e-05 5.4768431076801685 0.033266076699928149 1.1870813691169622 0.24713171337299239 0.0089453454557770935 1.2025096028736775 4.1752371807960281e-06 19.993093806734151 0.0011612696545605307 0.63458804193535578 1.4710025846510188e-08 83.886983287705291 0.0030452545477566016 1.1229539539844215 0.66383200533588416 0.33807926833073521 0.00053808690030887271 1.895960254576696 0.006298012133529915 0.67784857027493794 82.295302104687721 1.8704343881488153e-08 0.002686573941641031 0.070818519326854151 3.4735682675667975e-05 8.2671088658438041 0.038445249319028603 0.004413200250949688 1.8761666017527311e-05 11.218854717858585 0.45242102242578519 8.378723425876526 0.00010529775685091083 4.8237801744755782 3.4791700172106593e-05 0.08327469122387883 0.011777994413564159 1.4541348618485144 8.5935334070553287e-06 14.887545320214326 0.00087059303491494953 28.50731683055022 8.0550074236508901e-06 0.76542720102505091 0.62777554740873298 0.18399574695629575 0.23242698106170129 7.632218285539886e-07 1.7700451498937722e-06 33.976811475152296 26.591252603799276 0.014591942757811366 0.010496946211993376 2.9364273978705611 5.8500971976131227e-07 37.03029995189334 0.00027158657798451012 19.893106705777036 4.0986224471738557e-05 7.918155276592044 4.1786096611756538e-06 33.693156613289659 4.3489887228441787e-05 0.026597156497397315 2.3470640916441857e-06 23.86917674870039 0.10079314930256326 0.053021582061588239 0.00054138767419519224 0.80483427772200133 1.2955875750848834e-06 29.419244037461475 0.0020647217853446659 1.9654809442193564 0.17872897228238002 0.080686229580979471 0.5439640350743411 9.5385145997496698e-07 32.162435428711845 0.0035570746379926105 0.0016585351027048601 0.01500354951720634 2.9873001310328097e-06 22.169154000345362 0.16692470191718067 53.116783549018983 56.56664287041346 2.8397931229233492e-05 1.338747639357715e-05 0.11889970373513613 1.1225618293672241e-06 23.010683879541471 8.1299498402341932 9.949785931697841 4.2640276784405535e-07 1.0191571751687865e-06 13.353383912913046 1.2159372314244622e-07 57.796376646575638 1.4114108067501895e-05 8.8988140724747886 1.8581042585123275e-07 53.335039553090226 3.1208020063713078e-05 4.5225437012855458 5.861568487204857 0.00011820311903040098 7.40069900459498e-05 4.8456213506311183 5.9254933540959653 0.00011130905395584682 6.9369293746503744e-05 40.027859446103022 0.00016542040604602476 3.8671953483494508 4.7485214397585749e-07 0.30238203006236769 1.8867576135666031 2.6805389155392385 17.304446060154763 1.870906340594592e-06 35.940598897920808 1.3397526880129604e-05 37.63299292545485 1.539806820176228e-07 36.680451335111044 1.1631093110929385 0.0012242917457234632 6.3631358186751874e-07 21.999898489628819 4.177158849224371e-07 4.9897055707568425 7.6126486498681455e-09 90.360553350261497 0.00011061463693062655 0.13700471093657485 1.6767069492927868e-08 83.175950219629385 0.019619160403206885 0.085150389118385211 45.319401907283314 3.4617144189577514e-06 0.10315599515980695 61.395761764615145 66.336468703378173 27.877846334454048 2.1600003052128538e-08 3.1226311933947605e-06 66.748972115102518 6.0159678412579916e-08 24.353119332459965 2.1204944164912697e-06 81.453331118587727 2.1167299964648428e-08 27.170795322349338 81.491184946520889 2.1932240806937243e-06 66.796138823660684 3.1878263012968713e-06 0.010621331301977933 0.05725925028149851 0.0005258384649030137 0.00061042168634181475 0.0042749706997047641 0.13580245797110937 32.440188719145496 1.8529466062240862 0.00061824088197901016 9.5570483950727987e-07 0.0028291684247786679 0.006268645267561667 15.841764190969016 7.632007794387017e-06 0.35007397941436402 28.245973758771285 6.5636405484527773e-08 23.271043590459538 1.0571494277602446e-07 15.30792574479031 7.7135779047608432e-05 5.9132683198902205 8.2368667381038675e-06 0.083993423306701703 0.22258062966561615 21.831191819377359 4.6433504480786075e-07 17.020531643157703 1.972712989371099e-05 11.233976595560627 7.0804881049133703e-06 2.1385666004485757 2.5364738327209295 0.29353944792442577 0.43068098350086592 0.27541493367824016 0.41319400197813949 5.7447090452412705e-08 8.5261958656520936e-08 0.0082070391219188667 0.0049107290081307877 0.13411784907971819 0.00087157432869700013 0.086853844725498258 0.00051412091595970204 36.751252821685547 1.4309257530269698e-07 28.416412511570019 1.1493508846214831e-07 3.4127254213234632 8.4364791506180124e-08 59.865281142955759 0.00021808712190963335 0.28851083792700805 3.3566567958479913e-05 8.3392358042871262 0.0079058086446578586 0.20500251015782439 0.4306635567029159 0.00012747447489044913 4.3561684802162537 0.0047102852282433667 0.10190282144013893 1.815324320912958e-05 11.280048206755673 0.02552458749614964 0.14099596992517288 0.00028125558001886492 0.20599505040973559 0.00052236343024864994 0.57183096004924372 3.6669851423117989e-07 42.919407803607228 0.0033181742168059323 0.11510054486624001 3.2782795727234537e-08 74.263615723595549 0.023696755976275435 0.16521406398313662 3.8070713324142369e-06 20.150676145730269 0.015466880543202893 0.030432244316054239 4.4960522596759551 1.528076491898476e-05 12.089769955889125 0.00012022263961163844 0.0047088874409189768 0.0024740900356901435 3.5407624441122477e-06 21.378501916391713 23.573819188393074 2.6180154608847801e-06 0.43125420669056053 0.70304759846968645 1.8655204207511862 0.70783934639075929 0.0023640835471509117 39.388750657907664 6.5320076472744584e-07 39.245516659839758 6.7334896257859542e-07 0.0010902292553939643 58.887074857026391 2.7827651910176399 0.00032612177873053797 9.5480055846439408e-08 0.017003491030958252 0.0002886235855105025 83.801857123139115 3.1176379482573013 0.00024930709198637922 1.652459042971417e-08 0.39628886304363153 0.48799513335872957 1.9691634392476368e-05 8.5299616138079916e-06 10.603983469889991 14.839007354555587 0.0039301754814745756 0.0054965773078761463 0.77427814594586197 3.3622021337075217e-06 21.346479564953768 0.0021641197112827882 0.22780454857605478 3.5207656418889278e-07 47.434835917317926 0.011045792986823143 0.3844943562284972 2.3985417059990892e-07 42.599763847394307 0.0055252834884209406 0.36138223410688397 2.062845069042512e-06 25.72186399427283 0.0059649423533708603 10.485928154598799 6.3515309247101943e-05 6.3777038749806731 1.976895330135179e-05 16.147705467919494 0.012533046413671922 0.19632122196118679 6.8787967745575337e-06 70.401881237213686 2.4501765492263057 0.00040673684300519477 4.187868574739074e-08 0.037586243146311364 0.00028339918423229873 0.077286414643461532 2.510751855366247e-07 47.294815111327651 0.036307432322696405 0.052557429032600092 16.186956829247141 3.8761355078971759e-07 34.902177162750036 3.0857433379619494e-07 26.868880916225599 2.610266553211879e-07 0.4789672914394395 4.6012489277741418e-06 18.969067573539409 0.0042557832666745253 44.636399306520836 3.671605482769033e-06 0.040908646487836813 0.028496902451601309 2.606058228001495 0.00019021258237153797 3.5788587585174065 0.00031586675331219169 0.0043688919460843495 0.052242071340112287 1.3380874593717648e-07 54.823656617645888 0.054368746882708957 0.0073966528509398864 0.0044058292250504375 0.29198368118441648 21.546442721733314 6.9692878010700617e-09 92.508514074900134 4.6107053134267478e-06 92.482528723766009 21.054728484072374 4.4311372133156799e-06 5.9425649558315424e-09 1.8463760747406077 0.00020478479314136745 3.437696225268561 0.00055696923705894521 0.032549729127064837 9.1956253431677814e-07 32.547707608444362 0.08590217371992373 3.2785403896986232 0.00039410041576651566 2.3707273126332118 0.00020494153982986558 73.989937038798402 1.5439746257015252 3.1815205456963032e-08 0.00082470571685409682 93.85670850662423 2.1826962344819862 0.00048464900405032152 4.6317197648883284e-09 4.6770798955764739e-09 0.0017817340065564404 0.93271193124492968 93.615330725518504 25.671634794596436 2.6069986885219572e-07 35.869202660577926 3.2503373992603016e-07 0.7051864837252797 0.96115656807561134 7.4165348186412677e-05 0.00013126085549446502 5.6580705460497533 4.382641790117777 0.0024313351197076255 0.0015078120283615816 22.916718829939256 1.2112512399998267e-06 26.267200597867213 0.0088157529255296005 0.26662399815874765 1.7641068673611624e-06 0.030340474108098467 0.017395234904516242 0.0023108602168899471 32.739927683722129 9.6819727697009812e-07 0.74760190983533903 0.75702011684450821 0.76507241056218167 0.00027630746064028589 2.7816734100999501 0.0021046656484554364 0.0022322008417991982 11.027796085640112 1.9080565935718058e-05 0.75148493458222665 0.013953242158103054 0.18242488557134315 0.22792394584253067 0.0010412459372254399 0.33260233206475986 0.091753730320637633 5.4533312678827174e-09 92.891016058278069 0.031395223319983019 12.692069497754172 0.017116535541609076 0.14861078726323076 1.2578357651263078e-05 0.11692941907914126 0.01662605861604801 0.025875198314045292 6.0232696384481319e-09 84.489922284027401 93.823666980547316 2.2350499818079871e-08 84.483404485170439 93.821105784079265 2.0706695504579495e-08 5.4552330270093492e-09 0.002629702179430554 0.0041881806282638451 0.0035746958928711187 0.67117081550183966 4.3490008104825453e-08 69.160637692979321 0.0026668446895133533 2.6450061355241301 4.0074661165023347e-05 7.8175620141422568 0.00032377934122135483 0.11692235858700029 0.0020102019512769085 3.3361357378306589 1.4144185312805822e-08 2.9175313123447144 3.5340831819785453e-08 84.205040125672383 0.00023714742457392869 71.58714459090956 0.00029803552388513865 47.402279268937598 7.8986053954006748e-06 12.378790277645241 0.00059331132140182064 1.7744927085131073 1.4308252935013384e-05 16.238131046001477 2.9155318216193771e-07 0.01185302718513887 0.019156076887817064 4.1249655967417404e-07 40.38615372966423 0.1419848716149405 0.042570973091471218 0.024358968329585715 0.0001385105557176396 8.8451750333556705e-05 4.1580864799670598 5.0915475635523677 1.7780389442286062 1.6763679533992656e-07 51.185932038670025 0.00062677974708539512 1.2582512621976158 6.7505942125048159e-07 34.628117919117294 0.0011292633921786794 0.041733681306362451 39.208510669315928 0.00034887535194183018 2.5300967300072097 5.0188213592766573e-07 13.898726322085356 9.5552228682202637e-07 1.7373506011837472 4.2710010356295021e-05 7.5321521106629827 0.00063089831147468997 0.018149903449089982 2.2597312024270142 4.3288451047946181e-09 93.744658319149082 0.00047826607445469456 0.046808530938464731 0.029395887721138866 4.3370117352175577e-09 94.395041816513583 0.098786299755386511 45.726153575154022 7.8582203272528971e-06 0.041247039203923468 0.52149711043415681 0.7524019632449559 1.3346862683093164e-08 0.016967637909961673 0.15441635049130248 86.208060422063369 0.45980284248255432 0.00027309442124974774 2.7746041499932645 0.0042248109364713344 0.0010123585156956352 0.005176127835659329 3.0352569116500687 1.8283413901797609e-05 10.977529533932927 0.00025708127508640487 0.0013792782766168246 2.5569946639225218 2.036923074217575e-07 49.086693656201028 0.00034719503222246825 0.1453202900934806 1.8630083213653562e-07 0.018459767838862037 0.0021396032447214548 87.352455589028168 0.057783165207240361 75.363618425193636 0.06396811258210798 1.128365915985978e-08 0.050153836967079903 0.044253269735332681 2.9498990316768096e-08 0.16793974308817056 8.9194959347374004e-08 0.015440092901844883 2.8754832656048652 3.9211758354820739e-06 19.838343867680049 0.00028566761141028018 0.00084184041475191993 0.014538747436200813 9.0