<?xml version="1.0"?>
<VTKFile type="UnstructuredGrid" version="0.1" byte_order="LittleEndian">
<UnstructuredGrid>
<Piece NumberOfPoints="568" NumberOfCells="1054">
<Points>
<DataArray type="Float64" NumberOfComponents="3" format="ascii">
0 0 0 0.049999999999899652 0 0 0.032369857048753323 0.032369857048862027 0 0.058433525112266523 0.058433525112214509 0 0 0.050000000000207989 0 0 0.10000000000041601 0 0.040058458469319477 0.094457855579157729 0 0.098076845682915317 0.099172414730993488 0 0.094457855579284614 0.040058458469418363 0 0.099999999999814668 0 0 0.056452228708379938 0.23456580837661581 0 0 0.20000000000083221 0 0.038839999600931263 0.17949825993190149 0 0 0.15000000000062411 0 0.054872692726595548 0.13410685639845171 0 0.089689702191541126 0.13851380458662241 0 0.12294765968567151 0.14825146416195439 0 0.08287507656968085 0.1788186348829835 0 0.099694771212264055 0.22074048840547039 0 0.15899695163321451 0.22783674912227669 0 0.12587517708284679 0.1889683322666954 0 0.16901316006868169 0.16800219386663079 0 0.18922011052115781 0.12644206653611201 0 0.22626394058331961 0.15465946819838111 0 0.20596721135052939 0.19972517895396219 0 0.2115548431873881 0.2417444767741872 0 0.18035159017842109 0.039190336535090492 0 0.14999999999970359 0 0 0.1383574446607988 0.058995933918849157 0 0.1484760565886207 0.1122209074004519 0 0.18172590289758209 0.08161197406129285 0 0.21720615046484709 0.1044394548351292 0 0.23167460333446299 0.05534377469531044 0 0.19999999999955789 0 0 0.24999999999941211 0 0 0.28320804985300141 0.050843339082505573 0 0.29999999999926641 0 0 0.32361955853288599 0.032799927825624707 0 0.36246243089534252 0.044218366607477223 0 0.34999999999912063 0 0 0.35582258519414178 0.085418764257258431 0 0.32242731191769902 0.068937933438140794 0 0.33076700644279272 0.1195922550481146 0 0.29506339503703888 0.1011380892434444 0 0.25714619498771307 0.1041399906845497 0 0.26318949769601319 0.14610173397257309 0 0.29914271679297122 0.15649620970120659 0 0.26017196519013502 0.20370391303005 0 0.30107969069289831 0.20280020009141189 0 0.28840285102268098 0.24960955320708811 0 0.33179683980498331 0.2223019939720311 0 0.33080167595110582 0.18179111300269291 0 0.3603074848216346 0.15401470087110539 0 0.3972892400718947 0.16563993209502181 0 0.43240736009008851 0.18205680965402779 0 0.41732862935313042 0.12986698634362279 0 0.38103425680679859 0.2047839516297037 0 0.42421838472613971 0.22246502005787769 0 0.46229330881044273 0.19890916456654811 0 0.49999999999997108 0.21968641114982909 0 0.45952001838826873 0.15666487330524251 0 0.46567857652706018 0.1143680615275231 0 0.47574662421782782 0.077626823840590969 0 0.48492433058289169 0.037321398276272413 0 0.49999999999869432 0 0 0.44999999999882923 0 0 0.44692795014265252 0.051801877645060238 0 0.40685581827241191 0.041139877312511682 0 0.3999999999989749 0 0 0.39061628640684498 0.081525103161991672 0 0.37516171960683908 0.121918126660369 0 0.43122735573933979 0.088176999192917438 0 0.42930823106401639 0.40626685012722968 0 0.39222057657781068 0.38067796690227418 0 0.39419886675318527 0.41912225240070788 0 0.37702386074717259 0.45819417564476811 0 0.41009598069569558 0.49083935749285379 0 0.42340342337193693 0.44762131874855388 0 0.46152714345798918 0.47344359412352599 0 0.46102425708533701 0.43254199134332588 0 0.46543211128216788 0.38788423543681888 0 0.49854341599767982 0.37075914768127122 0 0.47253211736503098 0.34081710830804929 0 0.48378871228000903 0.29745177826977359 0 0.45533136021725079 0.2525687312087147 0 0.43059486795334201 0.30395973419063538 0 0.39162098771181342 0.29503699292854563 0 0.40180462628983732 0.2561903397585753 0 0.43301393728221038 0.35984320557492139 0 0.39120887188745579 0.33407577688404289 0 0.34804757266227387 0.35750068079406011 0 0.3231032570156932 0.32141443408924047 0 0.3579628846738841 0.25683522786710378 0 0.35481435458309307 0.30398436674998969 0 0.32373692627050221 0.27286413781593999 0 0.29747949118041711 0.2964111573808435 0 0.26014443552207939 0.29262390443653519 0 0.25082138072344978 0.25770010742236849 0 0.28473805236128291 0.34355768118673757 0 0.25582605936799319 0.39507969989513358 0 0.2963043386970643 0.4298320229681446 0 0.30597655500381687 0.3934681685211931 0 0.35481422397128459 0.40312981465069342 0 0.33382663527330159 0.44130125047503482 0 0.33436424489304489 0.47849603121740791 0 0.29988655052531688 0.46700727827593119 0 0.26247584734598628 0.44764943295894732 0 0.262418491288269 0.49071922292154141 0 0.19218127164496679 0.46593838964869538 0 0.23232476702437141 0.46634525369567709 0 0.21968801783855879 0.43306783640023788 0 0.197169318452384 0.38703015239362498 0 0.17845774482872559 0.43087117257049429 0 0.14869578771858949 0.40481452396082068 0 0.1444847662218138 0.45353891581271188 0 0.16001314202358469 0.49771727055909287 0 0.22001518176882229 0.28602682846307981 0 0.19152147653881049 0.32791879770215432 0 0.2360419540479583 0.32191828326940741 0 0.22269553095687891 0.35837423432538801 0 0.15401470087117619 0.36030748482174652 0 0.14392209494791439 0.30620070203545702 0 0.1685376717739448 0.27232483159280108 0 0.1104775404132264 0.2631175359816938 0 0.099492119481027347 0.30746398533281638 0 0.073296788161418117 0.34226957089850552 0 0.11603400219493119 0.33748134585014028 0 0.033457646040922301 0.36364842331228431 0 0 0.35000000000145642 0 0.032220921767546963 0.32901489214487523 0 0.053730171687646627 0.28825077189828552 0 0 0.30000000000124832 0 0 0.25000000000104028 0 0.064893331803534807 0.48669777060454478 0 0.1091992745981364 0.48758069708049778 0 0.097100979577207341 0.43590673999053198 0 0.10935320311385981 0.37839190921727089 0 0.06053051438015096 0.39514626428972788 0 0 0.40000000000166441 0 0 0.45000000000187229 0 0.043612803661092707 0.44006111182840391 0 0.029444907164209121 0.47500000000196552 0 0 0.50000000000205869 0 0 0.55000000000173355 0 0.051801877645083663 0.55307204985745195 0 0.037321398276215258 0.51507566941747263 0 0.07762682384055844 0.52425337578226128 0 0.1143680615274819 0.53432142347292733 0 0.1219181266603569 0.62483828039315903 0 0.088176999192898689 0.56877264426067353 0 0.081525103161997597 0.6093837135931508 0 0.041139877312483641 0.59314418172763017 0 0 0.60000000000138687 0 0 0.65000000000104008 0 0.032357843506722522 0.67660040198578164 0 0.04421836660747535 0.63753756910470205 0 0 0.7000000000006934 0 0.04863291748797445 0.71789175274016204 0 0.091072812796719582 0.74198804864687795 0 0.099018722548963364 0.70475631558365193 0 0.085418764257258195 0.64417741480586865 0 0.068937933438162791 0.67757268808231053 0 0.1195922550481313 0.66923299355722787 0 0.1540147008710982 0.63969251517836956 0 0.1817911130026923 0.66919832404888702 0 0.13725179499972981 0.74154628962856628 0 0.1564962097012354 0.70085728320703999 0 0.20370391303007401 0.73982803480989479 0 0.2028002000914135 0.69892030930711557 0 0.249609553207091 0.71159714897732929 0 0.22230199397202771 0.66820316019503168 0 0.2047839516296828 0.61896574319320252 0 0.2224870800581388 0.57577541371134155 0 0.2196864111498267 0.50000000000003153 0 0.1989632851005598 0.53769147668950479 0 0.1566648733051971 0.54047998161174216 0 0.12986698634359389 0.58267137064684615 0 0.1656399320949789 0.60271075992809464 0 0.18205680965398621 0.56759263990989739 0 0.10000000000041601 1 0 0.094457855579188163 0.95994154153068711 0 0.050000000000207989 1 0 0 1 0 0.030452409610489669 0.96954759038951022 0 0 0.94999999999979179 0 0.058433525112254137 0.94156647488774581 0 0 0.89999999999958358 0 0.040058458469322648 0.90554214442079806 0 0.097990957645208238 0.90045039720880915 0 0.1229476596857173 0.85174853583809695 0 0.086813039193431391 0.81709574086842884 0 0.087041706119416085 0.85382799508926188 0 0.052469033166843738 0.86696410734366991 0 0 0.84999999999965292 0 0.043889462445437968 0.82675923981951283 0 0 0.79999999999999982 0 0 0.75000000000034661 0 0.052938001421335763 0.77688977118331159 0 0.11231692802445629 0.78020430794084028 0 0.16253691950235041 0.78284912262768558 0 0.24335844191347281 0.78651189793387466 0 0.20359074765364421 0.79422489417871855 0 0.22893929024737289 0.83990878992727813 0 0.17101873536300011 0.82898126463696109 0 0.1322615032692282 0.8130603300143705 0 0.14688274318541941 0.88962265630811932 0 0.1817259028976386 0.91838802593888857 0 0.18958721034944021 0.87660297360394568 0 0.22131139331094829 0.9041449437198319 0 0.23222643817617661 0.94420751116970569 0 0.20000000000083221 1 0 0.18045991219397989 0.960710939969875 0 0.13834721989462789 0.94095916274077984 0 0.15000000000062411 1 0 0.35000000000145642 1 0 0.36363861612613613 0.96654491682121313 0 0.32894624184180998 0.96779701826738929 0 0.30000000000124832 1 0 0.25000000000104028 1 0 0.28790752038294382 0.94635952848702642 0 0.26305414557470391 0.88949062093136155 0 0.30738136326657722 0.90051880305435028 0 0.33748026778199908 0.88396545633134682 0 0.3422695708985129 0.92670321183858773 0 0.36030748482174152 0.84598529912882459 0 0.30619531169472608 0.85607519768342955 0 0.27254997832041528 0.8312019486901443 0 0.28602682846308641 0.77998481823117594 0 0.32191828326940508 0.76395804595204586 0 0.32791879770213411 0.80847852346120164 0 0.35837423432538362 0.77730446904312345 0 0.38703015239361932 0.80283068154761972 0 0.43306783640023289 0.78031198216144404 0 0.46634612187967051 0.76767585524061377 0 0.46593838964869061 0.80781872835503554 0 0.49771727055908782 0.83998685797641781 0 0.45353891581270822 0.85551523377818905 0 0.43087117257049001 0.8215422551712771 0 0.40481452396081791 0.85130421228141606 0 0.37839190921727062 0.89064679688614412 0 0.43590673999053309 0.90289902042279657 0 0.48758069708049379 0.89080072540186539 0 0.48669777060454272 0.93510666819646593 0 0.44006111182840962 0.9563871963389079 0 0.47500000000196563 0.970555092835793 0 0.45000000000187229 1 0 0.39514626428973221 0.93946948561985189 0 0.40000000000166441 1 0 0.33231497408081678 0.60779218732873663 0 0.37104651296145419 0.60545170748311072 0 0.35984320557492089 0.5669
[...]
<CellData Scalars="pressure_p0," Vectors="velocity_p0," Tensors="">
<DataArray type="Float64" Name="pressure_p0" format="ascii">
2.235158878923334e-08 6.0236094263202546e-09 4.7449885145215988e-08 2.3532401421485418e-08 7.636115088726635e-09 7.4338454529452263e-09 2.6758833184152998e-08 9.2183397414970411e-08 1.6713786958789222e-07 8.8537459769640452e-08 1.5398634056115372e-07 6.7336738041961729e-07 4.0829932521211051e-07 5.3882750672963065e-07 1.8155122374225357e-07 9.5446028551923216e-08 1.0306018855042586e-08 5.8389802809679263e-08 2.1245154832618083e-08 6.016239705433726e-08 5.9429177829890614e-09 2.116838317269504e-08 2.3838862099543952e-08 1.1493969511118942e-07 2.6103559767865146e-07 3.2504422132946513e-07 4.1772885648728837e-07 1.2159881462482769e-07 2.9156333095018854e-07 6.2460411526447378e-07 1.8581766488985798e-07 4.178698823339971e-06 7.7418569270026216e-07 1.7078066487608151e-06 4.1464961286779274e-06 1.1225901405819496e-06 1.5312104603435382e-06 3.1937133237823956e-06 1.3397711975165895e-05 8.0551337779912481e-06 4.349033995248102e-05 2.47857419766523e-05 4.3590542724153055e-05 9.6474050511656305e-06 2.0854968616154411e-05 3.301287951599816e-05 7.0806113117419895e-06 3.1878857931874429e-06 4.6107824685141527e-06 8.501890032516348e-07 2.1932691591092713e-06 2.1004007077640533e-06 8.2588433112217415e-07 3.6716730007290021e-06 1.3387650552170447e-05 7.858341899615988e-06 2.6367816558957691e-05 2.8398241212278634e-05 8.8867656675001046e-06 1.0934017764999172e-05 2.239196513467838e-05 0.00011061539153727902 5.3818602774855236e-05 0.00029803699174437315 0.0002371486747012019 0.00047826798481462963 0.00064615437137753942 0.0008637316106782293 0.0017687499810189185 0.0018844350562055041 0.001082433628361116 0.0016402294966957082 0.00087430990882853455 0.00062678222037387626 0.00034719679224172429 0.00021808838765456363 0.00010987157091957878 5.7978127026209355e-05 8.8457288092088336e-05 9.091793364197223e-05 0.00028566927694826695 0.00027158812017588835 0.00013510136124281763 7.0712063952867223e-05 0.00012022366052230587 0.00013783153384578359 0.00025708303215502047 0.00032378157925512773 0.00039669277321589884 0.0008705968502099445 0.0011226980882777188 0.00069792278768783045 0.00038868805044292131 0.0011612739289700001 0.0011292670502155197 0.0035570821799334102 0.0020647273300227862 0.0042557932127858305 0.0021641260163447673 0.0059649534197625921 0.010496961691005745 0.0039301871548751959 0.0021181654343587265 0.0054965899065238044 0.0079058280204148332 0.013564014659800259 0.011207757508942305 0.038669173395244269 0.02552462220888994 0.038445299387570256 0.014591958290359764 0.015466902091221564 0.027651292542875648 0.045351206947364144 0.028956865590709396 0.036307453222710263 0.011045805658406654 0.018459783092398117 0.015440106458884911 0.042365251957637746 0.02435373504195943 0.031395240900683401 0.019619175023961849 0.0082070490503884964 0.006681142439165566 0.010013402384183995 0.0030452602081699138 0.002666850124306445 0.003318180893811749 0.005525292113864896 0.0049107367128754806 0.0057203845803754476 0.0062250432454092532 0.0021396176021729646 0.0042749944210395173 0.0018447883062305346 0.0035747175034814655 0.0041882046995745841 0.0022525088682154816 0.0089453865597938342 0.013953298545958101 0.011778042737217413 0.025875280798648669 0.040908761108589493 0.028496994187237463 0.041733797970782784 0.029094785012838964 0.010388266655797247 0.015258937020517799 0.011853073947464465 0.040190371886950391 0.046808634633073956 0.03034055783775854 0.041247125105257285 0.012761437903812624 0.020427962594138607 0.017395292029494067 0.03326613234545775 0.017214627849973158 0.0084649930750456074 0.0047103023686509253 0.0042248289519561527 0.0021046767044229473 0.002431345257422736 0.0062980377504222064 0.0043689137151989212 0.0020102143981678205 0.0003126154766132251 0.00037486648613009209 0.0013779651230457312 0.0007184790641289431 0.00079849953830555729 0.0015078198925534067 0.0003158694045914339 0.00055697331512009581 0.00063090197671458682 0.00011131020776391155 0.00022091857601275701 0.00010453270300539794 6.9370076040709531e-05 0.00020494364433746852 5.7274323942233722e-05 5.1416432093101395e-05 8.0868119211631586e-05 0.00028862691706366437 0.0001363992475977684 0.00011997320925313396 0.00061042721305595805 0.00052584362776745761 0.0010432795194084839 0.0013792883702211036 0.0010902382046892502 0.00084184791686484886 0.00039174233064109403 0.00013851244699317975 0.00028340248086745613 0.00012779925928982816 0.00026377013581479244 4.3221361744174802e-05 8.8453113822814904e-05 2.692064788238486e-05 5.7917374753625433e-06 1.2530951460770385e-05 6.8789776817305798e-06 1.2578651982839394e-05 2.721200450465604e-05 3.7138732237161275e-05 1.9080948145225412e-05 1.8762054284719055e-05 7.6322001999210678e-06 1.764166503726427e-06 3.5408644376331727e-06 2.6180943661873765e-06 9.6823209406074376e-07 7.1568708569885887e-07 9.195973267104782e-07 2.3471394034241965e-06 2.98739136416877e-06 8.2370231131196023e-06 3.4792177701780138e-05 1.9769257140796496e-05 2.8698036680455404e-05 1.377172608447462e-05 6.4195589800533819e-06 1.4308537253353633e-05 4.0028469445796056e-05 8.7717679823875325e-06 4.2018694822035899e-06 6.3633785918358164e-07 9.5573750342961405e-07 2.2594545102164949e-06 2.748029507051471e-06 1.1146271700481699e-06 1.3975210225311957e-06 1.0559104892056427e-07 4.7486952016555049e-07 1.7381512584567944e-07 9.5484930426551997e-08 5.0190109963154563e-07 2.1197682902787216e-07 2.4798364838214905e-07 1.223701622811115e-07 3.1817224026866613e-08 4.8507127760498099e-08 4.6774310609875678e-09 1.0763619356558315e-08 4.6320504472895244e-09 4.188114514245809e-08 1.6525627339044656e-08 9.577626884809015e-09 2.7423142855480247e-08 7.6678635962716281e-08 1.6484516845305301e-07 1.3381571643727286e-07 4.1251485467293195e-07 4.7021172577421579e-07 1.67492881110491e-07 7.4330497325897985e-08 2.2467749193999902e-08 1.8705590904765744e-08 6.8749571887425458e-09 1.3347796476269655e-08 3.2784917415438203e-08 2.9500922976896994e-08 4.3373372394288164e-09 1.128446038239538e-08 5.4537264704319303e-09 1.6768180444109975e-08 5.7011296207270903e-08 4.7848529234017885e-08 8.9199758531152047e-08 1.8630980290110121e-07 3.5209139939119165e-07 2.5108677278807215e-07 3.6671308234122155e-07 2.3986474337093058e-07 8.5266349798364564e-08 4.3492520240275497e-08 5.7450302502811627e-08 1.8223818000117211e-08 5.6865391777204215e-09 1.4710971891961533e-08 1.267645627583045e-08 6.4590263712589266e-09 4.3291382275129756e-09 3.2401254651219419e-08 7.6131348225439308e-09 1.4145056181096121e-08 3.5342833973420947e-08 2.1367102963395317e-08 6.5251426187864698e-08 1.2363981542801136e-07 8.4368934476674718e-08 3.4917409821302612e-07 7.6183710002964572e-08 6.4549793094807229e-08 1.6764421347009777e-07 2.0370084355366255e-07 1.9110227244345573e-07 3.0808000377530419e-07 6.7508309222461861e-07 1.569316773253839e-06 1.554696474692113e-06 4.1753365040825162e-06 2.8009102987596137e-06 5.8502978684969958e-07 8.0172037924892965e-07 3.9212671523308624e-06 5.6539609087887991e-06 1.5281018336727808e-05 1.8283711796163942e-05 2.9939581113041844e-05 8.5937087967311594e-06 8.3439666773443403e-06 4.0075205545907787e-05 1.9558483209231449e-05 3.0372800229828304e-05 1.9691996431247692e-05 8.5301518772563205e-06 3.356713447034248e-05 1.8382939666449588e-05 3.4736315829895569e-05 1.8153613985542168e-05 6.5956869632613067e-06 7.9299614427814489e-06 3.8071763645731516e-06 3.0166080758401544e-06 1.1833252355381638e-06 6.6229078397985652e-07 7.6325013744671144e-07 1.7701006645425257e-06 9.5388358584474696e-07 1.2956273692091913e-06 4.6013636095797933e-06 3.3622887057038962e-06 2.0629053494195214e-06 5.1897582165791769e-07 9.1779650069658778e-08 1.7461455156150734e-07 4.4501405491388068e-08 5.4556167103627099e-09 2.0707966763183579e-08 2.2125542759265228e-08 2.5923583360092814e-08 7.421362430953989e-09 7.2807054967767522e-09 8.4241860117282831e-08 8.9320455074141553e-08 1.611043549450674e-07 3.9329999856311153e-07 6.5322283666416032e-07 3.0858656359971543e-07 4.6435147794767429e-07 2.6071042666680421e-07 1.0571990323199172e-07 1.4309906767008637e-07 6.5639822704226528e-08 2.1601270158874545e-08 2.2464997626899879e-08 6.9697462854800966e-09 6.1939988228995999e-08 2.0878554745292658e-08 8.9043667214732076e-09 1.6103345105203001e-07 1.5260700229485123e-07 3.8762773055356113e-07 4.2641780035881665e-07 3.0765102776629083e-06 1.0191871356303015e-06 1.8709552084203307e-06 9.5555102431975664e-07 4.0863745864862709e-06 6.2306891954378154e-06 1.4337311979438447e-05 2.7140403423471527e-05 1.9727423029936431e-05 1.3845501790888907e-05 9.5390459244140735e-06 4.0986732843167922e-05 8.2206089430207494e-06 3.1478792261285404e-06 1.2112864957688865e-06 1.5247673095049414e-06 7.788740753953603e-07 1.9776381186344115e-06 3.4617969778397171e-06 7.898759913639799e-06 2.9169243352925672e-05 3.1208444272333437e-05 1.4114341256966767e-05 8.8177078726103415e-06 1.0615198293194835e-05 2.1512070628595491e-05 4.431239369613766e-06 2.1205530079860166e-06 3.1227080279881806e-06 8.1949037784886982e-07 0.00089028914687864461 0.0017817405068137945 0.00082470979199188469 0.0015749978151643469 0.00040673937591896391 0.00048465189081513493 0.0002493089664534051 0.00010961000830558956 5.4105562947486747e-05 0.00013919996980018502 6.3534842416985486e-05 0.00016542177875860444 0.00034887765088365024 0.0005213799183702545 0.00032612394791775633 0.0018618014474143336 0.0010284713033041747 0.0012242969455132347 0.0012385626443662948 0.00055620595971451385 0.00061824419972830377 5.0460486843410578e-05 0.00011148461417793338 0.00023126714701344884 0.00029621152370355638 0.00018568736983526487 7.7136576348070792e-05 0.00010529878611350046 6.3516017316301001e-05 0.00020261505614083057 0.00071243239451977485 0.00059331472882910802 0.0011920434198268845 0.0022322091064755486 0.0044132132219892864 0.006268660898378158 0.0078389387180431737 0.0145387751680546 0.037262991176120273 0.039048463483954035 0.030000577477252471 0.017116565914883045 0.012533070623686943 0.01500357571116622 0.026597192810668035 0.03254976661762584 0.0093685686230975569 0.0088157711120346906 0.0047089000869097834 0.0024740983826924785 0.0023108680242114811 0.0044177093593775821 0.0076629773471157108 0.0048256563988009057 0.019156104343807739 0.05224211165198181 0.02589429932726273 0.017096213790127119 0.023696781679705028 0.044253303184437563 0.029395914798925039 0.050153870651675876 0.016967659716298454 0.0088200246828838182 0.0053046096698968273 0.0026865821912976668 0.00053809143502344943 0.0010412526708802662 0.0010123655738506101 0.0016585464936149856 0.00087158139756575643 0.00051412580155157429 0.00054139288303843103 0.0002812586567051288 0.00052236810380432662 0.00013096727642655255 8.2678836436662564e-05 7.975097506790752e-05 0.00012747599038598351 0.00027631002897616943 0.00027309711782048691 7.416632192042045e-05 0.00010112054694485871 4.2710602788789101e-05 0.00020478669931693453 0.00019021434371220948 0.00013126228928170814 7.4007798471124354e-05 0.00011820425892118875 8.8567894279830954e-05 0.00030301211431449083 0.00039208381382010082 0.00039410334611241502 0.001912103752485495 0.0014641574459707983 0.0012712576042328075 0.0006948684829238543 0.00055139732654972641 0.00048092810838358508 0.0030023571832523211 0.0023640941046667919 0.0073966748420711279 0.0044058446566655031 0.0097590168985436931 0.00707111510909507 0.0040836784011935665 0.0074212614757102509 0.024183333968490258 0.024359007501099324 0.014008263806976295 0.013233033522320184 0.042571028816781382 0.018149944947282833 0.020419218980246082 0.037586299565767679 0.032637469541321136 0.037465313488098631 0.026901804994439532 0.021763100064586188 0.010621364459259836 0.00662939344937203 0.0085463899810586091 0.0020196628940585609 0.002094944494836091 0.0031892382913425595 0.0028291856164809398 0.0026297172451921263 0.0084532687932977225 0.0051761525379276415 0.0067019279045746659 0.016626111027788167 0.017003547882160647 0.030432331217651938 0.10315618464457245 0.057259377002973295 0.1787292258920869 0.21408099426151161 0.29198403094916536 0.33260273291027259 0.40418248384488542 0.46619737798485128 0.75702070959996948 0.62777612384015935 0.52523052887943578 0.35799487579393785 0.20500271121273345 0.15809201457482364 0.083274825781007866 0.052557537914377464 0.070991097257781161 0.053021655435694773 0.086853941518230671 0.20599520344583985 0.13411798035560787 0.1293978133443808 0.080171759097157874 0.1409960856370199 0.14939275686148401 0.2772067776983469 0.43066372873146064 0.45980304387410476 0.76507266112296757 0.70518667786699285 0.33807946614514356 0.46146207147812401 0.82826449433827132 2.7493500972730063 2.4815989436039616 1.0320908266323445 1.5923946919968825 1.4926290749505198 0.96115680556547878 1.8463763963533264 2.6060585742744964 1.7373508386732668 3.1987346988052505 4.5225440594485189 4.6094121536466561 5.8615688291227785 3.2785408229456676 6.4580791025307178 7.1681029505296925 4.2298542625613313 4.5835046572942213 5.372735817668433 7.3266392476164244 5.0915489965070453 4.1580879200127914 4.1336080317540294 2.7399201797581059 2.4577229769787041 1.9660023700722555 1.187082088582033 1.2771494748627807 0.89475483947631895 1.122954418767127 1.8655209972506661 2.536474584597221 2.1385673824545406 0.63458811081873667 0.67117088655073576 0.27541499598041447 0.2421052792283909 0.34833798950289918 0.13700475853045765 0.091753770935350878 0.10966915677190538 0.065188583571391553 0.14532034905690414 0.16793980016103943 0.077286463410470449 0.22780461595513773 0.38449442398628497 0.41319406934243896 0.57183103061086338 0.80483434745722093 0.54396411074449302 0.774278243917363 0.47896739838962743 0.36138232639114559 0.23242707322978623 0.18399582263897718 0.062181303405480413 0.09473764044128441 0.095975911601048763 0.16521414918519928 0.21904670318500247 0.068720032260280978 0.070818585299888201 0.10190289628748021 0.18232990882017436 0.28851095754763739 0.39628897571942001 0.75902018679628847 0.48799526803765325 1.2147780567739821 1.4541350211440722 2.3607388124695716 2.6450063984775625 3.0352571624210474 5.8836125110704689 4.2450856817124976 4.4960525485384428 2.875483470612739 5.34032954022351 4.3898571762433285 2.9364275398609037 2.3976675133076237 1.6526217144873212 1.2025096817518433 1.2582512908314432 1.2910821337798752 0.86815514508789882 1.4655537113783859 0.94447049964168439 1.7780390322248825 2.5569947798132664 5.4984903634433806 4.840482250708134 7.1668330951246917 3.4127255355086024 2.9175313855098519 7.4986444555827365 4.9897056032841967 3.336135785727083 2.259731254371562 1.8101462441762635 1.5227008786912188 0.93007211179382521 36.872865365452981 28.245973938277373 27.877846494314969 21.546442804598584 11.144660527371162 17.004420181688314 15.818857614474613 13.805850659867524 9.7101894880144499 8.1299500746383409 16.186956974268043 25.671634907022444 21.831191962007694 23.271043558189273 36.751253199722029 34.902177493852477 30.724286824566295 33.625675395289782 22.916719020875846 13.89872650617237 17.30444625541066 8.1681098620343313 9.9497861671263976 15.966271539266874 10.637373392327344 10.847107918585808 8.6482635263357359 17.020531945546068 36.785033627833876 19.893106971373019 20.268801488528023 27.959609566644595 38.525428135880219 47.402279512281737 57.796376833416261 53.335039725473919 89.422513694468066 67.325166042655908 82.083727682841172 66.748972258183386 81.453331195444363 92.482528755337128 81.350406896378104 54.985696215957709 52.214611006986317 45.319402209457238 39.38875093107329 43.462510103991285 63.756362913647735 54.685157608019622 63.663955851381971 92.356289902832501 92.359657904466559 81.487539954498118 82.871870996939123 93.821105795896415 84.483404478408275 73.740923962746493 56.139261172459982 62.830491923848456 41.273991338417275 26.267202066406671 21.378503155348852 23.573820161019842 32.739928559935493 35.36959213606508 32.547709520904526 23.869178717381686 22.169155736100812 16.147707141712374 12.69207124481588 17.572477170173958 12.699856844088082 9.1164568791253373 9.0856713645220584 8.1145047959744563 15.841765549045753 11.218855870915357 11.027796999596903 7.9282961205300602 12.378790876589287 14.717730790701049 10.485928475599417 8.378723794776743 9.0199230578384917 16.848897724811135 12.518090289034633 15.30792605205988 23.10012256205496 29.77311289736673 31.51452107296744 19.742825272476491 24.462581550111278 32.440189189497559 36.680451972684835 47.693587999373406 49.110155762244389 39.208510997026529 58.88707507515668 56.213195411075269 40.027859675878936 53.09752396258105 60.195886060712134 79.539905444344996 83.801857190871573 89.842039217779245 68.996146027352097 73.98993722300483 70.401881395852982 93.856708538069284 93.615330802428716 87.535041593604774 91.720301959069701 80.465979011651783 82.295302362829261 52.510493657171736 63.208905849351723 39.845575312879525 40.386155327642768 62.461237465640387 54.823658107178481 51.847236453716548 75.36361929424767 74.263616609629835 86.208060902546336 87.352456130992834 94.395042044749474 92.891016378810463 83.175950878351514 69.059856969532788 66.794000748240933 83.886983922671675 82.4994248506882 92.158358712191358 66.336470017478277 69.160638909332789 61.395763272790013 47.43483788360529 42.919409944267372 60.040809962594388 42.599765862778852 50.10607649864896 47.294816816474487 36.21922010932056 30.588492373647078 22.176923262639935 20.150678604877307 33.9768136896285 26.591254986482209 32.162437764338456 29.419246300859733 18.969069864471571 21.346481787646649 25.721866367337391 14.839009565485597 10.603985435204839 9.029253809199167 8.3392377521901491 11.057099482823649 11.280050364049314 8.2671108206143202 17.144439310937535 15.192227235574222 12.08977077413434 18.240352159732449 9.3066218104261225 10.977530697709323 7.8175631782691388 10.583337210280989 14.887547139485898 14.939353076256248 19.993095822713975 34.628119942907901 27.995224175056801 27.721476532212044 33.887519680728374 37.030301122254976 19.838345152221944 23.102538699410744 40.389134225185344 59.865281889124063 54.3424194432055 61.763987792835636 48.952320009043788 43.368267424048788 49.086694771022863 51.185933378092187 63.319520817720004 61.285735213769399 72.771858076681568 93.744658458021249 85.442927329522234 91.60156270406533 80.121084708569725 71.587145224326406 84.205040442421804 90.360553484652939 89.517753679635263 82.205437139143697 67.459113438995075 92.508514032160619 81.367894769384463 81.491184813023125 66.796138636067326 52.025829528794695 54.719068745319142 44.636399113671182 45.726153509365894 38.93344149201895 53.116783822239285 56.566642927496304 73.752091920158904 93.82366693152558 84.489922164397854 82.879079106438496 81.495383612445465 92.363077251990262 92.360009408010171 63.750523622507544 39.245516342022142 43.409682327564795 37.6329926451495 54.765114930467497 63.835322632881962 62.846881191784568 41.298745020279014 56.157889661905031 21.054728287941732 27.170795099263515 36.776270142862174 24.353119100634885 28.416412254711847 35.869202359315857 26.868880646396128 21.99989826315834 16.238130853286652 9.1615430681676884 8.8988139582444372 13.353383735885638 14.647741377094512 16.126759730319492 10.502486371351416 21.436286627822177 23.268344742170136 18.569055075028373 33.693157089312663 28.507316803647257 35.940598966213699 33.391963237934405 30.879115606125115 23.010683673501873 15.829909238139496 16.606262303591901 13.039018413277674 7.9181553195999266 11.233976651008964 12.621756090200574 9.6628775670511864 4.8237805453560947 6.3777041568551054 3.3742384231881628 3.7226977196308737 2.7508024961510582 5.913268461756326 4.7093132183504745 7.0883725060822158 3.2964198368693962 1.9726302273070924 1.8529466481269845 1.1631093534942052 1.1880003577855325 1.1910974126439553 1.62001969050268 1.7744929072337405 3.117637927941697 4.7844790363805929 6.7922439632995726 4.2863236515432739 6.3061950111429921 3.8671953380667392 2.5300967445428006 2.0392409609128102 1.3158087844