<?xml version="1.0"?>
<VTKFile type="UnstructuredGrid" version="0.1" byte_order="LittleEndian">
<UnstructuredGrid>
<Piece NumberOfPoints="568" NumberOfCells="1054">
<Points>
<DataArray type="Float64" NumberOfComponents="3" format="ascii">
0 0 0 0.049999999999899652 0 0 0.032369857048753323 0.032369857048862027 0 0.058433525112266523 0.058433525112214509 0 0 0.050000000000207989 0 0 0.10000000000041601 0 0.040058458469319477 0.094457855579157729 0 0.098076845682915317 0.099172414730993488 0 0.094457855579284614 0.040058458469418363 0 0.099999999999814668 0 0 0.056452228708379938 0.23456580837661581 0 0 0.20000000000083221 0 0.038839999600931263 0.17949825993190149 0 0 0.15000000000062411 0 0.054872692726595548 0.13410685639845171 0 0.089689702191541126 0.13851380458662241 0 0.12294765968567151 0.14825146416195439 0 0.08287507656968085 0.1788186348829835 0 0.099694771212264055 0.22074048840547039 0 0.15899695163321451 0.22783674912227669 0 0.12587517708284679 0.1889683322666954 0 0.16901316006868169 0.16800219386663079 0 0.18922011052115781 0.12644206653611201 0 0.22626394058331961 0.15465946819838111 0 0.20596721135052939 0.19972517895396219 0 0.2115548431873881 0.2417444767741872 0 0.18035159017842109 0.039190336535090492 0 0.14999999999970359 0 0 0.1383574446607988 0.058995933918849157 0 0.1484760565886207 0.1122209074004519 0 0.18172590289758209 0.08161197406129285 0 0.21720615046484709 0.1044394548351292 0 0.23167460333446299 0.05534377469531044 0 0.19999999999955789 0 0 0.24999999999941211 0 0 0.28320804985300141 0.050843339082505573 0 0.29999999999926641 0 0 0.32361955853288599 0.032799927825624707 0 0.36246243089534252 0.044218366607477223 0 0.34999999999912063 0 0 0.35582258519414178 0.085418764257258431 0 0.32242731191769902 0.068937933438140794 0 0.33076700644279272 0.1195922550481146 0 0.29506339503703888 0.1011380892434444 0 0.25714619498771307 0.1041399906845497 0 0.26318949769601319 0.14610173397257309 0 0.29914271679297122 0.15649620970120659 0 0.26017196519013502 0.20370391303005 0 0.30107969069289831 0.20280020009141189 0 0.28840285102268098 0.24960955320708811 0 0.33179683980498331 0.2223019939720311 0 0.33080167595110582 0.18179111300269291 0 0.3603074848216346 0.15401470087110539 0 0.3972892400718947 0.16563993209502181 0 0.43240736009008851 0.18205680965402779 0 0.41732862935313042 0.12986698634362279 0 0.38103425680679859 0.2047839516297037 0 0.42421838472613971 0.22246502005787769 0 0.46229330881044273 0.19890916456654811 0 0.49999999999997108 0.21968641114982909 0 0.45952001838826873 0.15666487330524251 0 0.46567857652706018 0.1143680615275231 0 0.47574662421782782 0.077626823840590969 0 0.48492433058289169 0.037321398276272413 0 0.49999999999869432 0 0 0.44999999999882923 0 0 0.44692795014265252 0.051801877645060238 0 0.40685581827241191 0.041139877312511682 0 0.3999999999989749 0 0 0.39061628640684498 0.081525103161991672 0 0.37516171960683908 0.121918126660369 0 0.43122735573933979 0.088176999192917438 0 0.42930823106401639 0.40626685012722968 0 0.39222057657781068 0.38067796690227418 0 0.39419886675318527 0.41912225240070788 0 0.37702386074717259 0.45819417564476811 0 0.41009598069569558 0.49083935749285379 0 0.42340342337193693 0.44762131874855388 0 0.46152714345798918 0.47344359412352599 0 0.46102425708533701 0.43254199134332588 0 0.46543211128216788 0.38788423543681888 0 0.49854341599767982 0.37075914768127122 0 0.47253211736503098 0.34081710830804929 0 0.48378871228000903 0.29745177826977359 0 0.45533136021725079 0.2525687312087147 0 0.43059486795334201 0.30395973419063538 0 0.39162098771181342 0.29503699292854563 0 0.40180462628983732 0.2561903397585753 0 0.43301393728221038 0.35984320557492139 0 0.39120887188745579 0.33407577688404289 0 0.34804757266227387 0.35750068079406011 0 0.3231032570156932 0.32141443408924047 0 0.3579628846738841 0.25683522786710378 0 0.35481435458309307 0.30398436674998969 0 0.32373692627050221 0.27286413781593999 0 0.29747949118041711 0.2964111573808435 0 0.26014443552207939 0.29262390443653519 0 0.25082138072344978 0.25770010742236849 0 0.28473805236128291 0.34355768118673757 0 0.25582605936799319 0.39507969989513358 0 0.2963043386970643 0.4298320229681446 0 0.30597655500381687 0.3934681685211931 0 0.35481422397128459 0.40312981465069342 0 0.33382663527330159 0.44130125047503482 0 0.33436424489304489 0.47849603121740791 0 0.29988655052531688 0.46700727827593119 0 0.26247584734598628 0.44764943295894732 0 0.262418491288269 0.49071922292154141 0 0.19218127164496679 0.46593838964869538 0 0.23232476702437141 0.46634525369567709 0 0.21968801783855879 0.43306783640023788 0 0.197169318452384 0.38703015239362498 0 0.17845774482872559 0.43087117257049429 0 0.14869578771858949 0.40481452396082068 0 0.1444847662218138 0.45353891581271188 0 0.16001314202358469 0.49771727055909287 0 0.22001518176882229 0.28602682846307981 0 0.19152147653881049 0.32791879770215432 0 0.2360419540479583 0.32191828326940741 0 0.22269553095687891 0.35837423432538801 0 0.15401470087117619 0.36030748482174652 0 0.14392209494791439 0.30620070203545702 0 0.1685376717739448 0.27232483159280108 0 0.1104775404132264 0.2631175359816938 0 0.099492119481027347 0.30746398533281638 0 0.073296788161418117 0.34226957089850552 0 0.11603400219493119 0.33748134585014028 0 0.033457646040922301 0.36364842331228431 0 0 0.35000000000145642 0 0.032220921767546963 0.32901489214487523 0 0.053730171687646627 0.28825077189828552 0 0 0.30000000000124832 0 0 0.25000000000104028 0 0.064893331803534807 0.48669777060454478 0 0.1091992745981364 0.48758069708049778 0 0.097100979577207341 0.43590673999053198 0 0.10935320311385981 0.37839190921727089 0 0.06053051438015096 0.39514626428972788 0 0 0.40000000000166441 0 0 0.45000000000187229 0 0.043612803661092707 0.44006111182840391 0 0.029444907164209121 0.47500000000196552 0 0 0.50000000000205869 0 0 0.55000000000173355 0 0.051801877645083663 0.55307204985745195 0 0.037321398276215258 0.51507566941747263 0 0.07762682384055844 0.52425337578226128 0 0.1143680615274819 0.53432142347292733 0 0.1219181266603569 0.62483828039315903 0 0.088176999192898689 0.56877264426067353 0 0.081525103161997597 0.6093837135931508 0 0.041139877312483641 0.59314418172763017 0 0 0.60000000000138687 0 0 0.65000000000104008 0 0.032357843506722522 0.67660040198578164 0 0.04421836660747535 0.63753756910470205 0 0 0.7000000000006934 0 0.04863291748797445 0.71789175274016204 0 0.091072812796719582 0.74198804864687795 0 0.099018722548963364 0.70475631558365193 0 0.085418764257258195 0.64417741480586865 0 0.068937933438162791 0.67757268808231053 0 0.1195922550481313 0.66923299355722787 0 0.1540147008710982 0.63969251517836956 0 0.1817911130026923 0.66919832404888702 0 0.13725179499972981 0.74154628962856628 0 0.1564962097012354 0.70085728320703999 0 0.20370391303007401 0.73982803480989479 0 0.2028002000914135 0.69892030930711557 0 0.249609553207091 0.71159714897732929 0 0.22230199397202771 0.66820316019503168 0 0.2047839516296828 0.61896574319320252 0 0.2224870800581388 0.57577541371134155 0 0.2196864111498267 0.50000000000003153 0 0.1989632851005598 0.53769147668950479 0 0.1566648733051971 0.54047998161174216 0 0.12986698634359389 0.58267137064684615 0 0.1656399320949789 0.60271075992809464 0 0.18205680965398621 0.56759263990989739 0 0.10000000000041601 1 0 0.094457855579188163 0.95994154153068711 0 0.050000000000207989 1 0 0 1 0 0.030452409610489669 0.96954759038951022 0 0 0.94999999999979179 0 0.058433525112254137 0.94156647488774581 0 0 0.89999999999958358 0 0.040058458469322648 0.90554214442079806 0 0.097990957645208238 0.90045039720880915 0 0.1229476596857173 0.85174853583809695 0 0.086813039193431391 0.81709574086842884 0 0.087041706119416085 0.85382799508926188 0 0.052469033166843738 0.86696410734366991 0 0 0.84999999999965292 0 0.043889462445437968 0.82675923981951283 0 0 0.79999999999999982 0 0 0.75000000000034661 0 0.052938001421335763 0.77688977118331159 0 0.11231692802445629 0.78020430794084028 0 0.16253691950235041 0.78284912262768558 0 0.24335844191347281 0.78651189793387466 0 0.20359074765364421 0.79422489417871855 0 0.22893929024737289 0.83990878992727813 0 0.17101873536300011 0.82898126463696109 0 0.1322615032692282 0.8130603300143705 0 0.14688274318541941 0.88962265630811932 0 0.1817259028976386 0.91838802593888857 0 0.18958721034944021 0.87660297360394568 0 0.22131139331094829 0.9041449437198319 0 0.23222643817617661 0.94420751116970569 0 0.20000000000083221 1 0 0.18045991219397989 0.960710939969875 0 0.13834721989462789 0.94095916274077984 0 0.15000000000062411 1 0 0.35000000000145642 1 0 0.36363861612613613 0.96654491682121313 0 0.32894624184180998 0.96779701826738929 0 0.30000000000124832 1 0 0.25000000000104028 1 0 0.28790752038294382 0.94635952848702642 0 0.26305414557470391 0.88949062093136155 0 0.30738136326657722 0.90051880305435028 0 0.33748026778199908 0.88396545633134682 0 0.3422695708985129 0.92670321183858773 0 0.36030748482174152 0.84598529912882459 0 0.30619531169472608 0.85607519768342955 0 0.27254997832041528 0.8312019486901443 0 0.28602682846308641 0.77998481823117594 0 0.32191828326940508 0.76395804595204586 0 0.32791879770213411 0.80847852346120164 0 0.35837423432538362 0.77730446904312345 0 0.38703015239361932 0.80283068154761972 0 0.43306783640023289 0.78031198216144404 0 0.46634612187967051 0.76767585524061377 0 0.46593838964869061 0.80781872835503554 0 0.49771727055908782 0.83998685797641781 0 0.45353891581270822 0.85551523377818905 0 0.43087117257049001 0.8215422551712771 0 0.40481452396081791 0.85130421228141606 0 0.37839190921727062 0.89064679688614412 0 0.43590673999053309 0.90289902042279657 0 0.48758069708049379 0.89080072540186539 0 0.48669777060454272 0.93510666819646593 0 0.44006111182840962 0.9563871963389079 0 0.47500000000196563 0.970555092835793 0 0.45000000000187229 1 0 0.39514626428973221 0.93946948561985189 0 0.40000000000166441 1 0 0.33231497408081678 0.60779218732873663 0 0.37104651296145419 0.60545170748311072 0 0.35984320557492089 0.5669
[...]
<CellData Scalars="pressure_p0," Vectors="velocity_p0," Tensors="">
<DataArray type="Float64" Name="pressure_p0" format="ascii">
2.4097829186090792e-13 4.2975263634855293e-14 5.9268654973381808e-13 2.4256343241863479e-13 5.805403248293052e-14 5.4842457447747525e-14 2.6605696203471585e-13 1.3447003893286224e-12 2.9754275686607921e-12 1.2863206230775667e-12 2.7328007323224098e-12 2.0607508423473263e-11 9.748768108482923e-12 1.6168098023258343e-11 3.8248445107866002e-12 1.4189061582963793e-12 6.2495542586402297e-14 5.62033560609725e-13 1.5918701604243949e-13 6.6173727117047245e-13 3.2039191740068705e-14 1.7881655875558104e-13 2.2351272333707786e-13 1.6137267613780652e-12 5.0314583441721938e-12 7.1878005305942112e-12 9.8523739542606916e-12 1.4854336681299879e-12 5.1935555690580145e-12 1.5267954217578313e-11 2.783927042714186e-12 2.2054658408633674e-10 2.2816442318029419e-11 6.9480923246236261e-11 2.3835189994626076e-10 3.9026081007694686e-11 6.4961713809463904e-11 1.7949079958739152e-10 1.5147110055711579e-09 7.1587300779729682e-10 7.8295613586188361e-09 3.3246326341357073e-09 7.3257084639689822e-09 8.9108969025708446e-10 2.464152697237678e-09 4.7267617834176898e-09 5.3529939385673403e-10 1.9466104743058876e-10 3.3467912816452363e-10 3.1083400017953363e-11 1.1126717908593623e-10 1.0228187672524002e-10 2.8347561103850088e-11 2.2740300388698207e-10 1.5278794373919189e-09 6.6802941468914987e-10 3.7932545045020435e-09 4.2467714312099818e-09 8.3326545258741553e-10 1.1302044458652371e-09 3.0787994875324426e-09 3.0647676495916284e-08 1.0687578033072349e-08 1.3066343015156832e-07 9.2970927122325407e-08 2.7668764744643392e-07 4.0795508772999351e-07 6.6143900817768419e-07 1.9195134293325984e-06 2.014309812520993e-06 8.8923352816615035e-07 1.5830181013201192e-06 6.3481536063677403e-07 3.7629986108599833e-07 1.5924305261450718e-07 7.980344824208113e-08 2.9423594604126532e-08 1.1953141716559749e-08 2.1144300785165056e-08 2.0498637932258425e-08 1.0999393235784104e-07 1.0809598258264844e-07 3.944264459587667e-08 1.3476736287499308e-08 2.9289104176831828e-08 3.8111924110902361e-08 9.0848845281620166e-08 1.286101636735337e-07 1.7692343556186807e-07 5.741569829431397e-07 8.1997680251160208e-07 4.2605525037450346e-07 1.8243088509472301e-07 9.2752520092879984e-07 9.4901749898012584e-07 5.3140756525041496e-06 2.2810965974474823e-06 6.5949793498260205e-06 2.3328273588899401e-06 1.1532103719268286e-05 2.7450291169911471e-05 5.2705798722966028e-06 2.0626603492225298e-06 9.7889068720291912e-06 1.6283997679511295e-05 3.8203306950610545e-05 2.8861290760342964e-05 0.00020565563795873435 0.00010080806520491823 0.00020097587718327363 4.832376055238014e-05 4.9786977110963837e-05 0.00012123949198967297 0.00027468691985386778 0.0001332855066427578 0.00019335602319366137 2.9843571537046489e-05 6.7842986217401925e-05 5.0334155816774037e-05 0.00024531960106162866 0.00010362528552477952 0.00016056535284460091 7.3653559142263002e-05 1.8513992649611211e-05 1.4324399463536195e-05 2.6674446895687749e-05 4.4119706040788325e-06 3.3579159064973303e-06 4.688542245936571e-06 1.0173105632549171e-05 8.3118025806229887e-06 9.6123967580936327e-06 1.1399078249931702e-05 2.1587635994849727e-06 6.1160359450805094e-06 1.6556710574951899e-06 4.599210223715528e-06 5.9096660607952856e-06 2.2588999435949661e-06 1.9003953745787097e-05 3.8326745828815555e-05 3.02031148611468e-05 0.00010182487370938195 0.00021337290919333943 0.00011647133204105266 0.00022220211778497677 0.00012394173710563616 2.3931374336228964e-05 4.5112736476922759e-05 3.0317658249760249e-05 0.00021411189308188973 0.00027624130189816368 0.00013447105124096882 0.00022075173778408322 3.4112884408947093e-05 7.4478962605901945e-05 5.6956014576077712e-05 0.00015638006731805615 5.4315216972578255e-05 1.8140449811464754e-05 7.265635974348315e-06 6.1180970418086273e-06 2.1694507647170874e-06 2.7335853147333169e-06 1.1721889450814303e-05 6.4597253550481038e-06 2.02144851990743e-06 1.209945739880036e-07 1.6618938759050257e-07 1.1115628438406055e-06 4.211551444933192e-07 5.0219483171940523e-07 1.2717530809487782e-06 1.2484458612043502e-07 2.8627897945805334e-07 3.3735420731418909e-07 2.5866393477409224e-08 7.1620065269572113e-08 2.1995409004462617e-08 1.303975970028292e-08 6.0438158934226075e-08 9.4523886617779384e-09 8.530323053185349e-09 1.5273463854871161e-08 1.0250130561999775e-07 3.568683431313165e-08 2.8557999219308969e-08 3.2540410436387763e-07 2.5684360090129621e-07 7.084218921883334e-07 1.0844384619977182e-06 7.5267827945918841e-07 5.0032277948530789e-07 1.5940539985795182e-07 3.4117350510141672e-08 9.4629307988574345e-08 3.0445676411173532e-08 8.7496621580021568e-08 6.0810077884661724e-09 1.7186630829892721e-08 2.9402322860621731e-09 3.1865953066396639e-10 9.6058325198850022e-10 4.0748186021697313e-10 9.8768587214996146e-10 3.0560877822394004e-09 5.0996221805131663e-09 1.8744634139537445e-09 1.8896281678852827e-09 4.9063192952838401e-10 5.6209203498011802e-11 1.6968640796051829e-10 1.0484057298884799e-10 2.6130248248548922e-11 1.6374254359893949e-11 2.2043250678013912e-11 8.0985547284106443e-11 1.2419258328742335e-10 5.9719272425224426e-10 4.9206273991252633e-09 2.0469552390363098e-09 3.429969901011363e-09 1.1830533559185474e-09 3.9407872950850099e-10 1.2315675520959851e-09 5.6697177236851454e-09 5.5873990844343353e-10 2.0405091053604602e-10 1.3967318689502384e-11 2.5356830882462924e-11 8.4572349660263466e-11 1.1792740060830976e-10 3.3058176534017968e-11 4.7701855856666653e-11 1.2178113334586165e-12 9.2383846980765514e-12 2.4074397575189736e-12 9.281897884183292e-13 1.019581403735674e-11 2.9725700842397445e-12 3.7778970609551023e-12 1.3730808432676054e-12 2.1168975803984329e-13 3.8998352962591749e-13 2.0185893852413715e-14 5.5531486937745238e-14 2.0901645154036696e-14 3.0261958953395028e-13 9.6760919978627885e-14 5.3726705674820852e-14 2.0449052348202893e-13 6.8012833476407498e-13 1.9029724151060225e-12 1.5157767599111886e-12 6.6988063795609181e-12 8.9443774669139069e-12 2.1416201463024417e-12 6.8052953984612389e-13 1.4301159400169757e-13 1.1463279436920208e-13 3.3007628863422663e-14 7.3098515006540712e-14 2.1528194099022432e-13 1.8992962589684512e-13 1.9836170372753122e-14 5.9251007639590488e-14 2.5167144490888112e-14 9.761130055461793e-14 4.7914546544138998e-13 3.7466088567150736e-13 8.8232513994129308e-13 2.3885612076971898e-12 5.9310965751702365e-12 3.7171264263500467e-12 6.3776940271378386e-12 3.4193603472030623e-12 8.3839976932001308e-13 2.8803506027174823e-13 4.7560865085911709e-13 1.0893284954851094e-13 2.4680150617983343e-14 7.3531625987829202e-14 6.0987705743395611e-14 2.8102110587037324e-14 1.7334824891601903e-14 1.9118056074898778e-13 3.6982467814372302e-14 7.3823571069181412e-14 2.2446097302587015e-13 1.368543603785133e-13 5.6274483335606419e-13 1.4381529260175187e-12 7.4134523149375084e-13 5.994669873627433e-12 6.2249777621093148e-13 4.8997388064986522e-13 1.8889114891641601e-12 2.5847099505210214e-12 2.1999592067440825e-12 4.3840128230532959e-12 1.2957815535478577e-11 4.9224152861656103e-11 4.9815659568631977e-11 2.090698473882562e-10 1.3194548399889602e-10 1.1572209326156996e-11 2.0792465158336898e-11 1.8399328712152797e-10 3.5113339195171266e-10 1.4186463394324407e-09 1.8059849074274319e-09 4.2374641921637045e-09 5.6773494872164198e-10 5.6381527296480685e-10 5.7158982752327926e-09 1.8507200097513661e-09 3.8578720464434355e-09 1.890510114824934e-09 5.4918981259174507e-10 4.1776778327156278e-09 1.754212840474947e-09 4.2525517800456809e-09 1.6984019322396281e-09 3.9539100583889276e-10 4.898135349177093e-10 1.7134212577907826e-10 1.1898532309980551e-10 3.3065980393373089e-11 1.4145382750723712e-11 1.6902832553620327e-11 5.7957782597912395e-11 2.3468163889944858e-11 3.8475818733581399e-11 2.3166046498164565e-10 1.4819583208879628e-10 7.7186270961665652e-11 1.4853638215929313e-11 1.2977367342659581e-12 3.5073189549893372e-12 5.2581011712018856e-13 3.7048404996170232e-14 2.1008781433434598e-13 2.166741553730352e-13 2.4606025585731414e-13 5.3982116351598623e-14 5.1802081650605561e-14 1.1685252229750483e-12 1.2422613055241469e-12 2.720273308426066e-12 8.8993330925105072e-12 1.9302747787493395e-11 6.542573032835334e-12 1.1309403207760315e-11 4.9039720738119531e-12 1.4665893154917753e-12 2.4214539279865629e-12 7.2471847250292752e-13 1.7567175221340751e-13 2.0062059996734421e-13 3.8523594563828979e-14 5.8720575307298663e-13 1.4718068513562915e-13 4.9093281254716173e-14 2.2676329737871979e-12 2.1592742079490081e-12 7.9377109088940873e-12 8.6034184972399023e-12 1.5903174340526755e-10 3.0282700087585094e-11 7.7248166803435714e-11 2.9066360814384117e-11 2.2613507667650161e-10 4.2787842047992101e-10 1.3385979175346973e-09 3.487066539146505e-09 2.3072048704511675e-09 1.458532527504848e-09 8.5868495400077629e-10 6.4584448929262874e-09 6.9329680557385387e-10 1.6992378106563696e-10 4.259602261249957e-11 6.2878631366556065e-11 2.4933266821953445e-11 8.9697252992726971e-11 1.95660862192202e-10 6.2771286171170264e-10 4.0927230516530593e-09 4.79855097949841e-09 1.6671188851832253e-09 8.1875128524600871e-10 1.0447913125929754e-09 2.7861191080093537e-09 3.0326106448128334e-10 1.0286334496947555e-10 1.8790733597705211e-10 2.8579462712516102e-11 6.7035762417775959e-07 1.9535509824279169e-06 5.8267530133546414e-07 1.5899026850669479e-06 2.1222302912847651e-07 2.7407574231888217e-07 9.5136351242584904e-08 2.8871319867615143e-08 1.0353358615749516e-08 4.1393954482242345e-08 1.3570196355071572e-08 5.2265393323863856e-08 1.5455625493709144e-07 3.0276671106244865e-07 1.5125264652828862e-07 2.0964183286393785e-06 8.1469914198325455e-07 1.0662684961618298e-06 1.0698015537043978e-06 3.1258805314415183e-07 3.8742754512081221e-07 8.8262316339076124e-09 2.7098958889325458e-08 8.568915283713316e-08 1.1654051381026034e-07 5.9489736429951132e-08 1.6358844998752709e-08 2.4920088994178004e-08 1.1784718893500829e-08 6.4725056379419499e-08 4.4418830549285454e-07 3.1894608036677236e-07 9.9252233809660999e-07 2.5504459738056223e-06 7.0612116815809822e-06 1.2813364583433531e-05 1.7604875831336674e-05 4.4918778050531025e-05 0.00020102023321614499 0.00021738357999387799 0.00014095614249286744 5.9254957711259194e-05 3.6391048319068532e-05 4.9172388670082226e-05 0.00011991177072198084 0.00017186425040202716 2.4111060911999718e-05 2.1819856509466398e-05 7.8840342002088247e-06 2.9711491638105313e-06 2.7567580918511645e-06 7.785771052307061e-06 1.8355640973398324e-05 8.880112855544037e-06 7.3066119682825412e-05 0.00035102903129346748 0.00012092920170870016 6.2249648003356411e-05 0.00010564937848246582 0.0002780355628451824 0.00015119855016074868 0.00034963705369308635 6.0297721125489138e-05 2.2280248977064287e-05 9.8994710341739878e-06 3.6176985291740591e-06 2.6683311148303914e-07 7.382135422564536e-07 6.8300227391389821e-07 1.3657971707864136e-06 5.2551144581835389e-07 2.4243200667639097e-07 2.6721349621928778e-07 8.918462325936355e-08 2.4737336487279614e-07 3.0300078899235209e-08 1.5065259250997994e-08 1.4778204685404444e-08 3.1320645860343265e-08 9.7264818476756616e-08 9.2716953283095931e-08 1.321785266667271e-08 2.1615348198118687e-08 6.1353237669043298e-09 6.3269357951382185e-08 5.800246459472332e-08 3.3616671632172889e-08 1.4944387678019291e-08 3.1963908799077685e-08 1.8266330537635518e-08 1.2575205250574323e-07 1.9248948191694164e-07 1.787514323216175e-07 2.0088143756460277e-06 1.3314204327595828e-06 9.5926584644172181e-07 3.9409944032714376e-07 2.9210675854226507e-07 2.2752372473364972e-07 3.7180326297540663e-06 2.4928773569800996e-06 1.4455119468369967e-05 6.5314615020802627e-06 2.2525689229551909e-05 1.3485688282302442e-05 6.0172299544078766e-06 1.5960581476723108e-05 0.00010153418481856095 0.0001013872721113826 4.2187136787865426e-05 3.7093260360754039e-05 0.00024507054540476341 5.7534394100300335e-05 7.2059152665104702e-05 0.00019156412609648441 0.00014929484559671996 0.00019397947238595405 0.00011395114967217305 7.8619899533924467e-05 2.6603924196482848e-05 1.2485341599256213e-05 1.8853837281269128e-05 1.9594619218356614e-06 2.0787663358096071e-06 4.0907629768213799e-06 3.3283458647788827e-06 2.8740199404548739e-06 1.8315034123487656e-05 7.8869663084076382e-06 1.2250517755059281e-05 5.299892855104043e-05 5.402059701309305e-05 0.00013665058927362018 0.00094351840955294035 0.00036994549460952689 0.0023236117907169938 0.0032635535139128708 0.0052493069488987725 0.006636795207142214 0.0091233164094549259 0.011607692312409705 0.025902247605054378 0.018870790870668657 0.01407084810035779 0.0072623182627860432 0.002950745881133907 0.0019315054008397763 0.00070300616555829944 0.00032959341840319202 0.00052609369883147678 0.0003248741609476408 0.00069903112411193083 0.0029842789770757709 0.0015110784428070754 0.0014205312291864724 0.0006841600531104884 0.0016218336100031487 0.0018502341910954503 0.0050311058513086791 0.010144753530927688 0.011156511389057601 0.025629121655997279 0.022952568733640457 0.0066224749617079109 0.011346197328680129 0.029351796348570922 0.23363147119149152 0.1926208532533665 0.043164299822048571 0.088246777976322854 0.080349344122828556 0.038556615484470827 0.11435267672602084 0.20463995703610549 0.10601510105534663 0.29355196627440144 0.52193928868056449 0.53646870579565586 0.82917315095035315 0.30558195543537181 0.97563721180519303 1.1907747109308047 0.48095186177601307 0.54914318387716543 0.73048852418481047 1.2192948280556002 0.65580459443115591 0.46000551487251062 0.45368815056795403 0.22597113606187608 0.19185922648661469 0.12784406600592063 0.054155782152273402 0.062428860216841638 0.033292618038677571 0.049332968427434516 0.11471611728422795 0.20195944932101262 0.14867089380433407 0.020243976173658296 0.022189928072450002 0.0051553452451059099 0.004179405984834684 0.0078081156917711985 0.0017229089083233042 0.00091578653547703731 0.0011591676485455755 0.0005088461134662856 0.0018334648038656276 0.002363134432609573 0.00067220386928791489 0.003876940380332448 0.0088018085365272267 0.0099707153312744625 0.016957063438311409 0.029698124732487556 0.015451843676146973 0.027480576769932041 0.012797983602215332 0.0077400010609563353 0.0038354038376860059 0.0026641878539539351 0.00046471215933916349 0.00091348076344370923 0.00091146244661940447 0.0021626781905813453 0.0035275965497340621 0.00051950146777716641 0.00056094522918108338 0.0010148467269872265 0.0025335577747487461 0.0054966176071072322 0.009259371587791821 0.026285818706487298 0.012988162856791193 0.058312108638662215 0.080317520714655144 0.17858810029561423 0.21486842515725624 0.27579985316940192 0.83789457855685578 0.48230515803326179 0.53037415432662427 0.25433878598144932 0.7166560582933762 0.50648965936043655 0.25829879394742494 0.18463751471486339 0.099507355005514886 0.057731182779055264 0.063415052798280636 0.065851630736753888 0.033646815300364452 0.080619992231128562 0.039000594488989744 0.11126699802326145 0.20406128701771464 0.75568864714940798 0.60514136060760482 1.2187128401982492 0.33888012021659408 0.26088325004029272 1.3279212245946201 0.65487328886671814 0.33285808065960903 0.17393373696579303 0.11742194650592819 0.087233814055324196 0.03859102896554719 20.07081850834496 12.814415079173715 12.526590363792266 8.0995127846197956 2.5940355714822894 5.3814732536085197 4.7469485972237209 3.7268070693960547 2.0406168703763194 1.4797813672475102 4.9114623483251503 10.882461834183088 8.1974756487085347 9.1551822250038732 20.069807062210003 18.411815271490813 14.775544716040942 17.285553551611237 8.9061861665357451 3.7473589440165007 5.5139427642481724 1.4797239794055868 2.1082323509712912 4.7687022989171819 2.3662399821905282 2.450634285174953 1.6248881805328117 5.3182010690654344 20.147158838137383 7.0316716566312909 7.1813967503504594 12.447619593789994 21.903155259222359 30.814743953468515 42.642866173900813 37.494068524729094 84.89334040111882 54.59593696516216 74.585225103060679 53.837879895684679 73.682151442602446 89.162797944842652 73.619528120664569 39.3572956915406 36.212411661997471 28.582025786603399 22.606247905711001 26.500087489840258 50.234584724026007 38.94321416719167 50.124439882050069 89.023658452323474 89.037898252505045 73.867988221579736 75.722297830183379 91.131327156566726 78.033644219106236 63.220631136232925 40.84087953211214 48.89867589157587 24.437321593571738 11.339528676645951 7.9348605910227406 9.3939672942152441 16.440305506553266 18.842388301221952 16.320470433790096 9.6315355839818189 8.4673758818211979 4.8753875838815706 3.2000119245218683 5.6881327295744946 3.2029809204884834 1.8034505891697135 1.794188205956746 1.4771232841650528 4.719814608308833 2.624495847648082 2.5293083368746956 1.4291292539436129 3.0588509502947705 4.1249651989205347 2.2787911119811146 1.548002433832899 1.7676494761395132 5.2046111660175489 3.11633525341573 4.3956453340141426 8.9910341799017601 14.049239385014852 15.461354690417775 6.8321040735880576 9.9242066973640419 16.101777987664732 19.962921289237425 31.049096180554294 32.55272856448569 22.292051351194132 43.925508179958037 40.776430700778199 23.199198922492826 37.199133650070635 45.837525079907067 71.203031729885879 76.995083567319327 85.511368700442347 56.823077870529303 63.403854574688417 58.6250598823801 91.174236361292486 90.830025640753931 82.192884360775167 88.179839315304861 72.46822383949106 74.925639719726604 36.508526590579159 49.506373889647897 23.05674552002435 23.589338337333455 48.546928364337127 39.182184722210629 35.765760976711604 65.36885317770556 63.934573846030275 80.426215229974076 81.986134575149308 91.973711260932291 89.815216029065539 76.144263717256436 56.991096653533418 54.040906333316087 77.132036172935756 75.249249740913413 88.755299632361016 53.534734908225985 57.115279541205716 47.295773102724382 30.969187457228617 26.191113385900053 45.476984861273102 25.73046000038714 33.749452023959051 30.664515044675142 19.627070323998097 14.657772055596828 8.4993255160484651 7.110039549073079 17.510018655619756 11.567459379618217 16.079493628594381 13.742547268235123 6.4084290981010197 7.9213881022058139 10.928186044893485 4.1842125028847219 2.3648859907590278 1.7981588122910634 1.5206360401187051 2.5115760096123503 2.6391902463501316 1.5246396816140271 5.4780483575930692 4.3402316272491488 2.9793709907783761 6.0148668492355659 1.8746639291212659 2.4616817777060058 1.3691181452576009 2.3621494837889272 4.2107518471596732 4.1923816011162405 7.0443259343532567 18.103508028739206 12.652658749128577 12.42779229938218 17.585135609496177 20.386999616076245 6.896721021231893 9.1471753115446734 23.601392240902339 45.2302976958591 38.744781968320929 47.723872365838311 32.513129812859297 26.485434906334696 32.667053087226449 35.030929577298032 49.562851051814064 47.045862667359785 61.832643741888766 91.016006175344117 79.298446621904631 87.993682935034883 71.974988084906272 60.239426413969127 77.551393496611098 86.233039985422138 85.035006530023281 74.763070750868081 54.783367511851125 89.203028628434112 73.638392098567323 73.732904559520108 53.896862408251998 35.985469631864675 39.025605525599033 27.821653610178736 28.949512559435771 22.217883901858912 37.253689319462914 41.217080245629894 63.22870113312198 91.132900998237517 78.03825717623188 75.726884306529513 73.871989357405639 89.040316949229009 89.026895876636644 50.218414453530642 22.46279804424519 26.455132176853837 20.860887010691041 39.026258970199365 50.32088228697404 48.911334238729133 24.463682239743022 40.857319028639303 7.7935337823190354 12.015914348665419 19.99604742632577 9.9751380278947348 13.004455459604939 19.238892819208118 11.755680701222726 8.2904106205726062 4.9199899290981284 1.8043790179980661 1.7331740252518386 3.5231294164356486 4.162535586180117 4.9538477241509273 2.3155077240636053 7.8693379417581966 9.2506965890635264 6.1502309464779046 17.313400641237873 12.842739993933845 19.234827586212326 17.030679576149474 14.893445390655819 8.96596751303011 4.6895467113757068 5.134144113978417 3.3245154882641414 1.4001481116832732 2.5415374543483251 3.1530472036575223 2.0036633521076399 0.59138850827525