<?xml version="1.0"?>
<VTKFile type="UnstructuredGrid" version="0.1" byte_order="LittleEndian">
<UnstructuredGrid>
<Piece NumberOfPoints="568" NumberOfCells="1054">
<Points>
<DataArray type="Float64" NumberOfComponents="3" format="ascii">
0 0 0 0.049999999999899652 0 0 0.032369857048753323 0.032369857048862027 0 0.058433525112266523 0.058433525112214509 0 0 0.050000000000207989 0 0 0.10000000000041601 0 0.040058458469319477 0.094457855579157729 0 0.098076845682915317 0.099172414730993488 0 0.094457855579284614 0.040058458469418363 0 0.099999999999814668 0 0 0.056452228708379938 0.23456580837661581 0 0 0.20000000000083221 0 0.038839999600931263 0.17949825993190149 0 0 0.15000000000062411 0 0.054872692726595548 0.13410685639845171 0 0.089689702191541126 0.13851380458662241 0 0.12294765968567151 0.14825146416195439 0 0.08287507656968085 0.1788186348829835 0 0.099694771212264055 0.22074048840547039 0 0.15899695163321451 0.22783674912227669 0 0.12587517708284679 0.1889683322666954 0 0.16901316006868169 0.16800219386663079 0 0.18922011052115781 0.12644206653611201 0 0.22626394058331961 0.15465946819838111 0 0.20596721135052939 0.19972517895396219 0 0.2115548431873881 0.2417444767741872 0 0.18035159017842109 0.039190336535090492 0 0.14999999999970359 0 0 0.1383574446607988 0.058995933918849157 0 0.1484760565886207 0.1122209074004519 0 0.18172590289758209 0.08161197406129285 0 0.21720615046484709 0.1044394548351292 0 0.23167460333446299 0.05534377469531044 0 0.19999999999955789 0 0 0.24999999999941211 0 0 0.28320804985300141 0.050843339082505573 0 0.29999999999926641 0 0 0.32361955853288599 0.032799927825624707 0 0.36246243089534252 0.044218366607477223 0 0.34999999999912063 0 0 0.35582258519414178 0.085418764257258431 0 0.32242731191769902 0.068937933438140794 0 0.33076700644279272 0.1195922550481146 0 0.29506339503703888 0.1011380892434444 0 0.25714619498771307 0.1041399906845497 0 0.26318949769601319 0.14610173397257309 0 0.29914271679297122 0.15649620970120659 0 0.26017196519013502 0.20370391303005 0 0.30107969069289831 0.20280020009141189 0 0.28840285102268098 0.24960955320708811 0 0.33179683980498331 0.2223019939720311 0 0.33080167595110582 0.18179111300269291 0 0.3603074848216346 0.15401470087110539 0 0.3972892400718947 0.16563993209502181 0 0.43240736009008851 0.18205680965402779 0 0.41732862935313042 0.12986698634362279 0 0.38103425680679859 0.2047839516297037 0 0.42421838472613971 0.22246502005787769 0 0.46229330881044273 0.19890916456654811 0 0.49999999999997108 0.21968641114982909 0 0.45952001838826873 0.15666487330524251 0 0.46567857652706018 0.1143680615275231 0 0.47574662421782782 0.077626823840590969 0 0.48492433058289169 0.037321398276272413 0 0.49999999999869432 0 0 0.44999999999882923 0 0 0.44692795014265252 0.051801877645060238 0 0.40685581827241191 0.041139877312511682 0 0.3999999999989749 0 0 0.39061628640684498 0.081525103161991672 0 0.37516171960683908 0.121918126660369 0 0.43122735573933979 0.088176999192917438 0 0.42930823106401639 0.40626685012722968 0 0.39222057657781068 0.38067796690227418 0 0.39419886675318527 0.41912225240070788 0 0.37702386074717259 0.45819417564476811 0 0.41009598069569558 0.49083935749285379 0 0.42340342337193693 0.44762131874855388 0 0.46152714345798918 0.47344359412352599 0 0.46102425708533701 0.43254199134332588 0 0.46543211128216788 0.38788423543681888 0 0.49854341599767982 0.37075914768127122 0 0.47253211736503098 0.34081710830804929 0 0.48378871228000903 0.29745177826977359 0 0.45533136021725079 0.2525687312087147 0 0.43059486795334201 0.30395973419063538 0 0.39162098771181342 0.29503699292854563 0 0.40180462628983732 0.2561903397585753 0 0.43301393728221038 0.35984320557492139 0 0.39120887188745579 0.33407577688404289 0 0.34804757266227387 0.35750068079406011 0 0.3231032570156932 0.32141443408924047 0 0.3579628846738841 0.25683522786710378 0 0.35481435458309307 0.30398436674998969 0 0.32373692627050221 0.27286413781593999 0 0.29747949118041711 0.2964111573808435 0 0.26014443552207939 0.29262390443653519 0 0.25082138072344978 0.25770010742236849 0 0.28473805236128291 0.34355768118673757 0 0.25582605936799319 0.39507969989513358 0 0.2963043386970643 0.4298320229681446 0 0.30597655500381687 0.3934681685211931 0 0.35481422397128459 0.40312981465069342 0 0.33382663527330159 0.44130125047503482 0 0.33436424489304489 0.47849603121740791 0 0.29988655052531688 0.46700727827593119 0 0.26247584734598628 0.44764943295894732 0 0.262418491288269 0.49071922292154141 0 0.19218127164496679 0.46593838964869538 0 0.23232476702437141 0.46634525369567709 0 0.21968801783855879 0.43306783640023788 0 0.197169318452384 0.38703015239362498 0 0.17845774482872559 0.43087117257049429 0 0.14869578771858949 0.40481452396082068 0 0.1444847662218138 0.45353891581271188 0 0.16001314202358469 0.49771727055909287 0 0.22001518176882229 0.28602682846307981 0 0.19152147653881049 0.32791879770215432 0 0.2360419540479583 0.32191828326940741 0 0.22269553095687891 0.35837423432538801 0 0.15401470087117619 0.36030748482174652 0 0.14392209494791439 0.30620070203545702 0 0.1685376717739448 0.27232483159280108 0 0.1104775404132264 0.2631175359816938 0 0.099492119481027347 0.30746398533281638 0 0.073296788161418117 0.34226957089850552 0 0.11603400219493119 0.33748134585014028 0 0.033457646040922301 0.36364842331228431 0 0 0.35000000000145642 0 0.032220921767546963 0.32901489214487523 0 0.053730171687646627 0.28825077189828552 0 0 0.30000000000124832 0 0 0.25000000000104028 0 0.064893331803534807 0.48669777060454478 0 0.1091992745981364 0.48758069708049778 0 0.097100979577207341 0.43590673999053198 0 0.10935320311385981 0.37839190921727089 0 0.06053051438015096 0.39514626428972788 0 0 0.40000000000166441 0 0 0.45000000000187229 0 0.043612803661092707 0.44006111182840391 0 0.029444907164209121 0.47500000000196552 0 0 0.50000000000205869 0 0 0.55000000000173355 0 0.051801877645083663 0.55307204985745195 0 0.037321398276215258 0.51507566941747263 0 0.07762682384055844 0.52425337578226128 0 0.1143680615274819 0.53432142347292733 0 0.1219181266603569 0.62483828039315903 0 0.088176999192898689 0.56877264426067353 0 0.081525103161997597 0.6093837135931508 0 0.041139877312483641 0.59314418172763017 0 0 0.60000000000138687 0 0 0.65000000000104008 0 0.032357843506722522 0.67660040198578164 0 0.04421836660747535 0.63753756910470205 0 0 0.7000000000006934 0 0.04863291748797445 0.71789175274016204 0 0.091072812796719582 0.74198804864687795 0 0.099018722548963364 0.70475631558365193 0 0.085418764257258195 0.64417741480586865 0 0.068937933438162791 0.67757268808231053 0 0.1195922550481313 0.66923299355722787 0 0.1540147008710982 0.63969251517836956 0 0.1817911130026923 0.66919832404888702 0 0.13725179499972981 0.74154628962856628 0 0.1564962097012354 0.70085728320703999 0 0.20370391303007401 0.73982803480989479 0 0.2028002000914135 0.69892030930711557 0 0.249609553207091 0.71159714897732929 0 0.22230199397202771 0.66820316019503168 0 0.2047839516296828 0.61896574319320252 0 0.2224870800581388 0.57577541371134155 0 0.2196864111498267 0.50000000000003153 0 0.1989632851005598 0.53769147668950479 0 0.1566648733051971 0.54047998161174216 0 0.12986698634359389 0.58267137064684615 0 0.1656399320949789 0.60271075992809464 0 0.18205680965398621 0.56759263990989739 0 0.10000000000041601 1 0 0.094457855579188163 0.95994154153068711 0 0.050000000000207989 1 0 0 1 0 0.030452409610489669 0.96954759038951022 0 0 0.94999999999979179 0 0.058433525112254137 0.94156647488774581 0 0 0.89999999999958358 0 0.040058458469322648 0.90554214442079806 0 0.097990957645208238 0.90045039720880915 0 0.1229476596857173 0.85174853583809695 0 0.086813039193431391 0.81709574086842884 0 0.087041706119416085 0.85382799508926188 0 0.052469033166843738 0.86696410734366991 0 0 0.84999999999965292 0 0.043889462445437968 0.82675923981951283 0 0 0.79999999999999982 0 0 0.75000000000034661 0 0.052938001421335763 0.77688977118331159 0 0.11231692802445629 0.78020430794084028 0 0.16253691950235041 0.78284912262768558 0 0.24335844191347281 0.78651189793387466 0 0.20359074765364421 0.79422489417871855 0 0.22893929024737289 0.83990878992727813 0 0.17101873536300011 0.82898126463696109 0 0.1322615032692282 0.8130603300143705 0 0.14688274318541941 0.88962265630811932 0 0.1817259028976386 0.91838802593888857 0 0.18958721034944021 0.87660297360394568 0 0.22131139331094829 0.9041449437198319 0 0.23222643817617661 0.94420751116970569 0 0.20000000000083221 1 0 0.18045991219397989 0.960710939969875 0 0.13834721989462789 0.94095916274077984 0 0.15000000000062411 1 0 0.35000000000145642 1 0 0.36363861612613613 0.96654491682121313 0 0.32894624184180998 0.96779701826738929 0 0.30000000000124832 1 0 0.25000000000104028 1 0 0.28790752038294382 0.94635952848702642 0 0.26305414557470391 0.88949062093136155 0 0.30738136326657722 0.90051880305435028 0 0.33748026778199908 0.88396545633134682 0 0.3422695708985129 0.92670321183858773 0 0.36030748482174152 0.84598529912882459 0 0.30619531169472608 0.85607519768342955 0 0.27254997832041528 0.8312019486901443 0 0.28602682846308641 0.77998481823117594 0 0.32191828326940508 0.76395804595204586 0 0.32791879770213411 0.80847852346120164 0 0.35837423432538362 0.77730446904312345 0 0.38703015239361932 0.80283068154761972 0 0.43306783640023289 0.78031198216144404 0 0.46634612187967051 0.76767585524061377 0 0.46593838964869061 0.80781872835503554 0 0.49771727055908782 0.83998685797641781 0 0.45353891581270822 0.85551523377818905 0 0.43087117257049001 0.8215422551712771 0 0.40481452396081791 0.85130421228141606 0 0.37839190921727062 0.89064679688614412 0 0.43590673999053309 0.90289902042279657 0 0.48758069708049379 0.89080072540186539 0 0.48669777060454272 0.93510666819646593 0 0.44006111182840962 0.9563871963389079 0 0.47500000000196563 0.970555092835793 0 0.45000000000187229 1 0 0.39514626428973221 0.93946948561985189 0 0.40000000000166441 1 0 0.33231497408081678 0.60779218732873663 0 0.37104651296145419 0.60545170748311072 0 0.35984320557492089 0.5669
[...]
<CellData Scalars="pressure_p0," Vectors="velocity_p0," Tensors="">
<DataArray type="Float64" Name="pressure_p0" format="ascii">
6.0367753240698314e-08 1.8265944357448048e-08 1.2437421847678023e-07 6.4329883284985949e-08 2.1466937933421321e-08 2.1018182499996043e-08 7.3528207905472071e-08 2.2965715497213162e-07 4.1350535632728484e-07 2.1915099459211262e-07 3.692950509567541e-07 1.4947432027846435e-06 9.7313044536939451e-07 1.183002299529185e-06 4.4252689428114002e-07 2.490553662773196e-07 3.2224624858575675e-08 1.6383822517190733e-07 6.3092739620625223e-08 1.5884979718511746e-07 1.9411319196000876e-08 6.0259521936836381e-08 6.6431584540080882e-08 2.895400390766331e-07 6.1604384718487355e-07 7.499281651541563e-07 9.6770428894500603e-07 3.3296630270504415e-07 7.2304896058001051e-07 1.4962305272464998e-06 4.9716715266191383e-07 8.6515038928199214e-06 1.7567101153681574e-06 3.6499252138981779e-06 8.4527535176718645e-06 2.3896324652835454e-06 3.1828427812065264e-06 6.3808139687584517e-06 2.3713719677993694e-05 1.4842159242152646e-05 7.3688617893674652e-05 4.324220346076829e-05 7.5010606805387772e-05 1.7865245918114254e-05 3.7020251368415477e-05 5.8206678973378224e-05 1.3732459598318706e-05 6.3228083004578991e-06 9.0520237923583159e-06 1.8791100255447999e-06 4.5429334894659443e-06 4.2886458056446106e-06 1.8152020699239747e-06 7.1687419403004576e-06 2.4048038331703138e-05 1.4579787166900509e-05 4.5765820122961194e-05 4.9052330042258582e-05 1.635033012222079e-05 2.0294394519166846e-05 4.0698487432551213e-05 0.00018248023842987052 9.2055768215524463e-05 0.00045848752422387681 0.00037094928666299182 0.00071460682975423126 0.00095220252557347393 0.0012532687885440951 0.0024909788257380045 0.0026301415805027335 0.0015542669838653435 0.0023219468301171539 0.0012758890962893256 0.0009340864804586865 0.000529270552578208 0.00034150680507419328 0.00017775913459243129 9.7453667578778475e-05 0.00014323317537624417 0.00015081664410980446 0.00043874519930563931 0.00041907400080531937 0.00021614043033023523 0.00011956621670036828 0.0001991667665266293 0.00022403455214178354 0.00040357035142997151 0.00050782417435382059 0.00060072549110860613 0.0012708853325089611 0.0016390651352256528 0.0010396856098708461 0.00059374672704103743 0.0016669796223247591 0.001608025819569636 0.0047847958016952429 0.0028459854118392637 0.0056897848950034314 0.0029975584651793599 0.0078126519256106284 0.013462896052216174 0.0054050029782526134 0.0030261834975835243 0.0072990564913274492 0.010386374596300627 0.017313936879168407 0.014194422564616959 0.046989937586813496 0.031818667335979267 0.046866736686385559 0.018460122999273187 0.019213877089987577 0.03374390824054143 0.054865465272959414 0.035361561416331219 0.04427766168799005 0.014239647831328691 0.023157409404554276 0.01949278661501145 0.051170889901824501 0.030023256605185927 0.038418557657100741 0.024569511726294974 0.010787878778226895 0.0087410097754304396 0.012992623779228326 0.0041728216305133327 0.0037071591131918108 0.0045383591368790121 0.0073962623297215563 0.0066252174370735294 0.0076300546383711596 0.0082743611996628358 0.0030064694765320251 0.0057812961529156628 0.0026435020057189802 0.0049048154422122181 0.0057345731385075299 0.0032279322535744238 0.011795600193498875 0.017926833197113877 0.015256703126776837 0.032161562454971336 0.050030697607214972 0.03550432657896449 0.050992490425458448 0.036150949366491922 0.013526798836900656 0.019484887772410135 0.015252485689868093 0.04878988017936333 0.056238731629564595 0.037299866311450935 0.049834603341371408 0.016490239730395401 0.02571053933902856 0.021916416478397129 0.040910522700475432 0.022034172639947933 0.011255855227024224 0.0063861079101067472 0.0057219946829130423 0.0029498282239006166 0.0034160734156926946 0.0084307046360480066 0.005926122294906599 0.0028492894711939615 0.00049844463692803355 0.0005821010924236562 0.0020002699273957807 0.0010682352368349803 0.0011877231108085001 0.0021776051345360416 0.0004895664707712232 0.00084242145023877702 0.00095250538890840437 0.00018607971519201078 0.00035159122680093193 0.00017766771843001863 0.00011723614833306331 0.00033242969448633928 9.9866721630432611e-05 9.2504662422771212e-05 0.00013961781737773174 0.00045524154261500789 0.00022666773600808377 0.00020533285254577092 0.00092733935441621622 0.00080774002658203739 0.001534001892084272 0.0019951895614739278 0.0016128179644280356 0.0012462041309972954 0.00060622700234007321 0.00023079866348100234 0.00045496121029027406 0.00021009611806384261 0.00041575252413784914 7.6699425957653581e-05 0.00015074176626296126 4.9603930701495763e-05 1.2127426607941396e-05 2.4335205354621549e-05 1.3977332255396675e-05 2.4410753245781577e-05 4.9837789395698918e-05 6.7243003418353728e-05 3.7187338212737494e-05 3.6080764883515283e-05 1.5679118504180546e-05 4.0381804768294981e-06 7.6143533324957633e-06 5.769431418715047e-06 2.2830636242444846e-06 1.7716165521945982e-06 2.2346476435717247e-06 5.3330492775463002e-06 6.5032594349152327e-06 1.6229626615287283e-05 6.1300566011883141e-05 3.6386555332595732e-05 5.190881401000074e-05 2.6475377199834199e-05 1.3182614550997734e-05 2.8028857991740796e-05 7.1844944418349553e-05 1.8239011062804636e-05 9.0832499667957679e-06 1.5356179396603559e-06 2.2487392749628792e-06 5.0350332958855952e-06 5.9595361566701154e-06 2.6080210133222826e-06 3.1793961557690226e-06 2.9842899495438612e-07 1.1860770196260994e-06 4.6986747667980266e-07 2.7653728579260315e-07 1.2221471209638262e-06 5.5589314245799511e-07 6.4464272031386054e-07 3.4247688428506503e-07 9.5765089558988703e-08 1.433574172395517e-07 1.6097462762621082e-08 3.404393863836205e-08 1.5374555260909521e-08 1.2663128287782424e-07 5.1450565822790063e-08 3.0702558401165198e-08 8.5353050051894843e-08 2.2737807209460544e-07 4.6624540152132705e-07 3.7761387173940525e-07 1.0907986618895363e-06 1.2015080333513896e-06 4.6325423146028963e-07 2.1625517849766802e-07 7.1881802932744374e-08 5.9585061161963417e-08 2.3125300100678505e-08 4.2461609726596526e-08 1.0190564183274909e-07 9.125191821580075e-08 1.4461623833659307e-08 3.610527327374325e-08 1.8318129174721632e-08 5.3951444731225028e-08 1.6906948484028694e-07 1.4123320014630714e-07 2.5211721916602225e-07 5.0757934009250948e-07 9.0862958600763498e-07 6.760517489320369e-07 9.4523884962273647e-07 6.3526441388162753e-07 2.455938211923154e-07 1.3612437973328839e-07 1.6809556036043662e-07 5.8595924121836908e-08 1.9772062179467921e-08 4.8770277852522897e-08 4.1835744201217139e-08 2.1769451509473128e-08 1.5147647430958228e-08 1.0397870177952186e-07 2.5358096519863684e-08 4.6404649327326547e-08 1.1254174172915099e-07 6.7974121433265054e-08 1.9549099679829086e-07 3.5049719004513028e-07 2.5480913946720605e-07 9.0057469426278891e-07 2.2895097395392054e-07 1.9927895754835462e-07 4.7361119924613314e-07 5.7048206616596704e-07 5.3103375289864173e-07 8.2581345557069712e-07 1.713613390431626e-06 3.6275338835385264e-06 3.616309905776876e-06 8.8506072625793975e-06 5.9258114620640649e-06 1.4983219186740174e-06 1.9471830399385114e-06 8.2612235201984484e-06 1.1431487906254513e-05 2.8820813302821999e-05 3.4326541735123066e-05 5.3259601827494442e-05 1.7530557598044909e-05 1.660970305628008e-05 7.1543259298276687e-05 3.7782364312146577e-05 5.6268659487402131e-05 3.7901011935961322e-05 1.7517832333608471e-05 6.1859586183530906e-05 3.509996478280181e-05 6.4399104502812766e-05 3.4798985741046048e-05 1.3771644475150842e-05 1.617618883951985e-05 8.0918491915532671e-06 6.6898483701186708e-06 2.815546815872771e-06 1.6590562764292489e-06 1.8917693823262808e-06 4.0229939673134811e-06 2.2784498084517378e-06 2.9899085188657301e-06 9.6435948953845734e-06 7.1409153201065366e-06 4.584421719301267e-06 1.1462685081547564e-06 2.4163752068107144e-07 4.2856602357913591e-07 1.1801582602774779e-07 1.6749187923731139e-08 5.6437907505875193e-08 6.1082770600374231e-08 7.1680759035627176e-08 2.098493717794254e-08 2.0692102716851379e-08 2.0904854460721573e-07 2.2401679513468325e-07 4.0291272580336785e-07 9.4827387972247802e-07 1.4646513166224525e-06 7.2117317651690342e-07 1.0577542867148476e-06 6.1300166213541959e-07 2.6741591004867822e-07 3.4604705934667892e-07 1.7212708518615302e-07 6.1814469738016519e-08 6.3141391998648349e-08 2.2101048178851115e-08 1.7375029648217845e-07 6.2390665279121545e-08 2.8253551010383163e-08 4.2684391954073472e-07 3.9791381044552403e-07 9.1724185941469504e-07 1.0430118209772754e-06 6.3302078379578786e-06 2.323308574902887e-06 3.9007969407035518e-06 2.1146412771925591e-06 8.2309482956519094e-06 1.2146159432105996e-05 2.6720814536526466e-05 4.8583238198454747e-05 3.5224152460256076e-05 2.5143834016789949e-05 1.7700336910743532e-05 7.1141180576348703e-05 1.5263524000845416e-05 6.3778579645748854e-06 2.5529400329057206e-06 3.2060190231872624e-06 1.7403379701247982e-06 4.111900339059261e-06 6.8964486317030556e-06 1.4873778866190279e-05 5.1391405025322481e-05 5.3972032800338764e-05 2.5282243795723013e-05 1.6312876037060272e-05 1.9728005394475741e-05 3.9090041727867757e-05 8.7220798012856481e-06 4.4158835592618388e-06 6.2428608010132294e-06 1.8225584324316424e-06 0.0012445089874789511 0.0024110722131631748 0.0011693325250125141 0.0021741660165135609 0.00060326432395115188 0.00070288621861136534 0.00038214216525907132 0.0001789420413159944 9.2198193294141381e-05 0.00022324777116184606 0.00010709786917179532 0.00026295815402464009 0.00052538183001640966 0.00075912027117215717 0.00049017106791384715 0.0025699680802250564 0.0014607796935622644 0.0017154185750106921 0.0017458799853767083 0.00082585282542033621 0.00090258578782382941 8.7133042524571627e-05 0.00018441687928570888 0.00036156429009993711 0.00045007374966144024 0.00029299876878883786 0.00012847181945882565 0.00016983319264968758 0.00010532481874718071 0.00031666269323431424 0.0010417438216121433 0.0008698243589374498 0.0016743020648427463 0.0030330016468077012 0.0058761452643606368 0.0080716674354517348 0.010073531026916441 0.01797110447122232 0.044487095702595965 0.046826026701625306 0.036052091394825389 0.020997731908020269 0.015516817646514105 0.018507011531839469 0.032218380523333569 0.039080000465364501 0.011927118037896037 0.011137612619416506 0.0061841140929915408 0.0033544254789171363 0.0031538950637915778 0.0057915435731351779 0.0097708768801983356 0.006338090455539137 0.023564050205979521 0.060832630912195554 0.031260528032773773 0.021063739553814895 0.028386790684132326 0.051709720939085949 0.035090075190363536 0.058531236915172438 0.02069630502423922 0.011222396045975497 0.0069671179531348004 0.0036088344248633216 0.00082638798966945635 0.0015240949647932313 0.0014849082043838298 0.0024264576281462554 0.0013019086930885992 0.00079268789127804554 0.00083535850999055805 0.00045388175407708945 0.00080034292772645762 0.00022339458258224427 0.00014499530369207925 0.0001402677325372699 0.00021210995058075954 0.00043579549447132456 0.00043408907536731842 0.00012839520275345344 0.00016990342164980161 7.6164412747009488e-05 0.00032656708158888234 0.00030136048942414593 0.00021707705120099899 0.00012261589258537588 0.0001912036539982949 0.00014810572417460352 0.00045834130460581358 0.00058595201364059109 0.00059182485788152311 0.0026705992674058996 0.0020640426439787179 0.0018607339055444821 0.0010364893555546129 0.00083538952820752901 0.00072442769583360637 0.004169969881782077 0.0032936383497114896 0.0096493037896885955 0.0058684297273747851 0.012617688731467867 0.0093375881957773171 0.0054517397754191843 0.0095948003285008642 0.029341757735755362 0.029732159067908548 0.017454679412853561 0.016593438737287781 0.05092164066898703 0.022653181834798638 0.02518188588497159 0.045164984153569288 0.039804128722108582 0.045731991748472166 0.033128850196974619 0.027163173342339104 0.013723811401253136 0.0087844567627936507 0.011097728625066776 0.0028538678684893399 0.0029658189131990531 0.0043672336249838406 0.0039873733874326864 0.0036826915776758513 0.011082022576899855 0.0069676104876280516 0.0089681312650390956 0.020897849992988167 0.021404816541048165 0.037521571322599478 0.12095856380151687 0.068764579703466611 0.20295783525323136 0.24135356838724725 0.32431630717952414 0.36904673219730644 0.44441316408130144 0.5089678942434096 0.81808237353958924 0.68206734457908214 0.5748335888627224 0.39786164385195733 0.23125648062148105 0.18027546885012696 0.097575748585104094 0.062873238923947861 0.083732606164052564 0.063126156476700862 0.10155790808085077 0.23189832473822503 0.15322578965904821 0.14846690028300744 0.093667669130219983 0.16051872993564406 0.17086504167282629 0.30882609668576394 0.47045725715796205 0.50224692218954148 0.82298764570085936 0.75829432549732267 0.3769971579639998 0.50969957743940308 0.89597905775590125 2.8824890017638234 2.6018274463289481 1.1070414068192864 1.6853083010124745 1.5735737897621123 1.0264563922040515 1.9396725646116881 2.7136437768931687 1.8256314195871419 3.3165144701459068 4.6667232883024257 4.7596526818674905 6.0147298195641774 3.3982659815585605 6.6311747712509188 7.3590249423000813 4.3663373031844754 4.7368958511778532 5.5217589404073681 7.4614942158945317 5.2255121738786148 4.2803723911592835 4.2584081913363754 2.8409793418999447 2.5753372697348205 2.0708238779584649 1.2711263195208287 1.3579762091171381 0.96475670937408664 1.2017635387211123 1.9702014495172273 2.6468804151535483 2.2352499032057405 0.6861117152390821 0.72103502607186698 0.30317389032761538 0.27027705398617013 0.38559365386120142 0.15558274668861158 0.1052771543174997 0.12465705406620842 0.075229375404184062 0.16316932292684436 0.18750489913473456 0.088901959510391551 0.25239815011269345 0.42014916414713627 0.45029951320457773 0.61856699463853304 0.86134833875552119 0.58939364098795421 0.83312067826181235 0.52231532501238054 0.3977240548971579 0.25909585246396299 0.20581565828379317 0.07297870204332399 0.10934648354462204 0.11094642348559899 0.18570298185367548 0.24435457912121678 0.080956794899947337 0.082761670878781085 0.11734746070305516 0.20545973326229716 0.31899565287769627 0.43448214352560421 0.81949685380751769 0.53076923562030964 1.2947434310595196 1.5422983122766709 2.4594501455023163 2.7600996189858238 3.1568996031419108 6.0579731593582586 4.3942367801256719 4.6432229329373156 2.9888592143181616 5.5270953862672334 4.5473615722074232 3.0639809892656604 2.5131032011732577 1.7433363792817649 1.2819316685387872 1.3292325063572474 1.363618012652144 0.9248565026753901 1.5449225977602428 1.0051371008996675 1.8672123908741551 2.6688023551904743 5.6521465636381745 4.9931098814273556 7.3454111575844028 3.5408310269595002 3.0292345909664644 7.6960076161080107 5.154321495358487 3.4617473496764157 2.3635327748868771 1.8999461640641155 1.6064237501041665 0.99928158215314478 37.043930281190072 28.373772970437823 28.036329122434651 21.723193118700895 11.343274449558635 17.18132177944517 16.014831710837949 13.997131247587735 9.8913664085399571 8.2906074829128755 16.337517787503558 25.793314573747153 21.9789556626692 23.41247119838745 36.872118591836042 35.019872208311803 30.896405608406361 33.786117702316815 23.063519728187888 14.058684744491176 17.460417852750115 8.3804173876819714 10.122750980883303 16.132929325263518 10.843808898653595 11.057695123062032 8.8492647156227235 17.202100555758832 36.931029667864806 20.073673227439201 20.459332297962842 28.136733655790547 38.676467827838394 47.461374947490185 57.847856856249159 53.407121936172672 89.433474061315053 67.360753920451103 82.108043528007698 66.775101779223604 81.497326895405166 92.505335763668455 81.405029637487473 55.051270961967148 52.301005991874732 45.391735640952277 39.502134245593382 43.585591835090383 63.810101842054458 54.771604822695707 63.722927132204909 92.364187632098094 92.364914907079964 81.532074495234326 82.910164791892456 93.845413168258361 84.524925426141834 73.792277431204781 56.266635589487251 62.936992804470783 41.429630532353976 26.391745679331962 21.530168347696431 23.735476541187985 32.863867878635261 35.52423857682146 32.682131909648319 24.012119672863403 22.300421489130223 16.284443661496486 12.82880365467355 17.741160674983355 12.838579000953846 9.2521587217759595 9.2213487478791389 8.2819513569315717 15.999897951846073 11.406622699242712 11.193577339531377 8.1111950428593573 12.522331157462597 14.880220532277557 10.648482209679043 8.5299784637740554 9.1681637056183103 17.05059233473683 12.6822215612242 15.494644795254585 23.274553216577424 29.940308331029549 31.661249354050021 19.933189762982259 24.638152971822322 32.565514258232184 36.783629717700876 47.769900116550964 49.158716846515858 39.278204485631889 58.953612341470674 56.302770049894704 40.124811561982042 53.180062842796403 60.286968566233099 79.577806214979688 83.807942378663185 89.851266266913896 69.035401741538664 74.00259846045256 70.431766602489503 93.863817321710187 93.632294157116831 87.540015796486514 91.741920794810795 80.525493727120221 82.341064094054047 52.623183185946083 63.27756151965071 39.999186057129002 40.513109708255946 62.554016000189023 54.888760343898497 51.954697463314275 75.386261094753834 74.301364979842873 86.223286813218849 87.362770646824615 94.404440478266437 92.904725924681955 83.210341180579789 69.080343025004737 66.827708081299377 83.899334771902843 82.538303028642986 92.173409221574886 66.367363752840788 69.185085814004935 61.440123530937441 47.505457189240495 43.005937475183742 60.070472035279806 42.678919566042737 50.161305960571539 47.374196337086723 36.363164282453894 30.720535498766914 22.322859582547167 20.263946114981493 34.093627165970432 26.727296261398287 32.261569799819021 29.511510911133293 19.118808660161847 21.487290909276901 25.846034147902969 14.997678492773817 10.759283502956926 9.1973719846826008 8.4908176265730866 11.218879726640939 11.457501855081265 8.4322944165473146 17.326389711139193 15.320676195665486 12.260775450950062 18.408901217508415 9.4812757933489333 11.136002939311059 7.9789823858873312 10.750007309311352 15.051099893076525 15.060204838141352 20.155436589357155 34.703819858285414 28.129335384606595 27.861415176053733 34.00021679983702 37.125589517145833 19.959983533090686 23.275185096101691 40.456895535321586 59.898908398999524 54.398619490832957 61.819358024697493 48.98894262093873 43.419941028218034 49.136393353465024 51.231138981764531 63.347327471392667 61.314013866919808 72.773407238554654 93.747149741893139 85.43802542179013 91.603762827712799 80.140454430749969 71.583894355050731 84.199835718463973 90.362756200206817 89.523981647521765 82.22581194002646 67.491077115290125 92.53019677011649 81.421608362840743 81.534360176927024 66.821084818864819 52.116205653363366 54.784711233085027 44.702991614954271 45.771527154418507 39.036114725739651 53.172856824134016 56.623467022535266 73.799373778494967 93.847117042883781 84.528974644386139 82.915041650191 81.537881175461735 92.367691962041675 92.367489643784793 63.806803918726253 39.357886873816909 43.525950728954427 37.727520427011669 54.845906193887089 63.885087056564061 62.947679631377241 41.443374253827663 56.277535530061179 21.204875549863861 27.329515790911174 36.942398912351059 24.502080391190962 28.534295078791356 35.965626265130368 26.986628658392423 22.143166242829906 16.388782949540058 9.3650484266685048 9.0859358960910015 13.543322132915979 14.856593545167652 16.331562107547075 10.707727804145774 21.610562014425639 23.440741078868289 18.764637687896631 33.794354689381443 28.65232583871331 36.027725757208458 33.521748748587349 31.025182154385472 23.155915477710479 16.038275084535751 16.807748748389905 13.233433875050025 8.1001097988029418 11.430822318641475 12.8236859615904 9.8564847461410423 4.9636194673688658 6.5358776796742166 3.4931734285164544 3.8755781860921994 2.873362022075439 6.0802094130306603 4.8639394746601159 7.2764761714300157 3.433459408785696 2.0813668368034532 1.9509013096026995 1.2397373741304916 1.2743655749237148 1.2733495685077347 1.7205768049944807 1.8704848420298714 3.2413425597233156 4.9499364300457716 6.9883949954286857 4.4377707015869552 6.5015864974076694 4.0022280879593808 2.6342225332792104 2.1363799161412622 