<?xml version="1.0"?>
<VTKFile type="UnstructuredGrid" version="0.1" byte_order="LittleEndian">
<UnstructuredGrid>
<Piece NumberOfPoints="69" NumberOfCells="124">
<Points>
<DataArray type="Float64" NumberOfComponents="3" format="ascii">
0.000000000000000e+00 1.000000000000000e+00 0.000000000000000e+00 1.000000000000000e+00 1.000000000000000e+00 0.000000000000000e+00 1.000000000000000e+00 0.000000000000000e+00 0.000000000000000e+00 0.000000000000000e+00 0.000000000000000e+00 0.000000000000000e+00 2.500000000000000e-01 -0.000000000000000e+00 0.000000000000000e+00 0.000000000000000e+00 2.500000000000000e-01 0.000000000000000e+00 5.000000000000000e-01 5.000000000000000e-01 -0.000000000000000e+00 7.500000000000000e-01 1.000000000000000e+00 0.000000000000000e+00 6.875000000000000e-01 8.750000000000000e-01 0.000000000000000e+00 6.250000000000000e-01 7.500000000000000e-01 0.000000000000000e+00 5.625000000000000e-01 6.250000000000000e-01 0.000000000000000e+00 1.249999999997599e-01 3.124999999998800e-01 0.000000000000000e+00 2.499999999996086e-01 3.749999999998043e-01 0.000000000000000e+00 3.749999999997349e-01 4.374999999998674e-01 0.000000000000000e+00 4.375000000000694e-01 3.750000000001388e-01 0.000000000000000e+00 3.750000000002776e-01 2.500000000005551e-01 0.000000000000000e+00 3.125000000002082e-01 1.250000000004163e-01 0.000000000000000e+00 1.000000000000000e+00 8.333333333335646e-01 0.000000000000000e+00 1.000000000000000e+00 6.666666666673605e-01 0.000000000000000e+00 1.000000000000000e+00 5.000000000013877e-01 0.000000000000000e+00 1.000000000000000e+00 3.333333333344898e-01 0.000000000000000e+00 1.000000000000000e+00 1.666666666673605e-01 0.000000000000000e+00 8.750000000000000e-01 1.000000000000000e+00 0.000000000000000e+00 5.625000000008674e-01 1.000000000000000e+00 0.000000000000000e+00 3.750000000006939e-01 1.000000000000000e+00 0.000000000000000e+00 1.875000000005205e-01 1.000000000000000e+00 0.000000000000000e+00 0.000000000000000e+00 8.125000000010408e-01 0.000000000000000e+00 0.000000000000000e+00 6.250000000006939e-01 0.000000000000000e+00 0.000000000000000e+00 4.375000000003469e-01 0.000000000000000e+00 0.000000000000000e+00 1.250000000003469e-01 0.000000000000000e+00 1.249999999997554e-01 0.000000000000000e+00 0.000000000000000e+00 4.374999999991326e-01 0.000000000000000e+00 0.000000000000000e+00 6.249999999989591e-01 0.000000000000000e+00 0.000000000000000e+00 8.124999999994795e-01 0.000000000000000e+00 0.000000000000000e+00 2.798796021293082e-01 8.344274147057053e-01 0.000000000000000e+00 2.645244370067465e-01 5.156353158163987e-01 0.000000000000000e+00 4.139414069912184e-01 6.056325264010037e-01 0.000000000000000e+00 4.492710539671537e-01 8.556512408515589e-01 0.000000000000000e+00 2.758946705068648e-01 6.605885315643570e-01 0.000000000000000e+00 1.390078959961168e-01 7.261831610706000e-01 0.000000000000000e+00 1.492912418697525e-01 4.458279356810638e-01 0.000000000000000e+00 5.014585693307863e-01 7.367466304650486e-01 0.000000000000000e+00 1.392858751591214e-01 5.733980610567744e-01 0.000000000000000e+00 3.813620468049507e-01 7.403859221383123e-01 0.000000000000000e+00 1.271010713601231e-01 8.709480661820344e-01 0.000000000000000e+00 5.677751205718758e-01 8.470224641095303e-01 0.000000000000000e+00 5.698670717843664e-01 3.776209365087199e-01 0.000000000000000e+00 7.125974780784441e-01 6.384669131570183e-01 0.000000000000000e+00 8.608728669021763e-01 2.520652359795942e-01 0.000000000000000e+00 8.578792739151740e-01 7.535325208825020e-01 0.000000000000000e+00 5.447576766858295e-01 1.431838882066932e-01 0.000000000000000e+00 7.150899340618379e-01 1.571595685477760e-01 0.000000000000000e+00 8.612746697781972e-01 5.794807697879764e-01 0.000000000000000e+00 7.533843026232094e-01 4.929444342317560e-01 0.000000000000000e+00 8.055298449100090e-01 8.871112287212741e-01 0.000000000000000e+00 8.656940847709105e-01 4.098367391676661e-01 0.000000000000000e+00 7.182603949284063e-01 3.456402071721618e-01 0.000000000000000e+00 6.323653418237701e-01 5.029675640633227e-01 0.000000000000000e+00 6.110846258508276e-01 2.575059958234323e-01 0.000000000000000e+00 4.945749328930023e-01 2.625170377655549e-01 0.000000000000000e+00 7.385779517043357e-01 7.773678856428465e-01 0.000000000000000e+00 8.769890164881212e-01 1.160638338657984e-01 0.000000000000000e+00 9.063795342218008e-01 9.020858332805730e-01 0.000000000000000e+00 4.287911518546233e-01 1.545544542796670e-01 0.000000000000000e+00 2.403886547178353e-01 2.418881479267384e-01 0.000000000000000e+00 1.840276181286450e-01 1.117324051466445e-01 0.000000000000000e+00 3.381944444444832e-01 3.381944444445634e-01 0.000000000000000e+00 1.008171452988615e-01 1.888570369725047e-01 0.000000000000000e+00 8.435242216391163e-02 8.645171265626619e-02 0.000000000000000e+00 
</DataArray>
</Points>
<Cells>
<DataArray type="Int32" Name="connectivity" format="ascii">
7 8 8 9 9 10 10 6 5 11 11 12 12 13 13 6 6 14 14 15 15 16 16 4 13 36 35 13 6 36 5 11 28 8 7 23 36 38 35 34 39 38 28 40 42 24 37 23 28 42 27 24 34 37 24 25 34 34 38 43 23 37 45 8 23 45 10 36 6 28 11 40 0 26 44 13 35 12 25 0 44 26 27 39 12 40 11 38 39 42 37 34 43 34 44 39 10 41 36 25 44 34 12 35 40 35 38 42 10 9 41 36 41 43 8 45 9 9 45 41 27 42 39 36 43 38 26 39 44 35 42 40 37 41 45 37 43 41 46 56 57 53 57 56 49 47 52 4 31 16 49 60 47 52 55 19 51 48 56 52 53 55 31 32 50 54 49 62 17 62 49 17 49 18 21 20 48 32 51 50 33 51 32 18 49 52 1 62 17 53 56 55 18 52 19 52 47 53 16 31 63 51 61 48 20 19 55 14 46 6 51 56 58 10 47 9 55 56 48 8 54 7 22 7 54 20 55 48 33 61 51 33 2 61 31 50 63 6 46 57 21 61 2 10 57 47 46 58 56 51 58 50 53 47 57 14 59 46 9 47 60 10 6 57 54 60 49 8 60 54 15 59 14 1 22 62 21 48 61 8 9 60 46 59 58 16 63 15 15 63 59 50 59 63 22 54 62 50 58 59 14 6 13 11 67 64 4 65 30 4 16 65 13 12 66 15 14 66 65 64 67 16 15 64 12 11 64 15 66 64 12 64 66 11 5 67 16 64 65 14 13 66 3 68 29 3 30 68 29 67 5 30 65 68 29 68 67 67 68 65 
</DataArray>
<DataArray type="Int32" Name="offsets" format="ascii">
2 4 6 8 10 12 14 16 18 20 22 24 27 30 33 36 39 42 45 48 51 54 57 60 63 66 69 72 75 78 81 84 87 90 93 96 99 102 105 108 111 114 117 120 123 126 129 132 135 138 141 144 147 150 153 156 159 162 165 168 171 174 177 180 183 186 189 192 195 198 201 204 207 210 213 216 219 222 225 228 231 234 237 240 243 246 249 252 255 258 261 264 267 270 273 276 279 282 285 288 291 294 297 300 303 306 309 312 315 318 321 324 327 330 333 336 339 342 345 348 351 354 357 360 
</DataArray>
<DataArray type="UInt8" Name="types" format="ascii">
3 3 3 3 3 3 3 3 3 3 3 3 5 5 5 5 5 5 5 5 5 5 5 5 5 5 5 5 5 5 5 5 5 5 5 5 5 5 5 5 5 5 5 5 5 5 5 5 5 5 5 5 5 5 5 5 5 5 5 5 5 5 5 5 5 5 5 5 5 5 5 5 5 5 5 5 5 5 5 5 5 5 5 5 5 5 5 5 5 5 5 5 5 5 5 5 5 5 5 5 5 5 5 5 5 5 5 5 5 5 5 5 5 5 5 5 5 5 5 5 5 5 5 5 
</DataArray>
</Cells>
<PointData Scalars="pressure_nodes_[L]," Vectors="">
<DataArray type="Float64" Name="pressure_nodes_[L]" format="ascii">
9.988897194410125e-01 1.908307229405021e+00 9.963798495541303e-01 7.645128435575811e-02 2.632760148773052e-01 2.628475219780754e-01 8.879039913386252e-01 1.707215230668207e+00 1.548116637093753e+00 1.345899742982654e+00 1.144553945679023e+00 3.731584270687823e-01 5.022672880835471e-01 6.265272894746383e-01 6.464635531406749e-01 5.130941566554353e-01 3.771572822288795e-01 1.794298834754778e+00 1.622720285628345e+00 1.454115502409352e+00 1.286609926427288e+00 1.126756601537482e+00 1.837347785848326e+00 1.484968475579735e+00 1.305733444777794e+00 1.135313030028783e+00 8.554779830808311e-01 6.849798274890206e-01 5.056946375338343e-01 1.411311319933641e-01 1.405715607757900e-01 5.083623328817832e-01 6.895119154449855e-01 8.609683470087034e-01 1.100435435913270e+00 7.830175700939599e-01 9.749830085561806e-01 1.275572841048427e+00 9.209547324569050e-01 8.606301676364273e-01 6.125295122579120e-01 1.175801911481952e+00 7.098236191085054e-01 1.089146979142634e+00 9.932722284939647e-01 1.358474972175765e+00 9.920511864206401e-01 1.401938717665368e+00 1.125733159319987e+00 1.636781048987560e+00 7.126848084539511e-01 8.909816290420266e-01 1.461370461014916e+00 1.282715642374455e+00 1.718721973431507e+00 1.294781401541361e+00 1.093648726828738e+00 1.183869313979817e+00 8.993944725021957e-01 8.019682249577771e-01 1.565937762925435e+00 9.976100213317699e-01 1.815403052938411e+00 6.241647215282677e-01 2.812144759646139e-01 2.042129692070928e-01 3.639185030834421e-01 2.039922845329203e-01 1.354230205619858e-01 
</DataArray>
</PointData>
<CellData Scalars="pressure_elements_[L]," Vectors="velocity_elements_[L/T],">
<DataArray type="Float64" Name="pressure_elements_[L]" format="ascii">
1.625509937028107e+00 1.376406711837081e+00 1.126971785274987e+00 8.769919758948127e-01 3.127053786315523e-01 4.381378228175245e-01 5.635830639451646e-01 6.890311594793905e-01 6.891048161919479e-01 5.637132707798324e-01 4.382395288312785e-01 3.127416536651814e-01 8.599409639375468e-01 9.158990812430259e-01 3.918370802325730e-01 1.600206932320001e+00 8.953012105766270e-01 9.602071445916269e-01 5.886431417935920e-01 1.403188947463131e+00 5.932604114675928e-01 1.250437728417037e+00 1.220467468836103e+00 1.036717248245463e+00 1.398059162989183e+00 1.474840102032477e+00 9.955139907065604e-01 5.063513539048405e-01 9.359420576020667e-01 7.550106269517305e-01 1.060619745544841e+00 7.662181771641956e-01 5.829650128681167e-01 8.319838544986171e-01 1.154882521443937e+00 9.853292014199726e-01 1.078304016230582e+00 1.095035344315354e+00 6.841039434501996e-01 8.049390914143549e-01 1.176975659952021e+00 1.078645014302350e+00 1.376420478781146e+00 1.270529915943340e+00 7.323468142147538e-01 9.962369000762805e-01 8.886626478919402e-01 7.021306430186462e-01 1.270417206184907e+00 1.179577649268724e+00 1.091335785096039e+00 1.185794521283906e+00 1.498485821174996e+00 3.948641010075195e-01 1.532838803230602e+00 1.417380497781663e+00 1.034114427377108e+00 1.343722354550344e+00 5.920438059691214e-01 1.724576227204389e+00 1.762737443188080e+00 1.711119218885767e+00 1.207717041510693e+00 7.410309673138422e-01 7.748389253741454e-01 1.587890865490834e+00 1.883459510529836e+00 1.220837711152600e+00 1.542544869111125e+00 1.379326070252287e+00 5.136215737365873e-01 1.002378407744774e+00 1.374669506232780e+00 9.814464605981786e-01 9.598909160580372e-01 1.368920560194772e+00 1.168551735202306e+00 1.712286187774351e+00 1.787003268483213e+00 1.249175714103925e+00 8.984041236950154e-01 9.365848605238503e-01 5.913773405567349e-01 1.083786028478995e+00 1.054458560938537e+00 1.281284905581713e+00 9.967265431660053e-01 8.329256940039544e-01 1.287829646096321e+00 8.938810852098137e-01 1.470688192743095e+00 1.170601658665215e+00 1.641066890524418e+00 1.638149975832826e+00 7.918794413481519e-01 1.897808531734831e+00 1.095587569220813e+00 1.547690842255660e+00 9.004906198853775e-01 5.998141485909707e-01 7.051561124816768e-01 7.123603763965627e-01 1.804466258802894e+00 8.057885776815922e-01 4.585987589322896e-01 2.485812802010796e-01 1.864418333858274e-01 2.198328199537115e-01 3.773666902686599e-01 3.773774978485313e-01 2.283600244779995e-01 2.931720607441602e-01 2.931529913811268e-01 3.283320162189761e-01 3.283147840311065e-01 2.200199994707320e-01 2.493142126270405e-01 4.066391086728477e-01 8.853153754673491e-02 8.824443813729285e-02 1.869228202882299e-01 1.564256551391616e-01 1.566989081725580e-01 1.843064663544996e-01 
</DataArray>
<DataArray type="Float64" Name="velocity_elements_[L/T]" NumberOfComponents="3" format="ascii">
-7.968092113332215e+00 -1.593618422666443e+01 0.000000000000000e+00   -7.975541152864258e+00 -1.595108230572852e+01 0.000000000000000e+00   -7.989405832926893e+00 -1.597881166585379e+01 0.000000000000000e+00   -8.010650165885906e+00 -1.602130033177181e+01 0.000000000000000e+00   -8.026715866481673e+00 -4.013357933240838e+00 0.000000000000000e+00   -8.028315342874485e+00 -4.014157671437243e+00 0.000000000000000e+00   -8.028538345297896e+00 -4.014269172648943e+00 0.000000000000000e+00   -8.029051915327393e+00 -4.014525957663701e+00 0.000000000000000e+00   -4.010637472782188e+00 -8.021274945564375e+00 0.000000000000000e+00   -4.014140696533530e+00 -8.028281393067067e+00 0.000000000000000e+00   -4.015867327495645e+00 -8.031734654991290e+00 0.000000000000000e+00   -4.015665238179359e+00 -8.031330476358708e+00 0.000000000000000e+00   -7.701294412162556e-01 -8.191870553018824e-01 0.000000000000000e+00   -7.166418978444058e-01 -5.882504638205694e-01 0.000000000000000e+00   -1.340738764594652e+00 -7.465953560509511e-01 0.000000000000000e+00   -7.894428124044736e-01 -1.542394327428770e+00 0.000000000000000e+00   -8.807353125218820e-01 -8.858074659073408e-01 0.000000000000000e+00   -8.900212264998527e-01 -9.915203845869416e-01 0.000000000000000e+00   -1.015893834929345e+00 -9.151137411257155e-01 0.000000000000000e+00   -9.050227938786219e-01 -1.240428172074908e+00 0.000000000000000e+00   -1.048937141274505e+00 -9.473533465418169e-01 0.000000000000000e+00   -9.639898657131869e-01 -1.125823305613429e+00 0.000000000000000e+00   -9.454146979756304e-01 -1.093490198767525e+00 0.000000000000000e+00   -8.912390497201811e-01 -1.044646773830800e+00 0.000000000000000e+00   -9.073959341270004e-01 -1.243453537852310e+00 0.000000000000000e+00   -9.009320439993700e-01 -1.430905085806003e+00 0.000000000000000e+00   -3.726686261695684e-01 -1.010460082019829e+00 0.000000000000000e+00   -1.163960743109829e+00 -9.233733796176872e-01 0.000000000000000e+00   -9.826198071266354e-01 -1.014557944757093e+00 0.000000000000000e+00   -9.613014759216887e-01 -6.839780832693162e-01 0.000000000000000e+00   -9.751280694173723e-01 -1.022164684339188e+00 0.000000000000000e+00   -9.714354358773398e-01 -9.911443305869665e-01 0.000000000000000e+00   -1.125756392966273e+00 -7.136802249461052e-01 0.000000000000000e+00   -9.577475160690412e-01 -9.590666951198568e-01 0.000000000000000e+00   -8.227379411097459e-01 -1.108125208938392e+00 0.000000000000000e+00   -9.514792741915701e-01 -1.038744065515274e+00 0.000000000000000e+00   -6.686401272695514e-01 -1.049045676288456e+00 0.000000000000000e+00   -9.797272510125654e-01 -1.031991572183472e+00 0.000000000000000e+00   -9.752975153342567e-01 -8.194971621613708e-01 0.000000000000000e+00   -8.827258796074098e-01 -9.111841739361464e-01 0.000000000000000e+00   -5.658997214441834e-01 -1.237129319895224e+00 0.000000000000000e+00   -7.086710008709496e-01 -1.109018065412428e+00 0.000000000000000e+00   -6.854179918156341e-01 -1.380543356278754e+00 0.000000000000000e+00   -7.578590511920493e-01 -1.257722475708235e+00 0.000000000000000e+00   -9.577073358436141e-01 -9.811517126235297e-01 0.000000000000000e+00   -7.500593681536192e-01 -9.378291800860173e-01 0.000000000000000e+00   -9.545309685297301e-01 -1.001641148737691e+00 0.000000000000000e+00   -1.021211582317996e+00 -8.473115584860453e-01 0.000000000000000e+00   -7.559113886572305e-01 -1.254483763437025e+00 0.000000000000000e+00   -8.212540013689041e-01 -1.105606450935563e+00 0.000000000000000e+00   -8.676934322885108e-01 -1.080263028679584e+00 0.000000000000000e+00   -8.769311696143398e-01 -1.063342976306402e+00 0.000000000000000e+00   -8.309087949408425e-01 -1.039487791286556e+00 0.000000000000000e+00   -7.911929546741181e-01 -1.424536662850601e+00 0.000000000000000e+00   -7.919697335267823e-01 -1.008647404574216e+00 0.000000000000000e+00   -8.673591360571340e-01 -1.008279298485734e+00 0.000000000000000e+00   -9.151841575855917e-01 -1.050797685348534e+00 0.000000000000000e+00   -8.663673676374024e-01 -1.046349403339925e+00 0.000000000000000e+00   -9.422510674656366e-01 -1.184866518558431e+00 0.000000000000000e+00   -8.176334692669913e-01 -9.030275255303288e-01 0.000000000000000e+00   -8.476151993278445e-01 -9.948597916126244e-01 0.000000000000000e+00   -8.454246232343471e-01 -9.936297837092758e-01 0.000000000000000e+00   -9.269452119505575e-01 -1.023783445853011e+00 0.000000000000000e+00   -9.783369669740889e-01 -1.120475073215913e+00 0.000000000000000e+00   -9.626408013580308e-01 -1.093093513294664e+00 0.000000000000000e+00   -8.316390187225120e-01 -1.002055711782813e+00 0.000000000000000e+00   -9.171034162666043e-01 -9.438294128098272e-01 0.000000000000000e+00   -8.719024956915461e-01 -1.042253496976008e+00 0.000000000000000e+00   -8.538535967084360e-01 -1.016017116435301e+00 0.000000000000000e+00   -8.489089497352018e-01 -1.032346415402169e+00 0.000000000000000e+00   -9.311277720743038e-01 -1.284601847529664e+00 0.000000000000000e+00   -9.395558596629348e-01 -1.066663826926532e+00 0.000000000000000e+00   -8.861763639444902e-01 -1.020911816596555e+00 0.000000000000000e+00   -8.621002821334552e-01 -1.086967066061450e+00 0.000000000000000e+00   -9.160177229827224e-01 -1.100352291129965e+00 0.000000000000000e+00   -7.971401811417516e-01 -1.084253736952623e+00 0.000000000000000e+00   -9.057466028438097e-01 -1.056990123505364e+00 0.000000000000000e+00   -5.737751761675595e-01 -9.547668902636817e-01 0.000000000000000e+00   -7.323705849046738e-01 -6.323521567435039e-01 0.000000000000000e+00   -9.043281510656506e-01 -1.010572184236056e+00 0.000000000000000e+00   -9.863909892776941e-01 -1.054775410197689e+00 0.000000000000000e+00   -9.721728495970293e-01 -1.029186365090713e+00 0.000000000000000e+00   -9.371326812206492e-01 -1.178033719588602e+00 0.000000000000000e+00   -8.668702349949856e-01 -1.078612022907849e+00 0.000000000000000e+00   -9.768654868482778e-01 -1.024758759117474e+00 0.000000000000000e+00   -8.528469644532330e-01 -1.089251811705371e+00 0.000000000000000e+00   -8.866262950306262e-01 -1.076182745644648e+00 0.000000000000000e+00   -9.016802015604189e-01 -1.114185422236673e+00 0.000000000000000e+00   -8.393488818936099e-01 -1.066455646806165e+00 0.000000000000000e+00   -8.518039639134759e-01 -1.086763193633327e+00 0.000000000000000e+00   -8.043858129271579e-01 -1.075028238426962e+00 0.000000000000000e+00   -8.590389205988694e-01 -1.078436447231509e+00 0.000000000000000e+00   -7.749049514965956e-01 -1.012056799346274e+00 0.000000000000000e+00   -7.510513492604591e-01 -9.729574782592434e-01 0.000000000000000e+00   -8.220623656335778e-01 -1.145377757908055e+00 0.000000000000000e+00   -9.030195325697336e-01 -9.290996326997947e-01 0.000000000000000e+00   -9.460249885612914e-01 -1.012071954574046e+00 0.000000000000000e+00   -7.096002109847832e-01 -1.052188577760393e+00 0.000000000000000e+00   -8.722629194590243e-01 -1.118040094914485e+00 0.000000000000000e+00   -7.958882082220552e-01 -1.250231807150137e+00 0.000000000000000e+00   -8.531479024905165e-01 -1.148631774706105e+00 0.000000000000000e+00   -8.747878358015082e-01 -1.184146657040131e+00 0.000000000000000e+00   -9.071169379659190e-01 -9.163144171879518e-01 0.000000000000000e+00   -9.031459714604925e-01 -1.116711825505061e+00 0.000000000000000e+00   -4.817128535705016e-01 -4.816592027303851e-01 0.000000000000000e+00   -3.827289992050784e-01 -4.093946486224397e-01 0.000000000000000e+00   -5.161763668993512e-01 1.237007635839553e-02 0.000000000000000e+00   -2.876557881907859e-01 -3.746578472003637e-01 0.000000000000000e+00   -4.639726544322972e-01 -4.336274441372359e-01 0.000000000000000e+00   -4.336669571212904e-01 -4.637902010978187e-01 0.000000000000000e+00   -4.236539948227794e-01 -4.249443692823022e-01 0.000000000000000e+00   -3.756744660355748e-01 -4.381486451115710e-01 0.000000000000000e+00   -4.380847318083261e-01 -3.755198208713760e-01 0.000000000000000e+00   -4.426826175934228e-01 -4.421866373614963e-01 0.000000000000000e+00   -4.429149184983273e-01 -4.424153182106655e-01 0.000000000000000e+00   -3.569601659563970e-01 -2.776428378288234e-01 0.000000000000000e+00   -4.072256585299040e-01 -3.870060622235972e-01 0.000000000000000e+00   -4.817579287093134e-01 -4.816141276200628e-01 0.000000000000000e+00   -7.202226665825716e-01 -7.240436817649307e-01 0.000000000000000e+00   -7.102629101198440e-01 -7.138360543326766e-01 0.000000000000000e+00   2.402232429125034e-02 -5.086987582003148e-01 0.000000000000000e+00   -7.995280283110362e-01 -5.239816130736896e-01 0.000000000000000e+00   -4.853920980042207e-01 -8.313591093972806e-01 0.000000000000000e+00   -4.205163138403548e-01 -4.278525682348067e-01 0.000000000000000e+00   
</DataArray>
</CellData>
</Piece>
</UnstructuredGrid>
</VTKFile>
