<?xml version="1.0"?>
<VTKFile type="UnstructuredGrid" version="0.1" byte_order="LittleEndian">
<UnstructuredGrid>
<Piece NumberOfPoints="492" NumberOfCells="906">
<Points>
<DataArray type="Float32" NumberOfComponents="3" format="ascii">
0 0 0 0 1 0 1 1 0 1 0 0 0 0.0526315789472 0 0 0.105263157894 0 0 0.157894736842 0 0 0.210526315789 0 0 0.263157894736 0 0 0.315789473684 0 0 0.368421052631 0 0 0.421052631578 0 0 0.473684210525 0 0 0.526315789473 0 0 0.57894736842 0 0 0.631578947368 0 0 0.684210526315 0 0 0.736842105262 0 0 0.78947368421 0 0 0.842105263157 0 0 0.894736842105 0 0 0.947368421052 0 0.0526315789472 1 0 0.105263157894 1 0 0.157894736842 1 0 0.210526315789 1 0 0.263157894736 1 0 0.315789473684 1 0 0.368421052631 1 0 0.421052631578 1 0 0.473684210525 1 0 0.526315789473 1 0 0.57894736842 1 0 0.631578947368 1 0 0.684210526315 1 0 0.736842105262 1 0 0.78947368421 1 0 0.842105263157 1 0 0.894736842105 1 0 0.947368421052 1 0 1 0.947368421053 0 1 0.894736842105 0 1 0.842105263158 0 1 0.789473684211 0 1 0.736842105264 0 1 0.684210526316 0 1 0.631578947369 0 1 0.578947368422 0 1 0.526315789475 0 1 0.473684210528 0 1 0.42105263158 0 1 0.368421052633 0 1 0.315789473685 0 1 0.263157894738 0 1 0.21052631579 0 1 0.157894736843 0 1 0.105263157895 0 1 0.0526315789476 0 0.947368421053 0 0 0.894736842105 0 0 0.842105263158 0 0 0.789473684211 0 0 0.736842105264 0 0 0.684210526316 0 0 0.631578947369 0 0 0.578947368422 0 0 0.526315789475 0 0 0.473684210528 0 0 0.42105263158 0 0 0.368421052633 0 0 0.315789473685 0 0 0.263157894738 0 0 0.21052631579 0 0 0.157894736843 0 0 0.105263157895 0 0 0.0526315789476 0 0 0.500076861967 0.607318855406 0 0.679538024677 0.305143921402 0 0.265743127234 0.358362234914 0 0.77781114106 0.676271442555 0 0.260742625738 0.710864820575 0 0.192541040261 0.8072897193 0 0.812068172164 0.186744325667 0 0.842956811151 0.837013696613 0 0.188708567839 0.194286553463 0 0.165167704884 0.866772239893 0 0.883663366919 0.108402651475 0 0.968538908694 0.0727405490585 0 0.0435293236262 0.917371525352 0 0.924108131079 0.962787291126 0 0.466570263958 0.296671036101 0 0.745769161066 0.493748270945 0 0.512432740874 0.797225739181 0 0.4139184945 0.488617846661 0 0.579412318175 0.477026296051 0 0.574582472851 0.12808317387 0 0.392196750378 0.118590153634 0 0.0999254865321 0.475214648527 0 0.868006222636 0.428797930576 0 0.299104755898 0.19739792338 0 0.714007192006 0.838238249102 0 0.818936332281 0.327042725253 0 0.126042278641 0.383181438767 0 0.374434778312 0.675969479192 0 0.634551328442 0.654575075593 0 0.148290504407 0.29878194992 0 0.882395087116 0.674727742102 0 0.704519938077 0.0486230568855 0 0.0949567670092 0.254287879362 0 0.916156934142 0.283879026576 0 0.708044135643 0.961077891567 0 0.290241208015 0.0752849667269 0 0.103602412595 0.665766548754 0 0.261676299439 0.901098415492 0 0.805796471016 0.0998833298808 0 0.919340656274 0.822652116181 0 0.161821702787 0.911329484291 0 0.221625156864 0.258958962212 0 0.756983717123 0.244530594517 0 0.859014219545 0.95212768079 0 0.0440247764888 0.866383888098 0 0.947454302261 0.119256234186 0 0.0571511584233 0.133961192567 0 0.871854144096 0.0324569981089 0 0.953601959137 0.915583106496 0 0.916121987056 0.0536069078952 0 0.0754892235847 0.948948511184 0 0.054925091375 0.084075255592 0 0.133829007837 0.88896896717 0 0.88501081019 0.856835641722 0 0.840132454058 0.146198583642 0 0.373658738301 0.247789959302 0 0.621582278368 0.223199727555 0 0.168526306359 0.41604711249 0 0.268026146831 0.4562905052 0 0.812193377395 0.405286976715 0 0.362511919871 0.327300851904 0 0.346891897556 0.422021111487 0 0.581342569534 0.727411559087 0 0.57684840862 0.301936107347 0 0.440215108713 0.738177690971 0 0.71379060825 0.399832622944 0 0.625156115211 0.393937427675 0 0.437556728 0.198667489015 0 0.392686675546 0.580537603235 0 0.533200048477 0.390791130576 0 0.176874665878 0.594229457221 0 0.438532155286 0.399421189304 0 0.349822775071 0.763703885994 0 0.659346632624 0.744147341049 0 0.15708458679 0.757312204234 0 0.611608273488 0.563914494125 0 0.52236479293 0.212401268236 0 0.686919464093 0.578285485081 0 0.60227781122 0.825507684452 0 0.171601481493 0.352360362347 0 0.292070484999 0.77450198364 0 0.845036895534 0.622550083389 0 0.825429092965 0.52840046095 0 0.213314290812 0.682429843729 0 0.127450913589 0.578936166903 0 0.520985928941 0.899894577856 0 0.705856063195 0.230804937936 0 0.249931463838 0.65617106108 0 0.0901032550824 0.758493902272 0 0.661646411842 0.485470996892 0 0.83884730944 0.479857164707 0 0.495717608467 0.474994650552 0 0.422353041292 0.835348162259 0 0.907184446451 0.350418897413 0 0.66567319164 0.0827481446413 0 0.630403421878 0.0683882481638 0 0.480109226243 0.132219209576 0 0.480234645496 0.553501566677 0 0.628402947673 0.11451681651 0 0.442339959771 0.0514642771074 0 0.452210563945 0.640094218785 0 0.530472279122 0.556701985609 0 0.198030066271 0.302856337472 0 0.0443286488455 0.546728925033 0 0.349097655287 0.157365830971 0 0.858934731229 0.257610347993 0 0.904985394771 0.480428391767 0 0.548034210784 0.633119010263 0 0.767330943876 0.314637688906 0 0.220933737824 0.154108756142 0 0.725873126991 0.668246624816 0 0.850633473003 0.364919049034 0 0.758560924433 0.869345086198 0 0.0739653413768 0.312516609734 0 0.335567199196 0.686726706824 0 0.387969894929 0.0594895288395 0 0.953742700198 0.504088049092 0 0.13549032321 0.210157358713 0 0.285210703385 0.285785563377 0 0.825002186361 0.677758820402 0 0.958212797481 0.329356899968 0 0.333761905417 0.0456171279486 0 0.226873539765 0.853824847978 0 0.338807430459 0.104405022801 0 0.913622750305 0.772754826456 0 0.757967530794 0.12960304969 0 0.28395803947 0.13529108549 0 0.764455177743 0.191943299267 0 0.90211961618 0.61358782139 0 0.301916511655 0.896307872135 0 0.807395276431 0.856112886984 0 0.849983745756 0.712132947978 0 0.0508344349811 0.439668589861 0 0.750993335219 0.921459034965 0 0.225959798176 0.760653867599 0 0.759520210807 0.816732863296 0 0.110575905407 0.428698611446 0 0.797659396366 0.0404019951714 0 0.0484361978452 0.183119558659 0 0.952169023515 0.182185363798 0 0.0454111496712 0.781565776661 0 0.176501339773 0.249491375955 0 0.906694426134 0.223446044158 0 0.709353451982 0.102115283543 0 0.860534589588 0.311835958245 0 0.0454658752291 0.649104866417 0 0.157499417377 0.159730498391 0 0.248118985828 0.0425754777425 0 0.88509214239 0.722813692626 0 0.117237271011 0.338653618732 0 0.177726985916 0.108483480537 0 0.791540878407 0.147292662809 0 0.751787970401 0.0699611381809 0 0.815639508653 0.792275131753 0 0.800911303166 0.907595618738 0 0.807888801974 0.727109882276 0 0.859790344232 0.753387968722 0 0.047945601652 0.244992245355 0 0.0882871808474 0.051787708526 0 0.896784391054 0.165628303457 0 0.130469624467 0.941583723919 0 0.238710168153 0.20756046121 0 0.140120163238 0.81677964755 0 0.183554491666 0.954334503766 0 0.874643572091 0.804905564673 0 0.206418069409 0.910006314532 0 0.925122104186 0.873794712233 0 0.848936549788 0.886463368082 0 0.852058162237 0.0626752433767 0 0.898330878246 0.909094683642 0 0.957510005394 0.85924293947 0 0.0877227163258 0.206672181334 0 0.0866623886419 0.821147967526 0 0.0376770040486 0.0369288843719 0 0.96640586336 0.0357958071803 0 0.963722170506 0.964711644151 0 0.0355170315049 0.963410122496 0 0.565035968106 0.86020167323 0 0.428469752482 0.924940902336 0 0.46082886482 0.876968836549 0 0.51175949063 0.846081008376 0 0.411459848639 0.267638669487 0 0.308064041775 0.388682037049 0 0.263518601569 0.412557550062 0 0.219770906663 0.387612068358 0 0.410237838033 0.314462230561 0 0.503802390122 0.346363481669 0 0.447284232051 0.240197059568 0 0.39847824273 0.892087691632 0 0.774861897525 0.444723511697 0 0.655276404957 0.257044608095 0 0.0891011303068 0.613432590991 0 0.617872864638 0.879591362456 0 0.402640140797 0.362258079923 0 0.45142839663 0.352425087153 0 0.548756769956 0.256183146634 0 0.524814404429 0.300419154392 0 0.649559318506 0.350251407506 0 0.731025928057 0.445423539163 0 0.509910546067 0.753087866374 0 0.602797619153 0.348095628469 0 0.625990824894 0.303507519752 0 0.315437408864 0.342181030892 0 0.715292601157 0.538581689971 0 0.687672200883 0.44333344802 0 0.599811648418 0.258937748014 0 0.693248811601 0.354042596041 0 0.550367323457 0.762156034511 0 0.576327846469 0.21593814075 0 0.0671439259651 0.702696779078 0 0.337376465552 0.476659846948 0 0.497346295903 0.2515982525 0 0.59090446316 0.775024975229 0 0.553562369116 0.346712431465 0 0.558178130678 0.433930498322 0 0.64486170685 0.439531004353 0 0.468797065239 0.818155191382 0 0.0405316661437 0.732761817918 0 0.354877138576 0.375510137133 0 0.756306598678 0.534006915638 0 0.434760469923 0.786074959917 0 0.473359243589 0.767411983093 0 0.384666484264 0.627571911929 0 0.724159095579 0.793311198254 0 0.401803491572 0.534863867648 0 0.302288146535 0.441083967997 0 0.675973998946 0.531716305106 0 0.484927764458 0.392894921868 0 0.476467478978 0.206554112232 0 0.444765550214 0.689150258676 0 0.623620414396 0.608741389757 0 0.191317551876 0.47245797399 0 0.693091211447 0.705167310848 0 0.559880520661 0.680301634285 0 0.678462090206 0.789031227179 0 0.63347595868 0.783172977773 0 0.245434860236 0.495183544934 0 0.60145861387 0.436424406321 0 0.555131136039 0.812433415142 0 0.382434621854 0.456330431173 0 0.660504385824 0.616064129163 0 0.647779024103 0.698991423799 0 0.392126093189 0.409742496452 0 0.469615364233 0.436918462162 0 0.321548826665 0.301027355392 0 0.142607283954 0.458107212386 0 0.636056576146 0.525705346537 0 0.291855982988 0.494858070633 0 0.193195253577 0.0508067537398 0 0.597193329267 0.520158806747 0 0.360708243165 0.720025453666 0 0.369610181054 0.50708517255 0 0.513325963521 0.434123893132 0 0.669048126884 0.396821417756 0 0.579058816084 0.391648587138 0 0.706126748338 0.624194527133 0 0.514127319169 0.514934044811 0 0.125637256724 0.712623663005 0 0.74233996502 0.35814912666 0 0.456218519061 0.595989658239 0 0.226099062256 0.440024792506 0 0.498868508038 0.170918224758 0 0.65711
[...]
<CellData Scalars="pressure" Vectors="transport_vector">
<DataArray type="Float64" Name="pressure" format="ascii">
0.741315245628 1.29239935677e-39 0.0391906909645 0.00655477214605 -3.43141700283e-39 0.409311026335 -5.69627825748e-41 0.00154631270561 0.114954546094 0.0265222452581 0.632387340069 -2.65156448691e-36 0.0286856722087 0.00706832483411 -4.84038757625e-39 -2.61508918114e-40 -6.36662721295e-39 0.00062532996526 2.39402914159e-10 0.596740245819 7.48035454506e-33 -1.91809500028e-20 -5.0343616553e-33 -4.00761691837e-39 0.000203164003324 0.62179428339 0.00019261345733 0.662580251694 0.045712903142 -2.35191424156e-24 -2.38678449681e-23 -2.40943334037e-30 -6.50016751344e-25 -9.04555442796e-25 -1.04576108569e-27 5.58459518629e-08 0.00126037606969 0.000279980711639 -1.08020210194e-30 -1.54134436417e-28 3.10639727275e-08 9.1186182466e-34 1.24365557443e-33 1.05964512138e-32 0.00734094483778 3.10945547088e-10 0.0022259131074 0.00830770656466 0.00112409389112 7.13865596969e-34 -4.7467527178e-34 1.69041265963e-06 7.78323624218e-07 5.50156755708e-07 0.00213202368468 0.018389871344 -1.05215678156e-31 2.27010550589e-05 0.00891522970051 0.0504971146584 2.17095417974e-36 -3.96945815989e-41 -8.83386959701e-38 0.729838609695 0.419004291296 0.519020557404 0.395873993635 0.700161993504 0.12617097795 1.67997749252e-39 -1.52007238203e-38 8.4993558315e-39 2.00797439902e-05 1.94915810425e-05 0.411385864019 0.141312450171 -1.80357044762e-37 4.13273941877e-38 0.116562724113 0.163013085723 -2.66132922786e-38 0.0121217286214 1.01008149411e-29 0.00134916196112 3.82585219453e-18 0.000189433631022 0.00160125037655 4.93373788005e-13 4.49950583268e-27 -3.62028237448e-26 3.07274461875e-07 3.22022913087e-26 -1.51238470179e-24 2.95042787002e-06 4.33855075244e-06 3.51247209096e-09 4.62500189258e-08 0.000435509369709 -7.4692838862e-32 -1.49678147698e-33 2.38140528381e-05 0.00024615006987 0.000332866446115 0.00014066255244 -7.0927900903e-32 3.27059732795e-32 2.73689465757e-06 3.8628147081e-07 2.49099719563e-39 -4.75746433832e-36 3.03100857833e-40 5.19563915773e-39 3.36712111329e-37 4.03487525636e-38 -1.51074155595e-38 3.93823723011e-40 -1.76260770878e-22 -1.70509369034e-21 -2.64672097163e-38 -3.83907321858e-29 0.00131970876828 0.00637314328924 0.01932666637 9.33509581955e-05 0.000556453596801 6.27822900238e-34 2.00075993438e-40 5.28443663882e-41 0.655519545078 0.377033740282 0.127033770084 0.0667960047722 5.60988155485e-06 0.000228522068937 4.79508489661e-05 3.32036188411e-06 0.618955790997 0.326658427715 0.0732753276825 2.14842616094e-29 1.46019494485e-30 0.00273647112772 0.00410942640156 3.19468002364e-31 1.21153151787e-33 4.58876223628e-33 1.57764801291e-32 -1.05590215238e-18 -2.58233544966e-17 2.59355510035e-27 1.15827112514e-31 1.80254849251e-28 9.12175742899e-22 4.03691886635e-21 -1.13513767251e-36 -1.95314142463e-14 1.38058689018e-23 3.44177816759e-21 1.29900197826e-19 1.0560550774e-18 2.31461837823e-16 3.17338972877e-08 7.93449073805e-13 7.47340037077e-12 1.42086321007e-12 5.87219814866e-27 2.02797001414e-09 -4.35154489482e-13 2.83575979301e-15 8.19568024557e-12 -5.04803611684e-17 1.05205211053e-16 3.99409887235e-38 4.04961067653e-20 5.16467338086e-18 -2.55318960181e-15 1.62291380345e-16 1.9173990483e-15 3.5866053183e-11 -4.30401661705e-21 -5.05877713931e-39 1.61186631568e-36 -1.62627569963e-36 1.60791654627e-24 1.07616160143e-23 -7.78126452161e-09 -3.00512810148e-20 -8.84994085362e-18 -1.68320997615e-18 1.01777275496e-09 1.61407035159e-24 2.76260617426e-25 -8.06443523071e-11 1.8881494323e-17 6.50339656567e-22 5.15283267444e-11 -6.5518818398e-14 -3.06072962114e-12 2.47648242516e-14 1.42509506799e-12 -2.24112572338e-15 -2.78218400619e-16 1.59397045182e-23 -2.89612138524e-13 -4.18488811313e-12 2.01581592873e-21 1.32735452474e-22 9.3706090698e-19 2.88906624731e-26 -7.09570404896e-35 1.65722016425e-32 1.79693413306e-33 -1.51524418013e-11 5.93269006747e-27 -1.06975700813e-13 -2.96106706124e-25 6.57717386676e-22 5.46493799107e-16 6.82453651509e-17 5.69952678803e-12 3.40058814441e-10 1.11452900132e-13 4.25635834764e-15 -7.48107131798e-11 4.39740546008e-18 3.11208434436e-38 3.38885235122e-35 2.14025841494e-09 6.50526214876e-19 1.21395592057e-19 4.93089776982e-28 -1.68086305796e-19 -2.2385482953e-13 -8.85710179244e-13 5.50179191094e-09 -1.36128552874e-09 1.39082756059e-21 1.01184706872e-19 -2.95077818516e-15 -2.62842065414e-14 1.09087926101e-25 1.98809987511e-24 5.47754555537e-19 -4.98058557631e-18 -5.02021538021e-22 -1.99561633903e-24 1.3921110436e-22 -2.81687855578e-21 -4.68928857604e-14 -4.79332188447e-38 -1.86039666525e-36 1.66777958357e-17 3.76809852688e-17 2.52646601673e-17 -3.13205321111e-31 -1.46440375288e-14 -1.40966597979e-17 4.18819608419e-22 4.87247185533e-21 4.30709532011e-28 3.79287715963e-21 3.44814219149e-19 3.85700854724e-22 2.99581916213e-15 -3.17775362034e-17 -8.38287458554e-24 -1.66386966625e-18 2.08410190197e-17 2.32397230349e-08 9.4666285122e-07 -4.95576991236e-21 1.62757544331e-07 -3.44730271828e-22 -3.17365841919e-23 -4.99825944522e-11 -2.51203311624e-12 5.21493265238e-12 2.04031421163e-05 3.16212117468e-06 2.70296588049e-28 -1.83172714367e-29 -6.56984686003e-19 6.98028819311e-19 -5.42195637249e-25 1.13493233545e-25 -2.85588726001e-06 -1.30317781864e-20 2.0544860973e-20 -2.93505492432e-16 -5.21032175656e-19 -2.98066692061e-17 -5.94144008132e-16 -9.32162837762e-21 5.21356458183e-28 0.00150739320088 6.63246610202e-05 2.94846699944e-07 1.12402928974e-28 7.40660229563e-31 -2.28373490825e-31 -3.62601526246e-30 3.50550340045e-06 3.9579564824e-32 -2.84651228409e-33 3.47276443e-33 8.3440960391e-33 -1.72398539888e-09 -1.32580380008e-09 0.00085484754527 0.00261879316531 -2.66194293171e-12 -1.20097317508e-11 -1.38879657557e-14 -6.15770130198e-13 0.126580193639 0.0521094501019 2.3046663485e-21 1.51699043605e-19 -7.99150428215e-22 6.1824215589e-23 5.93810254941e-05 0.000105785627966 4.10604889112e-06 -1.29819291034e-33 -1.4322602451e-33 -1.0250359963e-32 0.615610480309 -1.82374086328e-23 -3.84415175532e-22 -6.66446302986e-22 -7.89902201616e-24 9.64592814512e-08 7.40582919434e-08 5.91578938614e-11 4.95817189389e-12 -3.98041007127e-21 -6.26317259549e-24 -2.34350380898e-13 1.51132780567e-23 4.80349597823e-22 -1.70591648446e-11 -1.59945331719e-12 -1.48043112093e-19 -2.56228888261e-20 0.451467603445 0.137586086988 -1.13588405717e-14 -6.53299444503e-15 -1.85531976743e-27 6.00296409803e-11 -5.22986039084e-36 -1.13094458194e-26 0.00766677921638 5.74552471728e-33 1.37738403621e-33 5.44381182408e-05 -1.0878873323e-11 -3.00120903607e-13 0.000265614740783 -6.49933397964e-33 -3.20955698611e-30 0.372108727694 0.0964188203216 0.0386017225683 4.81518703721e-35 -2.45722658647e-36 3.92847032344e-05 2.74946069112e-05 -3.55137977132e-14 1.64492739566e-17 7.92000853405e-33 -4.33924666259e-33 -3.51271672189e-27 -4.78988360597e-26 -4.46833742506e-29 -1.56891779299e-14 0.00711458688602 1.54987470494e-23 -8.89105483595e-30 7.47016887358e-29 5.71002356509e-09 9.43664812958e-10 7.25841829287e-29 9.79679413149e-08 0.000200873910217 0.719408452511 0.669841587543 0.404977738857 -1.18520871137e-29 0.657115936279 -2.94504222058e-34 -3.55539143173e-35 -2.89518520234e-38 -4.3237129137e-37 -3.05011336525e-17 -1.98510045948e-16 -3.92644496765e-22 -1.40954209281e-22 -2.41089606385e-18 -1.83989938747e-19 1.87092602613e-24 1.45374947929e-23 1.41414323448e-22 -7.074063467e-23 5.58581159556e-27 2.36632017289e-26 4.35050626254e-25 1.10654776422e-25 3.40912320111e-30 5.29642410657e-29 1.44151311321e-20 8.36104459548e-22 1.51157860172e-16 1.6852496381e-17 1.70481019518e-19 1.68659200748e-18 2.77573508486e-19 2.92097378326e-20 1.77304180227e-08 1.05878477541e-07 8.61905300553e-06 9.73288706518e-07 2.96748269132e-14 5.10618619869e-13 2.04231654963e-23 1.58866867545e-22 1.26964572606e-18 1.70085340774e-17 9.97889684567e-15 1.48792687427e-15 1.36543218816e-14 1.31243662314e-13 2.47710629786e-10 3.35107740168e-11 1.74790071306e-10 1.13918086075e-09 -3.77978367726e-16 -3.04895431977e-17 -9.28997046306e-20 -6.29366572916e-19 1.5063390412e-15 1.274100183e-14 3.65169173038e-28 1.98901262416e-27 -9.90829818193e-09 -6.68417265981e-11 -3.52437357076e-10 9.01187978408e-12 5.39642532049e-11 1.4866659015e-08 1.39387090758e-09 -1.12309868775e-14 -1.69417929104e-15 2.30184033319e-22 2.82964217376e-23 2.6996009631e-26 2.38170172795e-25 -4.45680845744e-13 -8.03395368352e-14 4.82681427208e-17 4.53751155861e-16 2.15416104551e-13 2.9148382384e-14 1.3252308864e-13 9.94705728376e-13 -3.11411787135e-20 -1.96661337604e-19 -8.63677861867e-23 -8.74022743965e-22 4.26285089837e-24 6.79791557583e-22 1.13591590596e-22 -3.57339505208e-11 -2.59029270255e-10 1.39854802237e-22 1.13642815916e-19 1.32355497682e-20 -3.75540148024e-13 -3.15702650654e-12 7.42150498768e-18 7.13657269951e-18 -6.84832070291e-20 -3.16183035994e-20 5.24649102742e-24 1.90508046899e-23 -3.16480853326e-20 -8.92177824674e-12 -1.5568913346e-12 -2.57593783628e-16 -6.04326159427e-15 1.39945207361e-30 2.38030144407e-34 4.70179630369e-33 -2.30260065572e-13 -1.24131922189e-12 -4.36006863819e-15 -5.10675105108e-16 -6.04606696739e-13 -3.48357475678e-12 2.80712455337e-27 1.1416983498e-20 1.14723508807e-21 -1.05145357698e-10 -1.66083032743e-11 5.11656140385e-33 -1.89697907447e-14 -1.0640200201e-13 2.09389643402e-08 1.05918401408e-20 1.02189123855e-19 2.04600690011e-26 8.00429581211e-27 -8.32218273244e-14 -5.00179162411e-13 -1.09442897036e-16 -2.36834181349e-15 5.61147874558e-23 -4.16195036633e-22 -4.22244741496e-23 -1.30429984961e-31 -1.98146480879e-15 -2.64597316734e-16 2.77335988905e-21 1.43146739241e-20 6.03652389716e-17 1.39401160738e-18 -1.65798663359e-30 8.49085631487e-21 1.38776269083e-20 -1.43239981883e-18 -6.33609554509e-18 1.86217184099e-27 -1.37638052606e-23 -7.96521328585e-18 -5.87372085598e-16 -9.55931662638e-20 -4.58705460668e-19 -2.20302863078e-34 -7.73204703819e-07 -1.86516342637e-06 -1.64377183864e-06 -1.61794450271e-22 -1.55878541267e-21 -3.12489106591e-07 -3.40664359029e-21 -4.22076743153e-21 -7.81530398665e-14 -1.19122749588e-14 -9.82395109327e-25 -2.90879696086e-18 -1.00759437846e-31 -2.08701668096e-30 1.38015873185e-31 2.28740896727e-33 -5.29659430429e-39 -4.16916701313e-39 7.82861395195e-38 -2.71546710484e-36 1.69077838361e-34 -1.07881324655e-33 2.48956364398e-34 -9.33851192622e-38 9.25111955513e-37 8.16710645221e-36 5.19379379339e-35 -3.27419458632e-35 -2.14501017855e-34 -5.46117678651e-36 5.87525300852e-34 -3.86106180549e-34 -5.86749070505e-33 -4.04990950733e-35 -9.54150968614e-33 6.69556247885e-05 2.77868439298e-05 2.06351751331e-06 6.20440927367e-13 -1.09203427546e-38 -1.93052633967e-36 -3.58315645906e-35 -1.53416274638e-37 2.38892284474e-31 7.16032776558e-31 4.35261912806e-29 3.62824512822e-30 0.0173578821123 2.87373298149e-19 3.35088219167e-18 -1.70809537401e-17 4.87322125511e-18 7.0899730531e-10 -2.23267715427e-09 8.86254447607e-09 1.79796029443e-06 1.44759746945e-06 1.29439072794e-07 2.01232779773e-07 5.44333124708e-06 0.346018373966 0.0861297026277 -1.8660853784e-24 0.0286438390613 0.0511849373579 0.011133460328 0.00245669297874 0.00109433289617 -1.11986697693e-09 -1.16188558774e-09 -1.05023350017e-08 -3.24545723629e-10 -5.75643488432e-09 -6.39651998036e-10 3.62484414939e-34 1.48902909418e-24 -1.37368230622e-23 -4.96227085276e-25 -1.82452643562e-25 3.46350755693e-14 5.18821656237e-15 1.61987841218e-13 1.92890662617e-14 -2.44210724273e-18 -2.56497230822e-19 -3.63015821881e-17 -3.25473621388e-08 6.07441688771e-06 -2.8973533972e-07 -1.16363509051e-07 0.00299925659783 0.00357394781895 1.26439443446e-28 6.02549352925e-32 2.8378060513e-30 5.8533637457e-06 3.1485225918e-05 7.32317494112e-05 1.0241707038e-08 3.43471195929e-10 -8.55085470474e-36 -9.8840813631e-37 -2.35698894956e-37 -1.17364669411e-32 1.11100785921e-30 1.06923401084e-31 3.89934581979e-33 -1.70333780606e-35 -1.74123934848e-34 -2.11509747482e-33 -3.18467251126e-32 -2.6836280994e-28 -3.08886056344e-27 2.64428512162e-32 8.90888507515e-33 -3.88693827125e-10 1.55721267679e-38 -1.36999520545e-36 -7.42009342409e-35 1.88055880118e-33 1.46799907536e-32 -2.56256907521e-35 -8.55401298485e-36 0.00687880953774 0.0723299756646 0.0365287438035 1.01332296651e-34 1.00967309386e-35 1.6746477083e-34 0.439327657223 0.126243442297 2.29466463968e-26 4.35459046599e-09 3.89188073768e-07 5.63233122364e-08 -2.70293433979e-38 -9.08544471031e-40 -5.5668806431e-29 2.13183310838e-30 -1.02315013249e-29 -8.89894738714e-30 -8.44672942701e-11 2.30581716915e-11 -1.70763708729e-10 -1.14744377194e-11 -6.92470081276e-10 4.41348763092e-11 -3.1238686013e-29 2.01814301873e-29 1.55526727285e-29 -6.54354384577e-36 -9.25312688715e-38 -2.96933776026e-35 6.39010996895e-11 7.26667337414e-12 1.50797945542e-35 1.55041868297e-36 6.29797927409e-27 7.97125649468e-37 1.12914476067e-35 1.19691677014e-07 6.91595289481e-07 3.04052301999e-13 -1.78894952365e-37 -2.26293693555e-36 -2.58862285704e-39 -1.03194656928e-37 -1.95453256884e-34 -8.79744678725e-35 -3.70136730261e-18 -6.4003539336e-19 -1.81424864592e-19 -1.55916275324e-20 9.80363213472e-22 5.17294945375e-22 -1.57847155485e-11 -1.65689348092e-12 8.42504831091e-13 -2.73364962394e-13 0.694116353989 0.0762464851141 4.85009236685e-25 -1.36091679511e-26 0.523313522339 0.0708744674921 0.268588781357 -5.82023347728e-27 -9.31015612494e-25 -1.0904795304e-25 -1.0139697597e-38 -1.22991764427e-37 2.94407337051e-12 2.22372342762e-10 5.7061522174e-11 -5.01630825618e-26 -3.91442469369e-25 -4.9331808057e-26 1.73070045718e-30 -2.42426020327e-32 1.41678299808e-30 -3.10767405825e-28 -2.66652454149e-27 5.40061802397e-27 6.36314157302e-28 2.14468646601e-26 -1.22039534034e-09 -4.83987649957e-09 -7.08993586144e-34 -7.7938059223e-35 -9.17422206813e-33 7.13276873411e-15 -1.78901087636e-16 5.80290074889e-14 -4.26832789454e-34 1.32089783627e-34 2.41431848735e-07 -7.31313135049e-11 5.3996778604e-08 0.00717673031613 0.0216739866883 0.00010820764146 0.00136232364457 0.00453271856532 0.00089938857127 0.000572757446207 1.35572772706e-05 0.0101473666728 1.15938706895e-30 -4.66884205425e-33 0.0160574484617 -4.96737122521e-36 8.17793804092e-38 1.27251442709e-37 2.00312798865e-38 -2.95064485523e-18 -8.07251303733e-16 -5.59728172747e-17 1.49574543684e-06 2.82505624227e-07 1.61348252732e-05 2.82445398625e-06 0.444269955158 0.0420989096165 0.132008388638 -5.97008735781e-08 -3.50592671339e-07 -8.9415678417e-08 0.541641354561 0.330568879843 -2.23293863427e-23 1.67539440254e-22 6.14961015172e-24 0.00403419230133 0.0212948806584 4.57846247249e-41 -2.39304222908e-39 -7.51800830006e-40 0.0467174835503 0.263859122992 7.43070535658e-11 6.59516885548e-09 2.98686870792e-08 6.82592649071e-10 8.34410128319e-25 7.08140565183e-25 3.27605236747e-24 -6.51793672859e-26 1.41771648408e-19 4.27327845624e-21 1.37738728928e-21 0.0144683867693 -1.94755311484e-25 -2.71061389274e-26 -2.28578795153e-26 6.98267031112e-05 0.000502323440742 0.000102934791357 0.000386258237995 8.65614335765e-09 1.02179211273e-11 0.412135750055 8.49143546588e-08 8.76007106854e-07 5.60315811526e-08 3.59145160473e-05 0.000144305944559 -3.1890302031e-12 5.51233321142e-13 6.32179865878e-19 7.01512038096e-20 0.118065625429 0.0711773335934 -4.18752395951e-28 -1.07247671921e-28 7.10951342242e-09 1.09505647605e-10 -4.24569524444e-25 5.00421711391e-26 -1.49712700252e-30 -2.2548074593e-29 -2.23672895803e-30 -1.60067157685e-27 9.01242769336e-28 0.665860235691 0.288799792528 0.326994687319 5.17451878727e-40 1.94215202741e-39 1.16337914469e-38 0.607393860817 5.41630517018e-25 2.38202451381e-26 2.81169423033e-06 3.13938689942e-05 5.83290670875e-07 8.46093314522e-07 3.44608270098e-06 1.57078108994e-29 1.55833287184e-28 -7.65217952244e-31 2.00149306216e-20 -4.23515547185e-17 -4.67541138116e-15 -4.47255313128e-16 0.258400350809 0.0411799997091 9.87454715255e-37 1.15284413015e-35 1.36213421254e-35 3.24304185157e-37 1.03544533129e-37 0.575518906116 0.305832475424 0.0630936101079 1.34446490399e-11 -1.67580272575e-12 -1.16720467926e-12 -4.15218163671e-12 5.26536612695e-26 1.60104710911e-28 5.13255274613e-29 -3.02345835542e-14 -2.72575825843e-13 -6.73376031177e-15 7.06688407842e-28 -7.49081123146e-30 1.87736798195e-28 1.91885323518e-28 9.33701141582e-39 5.41265769038e-38 3.38762502452e-40 1.4764954256e-25 1.6682317664e-24 6.97390449479e-26 1.8403210693e-39 2.09208185465e-38 -2.29892338712e-16 -2.57383269471e-17 -1.81263478619e-13 -3.28661285741e-14 -8.20783491087e-13 -3.87402758053e-15 5.16053554526e-28 7.20066868163e-29 4.38562084043e-29 7.9192656661e-25 5.94990804141e-24 2.15425780535e-23 
</DataArray>
<DataArray type="Float64" Name="transport_vector" NumberOfComponents="3" format="ascii">