<?xml version="1.0"?>
<VTKFile type="UnstructuredGrid" version="0.1" byte_order="LittleEndian">
<UnstructuredGrid>
<Piece NumberOfPoints="492" NumberOfCells="906">
<Points>
<DataArray type="Float32" NumberOfComponents="3" format="ascii">
0 0 0 0 1 0 1 1 0 1 0 0 0 0.0526315789472 0 0 0.105263157894 0 0 0.157894736842 0 0 0.210526315789 0 0 0.263157894736 0 0 0.315789473684 0 0 0.368421052631 0 0 0.421052631578 0 0 0.473684210525 0 0 0.526315789473 0 0 0.57894736842 0 0 0.631578947368 0 0 0.684210526315 0 0 0.736842105262 0 0 0.78947368421 0 0 0.842105263157 0 0 0.894736842105 0 0 0.947368421052 0 0.0526315789472 1 0 0.105263157894 1 0 0.157894736842 1 0 0.210526315789 1 0 0.263157894736 1 0 0.315789473684 1 0 0.368421052631 1 0 0.421052631578 1 0 0.473684210525 1 0 0.526315789473 1 0 0.57894736842 1 0 0.631578947368 1 0 0.684210526315 1 0 0.736842105262 1 0 0.78947368421 1 0 0.842105263157 1 0 0.894736842105 1 0 0.947368421052 1 0 1 0.947368421053 0 1 0.894736842105 0 1 0.842105263158 0 1 0.789473684211 0 1 0.736842105264 0 1 0.684210526316 0 1 0.631578947369 0 1 0.578947368422 0 1 0.526315789475 0 1 0.473684210528 0 1 0.42105263158 0 1 0.368421052633 0 1 0.315789473685 0 1 0.263157894738 0 1 0.21052631579 0 1 0.157894736843 0 1 0.105263157895 0 1 0.0526315789476 0 0.947368421053 0 0 0.894736842105 0 0 0.842105263158 0 0 0.789473684211 0 0 0.736842105264 0 0 0.684210526316 0 0 0.631578947369 0 0 0.578947368422 0 0 0.526315789475 0 0 0.473684210528 0 0 0.42105263158 0 0 0.368421052633 0 0 0.315789473685 0 0 0.263157894738 0 0 0.21052631579 0 0 0.157894736843 0 0 0.105263157895 0 0 0.0526315789476 0 0 0.500076861967 0.607318855406 0 0.679538024677 0.305143921402 0 0.265743127234 0.358362234914 0 0.77781114106 0.676271442555 0 0.260742625738 0.710864820575 0 0.192541040261 0.8072897193 0 0.812068172164 0.186744325667 0 0.842956811151 0.837013696613 0 0.188708567839 0.194286553463 0 0.165167704884 0.866772239893 0 0.883663366919 0.108402651475 0 0.968538908694 0.0727405490585 0 0.0435293236262 0.917371525352 0 0.924108131079 0.962787291126 0 0.466570263958 0.296671036101 0 0.745769161066 0.493748270945 0 0.512432740874 0.797225739181 0 0.4139184945 0.488617846661 0 0.579412318175 0.477026296051 0 0.574582472851 0.12808317387 0 0.392196750378 0.118590153634 0 0.0999254865321 0.475214648527 0 0.868006222636 0.428797930576 0 0.299104755898 0.19739792338 0 0.714007192006 0.838238249102 0 0.818936332281 0.327042725253 0 0.126042278641 0.383181438767 0 0.374434778312 0.675969479192 0 0.634551328442 0.654575075593 0 0.148290504407 0.29878194992 0 0.882395087116 0.674727742102 0 0.704519938077 0.0486230568855 0 0.0949567670092 0.254287879362 0 0.916156934142 0.283879026576 0 0.708044135643 0.961077891567 0 0.290241208015 0.0752849667269 0 0.103602412595 0.665766548754 0 0.261676299439 0.901098415492 0 0.805796471016 0.0998833298808 0 0.919340656274 0.822652116181 0 0.161821702787 0.911329484291 0 0.221625156864 0.258958962212 0 0.756983717123 0.244530594517 0 0.859014219545 0.95212768079 0 0.0440247764888 0.866383888098 0 0.947454302261 0.119256234186 0 0.0571511584233 0.133961192567 0 0.871854144096 0.0324569981089 0 0.953601959137 0.915583106496 0 0.916121987056 0.0536069078952 0 0.0754892235847 0.948948511184 0 0.054925091375 0.084075255592 0 0.133829007837 0.88896896717 0 0.88501081019 0.856835641722 0 0.840132454058 0.146198583642 0 0.373658738301 0.247789959302 0 0.621582278368 0.223199727555 0 0.168526306359 0.41604711249 0 0.268026146831 0.4562905052 0 0.812193377395 0.405286976715 0 0.362511919871 0.327300851904 0 0.346891897556 0.422021111487 0 0.581342569534 0.727411559087 0 0.57684840862 0.301936107347 0 0.440215108713 0.738177690971 0 0.71379060825 0.399832622944 0 0.625156115211 0.393937427675 0 0.437556728 0.198667489015 0 0.392686675546 0.580537603235 0 0.533200048477 0.390791130576 0 0.176874665878 0.594229457221 0 0.438532155286 0.399421189304 0 0.349822775071 0.763703885994 0 0.659346632624 0.744147341049 0 0.15708458679 0.757312204234 0 0.611608273488 0.563914494125 0 0.52236479293 0.212401268236 0 0.686919464093 0.578285485081 0 0.60227781122 0.825507684452 0 0.171601481493 0.352360362347 0 0.292070484999 0.77450198364 0 0.845036895534 0.622550083389 0 0.825429092965 0.52840046095 0 0.213314290812 0.682429843729 0 0.127450913589 0.578936166903 0 0.520985928941 0.899894577856 0 0.705856063195 0.230804937936 0 0.249931463838 0.65617106108 0 0.0901032550824 0.758493902272 0 0.661646411842 0.485470996892 0 0.83884730944 0.479857164707 0 0.495717608467 0.474994650552 0 0.422353041292 0.835348162259 0 0.907184446451 0.350418897413 0 0.66567319164 0.0827481446413 0 0.630403421878 0.0683882481638 0 0.480109226243 0.132219209576 0 0.480234645496 0.553501566677 0 0.628402947673 0.11451681651 0 0.442339959771 0.0514642771074 0 0.452210563945 0.640094218785 0 0.530472279122 0.556701985609 0 0.198030066271 0.302856337472 0 0.0443286488455 0.546728925033 0 0.349097655287 0.157365830971 0 0.858934731229 0.257610347993 0 0.904985394771 0.480428391767 0 0.548034210784 0.633119010263 0 0.767330943876 0.314637688906 0 0.220933737824 0.154108756142 0 0.725873126991 0.668246624816 0 0.850633473003 0.364919049034 0 0.758560924433 0.869345086198 0 0.0739653413768 0.312516609734 0 0.335567199196 0.686726706824 0 0.387969894929 0.0594895288395 0 0.953742700198 0.504088049092 0 0.13549032321 0.210157358713 0 0.285210703385 0.285785563377 0 0.825002186361 0.677758820402 0 0.958212797481 0.329356899968 0 0.333761905417 0.0456171279486 0 0.226873539765 0.853824847978 0 0.338807430459 0.104405022801 0 0.913622750305 0.772754826456 0 0.757967530794 0.12960304969 0 0.28395803947 0.13529108549 0 0.764455177743 0.191943299267 0 0.90211961618 0.61358782139 0 0.301916511655 0.896307872135 0 0.807395276431 0.856112886984 0 0.849983745756 0.712132947978 0 0.0508344349811 0.439668589861 0 0.750993335219 0.921459034965 0 0.225959798176 0.760653867599 0 0.759520210807 0.816732863296 0 0.110575905407 0.428698611446 0 0.797659396366 0.0404019951714 0 0.0484361978452 0.183119558659 0 0.952169023515 0.182185363798 0 0.0454111496712 0.781565776661 0 0.176501339773 0.249491375955 0 0.906694426134 0.223446044158 0 0.709353451982 0.102115283543 0 0.860534589588 0.311835958245 0 0.0454658752291 0.649104866417 0 0.157499417377 0.159730498391 0 0.248118985828 0.0425754777425 0 0.88509214239 0.722813692626 0 0.117237271011 0.338653618732 0 0.177726985916 0.108483480537 0 0.791540878407 0.147292662809 0 0.751787970401 0.0699611381809 0 0.815639508653 0.792275131753 0 0.800911303166 0.907595618738 0 0.807888801974 0.727109882276 0 0.859790344232 0.753387968722 0 0.047945601652 0.244992245355 0 0.0882871808474 0.051787708526 0 0.896784391054 0.165628303457 0 0.130469624467 0.941583723919 0 0.238710168153 0.20756046121 0 0.140120163238 0.81677964755 0 0.183554491666 0.954334503766 0 0.874643572091 0.804905564673 0 0.206418069409 0.910006314532 0 0.925122104186 0.873794712233 0 0.848936549788 0.886463368082 0 0.852058162237 0.0626752433767 0 0.898330878246 0.909094683642 0 0.957510005394 0.85924293947 0 0.0877227163258 0.206672181334 0 0.0866623886419 0.821147967526 0 0.0376770040486 0.0369288843719 0 0.96640586336 0.0357958071803 0 0.963722170506 0.964711644151 0 0.0355170315049 0.963410122496 0 0.565035968106 0.86020167323 0 0.428469752482 0.924940902336 0 0.46082886482 0.876968836549 0 0.51175949063 0.846081008376 0 0.411459848639 0.267638669487 0 0.308064041775 0.388682037049 0 0.263518601569 0.412557550062 0 0.219770906663 0.387612068358 0 0.410237838033 0.314462230561 0 0.503802390122 0.346363481669 0 0.447284232051 0.240197059568 0 0.39847824273 0.892087691632 0 0.774861897525 0.444723511697 0 0.655276404957 0.257044608095 0 0.0891011303068 0.613432590991 0 0.617872864638 0.879591362456 0 0.402640140797 0.362258079923 0 0.45142839663 0.352425087153 0 0.548756769956 0.256183146634 0 0.524814404429 0.300419154392 0 0.649559318506 0.350251407506 0 0.731025928057 0.445423539163 0 0.509910546067 0.753087866374 0 0.602797619153 0.348095628469 0 0.625990824894 0.303507519752 0 0.315437408864 0.342181030892 0 0.715292601157 0.538581689971 0 0.687672200883 0.44333344802 0 0.599811648418 0.258937748014 0 0.693248811601 0.354042596041 0 0.550367323457 0.762156034511 0 0.576327846469 0.21593814075 0 0.0671439259651 0.702696779078 0 0.337376465552 0.476659846948 0 0.497346295903 0.2515982525 0 0.59090446316 0.775024975229 0 0.553562369116 0.346712431465 0 0.558178130678 0.433930498322 0 0.64486170685 0.439531004353 0 0.468797065239 0.818155191382 0 0.0405316661437 0.732761817918 0 0.354877138576 0.375510137133 0 0.756306598678 0.534006915638 0 0.434760469923 0.786074959917 0 0.473359243589 0.767411983093 0 0.384666484264 0.627571911929 0 0.724159095579 0.793311198254 0 0.401803491572 0.534863867648 0 0.302288146535 0.441083967997 0 0.675973998946 0.531716305106 0 0.484927764458 0.392894921868 0 0.476467478978 0.206554112232 0 0.444765550214 0.689150258676 0 0.623620414396 0.608741389757 0 0.191317551876 0.47245797399 0 0.693091211447 0.705167310848 0 0.559880520661 0.680301634285 0 0.678462090206 0.789031227179 0 0.63347595868 0.783172977773 0 0.245434860236 0.495183544934 0 0.60145861387 0.436424406321 0 0.555131136039 0.812433415142 0 0.382434621854 0.456330431173 0 0.660504385824 0.616064129163 0 0.647779024103 0.698991423799 0 0.392126093189 0.409742496452 0 0.469615364233 0.436918462162 0 0.321548826665 0.301027355392 0 0.142607283954 0.458107212386 0 0.636056576146 0.525705346537 0 0.291855982988 0.494858070633 0 0.193195253577 0.0508067537398 0 0.597193329267 0.520158806747 0 0.360708243165 0.720025453666 0 0.369610181054 0.50708517255 0 0.513325963521 0.434123893132 0 0.669048126884 0.396821417756 0 0.579058816084 0.391648587138 0 0.706126748338 0.624194527133 0 0.514127319169 0.514934044811 0 0.125637256724 0.712623663005 0 0.74233996502 0.35814912666 0 0.456218519061 0.595989658239 0 0.226099062256 0.440024792506 0 0.498868508038 0.170918224758 0 0.65711
[...]
<CellData Scalars="pressure" Vectors="transport_vector">
<DataArray type="Float64" Name="pressure" format="ascii">
0.574297070503 4.40007717798e-43 0.00457729632035 0.000266615243163 8.82818032525e-44 0.193506881595 0 4.71414241474e-05 0.0199777428061 0.00227069482207 0.450327277184 1.63397426524e-39 0.0025239053648 0.000364246807294 -9.80908925027e-45 4.20389539297e-45 4.63829791692e-43 4.44947909273e-06 4.98796479381e-13 0.413428783417 4.66471272928e-37 -2.33956067979e-24 -8.42404853863e-37 -6.0255833966e-44 2.67936388809e-06 0.447331905365 -6.04907143043e-07 0.475807338953 0.00579399336129 -1.51934783679e-28 -1.93395856855e-27 -3.80034912939e-34 -3.32715171064e-29 -7.26098038155e-29 -2.3531054731e-32 3.7610907444e-11 -1.15024504339e-05 5.12534711561e-07 -1.2589367714e-34 -6.02105802172e-33 -3.70857733412e-10 4.29722607459e-38 1.7554560521e-38 1.74230197933e-37 0.00040018625441 -5.45394729812e-13 7.63070493122e-05 0.000596297555603 -1.43363274674e-06 3.47403329173e-38 -8.3562964305e-38 -5.84665293957e-09 3.21293858185e-09 2.91016384324e-08 7.21621545381e-05 0.00167992769275 4.86310105938e-35 -1.11455655372e-07 0.000681746460032 0.00779275409877 1.15046603921e-42 1.40129846432e-45 -1.69557114183e-43 0.55700224638 0.220677047968 0.276706576347 0.202051848173 0.527949333191 0.0274775642902 4.41409016262e-43 2.65756253759e-41 2.8712605534e-42 -1.34160870857e-07 1.89134894413e-07 0.186787620187 0.0329985544086 1.7832924257e-40 3.30272035057e-41 0.024633994326 0.0447218604386 -5.184804318e-44 0.000971653324086 2.44167028479e-34 3.12110278173e-05 1.17868447073e-20 2.57488113675e-06 4.37551680079e-05 -2.85147924221e-15 3.43499902912e-31 -1.44528318775e-30 -2.30132224388e-09 3.43176754813e-30 -9.73980388696e-29 2.14842970081e-08 2.42051982013e-07 -7.89459036338e-12 1.04183753638e-11 -1.78648006113e-05 -8.94536349454e-36 -8.92247510021e-39 2.02670648264e-07 5.9485150814e-06 -1.868479103e-06 4.17715085632e-07 -5.44262350516e-36 6.01910648299e-36 1.4640263224e-08 7.86356202376e-10 -2.24207754292e-44 -1.04983879649e-40 -5.6051938573e-45 5.6051938573e-45 5.00263551764e-43 4.34402523941e-44 -2.91750340272e-42 1.96181785005e-44 -1.54445052324e-26 -1.75831438162e-25 -6.95044038305e-43 -1.13710309563e-34 5.51615921722e-05 0.000422284996603 0.00205103587359 1.39499843499e-06 1.21926686916e-05 4.52943159974e-38 0 -0 0.475952625275 0.166552633047 0.029643246904 0.0101356795058 -1.08204332605e-07 -6.47972274237e-06 -9.2921408168e-07 -3.46345565561e-08 0.440970897675 0.129107803106 0.0134932706133 1.5911812957e-33 1.28058676003e-34 9.04169864953e-05 0.000124567814055 1.77913624172e-36 4.93145235825e-39 3.8525533221e-37 1.15999137113e-36 6.77982352428e-22 3.88293240986e-21 3.55077276244e-31 7.61395973491e-36 2.19578068873e-32 -8.81539242595e-26 -1.98488090354e-25 -6.28958802728e-41 -8.32057669445e-17 -1.92890300244e-27 -9.03753467078e-25 -6.47490444017e-24 -2.83202630074e-22 -2.37285745414e-21 -1.16668799621e-10 7.23142401143e-17 2.49938141032e-15 -1.19179187393e-15 1.88652937209e-31 1.29885002493e-12 -1.91516584594e-16 5.14058532566e-20 -9.14839544045e-15 -3.85167508012e-20 1.13306578306e-20 2.08793471184e-43 -1.95702388304e-24 -2.7977793876e-22 4.69955427192e-19 6.24012169803e-21 -6.38462664522e-19 -1.13843288095e-13 -5.22047005603e-24 8.40779078595e-43 6.2238671293e-41 -7.80873569245e-41 9.7762027592e-29 1.76181940753e-28 5.68824362612e-11 -1.37303181152e-23 -6.39918109812e-21 -1.08296390169e-21 -3.11841420741e-11 5.57643433896e-28 5.487611774e-29 3.51710929261e-13 8.63733675354e-22 -2.65783238054e-25 -3.36250124966e-12 -1.1874507242e-16 8.89120426217e-16 -5.25382574923e-17 2.49369014301e-16 -5.25999850183e-18 -2.77175582913e-19 5.88076930729e-27 1.4896303634e-15 -4.95429782607e-16 7.75237647166e-26 1.73335513073e-26 7.21197465481e-23 7.12425631083e-32 -1.83044752032e-39 4.3742950799e-37 5.33922180358e-38 9.58626759787e-14 1.50933126699e-30 6.90740386591e-16 -7.11645980223e-29 1.59282721488e-24 1.98442955397e-20 6.36317289208e-21 7.0812976124e-16 1.99550052589e-13 1.02048668329e-17 6.28903403471e-19 3.17444177498e-13 5.94564628853e-20 3.24540724338e-42 2.17973657684e-39 3.17620766927e-13 1.24618879028e-21 1.42212183679e-22 6.56841557858e-32 -7.46724625721e-23 -1.13948600125e-15 -6.04304692224e-13 -2.240089364e-11 1.01053323695e-11 7.62465027687e-25 6.06748144845e-24 9.95623019602e-19 7.77080102648e-18 -2.33546766232e-29 -2.38493273543e-28 9.93970677861e-21 4.44127584982e-20 -1.33763889647e-25 -7.71307161188e-28 7.44257477045e-25 -9.96977104553e-25 2.78488789417e-16 3.72885521357e-42 -5.54129464733e-41 1.36865149057e-19 1.63631917518e-18 1.0724053491e-19 -1.22516070906e-34 9.19340973588e-17 5.58984152738e-19 1.05192925382e-25 -3.40754778897e-24 9.38688956734e-33 1.34557803206e-23 8.54155364108e-22 1.75935432216e-25 -5.39323910054e-18 2.54852175378e-19 -1.43896741723e-27 -1.34813112674e-21 -5.12860736265e-20 3.38123395949e-09 2.30568830695e-09 -1.0379340725e-24 -5.15221476594e-10 -1.08495232717e-25 -8.42904533243e-26 -1.18461564139e-14 1.67281366846e-14 -1.62069386774e-14 -4.87778208935e-08 -6.37110408874e-09 3.76323055346e-32 -2.83938419655e-33 7.55979829637e-21 1.88695351824e-22 2.0102482106e-29 -2.31665815403e-31 -4.17690912968e-08 -3.42871766023e-24 1.76483125523e-23 1.15802894688e-19 -2.12905354166e-22 -6.54045247997e-20 -2.27538051167e-19 -2.2104927805e-24 1.28118187241e-32 4.57056630694e-05 2.4364762794e-06 -4.22733803518e-09 3.245343742e-33 -7.7520501876e-36 -1.1507397341e-35 -1.98323024304e-34 -1.72671406062e-08 1.85324098509e-37 -2.01220195673e-38 5.96136469057e-39 3.64823010512e-38 9.61565636143e-12 6.73426939213e-12 1.45716085171e-05 4.08127525588e-05 -1.41290400146e-15 -2.26710333449e-14 3.34760221375e-18 2.34289660626e-17 0.0298556536436 0.0060778320767 1.27103369391e-24 1.93934801873e-22 -1.27528634445e-25 1.34777933363e-26 3.07384539155e-07 1.5258414976e-07 1.39100109209e-08 -7.11407056525e-38 -8.89905968313e-38 -6.91747466852e-37 0.439913988113 -2.58252664771e-27 1.09677261435e-27 -1.66298744376e-25 7.72070948892e-29 1.17373888386e-10 2.01102329234e-10 -8.79140103814e-14 -8.05424740709e-15 -1.10185576747e-24 -8.39313817899e-28 -5.85941129312e-16 -2.50079807719e-27 -9.55029955933e-26 -1.63432662586e-13 6.89654352709e-15 -7.44668601766e-23 -1.0185036001e-23 0.220315873623 0.0336200371385 9.59910145992e-17 5.33638300657e-17 -1.07605340621e-31 -8.80115818007e-14 -1.36304301625e-41 1.76971379813e-31 -9.66103252722e-05 6.8437085237e-37 9.58899458723e-38 3.78951995117e-07 4.48174551399e-14 1.57167344528e-15 -2.98150534945e-05 -2.93324256287e-37 -5.14027235321e-36 0.163455203176 0.0205450896174 0.00166190625168 -8.50672245753e-41 -7.52917664882e-42 3.9372329752e-07 1.8220629272e-07 2.17236792977e-16 6.68259002655e-19 -7.04128039678e-37 -5.75027690144e-37 4.09703362715e-32 6.0484756193e-31 -9.45684837895e-33 -1.99951921018e-17 0.000151007145178 3.12387358464e-27 2.29726195174e-34 1.56946550693e-33 -1.61307599222e-12 -8.72506927818e-11 2.44363051346e-33 -1.6429322347e-09 1.73942123638e-06 0.547344148159 0.489221900702 0.182742893696 1.89225239858e-33 0.476721376181 -1.58673102894e-38 -1.21492576857e-40 -8.67403749417e-43 -1.88600760313e-41 -2.75091158855e-20 -3.98370467349e-19 -1.59542858232e-24 -7.08280578133e-24 -2.2481603807e-21 -1.90123593959e-22 -3.57718075084e-29 5.09924186181e-28 -2.80057669971e-26 5.03865066131e-28 1.16373677421e-30 3.75496943777e-30 6.39634083804e-33 4.59913462505e-30 3.40168963345e-34 6.11671534389e-33 3.95831814705e-25 -3.98876153738e-27 -5.59191865544e-20 -3.52896857793e-21 7.50885141244e-24 5.7289268815e-23 -2.74985962171e-23 -1.8856550453e-24 2.16004089615e-11 1.74690956145e-10 -8.21482082358e-09 -2.50168574745e-09 9.25830275804e-19 8.44305236466e-17 1.56558354067e-27 5.53150653411e-27 -5.44890019281e-23 -4.502661537e-22 7.37662713072e-18 4.55021249919e-19 -7.66070907721e-18 -6.8702398983e-17 4.268183097e-14 4.15452974079e-15 -6.59081567534e-13 -4.26443819493e-12 8.33483664197e-20 1.58177630306e-22 -1.88517750835e-23 -1.56452334708e-22 8.34892908542e-20 8.60397135725e-19 1.31838000543e-33 7.71398110855e-33 6.0792114398e-11 4.6616763184e-13 2.35909924408e-12 3.24282243988e-15 1.75958778933e-14 -4.81141862463e-11 -3.84159978134e-12 -1.82014790676e-17 -1.75225060598e-18 2.90319129485e-25 3.3322005408e-26 7.40418124747e-30 7.42645808793e-29 1.27974528701e-16 1.64563595857e-17 -5.55982598638e-20 -7.31465941212e-19 4.76426585201e-17 2.50964716013e-18 -3.21845229614e-16 -2.62003977135e-15 -1.03545637872e-23 -1.01335273282e-22 -1.82529486626e-26 -2.22943530299e-25 5.1740464253e-28 -1.37625955424e-25 -1.3249473571e-26 1.82616457898e-14 1.15809014396e-13 1.29050975754e-25 1.61353710528e-22 1.08020585464e-23 2.15786852566e-15 1.64159779384e-14 -9.22762624803e-21 7.93881720893e-23 -2.09152616622e-23 -8.41111501709e-24 -3.31925012563e-27 -2.50230546403e-26 3.13534660046e-23 3.91839745329e-14 7.20428711397e-15 6.19817848078e-18 5.44497097605e-17 6.94861343065e-35 -1.43964289485e-38 -2.60621290825e-37 4.20201994e-17 -9.13982261999e-15 2.2543593294e-17 3.32978246861e-18 -2.50434798801e-15 -2.06416559057e-14 7.72345068533e-31 5.22116809932e-25 1.73902697901e-25 4.02163979202e-13 6.70826716116e-14 -9.36925193037e-38 3.96585127244e-18 1.40364393949e-17 1.23079376552e-11 7.74939087966e-24 -2.60695667987e-23 1.36814264052e-30 9.03216063709e-32 5.56153574596e-16 3.1033195016e-15 2.75123766573e-18 2.22216545996e-17 2.02077136302e-26 -9.30992871113e-26 -8.20059583651e-27 -3.47461235534e-35 1.32872693588e-17 1.80499102145e-18 9.15123220698e-25 5.63674643369e-24 -8.75994479204e-20 -5.65607321663e-21 -8.42490852065e-34 9.9783710099e-23 6.61038074568e-22 -1.17930378586e-21 -6.41639598682e-21 7.47718967345e-32 -3.00442066874e-27 1.56520159823e-18 8.1416980598e-18 -1.11243634464e-23 -6.22239030107e-23 -9.03942326615e-39 -1.02269893887e-07 2.13764419499e-08 -5.12411247655e-07 -2.36892310573e-26 -3.2086414421e-25 1.61014734879e-09 -1.85654925799e-25 -1.20267860065e-24 -2.45364824861e-16 -2.40737202629e-17 7.30327906934e-30 1.18554166876e-20 -4.5722839794e-37 -6.58982247865e-36 -6.36803918146e-35 -2.89843336734e-36 -2.84463588258e-43 -2.64845409757e-43 2.02067238556e-42 -5.92226566082e-40 8.34778718571e-39 -1.18694553766e-37 3.37110371563e-41 1.21352447011e-42 8.1387414808e-42 9.51055662543e-40 3.34535765894e-39 -2.16497670011e-39 -1.62536791046e-38 -3.07570999935e-40 4.32004397801e-38 1.63763081345e-37 2.35066602184e-36 1.92511952483e-38 -1.19616872721e-36 -2.86844124275e-06 -5.53032180051e-07 -3.77282596276e-08 -1.17898237996e-16 -2.66246708222e-44 2.53635022043e-43 -1.01745478898e-40 -0 4.88108854798e-36 -3.77234963456e-36 -4.76025161738e-35 -2.74264958662e-35 -4.97748369526e-05 2.80101308622e-22 5.81209046615e-21 8.17078588543e-21 5.16501849612e-20 -4.40166159814e-14 -4.37281114096e-12 -5.40123241272e-12 2.83225554121e-09 -6.66171828811e-09 -4.21712609278e-10 1.6823831217e-10 1.62748534649e-08 0.139075085521 0.0145877590403 -4.02277538613e-27 0.00268160877749 0.00844777561724 0.000628083944321 8.77307829796e-05 1.17736462926e-05 5.73017024455e-12 4.76012701478e-11 6.03165503654e-11 -5.95869490902e-12 -8.5382083348e-11 1.43038684196e-13 7.44938391166e-39 1.17949515732e-27 -1.21444953395e-27 -2.94748531661e-30 1.71539859771e-28 -3.52078211164e-17 -3.12775828645e-18 -1.22994033288e-18 -7.82688480259e-19 -4.74603358285e-22 -4.18677102274e-23 -8.93503049339e-21 2.34004371436e-10 2.95266744388e-08 -1.68130731559e-09 6.83621714792e-10 7.20252646715e-05 -9.82931742328e-05 3.50368948232e-33 1.03776352736e-38 1.17977065635e-35 1.36592595013e-08 3.7954194454e-08 3.96810236225e-07 9.14151566944e-12 -1.63181269983e-14 -1.98143602856e-41 -2.12016457652e-42 -5.07270044086e-43 -1.06371494714e-36 5.35778867192e-36 2.09908638515e-38 -1.80153755591e-37 -1.28362022189e-39 -2.58213484515e-38 -3.28449024227e-37 -9.10330548117e-36 -4.30699719548e-32 -4.29012461977e-31 1.20681090521e-37 1.6959165619e-38 -1.59813585976e-11 1.12103877146e-44 -2.50678282283e-41 -2.05011938359e-37 5.24443237026e-38 4.52322956484e-37 -1.90424129875e-39 -1.64752061749e-40 0.000225167968892 0.0100967250764 0.00291872466914 5.08790452919e-40 5.33754585061e-42 2.31922182598e-39 0.210636749864 0.029730046168 8.16029758205e-30 5.50762235298e-13 -7.24849624767e-10 -1.31515909274e-10 -7.11859619877e-43 -7.00649232162e-45 -6.67590700645e-34 1.32831277773e-35 -5.09879054658e-35 -4.68638545796e-35 -1.40074161038e-12 -2.0183271829e-13 -1.34616384879e-13 -1.18414677478e-13 -6.77177606524e-13 1.90494203121e-14 1.54035765868e-32 2.18460886389e-33 6.75914440428e-34 -7.7746561138e-40 -1.98830239103e-41 -4.05124774736e-39 -1.44811276821e-14 -3.18011240857e-17 -1.243736465e-40 1.24379251693e-41 1.94504893683e-30 6.17271973535e-42 1.65194872064e-40 8.45203351751e-11 7.92516996473e-10 -2.69050936561e-16 -3.34630073281e-42 -9.1757023444e-41 7.00649232162e-45 -2.15379573967e-42 -1.27552716274e-38 -3.53812868348e-39 5.28940450846e-22 2.93328574872e-22 9.70800048356e-22 1.09667733345e-22 3.98836437981e-24 5.76199782392e-24 -1.19950382092e-13 -5.88516247115e-15 -1.41363996721e-14 -3.38819912814e-15 0.523942530155 0.00460215238854 2.51662920929e-29 -9.29423999432e-30 0.351683437824 0.00278528290801 0.0874565318227 5.83085023756e-31 -1.6000474311e-28 -1.75872356542e-29 -1.84971397291e-43 -1.66053868022e-42 -3.182878977e-15 -2.94836014327e-13 -6.31375783903e-14 -4.44496054758e-30 -4.11962012338e-29 -9.21276187293e-30 1.81855760419e-34 -6.25767573046e-36 4.71077352191e-35 -2.18792823953e-32 -3.29952471578e-31 1.03791872378e-30 1.10732837381e-31 -1.39888115951e-30 -1.09535774548e-11 9.24229529714e-12 -1.80891376682e-39 -1.87553990361e-40 -3.2768893752e-38 -3.07169781615e-17 -9.11729121106e-19 -2.22179997848e-16 -1.8154273384e-37 -2.1787682796e-39 -5.3686552981e-09 -8.78299863394e-11 -5.80718972909e-10 -0.000174776607309 9.45462670643e-05 1.20947322557e-06 2.72483794106e-05 0.000216369051486 2.26401698455e-05 -5.26348921994e-05 -1.19642004393e-06 -0.000372723443434 5.10489577754e-37 -1.81043406579e-35 0.000536164036021 -7.18866112199e-43 1.52321143072e-42 -7.69312856914e-43 2.41023335864e-43 -9.7131057389e-22 -5.85356480123e-19 -2.69044533201e-20 1.24767440823e-08 1.12017806142e-09 1.61774366347e-07 -4.6424539768e-09 0.213886976242 0.00418072007596 0.0295124556869 4.23998697263e-10 3.42041772683e-09 5.77803027646e-10 0.367088079453 0.134038418531 4.1687763758e-25 4.33105443173e-25 -5.37761433153e-28 9.92555214907e-05 0.0016117093619 -5.6051938573e-45 -5.19881730265e-43 -7.14662216806e-44 -7.82082788646e-05 0.0842340216041 -1.49524674326e-12 -2.84493505143e-11 1.72024422485e-10 -1.02583046224e-11 4.79715878707e-28 4.05088260033e-28 2.59191343767e-27 -6.65468920911e-29 8.88257076356e-22 3.46021971607e-23 -5.2047026198e-23 0.000427651451901 -1.01473261493e-29 -1.05031924879e-30 -8.84725666875e-31 8.95574942206e-07 -1.97503680965e-07 -3.17011028983e-07 3.91677804146e-06 -1.46898292142e-11 -3.8552434899e-13 0.181718319654 6.19013659775e-11 9.89270221297e-10 2.54277189582e-11 1.64318123552e-07 1.18060199839e-06 -2.34102982903e-14 -5.10802608978e-14 4.3142319745e-21 3.28070488765e-22 0.0329176485538 0.00692920945585 -1.3433018632e-33 1.88638205326e-32 2.79908179968e-11 -2.90673539925e-12 -5.17165032771e-29 1.14245946129e-29 -3.21772224207e-34 -9.3015472081e-33 9.82900254358e-34 -9.13248896239e-31 1.92186014785e-31 0.483163893223 0.119791723788 0.158191278577 -4.20389539297e-45 -1.68155815719e-44 -1.44333741825e-43 0.434252798557 5.91059895286e-29 1.27448517513e-30 4.06433864342e-09 1.94318076296e-07 6.23199991612e-10 1.07834130514e-09 5.41520073227e-09 -1.80150320729e-36 -1.92920795732e-32 -2.251096707e-34 5.90797855139e-20 1.65895091428e-19 2.36402511521e-17 1.75951614689e-18 0.0841077938676 0.00313956802711 -2.19835703083e-41 -2.42892668015e-40 2.4237699018e-40 -7.12027775693e-41 -1.10842708528e-42 0.401545137167 0.109003931284 0.00650934642181 2.83349922301e-13 9.87342260901e-14 1.16946289959e-14 4.74671740986e-14 7.82680155924e-31 -3.5335712834e-31 -5.36352564053e-32 1.40662698439e-16 1.52791688789e-15 4.00797991191e-17 1.83887271522e-31 -4.84337725141e-33 4.61146845251e-32 3.80467378229e-32 -1.91977889612e-43 -1.119637473e-42 -4.20389539297e-45 -4.55992682912e-29 -1.29643817725e-28 2.4391487467e-29 -1.54142831076e-44 -2.73253200543e-43 3.55088422743e-19 8.40824232974e-19 1.78718763794e-15 3.52553350325e-16 5.69036268097e-15 4.44808665077e-17 1.0431165247e-31 1.21454537518e-32 8.72191461713e-33 3.07954970327e-28 2.70218486775e-27 1.49525117911e-26 
</DataArray>
<DataArray type="Float64" Name="transport_vector" NumberOfComponents="3" format="ascii">