<?xml version="1.0"?>
<VTKFile type="UnstructuredGrid" version="0.1" byte_order="LittleEndian">
<UnstructuredGrid>
<Piece NumberOfPoints="9" NumberOfCells="11">
<Points>
<DataArray type="Float64" NumberOfComponents="3" format="ascii">
0 0 0 0 1 0 1 0 0 1 0 2 0 1 2 0 0.5 1 0.5 0 1 0.5 0.5 1 0 0 2 
</DataArray>
</Points>
<Cells>
<DataArray type="UInt32" Name="connectivity" format="ascii">
2 1 0 7 6 2 0 7 5 6 0 7 1 5 0 7 2 6 3 7 5 4 7 1 6 5 0 8 5 6 7 8 4 5 7 8 8 6 7 3 4 8 7 3 
</DataArray>
<DataArray type="UInt32" Name="offsets" format="ascii">
4 8 12 16 20 24 28 32 36 40 44 
</DataArray>
<DataArray type="UInt32" Name="types" format="ascii">
10 10 10 10 10 10 10 10 10 10 10 
</DataArray>
</Cells>
<CellData Scalars="As-lin-limit_conc,As-lin_conc,Bs-lin-limit_conc,Bs-lin_conc,As-lin-limit_conc_solid,As-lin_conc_solid,Bs-lin-limit_conc_solid,Bs-lin_conc_solid," Vectors="" Tensors="">
<DataArray type="Float64" Name="As-lin-limit_conc" format="ascii">
0.573913043478261 0.573913043478261 0.573913043478261 0.573913043478261 0.57391304347826 0.573913043478261 0.573913043478252 0.573913043478261 0.573913043478232 0.573913043478235 0.573913043478245 
</DataArray>
<DataArray type="Float64" Name="As-lin_conc" format="ascii">
0.573913043478265 0.573913043478265 0.573913043478265 0.573913043478265 0.573913043478263 0.573913043478265 0.573913043478256 0.573913043478265 0.573913043478235 0.573913043478238 0.573913043478248 
</DataArray>
<DataArray type="Float64" Name="Bs-lin-limit_conc" format="ascii">
0.573913043478261 0.573913043478261 0.573913043478261 0.573913043478261 0.573913043478259 0.573913043478261 0.573913043478252 0.573913043478261 0.573913043478231 0.573913043478234 0.573913043478244 
</DataArray>
<DataArray type="Float64" Name="Bs-lin_conc" format="ascii">
0.573913043478261 0.573913043478261 0.573913043478261 0.573913043478261 0.573913043478259 0.573913043478261 0.573913043478252 0.573913043478261 0.573913043478231 0.573913043478234 0.573913043478244 
</DataArray>
<DataArray type="Float64" Name="As-lin-limit_conc_solid" format="ascii">
0.344347826086956 0.344347826086956 0.344347826086956 0.344347826086956 0.344347826086956 0.344347826086956 0.344347826086951 0.344347826086956 0.344347826086939 0.344347826086941 0.344347826086946 
</DataArray>
<DataArray type="Float64" Name="As-lin_conc_solid" format="ascii">
0.344347826086956 0.344347826086956 0.344347826086956 0.344347826086956 0.344347826086955 0.344347826086956 0.34434782608695 0.344347826086956 0.344347826086938 0.34434782608694 0.344347826086946 
</DataArray>
<DataArray type="Float64" Name="Bs-lin-limit_conc_solid" format="ascii">
0.344347826086956 0.344347826086956 0.344347826086956 0.344347826086956 0.344347826086956 0.344347826086956 0.344347826086951 0.344347826086956 0.344347826086939 0.344347826086941 0.344347826086946 
</DataArray>
<DataArray type="Float64" Name="Bs-lin_conc_solid" format="ascii">
0.344347826086957 0.344347826086957 0.344347826086957 0.344347826086957 0.344347826086956 0.344347826086957 0.344347826086951 0.344347826086957 0.344347826086939 0.344347826086941 0.344347826086946 
</DataArray>
</CellData>
</Piece>
</UnstructuredGrid>
</VTKFile>
