<?xml version="1.0"?>
<VTKFile type="UnstructuredGrid" version="0.1" byte_order="LittleEndian">
<UnstructuredGrid>
<Piece NumberOfPoints="9" NumberOfCells="11">
<Points>
<DataArray type="Float64" NumberOfComponents="3" format="ascii">
0 0 0 0 1 0 1 0 0 1 0 2 0 1 2 0 0.5 1 0.5 0 1 0.5 0.5 1 0 0 2 
</DataArray>
</Points>
<Cells>
<DataArray type="UInt32" Name="connectivity" format="ascii">
2 1 0 7 6 2 0 7 5 6 0 7 1 5 0 7 5 4 7 1 6 5 0 8 4 5 7 8 5 6 7 8 2 6 3 7 8 6 7 3 4 8 7 3 
</DataArray>
<DataArray type="UInt32" Name="offsets" format="ascii">
4 8 12 16 20 24 28 32 36 40 44 
</DataArray>
<DataArray type="UInt32" Name="types" format="ascii">
10 10 10 10 10 10 10 10 10 10 10 
</DataArray>
</Cells>
<CellData Scalars="As-lin-limit_conc,As-lin_conc,Bs-lin-limit_conc,Bs-lin_conc,As-lin-limit_conc_solid,As-lin_conc_solid,Bs-lin-limit_conc_solid,Bs-lin_conc_solid," Vectors="" Tensors="">
<DataArray type="Float64" Name="As-lin-limit_conc" format="ascii">
0.573913043478261 0.573913043478261 0.573913043478261 0.573913043478261 0.573913043478261 0.573913043478258 0.573913043478249 0.573913043478261 0.573913043478261 0.57391304347826 0.573913043478258 
</DataArray>
<DataArray type="Float64" Name="As-lin_conc" format="ascii">
0.573913043478265 0.573913043478265 0.573913043478265 0.573913043478265 0.573913043478265 0.573913043478261 0.573913043478253 0.573913043478265 0.573913043478264 0.573913043478263 0.573913043478262 
</DataArray>
<DataArray type="Float64" Name="Bs-lin-limit_conc" format="ascii">
0.573913043478261 0.573913043478261 0.573913043478261 0.573913043478261 0.573913043478261 0.573913043478257 0.573913043478249 0.573913043478261 0.57391304347826 0.57391304347826 0.573913043478258 
</DataArray>
<DataArray type="Float64" Name="Bs-lin_conc" format="ascii">
0.573913043478261 0.573913043478261 0.573913043478261 0.573913043478261 0.573913043478261 0.573913043478257 0.573913043478249 0.573913043478261 0.57391304347826 0.57391304347826 0.573913043478258 
</DataArray>
<DataArray type="Float64" Name="As-lin-limit_conc_solid" format="ascii">
0.344347826086956 0.344347826086956 0.344347826086956 0.344347826086956 0.344347826086956 0.344347826086954 0.344347826086949 0.344347826086956 0.344347826086956 0.344347826086956 0.344347826086955 
</DataArray>
<DataArray type="Float64" Name="As-lin_conc_solid" format="ascii">
0.344347826086956 0.344347826086956 0.344347826086956 0.344347826086956 0.344347826086956 0.344347826086954 0.344347826086949 0.344347826086956 0.344347826086956 0.344347826086955 0.344347826086954 
</DataArray>
<DataArray type="Float64" Name="Bs-lin-limit_conc_solid" format="ascii">
0.344347826086956 0.344347826086956 0.344347826086956 0.344347826086956 0.344347826086956 0.344347826086955 0.344347826086949 0.344347826086956 0.344347826086956 0.344347826086956 0.344347826086955 
</DataArray>
<DataArray type="Float64" Name="Bs-lin_conc_solid" format="ascii">
0.344347826086957 0.344347826086957 0.344347826086957 0.344347826086957 0.344347826086957 0.344347826086955 0.344347826086949 0.344347826086957 0.344347826086956 0.344347826086956 0.344347826086955 
</DataArray>
</CellData>
</Piece>
</UnstructuredGrid>
</VTKFile>
