<?xml version="1.0"?>
<VTKFile type="UnstructuredGrid" version="0.1" byte_order="LittleEndian">
<UnstructuredGrid>
<Piece NumberOfPoints="714" NumberOfCells="1306">
<Points>
<DataArray type="Float64" NumberOfComponents="3" format="ascii">
0.000000000000000e+00 0.000000000000000e+00 0.000000000000000e+00 5.000000000000000e+00 0.000000000000000e+00 0.000000000000000e+00 5.000000000000000e+00 1.000000000000000e+00 0.000000000000000e+00 0.000000000000000e+00 1.000000000000000e+00 0.000000000000000e+00 9.999999999992801e-02 0.000000000000000e+00 0.000000000000000e+00 1.999999999998339e-01 0.000000000000000e+00 0.000000000000000e+00 2.999999999997341e-01 0.000000000000000e+00 0.000000000000000e+00 3.999999999996643e-01 0.000000000000000e+00 0.000000000000000e+00 4.999999999995944e-01 0.000000000000000e+00 0.000000000000000e+00 5.999999999995166e-01 0.000000000000000e+00 0.000000000000000e+00 6.999999999992880e-01 0.000000000000000e+00 0.000000000000000e+00 7.999999999989961e-01 0.000000000000000e+00 0.000000000000000e+00 8.999999999987042e-01 0.000000000000000e+00 0.000000000000000e+00 9.999999999984124e-01 0.000000000000000e+00 0.000000000000000e+00 1.099999999998120e+00 0.000000000000000e+00 0.000000000000000e+00 1.199999999997829e+00 0.000000000000000e+00 0.000000000000000e+00 1.299999999997537e+00 0.000000000000000e+00 0.000000000000000e+00 1.399999999997245e+00 0.000000000000000e+00 0.000000000000000e+00 1.499999999996953e+00 0.000000000000000e+00 0.000000000000000e+00 1.599999999996661e+00 0.000000000000000e+00 0.000000000000000e+00 1.699999999996369e+00 0.000000000000000e+00 0.000000000000000e+00 1.799999999996077e+00 0.000000000000000e+00 0.000000000000000e+00 1.899999999995785e+00 0.000000000000000e+00 0.000000000000000e+00 1.999999999995511e+00 0.000000000000000e+00 0.000000000000000e+00 2.099999999995593e+00 0.000000000000000e+00 0.000000000000000e+00 2.199999999995745e+00 0.000000000000000e+00 0.000000000000000e+00 2.299999999995897e+00 0.000000000000000e+00 0.000000000000000e+00 2.399999999996049e+00 0.000000000000000e+00 0.000000000000000e+00 2.499999999996201e+00 0.000000000000000e+00 0.000000000000000e+00 2.599999999996353e+00 0.000000000000000e+00 0.000000000000000e+00 2.699999999996505e+00 0.000000000000000e+00 0.000000000000000e+00 2.799999999996657e+00 0.000000000000000e+00 0.000000000000000e+00 2.899999999996809e+00 0.000000000000000e+00 0.000000000000000e+00 2.999999999996961e+00 0.000000000000000e+00 0.000000000000000e+00 3.099999999997114e+00 0.000000000000000e+00 0.000000000000000e+00 3.199999999997265e+00 0.000000000000000e+00 0.000000000000000e+00 3.299999999997417e+00 0.000000000000000e+00 0.000000000000000e+00 3.399999999997569e+00 0.000000000000000e+00 0.000000000000000e+00 3.499999999997721e+00 0.000000000000000e+00 0.000000000000000e+00 3.599999999997873e+00 0.000000000000000e+00 0.000000000000000e+00 3.699999999998025e+00 0.000000000000000e+00 0.000000000000000e+00 3.799999999998176e+00 0.000000000000000e+00 0.000000000000000e+00 3.899999999998329e+00 0.000000000000000e+00 0.000000000000000e+00 3.999999999998481e+00 0.000000000000000e+00 0.000000000000000e+00 4.099999999998633e+00 0.000000000000000e+00 0.000000000000000e+00 4.199999999998784e+00 0.000000000000000e+00 0.000000000000000e+00 4.299999999998937e+00 0.000000000000000e+00 0.000000000000000e+00 4.399999999999088e+00 0.000000000000000e+00 0.000000000000000e+00 4.499999999999240e+00 0.000000000000000e+00 0.000000000000000e+00 4.599999999999393e+00 0.000000000000000e+00 0.000000000000000e+00 4.699999999999545e+00 0.000000000000000e+00 0.000000000000000e+00 4.799999999999696e+00 0.000000000000000e+00 0.000000000000000e+00 4.899999999999848e+00 0.000000000000000e+00 0.000000000000000e+00 5.000000000000000e+00 9.999999999981467e-02 0.000000000000000e+00 5.000000000000000e+00 1.999999999995579e-01 0.000000000000000e+00 5.000000000000000e+00 2.999999999992664e-01 0.000000000000000e+00 5.000000000000000e+00 3.999999999989749e-01 0.000000000000000e+00 5.000000000000000e+00 4.999999999986943e-01 0.000000000000000e+00 5.000000000000000e+00 5.999999999989468e-01 0.000000000000000e+00 5.000000000000000e+00 6.999999999992100e-01 0.000000000000000e+00 5.000000000000000e+00 7.999999999994734e-01 0.000000000000000e+00 5.000000000000000e+00 8.999999999997368e-01 0.000000000000000e+00 4.899999999999999e+00 1.000000000000000e+00 0.000000000000000e+00 4.800000000000000e+00 1.000000000000000e+00 0.000000000000000e+00 4.699999999999999e+00 1.000000000000000e+00 0.000000000000000e+00 4.600000000000000e+00 1.000000000000000e+00 0.000000000000000e+00 4.499999999999999e+00 1.000000000000000e+00 0.000000000000000e+00 4.399999999999999e+00 1.000000000000000e+00 0.000000000000000e+00 4.299999999999999e+00 1.000000000000000e+00 0.000000000000000e+00 4.199999999999998e+00 1.000000000000000e+00 0.000000000000000e+00 4.099999999999999e+00 1.000000000000000e+00 0.000000000000000e+00 3.999999999999999e+00 1.000000000000000e+00 0.000000000000000e+00 3.899999999999999e+00 1.000000000000000e+00 0.000000000000000e+00 3.799999999999999e+00 1.000000000000000e+00 0.000000000000000e+00 3.699999999999998e+00 1.000000000000000e+00 0.000000000000000e+00 3.599999999999999e+00 1.000000000000000e+00 0.000000000000000e+00 3.499999999999999e+00 1.000000000000000e+00 0.000000000000000e+00 3.399999999999999e+00 1.000000000000000e+00 0.000000000000000e+00 3.299999999999999e+00 1.000000000000000e+00 0.000000000000000e+00 3.199999999999998e+00 1.000000000000000e+00 0.000000000000000e+00 3.099999999999999e+00 1.000000000000000e+00 0.000000000000000e+00 2.999999999999999e+00 1.000000000000000e+00 0.000000000000000e+00 2.899999999999999e+00 1.000000000000000e+00 0.000000000000000e+00 2.799999999999999e+00 1.000000000000000e+00 0.000000000000000e+00 2.699999999999999e+00 1.000000000000000e+00 0.000000000000000e+00 2.599999999999999e+00 1.000000000000000e+00 0.000000000000000e+00 2.500000000000000e+00 1.000000000000000e+00 0.000000000000000e+00 2.399999999999999e+00 1.000000000000000e+00 0.000000000000000e+00 2.299999999999999e+00 1.000000000000000e+00 0.000000000000000e+00 2.199999999999999e+00 1.000000000000000e+00 0.000000000000000e+00 2.100000000000000e+00 1.000000000000000e+00 0.000000000000000e+00 2.000000000000000e+00 1.000000000000000e+00 0.000000000000000e+00 1.899999999999999e+00 1.000000000000000e+00 0.000000000000000e+00 1.799999999999999e+00 1.000000000000000e+00 0.000000000000000e+00 1.699999999999999e+00 1.000000000000000e+00 0.000000000000000e+00 1.599999999999999e+00 1.000000000000000e+00 0.000000000000000e+00 1.500000000000000e+00 1.000000000000000e+00 0.000000000000000e+00 1.399999999999999e+00 1.000000000000000e+00 0.000000000000000e+00 1.299999999999999e+00 1.000000000000000e+00 0.000000000000000e+00 1.199999999999999e+00 1.000000000000000e+00 0.000000000000000e+00 1.100000000000000e+00 1.000000000000000e+00 0.000000000000000e+00 9.999999999999991e-01 1.000000000000000e+00 0.000000000000000e+00 8.999999999999995e-01 1.000000000000000e+00 0.000000000000000e+00 7.999999999999998e-01 1.000000000000000e+00 0.000000000000000e+00 7.000000000000002e-01 1.000000000000000e+00 0.000000000000000e+00 5.999999999999996e-01 1.000000000000000e+00 0.000000000000000e+00 4.999999999999991e-01 1.000000000000000e+00 0.000000000000000e+00 3.999999999999995e-01 1.000000000000000e+00 0.000000000000000e+00 3.000000000000007e-01 1.000000000000000e+00 0.000000000000000e+00 1.999999999999993e-01 1.000000000000000e+00 0.000000000000000e+00 9.999999999999964e-02 1.000000000000000e+00 0.000000000000000e+00 0.000000000000000e+00 8.999999999995836e-01 0.000000000000000e+00 0.000000000000000e+00 7.999999999999998e-01 0.000000000000000e+00 0.000000000000000e+00 7.000000000006934e-01 0.000000000000000e+00 0.000000000000000e+00 6.000000000013869e-01 0.000000000000000e+00 0.000000000000000e+00 5.000000000020587e-01 0.000000000000000e+00 0.000000000000000e+00 4.000000000016644e-01 0.000000000000000e+00 0.000000000000000e+00 3.000000000012483e-01 0.000000000000000e+00 0.000000000000000e+00 2.000000000008322e-01 0.000000000000000e+00 0.000000000000000e+00 1.000000000004160e-01 0.000000000000000e+00 7.477570327540725e-01 4.905967956478702e-01 0.000000000000000e+00 1.346210646643281e+00 4.806066422083806e-01 0.000000000000000e+00 1.949496869330408e+00 5.032480558805372e-01 0.000000000000000e+00 4.449999999999997e+00 5.000000000000384e-01 0.000000000000000e+00 3.859142349610828e+00 5.103468031113156e-01 0.000000000000000e+00 3.246530027037640e+00 5.183101712757180e-01 0.000000000000000e+00 2.657531292711257e+00 5.037429884868682e-01 0.000000000000000e+00 3.824015840967434e-01 6.064457502813875e-01 0.000000000000000e+00 2.306343155343502e+00 6.315316747431162e-01 0.000000000000000e+00 1.049999999998266e+00 3.374999999994497e-01 0.000000000000000e+00 1.641930697057102e+00 3.436055112169133e-01 0.000000000000000e+00 4.150000000000006e+00 6.625000000000185e-01 0.000000000000000e+00 3.552784161359181e+00 6.642488388863971e-01 0.000000000000000e+00 2.940292465243163e+00 6.575992780735344e-01 0.000000000000000e+00 1.641237689750194e+00 6.703960699373966e-01 0.000000000000000e+00 1.050000000000000e+00 6.706367924525535e-01 0.000000000000000e+00 2.960517759676693e+00 3.261740577967960e-01 0.000000000000000e+00 3.551899302943298e+00 3.210887133285832e-01 0.000000000000000e+00 4.150779393876139e+00 3.209867287821391e-01 0.000000000000000e+00 2.213980362532827e+00 3.194901812685164e-01 0.000000000000000e+00 4.927283029162088e-01 3.252862896001115e-01 0.000000000000000e+00 4.696684455724628e+00 3.145438084075651e-01 0.000000000000000e+00 4.690990908683984e+00 6.962960281446974e-01 0.000000000000000e+00 2.487221901830106e+00 2.763334294511438e-01 0.000000000000000e+00 6.215262983536076e-01 7.328515730233995e-01 0.000000000000000e+00 2.065768881873406e+00 7.342557316219342e-01 0.000000000000000e+00 2.543072460766750e+00 7.257064952909391e-01 0.000000000000000e+00 8.105176211436336e-01 2.535517621144286e-01 0.0000000000000
[...]
<CellData Scalars="A_conc,As-lin_conc,Bs-lang_conc,Cs-freund_conc," Vectors="" Tensors="">
<DataArray type="Float64" Name="A_conc" format="ascii">
1.941642778705192e-12 6.060739164867266e-01 1.707115110844087e-147 4.830745602233002e-15 5.399996766530109e-01 3.499166809114576e-66 5.285326455873141e-61 4.571211561289377e-01 5.894703559543666e-01 3.314647455935194e-12 6.850513457526330e-142 1.448284576995297e-19 7.374333898139733e-36 1.078725393491235e-136 3.076887535072219e-15 1.232478558297581e-09 8.177235199316773e-15 5.647848728813250e-12 8.914643722427433e-82 3.076970436750019e-12 4.637205356893339e-71 6.808523258029641e-49 1.342292304960570e-19 1.480110641928090e-25 4.560198960477286e-22 5.037505953614375e-29 1.186239489523552e-12 5.196465108870654e-01 1.237257951037259e-21 8.327213596074129e-13 5.285827930656611e-46 1.181796370593584e-18 3.731592918471548e-44 3.553968459351571e-190 1.216035212676545e-76 5.716495506721110e-01 4.155388275767973e-23 8.474658568496565e-68 6.520981582422343e-23 5.472735965276783e-01 5.819345459377259e-127 1.085439939795537e-41 2.569053376232827e-195 3.329486585290225e-85 7.314989423698444e-79 3.955726610490800e-73 2.933659538123233e-09 3.539125675246056e-17 7.269375563872481e-87 2.198701239462334e-78 5.878340129027924e-01 7.382274946253695e-32 4.662554062896475e-10 5.620616164134734e-01 5.830978849421969e-01 6.193993732879179e-01 3.656197064936526e-67 4.489320430272288e-01 5.084320285824495e-01 6.848147340383512e-10 5.970179598687284e-111 4.531155602809949e-01 9.190592754010213e-43 2.090750220956172e-74 3.582526713398394e-80 5.232815227939286e-58 5.359207121940667e-22 3.253926704580370e-54 5.997904563974759e-01 4.985821096881922e-01 7.274810032103702e-69 5.232593311599630e-165 2.494761890637814e-29 7.278825696833117e-12 9.071974792881894e-12 1.667949782983285e-81 3.329871261252656e-38 2.288848821583032e-74 3.108215207124694e-02 6.103179235821903e-67 1.011069816554896e-09 1.006962443504451e-79 3.733810433213207e-23 1.238008402606733e-121 8.599364138320459e-35 7.690474726146612e-35 1.111060426118545e-79 7.799207679181751e-06 3.372664497073464e-28 5.230300995930828e-55 1.098929022639630e-95 1.525305133525370e-31 4.803449829659466e-01 2.116843708993203e-38 1.467770998339854e-74 5.332289349844892e-15 1.307433117126653e-38 4.600503730186570e-01 9.624705834854579e-153 5.082230776370753e-01 3.087509975504904e-74 4.780466630143639e-25 6.150337288352058e-22 5.424108545856678e-40 4.189970278825902e-38 2.253416752548670e-08 3.542033193149813e-15 5.242389460090713e-01 1.593469820909908e-41 2.394490125074219e-03 2.839702365566448e-63 1.502584487776755e-25 1.055683188867292e-28 1.636159172935660e-40 5.997593534053415e-31 4.676037452338023e-01 2.816500423625305e-15 3.137670982814205e-64 5.705038675348237e-77 5.190288428131136e-01 2.546551677729325e-73 4.609419404348848e-22 8.696975022477947e-49 1.863458946841743e-22 5.116546632200436e-01 2.531716562798886e-64 3.253698858149348e-142 2.823044959473960e-32 4.774111127110709e-01 3.632554908422136e-01 1.929879293612919e-79 3.415714489755845e-57 4.107095442059214e-02 4.114354429565179e-01 2.265325841958942e-53 6.681211273666371e-83 2.552992250664188e-12 6.137010972076276e-01 1.266614660849998e-20 5.555381270397345e-56 2.665853596259501e-60 5.089513352827916e-01 1.703713498822847e-24 2.852936871770817e-76 2.529240931539387e-108 1.556138203965226e-113 1.299696214933076e-11 2.637268015695180e-46 6.524158139132768e-69 7.000393879876476e-06 1.374309912012430e-49 4.252346465968554e-74 1.621484944239458e-52 6.013908013360177e-27 2.677824517912752e-83 1.816816814365376e-115 1.659578205222444e-49 4.798045117699770e-01 4.007151930159260e-26 6.221651210054349e-112 3.212071259395881e-09 3.272131298691704e-01 3.739035257587560e-52 1.740430054485309e-153 1.224964380316921e-73 5.371506711344444e-23 3.500406487763580e-26 3.575250032484844e-55 2.420678224839285e-55 5.874876690179714e-112 3.665304355855103e-25 2.218315656212080e-42 6.918251652527039e-111 2.252426524682991e-116 4.427653696793913e-68 1.110539421953458e-47 4.457564424865300e-01 3.714716426271432e-153 1.397361719671101e-58 7.556986760119453e-69 3.469511490164460e-42 4.583196712659323e-01 5.539623609943511e-01 3.832660267323600e-58 4.134933058949129e-62 1.853611799443135e-42 3.294162153676193e-38 1.041765238744382e-54 5.180098710303536e-149 1.853933349110896e-71 4.321394772618518e-26 3.321993932330480e-42 4.632443429216533e-12 3.743702480804314e-19 1.277064546755972e-28 9.718407419907688e-68 1.067785820510708e-24 1.645282068571058e-28 1.922203610352002e-181 7.588836294521708e-176 3.180478811009908e-29 2.111590009413582e-70 6.395807751880069e-01 1.463994361419475e-47 5.258558452015891e-48 4.395554988163762e-01 4.264515280915084e-73 5.674510264138521e-43 3.144559799548685e-09 5.682595004506901e-01 9.081788720107991e-75 3.207616205540627e-153 1.532170458033770e-58 1.422725166687462e-12 5.424062794314450e-15 3.088448214061163e-65 1.699280522875955e-25 2.164637648383244e-69 2.450710202516116e-19 1.236034130491679e-84 7.983913284938265e-90 5.315745036469389e-01 3.319221558479949e-71 1.428077223343413e-40 1.574531773015717e-36 6.292579178755247e-01 2.528804038233374e-25 1.616813600274741e-16 1.366027348537127e-129 5.702385100807462e-64 2.093111428804884e-60 7.709699711780414e-32 2.406519133348544e-19 6.301686229739772e-23 3.206436677453043e-45 7.247273417935724e-24 4.068992334929067e-15 3.837609613158836e-61 1.665172699046733e-28 3.017292167936374e-124 1.544519185219987e-08 1.879231975206136e-42 7.598262741029911e-69 3.122115693163239e-78 3.515708518966873e-101 4.807282460628032e-37 4.667528131774233e-01 4.361467358647831e-117 2.871636445711732e-09 2.385541398091418e-124 4.305632194597935e-78 1.927776386573933e-76 9.512496525266174e-106 2.338902517601867e-37 4.659186323396145e-01 4.660229560564579e-01 4.177941018723039e-16 3.688289136966306e-185 2.648365005921381e-09 2.515953605970577e-128 1.976032861847198e-64 3.270828269972166e-30 4.872589728331220e-26 3.226775958576548e-31 2.524257647110433e-46 2.473329959288213e-09 2.326955962057029e-19 1.112513238152895e-15 1.791953936161595e-33 3.648461232871885e-126 4.420460699114356e-91 1.128738597914214e-53 3.530616015438729e-05 4.495296163343326e-74 7.235153943848447e-13 2.380673821460022e-09 8.164483163695150e-13 2.956998583421272e-18 8.684056985870622e-42 1.688884981666218e-38 6.941126493057382e-65 2.523147903308370e-01 3.172409962091572e-59 3.299500583039521e-12 5.225313936470666e-01 9.407446988992018e-46 3.475222160044819e-39 1.118436985441627e-56 2.071594542869650e-52 1.018476962032447e-24 2.734288168849921e-50 7.343123164243674e-95 9.601515976395830e-41 2.330027068988830e-37 6.974603687039768e-87 3.723742479837420e-90 5.842573865294577e-51 2.259544025092261e-12 3.164200139827223e-122 9.248788493190040e-55 1.532850490667193e-100 2.066110489355729e-51 1.749759755378536e-31 4.771883458734831e-01 9.819521496785585e-23 1.136590490528043e-09 8.682301914519111e-10 5.137419344382560e-01 1.324963188589944e-27 1.216233632761672e-97 2.829879216130039e-22 3.905122354980297e-92 6.098320059908110e-121 4.504641884821706e-61 5.407258875989403e-116 5.243223364420308e-16 1.741625900356674e-59 5.016943694109877e-56 5.897365913529614e-01 4.493868383098529e-01 4.392319438490709e-01 2.590316392498662e-63 8.084558105003652e-60 6.934645752945045e-32 1.616499890045515e-75 5.993102989073740e-36 2.596077013280499e-41 2.691424161034525e-32 3.446207985187104e-101 2.813127766734418e-15 6.150752429143647e-01 6.099020821546115e-01 6.108994854466363e-01 6.145206519831321e-01 5.030834795299381e-01 3.845914623879986e-12 6.051293494449042e-22 1.300771201214447e-71 2.132970670091938e-52 1.264650049146891e-44 1.187770727873121e-69 3.041716147366469e-28 1.026500836073203e-142 5.579771632859040e-01 9.979469014461964e-133 1.561147850141593e-18 3.480134131471567e-40 1.291591625544133e-127 3.713065822070602e-35 3.058571764571087e-30 6.326450229141499e-01 7.159504751996451e-148 1.895702549662130e-31 4.918248145505956e-78 3.042508933999777e-09 4.607853030712281e-01 4.071622148779756e-69 2.777438315773618e-65 2.686452939342940e-21 4.261596178275564e-58 6.889751479465477e-15 4.575326725875835e-80 5.257959882437009e-12 4.057385840258766e-01 1.918614815905850e-15 4.169183300781930e-01 8.898046536788255e-47 2.778655992469476e-30 6.394149369888698e-47 5.972383530818075e-01 6.402994817933889e-01 6.402994868820450e-01 5.361960464422768e-01 5.346959580971138e-01 1.529860140165996e-105 1.577037896041019e-74 4.761335460542506e-01 1.906006777694465e-74 4.458327359367067e-01 3.371071632340243e-72 5.958298119959575e-01 5.777282520261166e-12 1.089770110951976e-24 2.552321903014149e-22 2.180327219718038e-92 3.364331758520797e-37 9.994133435456288e-65 5.657443434316148e-180 3.227719749413087e-63 5.324298384777703e-01 5.937198020927789e-01 9.177311601102649e-69 1.775495580654272e-35 3.341000602842100e-24 6.265782907423462e-40 5.766025892657383e-12 2.316508847967496e-18 1.749660538248730e-01 2.195194106122445e-03 7.048977017390646e-53 2.894091194762554e-108 5.816708406657762e-01 2.585290996196101e-27 2.618637265890735e-17 1.639885164548684e-21 4.206010543078334e-22 1.119257074789716e-49 6.104294120946797e-69 5.631181839961353e-01 4.146738415387193e-02 8.647959521906270e-121 6.397795150180902e-01 2.175538146086420e-116 5.499993025893662e-32 4.308997311588890e-01 5.864228724748375e-01 3.041876517306287e-39 9.658256828380176e-36 3.768298387682237e-47 1.436740033731701e-70 3.227395782227579e-49 1.730343771456776e-74 1.638971570084831e-04 5.114965625723333e-01 6.073643725893992e-44 1.442553159513487e-16 8.774862301092623e-61 4.372416246783502e-62 3.421692329001627e-85 5.721823620231039e-21 5.036561501815171e-01 2.677919608729998e-12 1.662305085991035e-58 1.947114696924599e-90 3.465267120975356e-26 4.945284787296069e-01 2.654298835052980e-18 1.532776963978646e-79 3.114660550520599e-32 4.941204076572025e-47 1.979401475986010e-106 5.437539044933948e-40 3.547452488466177e-29 3.903939601291203e-01 5.268041025830088e-60 4.369459467850864e-01 5.196959191197068e-48 2.922990236861363e-157 4.661327555522257e-12 6.244166362831689e-01 4.319965166927782e-152 2.213707029400675e-49 1.348163909049321e-63 6.164101477327533e-01 2.301525140282283e-01 1.904554858470671e-65 1.690794292755857e-121 4.138066839136457e-26 2.300426715026745e-186 1.606987832960706e-72 5.550067043580662e-01 5.883489264790558e-01 4.453292745012402e-12 9.635833403942783e-160 3.974931189849320e-17 4.047443658932717e-18 6.176515199329831e-01 6.108145346504481e-01 3.143566685345413e-35 4.436623607058496e-01 2.065237772982389e-131 1.846937508385928e-131 1.336171285647644e-113 5.839455945963333e-01 5.721391137036623e-01 5.806530817635021e-01 1.317494938493079e-38 2.520402471768356e-25 1.263236393571969e-54 2.514179794812325e-162 5.029166583443780e-01 5.360260392209639e-39 5.362566746046005e-01 6.066525195593025e-44 2.325007893183363e-59 1.667460859535421e-74 4.733019095089498e-01 6.067755590271543e-35 3.017868138548437e-40 7.122163282924312e-22 8.099969808226645e-02 6.101150871634988e-01 5.454983902120725e-01 4.228998561338292e-01 4.544757503369511e-01 1.862313029678666e-42 7.469637497092433e-144 5.222569530749588e-01 7.460488934151600e-96 5.470090531429601e-01 1.542959033046198e-48 6.716359834491556e-22 3.305261929564401e-21 1.163448113959819e-02 1.546717586632481e-75 1.573166211921453e-18 1.974462902265296e-50 5.806355631087576e-35 1.255253766222389e-82 1.338379699910167e-191 5.250642249473031e-01 2.995991037236604e-09 1.950855567766920e-158 4.283427348700341e-18 1.989180441299997e-26 2.419269843434603e-28 3.886832381260945e-01 4.977812378378392e-01 5.490402148295066e-01 5.522500377367764e-01 1.376027122971429e-15 4.216343509649629e-12 7.574186608067777e-44 1.053222223507685e-80 5.655064018922511e-01 5.307148785103015e-01 1.391016759001321e-38 4.536512753430720e-01 1.481913762030124e-107 5.720770441156628e-01 2.413104486151076e-102 1.162656522240955e-28 5.391842655007184e-01 4.755367919556477e-01 1.665462479011555e-133 1.672196502325697e-71 1.075085975175144e-122 1.363929357914327e-18 4.118548839747680e-15 5.241761276522490e-01 2.014548909100078e-71 4.795606017570139e-01 6.898475735523481e-82 6.812371084171660e-32 3.216545172817842e-100 6.296316883326105e-80 9.892385956343284e-67 5.445987996311943e-01 1.189046800731455e-127 4.543147000115190e-12 3.930270483776922e-09 2.580739777602244e-22 8.410377480907539e-53 7.673223546540056e-02 3.587907226413503e-69 6.403303985779414e-15 5.107271889204105e-01 5.764502085405805e-01 2.472295668436853e-10 3.622254716508091e-13 2.392016786625235e-75 5.415394193671385e-19 8.121060300817528e-39 3.896586143087894e-90 1.118527935490121e-20 5.792109257175724e-52 4.068502394567124e-01 4.517529132425210e-09 6.003727549906376e-01 6.034153738816983e-12 1.039328762107218e-35 5.555243804570781e-01 5.496721242631504e-01 4.888031938347626e-65 5.143865963304607e-01 5.210914595482917e-01 1.051031529016488e-36 6.656622086201077e-119 6.507048877076261e-33 2.389714607408064e-18 1.250807821580394e-133 5.972463905594640e-01 5.888355717427634e-01 4.648985148684870e-19 4.169688674423811e-53 5.955734736395543e-44 2.493215660664584e-167 8.964942338024537e-139 1.649961077541751e-56 4.888669645237191e-01 1.837330057597318e-63 9.817558705002949e-57 2.895660032755588e-01 3.698847878044115e-60 3.850145598549488e-01 6.167719685986237e-01 6.084090813558859e-01 1.864551156300198e-22 3.121767153117980e-74 1.660574374372304e-09 1.211882686033703e-85 3.710668499082867e-57 3.599280975511267e-06 4.008356348162424e-09 3.868622661232724e-76 5.955903384190396e-01 1.926120468123097e-72 4.992791166547723e-46 3.361055610457220e-72 6.496139834539012e-138 7.133427369927775e-43 5.386159867459584e-12 4.990175188918969e-76 6.615070036172018e-36 5.215696491338710e-01 6.445529896747426e-46 1.579329862495487e-60 1.038095142422043e-169 2.314682343413599e-100 8.461219820174923e-71 4.386464682058452e-01 6.214202403728929e-135 7.809194767699104e-34 2.800176643128402e-09 4.882962248987116e-01 1.491688913087770e-68 1.411571829135436e-158 8.330992143098692e-44 5.636938201793317e-12 1.755550448765087e-18 4.498621826467845e-01 4.394489365410876e-01 5.738332907980419e-68 9.626673688204032e-196 1.999461782654826e-04 3.986102739438496e-34 5.765539235346086e-78 2.643437598221727e-45 4.149592809463520e-42 5.128604385181587e-85 2.669241858571351e-15 6.065806782096508e-57 1.956987744754710e-53 8.250653806022869e-57 8.853130682092817e-10 2.781221444399333e-66 2.843054609010599e-51 5.991278803837933e-133 1.543837162017577e-71 4.290841426713688e-50 1.331983701707625e-24 5.443390006654060e-01 3.205402242169403e-09 4.746200019889158e-39 2.656811338018339e-02 9.667007548200280e-71 7.532352009953749e-28 4.935190316079010e-01 4.867700781419980e-01 2.970027546368836e-38 1.294512017253307e-42 4.579139946297038e-01 1.420063818470405e-15 4.003882811111147e-37 1.110050273223269e-63 9.969709551538755e-79 1.237706316575980e-170 4.303657380626585e-123 8.513071465209011e-164 5.194881402463683e-30 3.712796210733599e-31 4.674797239384698e-01 4.595424606131979e-01 7.371459235213674e-111 1.277257466136399e-70 4.444835118983549e-67 7.593122530172276e-72 6.006009692766344e-10 2.641145564330012e-92 1.233468657288460e-61 1.245573693396507e-68 8.157390761318438e-87 2.582624855616092e-29 3.019692808928830e-09 5.235667710555929e-126 5.654966016472368e-01 4.036046738875488e-12 6.339288656667008e-01 6.327665568163046e-01 1.112861554579015e-38 2.225052487362838e-09 1.429746722290959e-45 9.346975310370833e-51 2.448303355074648e-106 3.099045560478342e-20 3.172300152472497e-23 1.108477418036641e-79 1.026364523454569e-45 9.864522041015402e-10 1.119518369198019e-138 4.985620629082359e-01 1.674376580262840e-50 6.249294923663340e-01 6.333684738177507e-01 6.336041394378145e-01 6.251766157633833e-01 6.221046031787110e-01 6.233111146213902e-01 3.573451968353253e-29 1.194693749136271e-10 5.638436544557711e-103 6.397573621790522e-103 2.585147903577557e-60 6.353112509473032e-45 2.756463492725846e-16 3.824633798789480e-47 5.552180043817090e-01 1.287632511131128e-41 1.779794192045134e-10 8.579826244628229e-31 1.310738297848325e-27 3.242444435217327e-13 9.848818928559952e-56 3.603622684923615e-09 4.355977083180527e-10 1.748468532806217e-25 1.026011557123695e-136 9.898669558150099e-73 4.299450942639297e-25 3.361573670672954e-75 2.902145161966848e-89 3.648648738001316e-87 3.799712161747567e-01 1.182417934039154e-59 1.153259803011496e-58 1.846678568381819e-09 8.693516236670677e-53 2.719328405226366e-86 1.964951445761839e-42 4.951716264779792e-12 5.080482139027999e-26 1.167111591170800e-35 2.616605264610511e-29 6.215664576851512e-90 2.809027298725930e-95 3.134345422907115e-61 3.833776734344664e-01 6.005694036512871e-36 2.106710623945736e-18 9.929886807313187e-105 6.425968763824587e-01 6.425968782282553e-01 1.012724222465987e-60 5.005170825651759e-01 5.033424491897674e-89 1.046799930757609e-09 6.423324792492371e-28 2.698210929582959e-03 9.422528207836429e-46 2.553244691621275e-74 2.560927396546963e-09 3.284437571978808e-53 6.328283135606855e-01 6.328283191660485e-01 4.838335046516122e-16 5.549464457807434e-01 5.451398847799410e-01 5.184420620962212e-01 1.733681008181847e-18 3.504698301114757e-72 5.732391307417023e-01 5.640101687326503e-01 2.294582843596516e-26 5.008898408544520e-71 2.673381804786286e-21 3.298592106352248e-76 2.338055559021680e-78 5.517508156556928e-01 1.660984703916708e-99 6.235701840837395e-01 6.237302259639597e-01 3.375382783200195e-39 1.949137217360657e-35 4.194401337319774e-01 1.591795506023094e-48 2.793444012203575e-58 1.237397601229092e-50 6.942972015211244e-25 4.641122460768071e-01 4.867444691761210e-01 3.897697128622468e-09 3.831594712257208e-09 2.452134415243249e-44 4.655877416006397e-41 6.802717416958982e-118 1.613486082376255e-47 5.007918248978327e-01 7.343145968320448e-65 3.617574265298962e-70 3.809438781740848e-01 2.182723931560122e-01 4.104670507342985e-92 8.940149880329267e-15 1.831377369981394e-57 1.691794783609937e-41 6.493342033311052e-24 1.210757090754261e-32 1.082564931070695e-105 8.629636576602362e-37 4.691976246146917e-01 4.314034040316144e-01 4.312209865004657e-53 2.677401017365560e-97 5.092482997843582e-58 1.449260771339020e-45 6.313189473660285e-19 3.949579673589942e-12 1.180815807316748e-74 3.418721735241357e-18 1.090684982501567e-21 4.537032070977145e-01 1.958829134798584e-97 5.814561875868315e-01 1.584317057405215e-36 4.859052031635866e-01 1.054674085586077e-83 4.299813911825773e-39 1.230540564443370e-13 1.738902258963152e-63 4.798656072858563e-01 5.279322902632837e-117 3.339052281439195e-122 1.816419699570525e-09 7.404059800692033e-15 6.488032360389753e-50 5.821354172657067e-118 5.936264876837348e-01 6.000391124241625e-01 1.259848368388953e-09 1.370020192286560e-27 1.637537196069379e-97 5.831878783349240e-01 1.016686151308996e-75 4.320151861126897e-13 2.886555252308925e-10 5.609893625681927e-01 5.705574845472641e-01 1.561664771350507e-42 1.059357579163696e-65 5.691330875657460e-80 1.780543283455321e-15 7.849253943571205e-25 6.341264394531058e-28 2.056498339536968e-38 1.686159604642227e-61 7.147800498632554e-59 3.195997207423069e-13 6.160338472036525e-206 5.726390468027860e-01 9.744322015560631e-99 3.519494177642124e-168 1.784322559895781e-09 5.999946368878151e-01 6.241206985116763e-01 6.330809119628871e-01 4.221271614229154e-08 9.029293265866984e-63 3.053452635583925e-148 3.305537077563487e-143 3.125666020753038e-75 4.489698474737376e-01 5.229526157737994e-44 2.776361490620135e-21 2.808529551879361e-09 3.724278002005885e-85 1.303394638196343e-90 4.460987899935417e-18 1.781563327883446e-32 3.295828049553872e-18 2.252933347216637e-82 6.598759745202094e-93 4.643170190538817e-61 2.096619563000589e-172 4.018226755426361e-45 1.547729672626415e-63 3.899815623062036e-01 2.079268601753676e-55 1.206289915707923e-51 5.810742472720668e-46 4.703206725496775e-01 8.462639725457791e-201 2.310565161053044e-08 2.382247365047674e-127 1.109421944760114e-66 4.157933695077830e-63 8.517769975742463e-28 5.935752970410336e-01 2.118387717946907e-