<?xml version="1.0"?>
<VTKFile type="UnstructuredGrid" version="0.1" byte_order="LittleEndian">
<UnstructuredGrid>
<Piece NumberOfPoints="714" NumberOfCells="1306">
<Points>
<DataArray type="Float64" NumberOfComponents="3" format="ascii">
0 0 0 0 0.10000000000041601 0 0.082799035591426873 0.082799035591510806 0 0.099999999999928008 0 0 0.19999999999983389 0 0 0.20669143849501961 0.085546078947938975 0 0.29145143692666958 0.13500804559578439 0 0.29999999999973409 0 0 0.24783073444672249 0.24783073444648379 0 0.21725788110387281 0.17316968768743621 0 0.17318221359491059 0.27409688392309489 0 0.089078158003765312 0.2493007687782936 0 0.140351188660986 0.16130415108589741 0 0 0.20000000000083221 0 0.066361468125430589 0.15903440181097661 0 0 0.30000000000124832 0 0.0632094674441709 0.3449112819864934 0 0 0.40000000000166441 0 0.083393126324559225 0.42307471369029392 0 0.13897501191807771 0.34545639364066222 0 0.070553891733833127 0.57745844360881338 0 0 0.60000000000138687 0 0 0.50000000000205869 0 0.12353277228144981 0.51086097771927308 0 0.16324260003398389 0.62262730759772122 0 0.1946526892501724 0.54636184660733622 0 0.27220668248394869 0.50912429725145214 0 0.27661118526457179 0.58730386222759956 0 0.16486701364709541 0.41592657376307979 0 0.21928696632013719 0.4676461135047027 0 0.29987747321592639 0.43430880093746571 0 0.2371857680100064 0.35865548441110112 0 0.34318159319555042 0.3314386771104964 0 0.38593969585746768 0.44843324941957241 0 0.42544665781957403 0.3726599289372452 0 0.38240158409674341 0.60644575028138747 0 0.34793494568226019 0.52426775179830853 0 0.45232393232070839 0.53082724112931345 0 0.46433624429412901 0.61260020600107856 0 0.55763912874459476 0.49619993861770217 0 0.56379254693201075 0.58472273515948836 0 0.49272830291620878 0.32528628960011152 0 0.47711113382803011 0.43513410852522788 0 0.56509579243166053 0.39588847936247551 0 0.58612580217118482 0.27813894450229909 0 0.49255105193724569 0.22337579986912359 0 0.5565830077206213 0.19095699352548859 0 0.59999999999951659 0 0 0.57505385014294308 0.072457888465917331 0 0.49999999999959438 0 0 0.50264032148191051 0.12292784096123539 0 0.43504744109702559 0.077628892606360606 0 0.39999999999966429 0 0 0.35933948296838258 0.073809900849860513 0 0.33604819894646598 0.23280286076243209 0 0.41589935411558732 0.26752529264016389 0 0.40428440976105728 0.1643886070295453 0 0 1 0 0.099999999999999645 1 0 0.14716362552681639 0.93861610753355362 0 0.19999999999999929 1 0 0.30000000000000071 1 0 0.29792158491427922 0.79537096033156995 0 0.2235202862591317 0.88873896332704583 0 0.1332109546178302 0.87498377138822103 0 0.075231054453351903 0.92314074346405706 0 0 0.89999999999958358 0 0 0.79999999999999982 0 0.074918724681641777 0.83311952320732263 0 0.1533088418661793 0.80370257472597129 0 0.089684836063650353 0.74720097194875412 0 0 0.7000000000006934 0 0.079752623936563252 0.65630726580969023 0 0.16551550920047911 0.70947866912672319 0 0.22047232289835689 0.77501739045979867 0 0.25446499951716589 0.69023946426646743 0 0.32437633398017029 0.65970549827478953 0 0.33985912385126898 0.73174041004507751 0 0.42824324229177341 0.6924957961634054 0 0.5174764925733939 0.65338828204098198 0 0.59670004617370476 0.65981579440137683 0 0.62152629835360762 0.73285157302339954 0 0.52912171753951986 0.73993242892488531 0 0.51076728641122882 0.81691863363193817 0 0.62017612851329729 0.81451802170669263 0 0.56701461556202259 0.86335846433862784 0 0.45907587517201498 0.90165918271477563 0 0.43819239467549531 0.79296936871720936 0 0.36912581253574028 0.83088590731704637 0 0.37337282601342481 0.92616598444216514 0 0.31535921456193688 0.88154045330654418 0 0.39999999999999952 1 0 0.49999999999999911 1 0 0.59999999999999964 1 0 0.5499999999999996 0.93976792513729512 0 0.70000000000000018 1 0 0.79999999999999982 1 0 0.89999999999999947 1 0 0.8793859710393791 0.93083561064221121 0 0.93540888248908083 0.88281232945237675 0 0.91372311269140116 0.80486176357476358 0 0.82192606283926717 0.87651855948129354 0 0.73937541854631073 0.9288754054780668 0 0.64588148000090029 0.91512139508160772 0 0.76404828705430583 0.78174230667165401 0 0.71722872346306721 0.85096302760907838 0 0.69085763855200755 0.76120667115691065 0 0.6754414170471299 0.67700559910555169 0 0.74547688787239819 0.70026419381674654 0 0.81910554849723838 0.69100245438023977 0 0.84477163403336131 0.77519844632340484 0 0.90192269692920224 0.70295054578552552 0 0.9749171938312049 0.68304286407835557 0 0.98491966670915287 0.745702719141624 0 1.0785590511537511 0.75365885686631617 0 1.05 0.67063679245255348 0 1.1595355377629719 0.69612720023346242 0 1.2316049928421089 0.71268197388690568 0 1.130022579458912 0.80264790230838934 0 1.2104878010462079 0.79638517641579154 0 1.246238897717278 0.90016207822659 0 1.1492841477515361 0.89495863909300122 0 1.035017143854235 0.92577305964649748 0 1.039491394416145 0.83402983011495258 0 0.99999999999999911 1 0 0.94997493298435887 0.94717135651053852 0 1.1000000000000001 1 0 1.1999999999999991 1 0 0.8520969719592798 0.19112077159544111 0 0.81051762114363357 0.25355176211442859 0 0.91043121937362004 0.26518856856736223 0 0.87151744524583186 0.1145610820769897 0 0.89999999999870417 0 0 0.8072276847200428 0.07509171132446453 0 0.79999999999899607 0 0 0.75434135135171976 0.12888799631625769 0 0.73796379772146625 0.059893436010741673 0 0.69999999999928797 0 0 0.66267222434682926 0.078497159578092612 0 0.64669101990832323 0.1799054750174742 0 0.75284581776561577 0.20455093921856349 0 0.7545004114404561 0.31098089234202853 0 0.68811979868824935 0.26566684131589419 0 0.65823561246403328 0.35502292901158627 0 0.64897033023755402 0.45530630145656431 0 0.71094001953927277 0.41472992215547572 0 0.65500944633069913 0.60601350811213128 0 0.66278242936710119 0.53985356489900171 0 0.74775703275407246 0.49059679564787018 0 0.74991769371388628 0.60451627361984739 0 0.85383906663538056 0.62014574817393608 0 0.82099888937423493 0.54529350322201742 0 0.89730215834238125 0.56352362508531118 0 0.79315209058920677 0.38802315963964318 0 0.83603391221093415 0.31708941802047369 0 0.84897848255088726 0.46000674997733482 0 0.9184189969982266 0.43608586792060411 0 0.89716106756302072 0.36571612550017968 0 0.97284972811175952 0.32057650487681749 0 0.97803218086495292 0.39957666910545891 0 1.049999999998295 0.45311778235774403 0 1.0499999999982661 0.33749999999944968 0 0.95554667482020261 0.61387123313571723 0 0.95438428234324713 0.50021891445525024 0 1.0610070115193291 0.56187728740506249 0 1.160572984923127 0.60155304747043781 0 1.1544259370261769 0.49580194535795907 0 1.11366617971111 0.39530889117858181 0 1.1787318575418491 0.43180077319900678 0 1.2482752740169289 0.44264463249545388 0 1.193211192060164 0.36417169501775798 0 1.2189485028845071 0.28846717556219142 0 1.225209211892335 0.20648826945283069 0 1.14543293599463 0.16096823716187 0 1.1317936052402791 0.27327200211975772 0 1.0273907165533489 0.25089655084417212 0 1.0673059847957449 0.1861726764986896 0 0.96758455917765662 0.17206502793490561 0 0.99999999999841238 0 0 0.95940036225003311 0.0802667348803804 0 1.0527907183502181 0.1005001786211816 0 1.1494214575391031 0.075340014825429069 0 1.09999999999812 0 0 1.199999999997829 0 0 1.2999999999975369 0 0 1.254652873386052 0.105753482544517 0 1.3681535985071449 0.13698083382674339 0 1.399999999997245 0 0 1.349999999997392 0.060567969661089648 0 1.291408388555241 0.26372433042992383 0 1.316869459340541 0.18778020585802921 0 1.3878996413210389 0.26723502210068018 0 1.473286192129879 0.27883707652097373 0 1.4156792278190771 0.19574754335211339 0 1.4905184776249101 0.20629734327603311 0 1.545236949037224 0.29434567071731399 0 1.456639397274391 0.1016053838939758 0 1.53341268746562 0.14194251306413061 0 1.542152768646126 0.073248247890105089 0 1.4999999999969531 0 0 1.599999999996661 0 0 1.6999999999963691 0 0 1.6799832100487111 0.082202015566833181 0 1.609545399082946 0.1308291592921435 0 1.567491488875842 0.20218805454405439 0 1.6351951680630969 0.23707571199064051 0 1.714493154391862 0.28897291620938281 0 1.7304700827703301 0.17386188770806579 0 1.799219293849516 0.26438879273789773 0 1.8480644103363271 0.19193194889233381 0 1.8299024103288899 0.1151394713368583 0 1.799999999996077 0 0 1.75369588639865 0.074917217572982864 0 1.7537858687071439 0.50406839622489796 0 1.742806034420483 0.6006074591026016 0 1.8544400981153091 0.62488101477716596 0 1.8316048184152021 0.54157006606434721 0 1.850967139686138 0.45738417241574703 0 1.8620515405159661 0.32644761881501039 0 1.787749129254824 0.36176402170097799 0 1.7808296409871709 0.43587276890434401 0 1.71976181471802 0.39635806210359681 0 1.645895854313963 0.45222881216869149 0 1.6419306970571019 0.3436055112169133 0 1.645263810758179 0.55814977621663464 0 1.5386621965636409 0.60828218080060537 0 1.550364457075788 0.50467902559054656 0 1.4795754400412069 0.53983964974648579 0 1.445918816848357 0.6075709531782556 0 1.551956040519719 0.40384519109247291 0 1.4491802319415681 0.4666714614197911 0 1.4507225717793131 0.3561247496431208 0 1.347125314110625 0.32447518420453242 0 1.385017785528226 0.40713366384701549 0 1.3198129865007471 0.39133224900025881 0 1.2615469736996101 0.34090999671933891 0 1.3860523322451299 0.56073196187600105 0 1.3462106466432811 0.48060664220838062 0 1.2709684905841181 0.55537862536316829 0 1.2546738886072291 0.63615646469940468 0 1.3545060270195819 0.65002758689694418 0 1.4000454837723419 0.73943313674757749 0 1.3035852436207409 0.73866974635260263 0 1.2914654457895349 0.81843301378315825 0 1.3255948392482531 0.88328132587465524 0 1.3864786876100039 0.92208751032957958 0 1.386174597084219 0.82350876346868962 0 1.482119963281066 0.782586299849238 0 1.463012078585596 0.89209645917012148 0 1.546104640467868 0.9195568013001878 0 1.535346256113697 0.70153336654872078 0 1.4534042830965781 0.68426123045930609 0 1.2999999999999989 1 0 1.399999999999999 1 0 1.5 1 0 1.599999999999999 1 0 1.6999999999999991 1 0 1.7999999999999989 1 0 1.6597641702579149 0.778
[...]
<CellData Scalars="A_conc,As-lin_conc,Bs-lang_conc,Cs-freund_conc," Vectors="" Tensors="">
<DataArray type="Float64" Name="A_conc" format="ascii">
3.998246155897339e-06 4.5383527013163735e-06 1.3013565418385401e-06 1.9238571722827802e-06 1.9672767245622033e-06 2.0070580692387431e-06 4.4711714466632247e-06 4.611747227718232e-06 1.9873129832613992e-06 2.0273921461217724e-06 3.3629227843923271e-06 4.1887489473057459e-06 2.9415736124395396e-08 3.9274329144372687e-07 3.9962404777843772e-07 4.5917302316898033e-07 2.9042166070882752e-07 2.0750494869550795e-08 1.2773072171860117e-07 4.4903390375907743e-07 4.7681810878134768e-07 4.6602219167159897e-07 1.2178623017170064e-07 2.8359701921768499e-07 4.2940523028285726e-09 5.5870176705731533e-08 1.8244667871639666e-09 3.8916293833901475e-09 1.6378540075787662e-09 4.5068284185495734e-09 1.247380983045786e-07 2.8463715308076465e-08 1.2428394784762144e-08 1.3359214707598574e-09 9.360523171620284e-09 1.2512777434144688e-08 3.0945500310874893e-08 1.3824478323753921e-08 2.0282675913946041e-08 3.641588895532307e-09 3.250115368863033e-09 7.0833986011077629e-09 1.9754619780137059e-09 1.7719676814557544e-09 6.4365864253313157e-09 4.3765543301031939e-09 1.9942563032403733e-08 1.1823982728669277e-09 1.8706566927162148e-09 1.3509245899297807e-09 1.4902900113073605e-09 2.1464155385603708e-08 2.1773145164833095e-09 1.8319610063547533e-09 2.4131575361672725e-09 2.7892448019487458e-09 3.1840514375443338e-09 2.6752668359296721e-09 9.1046568072501563e-09 3.5827045748420682e-08 2.1960201103068794e-09 2.9779573651226825e-09 2.5952263008164442e-09 1.0115619335271692e-08 1.1976021003649667e-08 1.296879485984828e-08 3.2064536243912879e-08 3.3561203320053416e-09 5.1035446363089062e-09 5.0570334852718194e-09 5.7404528745967011e-09 3.6583773150378394e-08 3.1347066894022079e-09 3.0806388461569332e-09 3.2124643442349544e-09 3.4933985859602857e-09 3.9586785328209958e-09 4.6376893027742679e-09 5.2433930070229385e-09 1.6193713254797251e-07 8.3143062372850131e-09 9.5718224568080622e-09 2.4640716698080543e-07 2.7655975340349765e-06 4.2463684597989958e-06 2.5553761334022854e-06 2.5134647492915785e-06 2.4077090293167938e-07 1.3573973471440489e-06 1.438415456110544e-06 4.0111497096891386e-06 3.9396984402828294e-06 5.2276484292039138e-06 3.4382887774501277e-06 1.4016391497361185e-06 4.676268409683443e-07 8.564689636915863e-08 3.0689713412002619e-08 4.4637974193057199e-09 1.5629886359123143e-07 8.8306878461196898e-08 4.775276596180297e-06 5.6021152129044413e-06 5.4985015259183949e-06 6.0024281243253533e-06 5.1210913332409197e-06 5.2201026064100882e-06 4.5123305795647034e-06 1.0799498261993142e-06 1.3124028104117662e-06 1.0507265947582072e-06 1.017250601852832e-06 4.1238287397317149e-06 4.0378552421362012e-06 2.5695222383192435e-06 2.5055613124554094e-06 1.816091378528287e-06 5.7161066428179695e-07 9.8794048032954747e-07 5.9407890246983835e-07 2.0131186021026928e-07 4.2081305809462448e-07 3.7410506326768982e-07 1.909437980403464e-07 9.3880188885945784e-08 6.2912285011115722e-08 4.1644525681290699e-08 6.8304668371153177e-08 1.8878878443040075e-07 4.367070139198742e-07 2.0058445435521621e-07 2.1086773137984722e-07 8.2704986764962708e-08 4.6619583029861577e-08 5.0080149644558185e-08 8.9031256081701675e-08 1.4782005318944505e-07 1.3667128868341565e-07 5.4230908721368411e-08 1.0047090342253518e-07 6.1685803673366617e-08 1.0836422204237893e-07 3.4346738676306269e-08 2.3467121207113173e-07 1.2158688986467279e-07 6.9594520265901275e-07 2.1280287068925044e-07 2.2589848174655898e-07 5.4964033883652677e-07 1.3749328897740184e-06 5.8468007569450087e-07 1.3218360196182175e-06 8.6353802988498178e-07 1.7218687711370911e-06 6.6914116260590776e-07 3.2385595355459289e-07 3.1159343514258738e-07 1.0921002413460738e-06 4.6337268810518526e-06 1.6873637193711211e-06 6.5520181843147735e-06 4.9712343784671064e-06 5.0721028771533454e-06 3.7130643807655891e-06 5.3622271422589952e-06 3.1863425630302016e-06 1.956628133913771e-06 3.268465048928963e-06 2.2488608002324088e-06 1.5842162878735418e-06 9.0592174525021658e-07 7.254677910411454e-07 7.9722283449993473e-07 4.4558331691894198e-07 5.5263239848120419e-07 4.2519029505063941e-07 1.1710880296985542e-06 1.1329179164596835e-06 8.5195705173330333e-07 8.1444295589369774e-07 6.0669228879679154e-07 3.2325654490169321e-07 3.4199788410175213e-07 4.0273106372105077e-07 2.1156667418921224e-07 1.5550449354323402e-07 2.0233817431010526e-07 1.4874876222059484e-07 2.5044514999448397e-07 5.4457256718187984e-08 1.1943234161138153e-07 5.1466745297241703e-08 5.8353008302062314e-08 6.1431636995206452e-08 4.8963979178501299e-08 6.1113812104063616e-08 2.1660800652931263e-07 2.2090590514688889e-07 2.6474335256933961e-07 2.5470937854194555e-07 6.4429124321298245e-08 6.8899823605131794e-08 4.7598128907382643e-08 1.6382803803744535e-07 1.562820214879501e-07 1.7052659904813543e-07 3.8644426300900339e-07 4.7842791201549918e-08 5.7485564685787655e-08 9.3297567976131645e-08 3.0639974743774147e-07 2.5458058481656702e-07 1.8057038959817985e-07 2.6905050284168638e-07 2.5741063189096689e-07 7.8215935777685072e-07 7.4366597934310956e-07 8.6351756735654979e-07 1.2422850978687932e-06 8.157821797191544e-07 8.2366726833857845e-07 4.2898389934449431e-07 3.6417936548141551e-07 5.8771988424806241e-07 8.2591840481862575e-07 7.8202726398799436e-07 9.810399951028166e-07 1.03186287078595e-06 1.0709659939461737e-06 1.1245822015702403e-06 1.1809103701070592e-06 1.3346608211135486e-06 2.7874382743801612e-08 2.2377348442945958e-08 1.0741687961635695e-08 9.5919108225074112e-09 2.518886157645538e-08 2.8210360447633723e-08 3.9227755686331352e-08 5.0264183574947814e-08 1.8174949862307381e-07 1.7476894898440022e-07 8.6611009575286252e-07 8.4973755326191461e-07 3.3960874118949566e-08 1.2928537875589424e-07 2.7208562328210385e-07 2.8069633408348035e-07 2.0415522275441006e-06 2.8218652377435696e-06 1.5950634292165977e-06 2.7950142944460937e-07 1.4033181100647635e-07 1.3901569903436543e-08 2.3873420161994594e-08 1.4271020839250866e-08 1.2948709614045116e-08 1.1092171003792217e-08 7.7115539821081428e-09 6.5567006063214748e-09 3.7243572543257585e-09 3.5349404639377728e-09 3.9741559030268646e-09 5.0616627745475915e-09 4.4702430889441697e-09 8.4534306426691404e-09 7.7067501448439745e-09 5.6492390697146967e-09 8.2161915565971157e-09 8.9394536066705868e-09 1.2165117963607308e-08 1.3271983001507298e-08 7.51086011171011e-09 6.8058366502885933e-09 8.0940895621687723e-09 1.1882452197019531e-08 1.6250281310304912e-08 6.7673658047327638e-09 6.2230525833175942e-09 4.1476372713654791e-09 4.3864998704252343e-09 4.7643016729634982e-09 4.2549855853758168e-09 5.5186448399059743e-09 9.3154953308480963e-09 1.0211529327715885e-08 7.5227152318965418e-09 8.4428478879670874e-09 4.8620793630371345e-09 5.3287318071496982e-09 8.9032524756328687e-09 7.6772865796991268e-09 1.2674853367692627e-08 6.1748063570038501e-09 4.6678022337142413e-09 2.9116439285496417e-08 2.5899993930042459e-08 9.8244905602421727e-09 2.3481303061487019e-08 1.5651558760838654e-08 3.5789593681688342e-08 1.6286234000915119e-08 1.3618714636880896e-08 1.0496883830023815e-08 7.3294746091867139e-09 1.3078808270195161e-08 1.4275561570566509e-08 1.8584337806716437e-08 2.6632697217703823e-08 2.8752141183344153e-08 5.5230691989934722e-08 4.2264234124181213e-08 2.3170873568647872e-08 9.5700865908601447e-08 5.3708114834428737e-08 4.7434267812701731e-08 1.6302709091073327e-08 1.8043066196850781e-08 4.2063978670456546e-08 4.0222458412373115e-08 3.1931111486004571e-08 1.4226165796223473e-08 7.7906648772916986e-08 2.4900101044004101e-07 5.5769514544787557e-08 5.7246642621579281e-08 6.4002702966900072e-08 8.5413817158276349e-08 1.1601945781239279e-07 9.5868953965443585e-08 8.0739644844264684e-08 9.2019348636951416e-08 1.3622373990374873e-07 1.6488572465047841e-07 2.1757902310594193e-07 2.0951219739597872e-07 1.7465293725128313e-07 3.1487481136755141e-07 5.485187925365995e-07 3.4968245215996492e-07 6.5571456311766251e-08 4.5416658064154513e-08 1.1975422604706949e-07 8.5634483656481149e-08 2.7495699254737727e-07 2.0494511663528467e-07 1.2598773828245794e-07 1.1725124767171668e-07 3.7254665544832525e-07 3.5784278825831925e-07 5.9110089306960737e-07 6.8261380118430317e-07 1.4972398502942961e-06 1.5956687356497927e-06 6.740514575373051e-07 9.7133633778390878e-07 8.5748260646449101e-07 4.4212881840657725e-07 1.6501549708914827e-06 1.0667279284038947e-06 2.7083308955165663e-06 2.5932920157967282e-06 1.4870377668441699e-06 6.8807062126999907e-06 4.6185599650293138e-06 1.0593787994295466e-05 1.8459982800032878e-05 1.1047192670036427e-05 2.6574424054924401e-06 4.1750834683098241e-06 3.9772453607108741e-06 2.472578795771598e-06 7.0504429251241937e-06 6.1648892369760703e-06 1.1843845062733657e-05 3.293448606770916e-05 1.9667613453813619e-05 2.5894908370537267e-05 6.557012525938656e-05 6.0144776382742911e-05 4.464323025316602e-05 8.647228658816079e-05 7.0487448801493817e-05 4.8965078524998349e-05 2.8874446822266915e-05 1.9083448109046628e-05 2.9011384949079954e-05 2.711708184451465e-05 4.1694303573013208e-05 4.5216606904054507e-05 3.8933480655873069e-05 5.415340605851731e-05 4.1255256338548529e-05 1.7141889404765806e-05 2.0054071203245802e-05 2.7661789739635427e-05 2.6518788674465063e-05 1.1777048972016379e-05 7.0409389769655004e-06 1.0820066127498771e-05 2.2092810878696634e-06 2.2404141437604589e-06 3.9892359893469251e-06 4.1187564163377812e-06 7.336987608917519e-06 1.5357188046784093e-05 8.4764591135279297e-06 2.3351714059364644e-06 4.5710848494867481e-06 1.4740759115122702e-06 8.045778099318694e-07 7.4326180580826286e-07 3.8931137773143752e-07 4.5398257472131919e-07 1.1809194617657614e-06 1.1769975309571553e-06 3.7961851995744023e-07 6.1003794633312619e-07 1.7344342286180395e-07 2.1539974448890944e-07 1.131736328775495e-07 1.8132446807571836e-07 1.0743102517786644e-07 5.9386437501408125e-08 4.0393455421535574e-08 6.6655070485004792e-08 1.167011781771896e-07 2.4352635723950744e-07 2.0515974394048399e-07 9.7931745531108883e-08 4.56851784849893e-08 6.5519837008576802e-08 1.142392195666666e-07 1.4102380990890312e-07 3.5876200255027075e-07 2.2697518766923017e-07 5.6718547880231521e-07 4.3473067245238233e-07 4.8441315690653907e-07 1.4238648267707904e-06 1.0383508679031902e-06 1.1831644492422091e-06 1.5171265478178454e-06 1.0169224804095112e-06 1.262896344565615e-06 7.2004081327474807e-07 1.305455904955869e-06 3.0660170523301001e-06 2.6441527281849603e-06 1.6728898759466041e-06 2.0295166357721604e-06 1.0349250954036117e-06 1.7292081305587821e-06 1.2704512315226373e-06 6.9444418443872109e-07 3.7378125846988731e-07 6.8633103129713007e-07 1.862835549049744e-06 2.4049615822494898e-06 2.1342098631960544e-06 4.3612459175006535e-06 8.8958408441982091e-06 2.2531478429315291e-05 1.3959980996333889e-05 3.2079845268882356e-05 5.2703073657030467e-05 8.1731350573388577e-05 8.6942948938623421e-06 1.4863868001040911e-05 2.1819654619694224e-06 5.4176531580893344e-06 3.2109147160418528e-06 5.2578751373966935e-06 3.3038238034916328e-06 3.8628702385886444e-06 6.3380737402220221e-06 1.0201926474894764e-05 1.3682720409610607e-05 8.2179907655451362e-06 2.316541195429317e-05 3.617764172416128e-05 1.5197818405550208e-05 2.2460351551603829e-05 3.3389146741706726e-05 5.496162407095197e-05 7.7844568582219131e-05 7.7568708973839638e-05 4.5868853941605642e-05 2.9366114820530399e-05 1.7205681170735948e-05 2.7900414533281379e-05 5.1836904743897459e-05 0.00012876377984020234 8.6884445415687817e-05 0.00029561499636268369 0.00020382690079307522 0.0002761461262542293 0.00038075011758255617 0.00011670652686750641 0.00017864584756373876 0.00012528407179171041 0.0001725597668693892 0.00028028917347142605 0.00031479109532361101 0.00021901364930817217 0.00046315305908711834 0.00039883140512677169 0.00093761348696513587 0.001138975057380775 0.000732020190900359 0.0010807830223538222 0.00093115085814912864 0.0010687831182919769 0.00051569790517162924 0.0004611502687022806 0.00051174548393148177 0.00072576688758598548 0.00072902241518214568 0.00020253848655739823 0.00013252947367960199 0.0003187352646521227 0.00044856429066978738 0.00068734185920723179 0.0013267177556991979 0.001944070578991635 0.0027406636841142847 0.0057471590665729849 0.0078402463142838805 0.0097268000655589444 0.0045428520480938327 0.0036184079355337743 0.0029617911063219309 0.001460226613224661 0.0015897598704932789 0.0019847239676117241 0.0024905267040792982 0.0024219332947139939 0.0016004851120269316 0.0044345844929104504 0.003881942081851884 0.003382267338638984 0.0032901712331666441 0.0064152191812450569 0.0093119856075765707 0.008467354704331867 0.01160342008887052 0.0083308047020910596 0.010892260874597071 0.0063021050210200266 0.005283773745184529 0.0066377933363259162 0.0083213482933311295 0.01092370899053198 0.0085319122153226772 0.010778325660323392 0.011024910432265122 0.0080352766501669021 0.0060782091331698599 0.0048561216162887073 0.006064721447018832 0.0033235280054264016 0.00308184289046547 0.0047183411754431574 0.0022837988484755308 0.0016348851321710282 0.0018949916780841634 0.0024799059863916937 0.0015371453204261667 0.0021318548843468127 0.0027015844405692069 0.0035744730428262273 0.0030279492721940445 0.0041198987428618921 0.0048517718953341813 0.0062666112408001186 0.0081483254035922964 0.010087986195300561 0.010919480962065877 0.010327938177224945 0.0085772263822053753 0.009834561548782296 0.0076370031415554773 0.0058754277969676333 0.0042125344726421914 0.0069202865626325182 0.0052848257985592768 0.0098554457570021736 0.013024482349901398 0.0099942043734726725 0.012568428169692241 0.0077039074158028725 0.0071440878552130986 0.0054728024793181899 0.0072587090999338966 0.0053022542500902681 0.0038535288543014917 0.0038626771183279587 0.002833879102097021 0.0019209762100999516 0.0017434726877781543 0.0027196544994996935 0.0032726147753803039 0.0022084492176843861 0.0015845217289088662 0.0016050184444259107 0.0023371080744745681 0.0011260788817422768 0.00090223205172759746 0.00075304265094921824 0.00040421583518838479 0.00051451329689649434 0.0011837069517027471 0.0013227208472817564 0.00059794922801585334 0.00080736125495988235 0.00052940869565716315 0.00032664160438967082 0.00037781532339898726 0.0001391780559117458 7.8947909592382915e-05 0.00014148683358543632 0.00022750519289118281 0.00021639500396089428 0.00027245272258612832 0.00033105228133497038 0.00022256624816236462 9.8678822271326691e-05 0.00013725036630697748 0.00016257558631144737 0.0001034226001828077 8.0337334111269603e-05 0.00011005920050403449 0.00015953222937702203 0.00022749277056123503 0.00035809045729927498 0.0002248015026599736 0.00011640458749109453 0.00012990642664432759 7.1987178507681781e-05 7.1973958036324477e-05 0.00011602027219048564 0.00030136601016876417 0.00020181817571851953 0.00031187469118160773 0.0004732962871815677 0.00066533957454788879 0.00046085996210237215 0.00067469488964466804 0.0013221644930083852 0.0009973862155368547 0.0011444715979545515 0.00095200007990034127 0.00063707719642732276 0.00048288958145390837 0.00078663707079811994 0.57377771638899666 0.56358052028771566 0.58777771356906483 0.61230722733297982 0.6207173631434767 0.59830723159509724 0.62827065497538193 0.64227065528772498 0.62642198985031206 0.62531283846373287 0.63933925216702936 0.62539998135644337 0.61194358185221143 0.61253162425784335 0.60397521529815523 0.64043937070991341 0.62650010543988499 0.63606073029313381 0.61421570579710205 0.5883599412454672 0.58561018138748566 0.59962771734075115 0.5946061341208011 0.56100622301744985 0.57093069522335882 0.5654952602241905 0.57712750002377167 0.59345964706254928 0.57955567953993292 0.58389789490235899 0.57076352805551311 0.55755708438886864 0.55660588828744451 0.52852321297790905 0.54613572906579955 0.54119711624374034 0.51954174267828446 0.55458393915074633 0.53974016512464096 0.54826762102227056 0.53306151695935156 0.51997870410469615 0.51238605777084056 0.52711285364263449 0.48818517722153265 0.50299834196096183 0.48748867624469966 0.49249332279111635 0.47649515594771974 0.47809146268328795 0.50889961796999195 0.4932090790909025 0.50586233247585222 0.47763378137101709 0.47365889328279354 0.47616342921356059 0.48103988764775429 0.49503988313504854 0.50544434507790659 0.54958052742703523 0.53902161863353015 0.52904865611792407 0.5150486839420283 0.56513410630066818 0.5757301907303447 0.57922916545122782 0.59444433545919573 0.58973018874276173 0.61248910565516534 0.61301089241685047 0.59901090112341593 0.62827065608744737 0.64227065660553795 0.62695752324907905 0.62673207203816661 0.60225723220316496 0.61230815023140051 0.6102548503908356 0.63933925868384511 0.62539999924044898 0.63606074155715064 0.62616575533568464 0.60039730682883374 0.5932236244791077 0.58006428667598287 0.56296948147599057 0.56709990725916637 0.57789424176688231 0.5706941590643867 0.56733482006370739 0.58017064754130609 0.59113959765749202 0.57952268736479118 0.59158452477364387 0.58903508645777969 0.61349677983662354 0.61456241011247181 0.64010501118086793 0.62514331094062414 0.63503828640835958 0.60275827890189615 0.60647525062614527 0.62035912495765289 0.63532082717881144 0.62576018516484122 0.61308119249895832 0.59849066226583136 0.58794232777705968 0.57579353181701753 0.56432443578582325 0.57348907093362278 0.54311281371448072 0.55300981736717236 0.54106301322677197 0.53108381686969375 0.51922697388559702 0.51929914276554967 0.53304500792904763 0.49889907128132205 0.51120237352559328 0.49032085232533285 0.47791902906174799 0.47132140151376156 0.50654681411373814 0.49737421595440623 0.5069850539410512 0.49531003658189887 0.4866141119152565 0.47267101265158495 0.48000977118687865 0.46789595289269009 0.49315717224938949 0.51793502446799722 0.53107776266381046 0.52991178244387882 0.55432057305219151 0.54184818501837417 0.54330332046089369 0.55763300052381548 0.55324859817229455 0.54178633725591996 0.55402313697747929 0.5157394918229824 0.53104713213665888 0.51160923688825233 0.49977165422989711 0.47730467217143568 0.48878011917635938 0.47678236957589726 0.48929420166700466 0.49998687973939104 0.509281865003681 0.49520141468836559 0.47292522738692677 0.48010992782891804 0.47439738314792723 0.48907607559733046 0.50307584650309645 0.5290730286015709 0.5150731242462 0.52316140323200799 0.53668053614449962 0.54758722723041675 0.54249925204092619 0.55649924566079001 0.39218822513714219 0.40108426314503531 0.4127383427553909 0.42498934342526284 0.4109893430215471 0.43739759637966752 0.46039747595064329 0.45139750787259003 0.4372316146443882 0.42671762313445755 0.44873207515768204 0.43375502441486635 0.46589310839195419 0.46140057040734261 0.46343598111789386 0.45394356392118129 0.44269822415696508 0.42371081174393488 0.4145556678135992 0.42393875671851805 0.40439822095481975 0.38199551319535624 0.39248943105596495 0.38915044652446312 0.4024345959461465 0.38170080872997947 0.39839674848779771 0.38348978657005273 0.41183598271773847 0.42732472366560253 0.44389650251987844 0.45483936015821969 0.44984968509382839 0.46291716779981346 0.44051496352515346 0.42631271304469176 0.4403423447363824 0.44997154347476537 0.46228053537442981 0.45411356652836432 0.46124765647307309 0.44425543015360625 0.43467525187316569 0.41245693674707901 0.42233243690121658 0.41077563296827302 0.39677327438190058 0.38898178569013098 0.40354367869966168 0.37165717038274326 0.36320540835198412 0.38162091291547445 0.35703146983799233 0.36990898270572481 0.34362725266011873 0.34508040556471498 0.35387795208929013 0.32303103373986419 0.33303963581016927 0.32426437293003874 0.30150872161213405 0.29489619308276538 0.31070190823703897 0.30503109810884094 0.33130668200405372 0.31684379964958997 0.32089201740571671 0.30732386635321601 0.29332951128396889 0.29586877428079361 0.32845073118942231 0.33387941466149196 0.34426118304162212 0.37090835437806852 0.35472367387669529 0.36687840074960182 0.35624244537461885 0.36758298326809796 0.37626758999479865 0.37148212652526941 0.35336644179505539 0.34522678396777357 0.34801842147022471 0.35680558864633438 0.319869