<?xml version="1.0"?>
<VTKFile type="UnstructuredGrid" version="0.1" byte_order="LittleEndian">
<UnstructuredGrid>
<Piece NumberOfPoints="714" NumberOfCells="1306">
<Points>
<DataArray type="Float64" NumberOfComponents="3" format="ascii">
0.000000000000000e+00 0.000000000000000e+00 0.000000000000000e+00 5.000000000000000e+00 0.000000000000000e+00 0.000000000000000e+00 5.000000000000000e+00 1.000000000000000e+00 0.000000000000000e+00 0.000000000000000e+00 1.000000000000000e+00 0.000000000000000e+00 9.999999999992801e-02 0.000000000000000e+00 0.000000000000000e+00 1.999999999998339e-01 0.000000000000000e+00 0.000000000000000e+00 2.999999999997341e-01 0.000000000000000e+00 0.000000000000000e+00 3.999999999996643e-01 0.000000000000000e+00 0.000000000000000e+00 4.999999999995944e-01 0.000000000000000e+00 0.000000000000000e+00 5.999999999995166e-01 0.000000000000000e+00 0.000000000000000e+00 6.999999999992880e-01 0.000000000000000e+00 0.000000000000000e+00 7.999999999989961e-01 0.000000000000000e+00 0.000000000000000e+00 8.999999999987042e-01 0.000000000000000e+00 0.000000000000000e+00 9.999999999984124e-01 0.000000000000000e+00 0.000000000000000e+00 1.099999999998120e+00 0.000000000000000e+00 0.000000000000000e+00 1.199999999997829e+00 0.000000000000000e+00 0.000000000000000e+00 1.299999999997537e+00 0.000000000000000e+00 0.000000000000000e+00 1.399999999997245e+00 0.000000000000000e+00 0.000000000000000e+00 1.499999999996953e+00 0.000000000000000e+00 0.000000000000000e+00 1.599999999996661e+00 0.000000000000000e+00 0.000000000000000e+00 1.699999999996369e+00 0.000000000000000e+00 0.000000000000000e+00 1.799999999996077e+00 0.000000000000000e+00 0.000000000000000e+00 1.899999999995785e+00 0.000000000000000e+00 0.000000000000000e+00 1.999999999995511e+00 0.000000000000000e+00 0.000000000000000e+00 2.099999999995593e+00 0.000000000000000e+00 0.000000000000000e+00 2.199999999995745e+00 0.000000000000000e+00 0.000000000000000e+00 2.299999999995897e+00 0.000000000000000e+00 0.000000000000000e+00 2.399999999996049e+00 0.000000000000000e+00 0.000000000000000e+00 2.499999999996201e+00 0.000000000000000e+00 0.000000000000000e+00 2.599999999996353e+00 0.000000000000000e+00 0.000000000000000e+00 2.699999999996505e+00 0.000000000000000e+00 0.000000000000000e+00 2.799999999996657e+00 0.000000000000000e+00 0.000000000000000e+00 2.899999999996809e+00 0.000000000000000e+00 0.000000000000000e+00 2.999999999996961e+00 0.000000000000000e+00 0.000000000000000e+00 3.099999999997114e+00 0.000000000000000e+00 0.000000000000000e+00 3.199999999997265e+00 0.000000000000000e+00 0.000000000000000e+00 3.299999999997417e+00 0.000000000000000e+00 0.000000000000000e+00 3.399999999997569e+00 0.000000000000000e+00 0.000000000000000e+00 3.499999999997721e+00 0.000000000000000e+00 0.000000000000000e+00 3.599999999997873e+00 0.000000000000000e+00 0.000000000000000e+00 3.699999999998025e+00 0.000000000000000e+00 0.000000000000000e+00 3.799999999998176e+00 0.000000000000000e+00 0.000000000000000e+00 3.899999999998329e+00 0.000000000000000e+00 0.000000000000000e+00 3.999999999998481e+00 0.000000000000000e+00 0.000000000000000e+00 4.099999999998633e+00 0.000000000000000e+00 0.000000000000000e+00 4.199999999998784e+00 0.000000000000000e+00 0.000000000000000e+00 4.299999999998937e+00 0.000000000000000e+00 0.000000000000000e+00 4.399999999999088e+00 0.000000000000000e+00 0.000000000000000e+00 4.499999999999240e+00 0.000000000000000e+00 0.000000000000000e+00 4.599999999999393e+00 0.000000000000000e+00 0.000000000000000e+00 4.699999999999545e+00 0.000000000000000e+00 0.000000000000000e+00 4.799999999999696e+00 0.000000000000000e+00 0.000000000000000e+00 4.899999999999848e+00 0.000000000000000e+00 0.000000000000000e+00 5.000000000000000e+00 9.999999999981467e-02 0.000000000000000e+00 5.000000000000000e+00 1.999999999995579e-01 0.000000000000000e+00 5.000000000000000e+00 2.999999999992664e-01 0.000000000000000e+00 5.000000000000000e+00 3.999999999989749e-01 0.000000000000000e+00 5.000000000000000e+00 4.999999999986943e-01 0.000000000000000e+00 5.000000000000000e+00 5.999999999989468e-01 0.000000000000000e+00 5.000000000000000e+00 6.999999999992100e-01 0.000000000000000e+00 5.000000000000000e+00 7.999999999994734e-01 0.000000000000000e+00 5.000000000000000e+00 8.999999999997368e-01 0.000000000000000e+00 4.899999999999999e+00 1.000000000000000e+00 0.000000000000000e+00 4.800000000000000e+00 1.000000000000000e+00 0.000000000000000e+00 4.699999999999999e+00 1.000000000000000e+00 0.000000000000000e+00 4.600000000000000e+00 1.000000000000000e+00 0.000000000000000e+00 4.499999999999999e+00 1.000000000000000e+00 0.000000000000000e+00 4.399999999999999e+00 1.000000000000000e+00 0.000000000000000e+00 4.299999999999999e+00 1.000000000000000e+00 0.000000000000000e+00 4.199999999999998e+00 1.000000000000000e+00 0.000000000000000e+00 4.099999999999999e+00 1.000000000000000e+00 0.000000000000000e+00 3.999999999999999e+00 1.000000000000000e+00 0.000000000000000e+00 3.899999999999999e+00 1.000000000000000e+00 0.000000000000000e+00 3.799999999999999e+00 1.000000000000000e+00 0.000000000000000e+00 3.699999999999998e+00 1.000000000000000e+00 0.000000000000000e+00 3.599999999999999e+00 1.000000000000000e+00 0.000000000000000e+00 3.499999999999999e+00 1.000000000000000e+00 0.000000000000000e+00 3.399999999999999e+00 1.000000000000000e+00 0.000000000000000e+00 3.299999999999999e+00 1.000000000000000e+00 0.000000000000000e+00 3.199999999999998e+00 1.000000000000000e+00 0.000000000000000e+00 3.099999999999999e+00 1.000000000000000e+00 0.000000000000000e+00 2.999999999999999e+00 1.000000000000000e+00 0.000000000000000e+00 2.899999999999999e+00 1.000000000000000e+00 0.000000000000000e+00 2.799999999999999e+00 1.000000000000000e+00 0.000000000000000e+00 2.699999999999999e+00 1.000000000000000e+00 0.000000000000000e+00 2.599999999999999e+00 1.000000000000000e+00 0.000000000000000e+00 2.500000000000000e+00 1.000000000000000e+00 0.000000000000000e+00 2.399999999999999e+00 1.000000000000000e+00 0.000000000000000e+00 2.299999999999999e+00 1.000000000000000e+00 0.000000000000000e+00 2.199999999999999e+00 1.000000000000000e+00 0.000000000000000e+00 2.100000000000000e+00 1.000000000000000e+00 0.000000000000000e+00 2.000000000000000e+00 1.000000000000000e+00 0.000000000000000e+00 1.899999999999999e+00 1.000000000000000e+00 0.000000000000000e+00 1.799999999999999e+00 1.000000000000000e+00 0.000000000000000e+00 1.699999999999999e+00 1.000000000000000e+00 0.000000000000000e+00 1.599999999999999e+00 1.000000000000000e+00 0.000000000000000e+00 1.500000000000000e+00 1.000000000000000e+00 0.000000000000000e+00 1.399999999999999e+00 1.000000000000000e+00 0.000000000000000e+00 1.299999999999999e+00 1.000000000000000e+00 0.000000000000000e+00 1.199999999999999e+00 1.000000000000000e+00 0.000000000000000e+00 1.100000000000000e+00 1.000000000000000e+00 0.000000000000000e+00 9.999999999999991e-01 1.000000000000000e+00 0.000000000000000e+00 8.999999999999995e-01 1.000000000000000e+00 0.000000000000000e+00 7.999999999999998e-01 1.000000000000000e+00 0.000000000000000e+00 7.000000000000002e-01 1.000000000000000e+00 0.000000000000000e+00 5.999999999999996e-01 1.000000000000000e+00 0.000000000000000e+00 4.999999999999991e-01 1.000000000000000e+00 0.000000000000000e+00 3.999999999999995e-01 1.000000000000000e+00 0.000000000000000e+00 3.000000000000007e-01 1.000000000000000e+00 0.000000000000000e+00 1.999999999999993e-01 1.000000000000000e+00 0.000000000000000e+00 9.999999999999964e-02 1.000000000000000e+00 0.000000000000000e+00 0.000000000000000e+00 8.999999999995836e-01 0.000000000000000e+00 0.000000000000000e+00 7.999999999999998e-01 0.000000000000000e+00 0.000000000000000e+00 7.000000000006934e-01 0.000000000000000e+00 0.000000000000000e+00 6.000000000013869e-01 0.000000000000000e+00 0.000000000000000e+00 5.000000000020587e-01 0.000000000000000e+00 0.000000000000000e+00 4.000000000016644e-01 0.000000000000000e+00 0.000000000000000e+00 3.000000000012483e-01 0.000000000000000e+00 0.000000000000000e+00 2.000000000008322e-01 0.000000000000000e+00 0.000000000000000e+00 1.000000000004160e-01 0.000000000000000e+00 7.477570327540725e-01 4.905967956478702e-01 0.000000000000000e+00 1.346210646643281e+00 4.806066422083806e-01 0.000000000000000e+00 1.949496869330408e+00 5.032480558805372e-01 0.000000000000000e+00 4.449999999999997e+00 5.000000000000384e-01 0.000000000000000e+00 3.859142349610828e+00 5.103468031113156e-01 0.000000000000000e+00 3.246530027037640e+00 5.183101712757180e-01 0.000000000000000e+00 2.657531292711257e+00 5.037429884868682e-01 0.000000000000000e+00 3.824015840967434e-01 6.064457502813875e-01 0.000000000000000e+00 2.306343155343502e+00 6.315316747431162e-01 0.000000000000000e+00 1.049999999998266e+00 3.374999999994497e-01 0.000000000000000e+00 1.641930697057102e+00 3.436055112169133e-01 0.000000000000000e+00 4.150000000000006e+00 6.625000000000185e-01 0.000000000000000e+00 3.552784161359181e+00 6.642488388863971e-01 0.000000000000000e+00 2.940292465243163e+00 6.575992780735344e-01 0.000000000000000e+00 1.641237689750194e+00 6.703960699373966e-01 0.000000000000000e+00 1.050000000000000e+00 6.706367924525535e-01 0.000000000000000e+00 2.960517759676693e+00 3.261740577967960e-01 0.000000000000000e+00 3.551899302943298e+00 3.210887133285832e-01 0.000000000000000e+00 4.150779393876139e+00 3.209867287821391e-01 0.000000000000000e+00 2.213980362532827e+00 3.194901812685164e-01 0.000000000000000e+00 4.927283029162088e-01 3.252862896001115e-01 0.000000000000000e+00 4.696684455724628e+00 3.145438084075651e-01 0.000000000000000e+00 4.690990908683984e+00 6.962960281446974e-01 0.000000000000000e+00 2.487221901830106e+00 2.763334294511438e-01 0.000000000000000e+00 6.215262983536076e-01 7.328515730233995e-01 0.000000000000000e+00 2.065768881873406e+00 7.342557316219342e-01 0.000000000000000e+00 2.543072460766750e+00 7.257064952909391e-01 0.000000000000000e+00 8.105176211436336e-01 2.535517621144286e-01 0.0000000000000
[...]
<CellData Scalars="A_conc,As-lin_conc,Bs-lang_conc,Cs-freund_conc," Vectors="" Tensors="">
<DataArray type="Float64" Name="A_conc" format="ascii">
1.176451806826838e-04 5.129423297173370e-01 3.520177584384433e-03 8.262483040446800e-06 4.249868756472745e-01 8.913097299195276e-02 9.874761711035983e-02 3.260840515095073e-01 4.901341264383475e-01 1.228103722062175e-05 5.893642848476002e-03 1.931054881173491e-04 8.373863228647412e-07 7.961270183667761e-03 5.628263147910907e-06 1.896003130658004e-04 5.217443863328472e-06 5.342466546279300e-06 6.015541622242775e-02 3.519888873448442e-06 2.229129736489097e-08 8.203834214958161e-07 1.211680870977870e-05 1.624839518625949e-05 2.265311296799667e-06 9.554479516463593e-06 3.082102760345612e-04 3.993972116192143e-01 3.273288668190332e-06 5.510580124813283e-06 3.670094612492963e-07 3.279731146757500e-06 1.021463749502786e-07 1.048802947631327e-04 6.647737760629685e-02 4.661971397426644e-01 1.332462161806568e-04 9.851035001653464e-08 5.978121510019783e-06 4.342818518100945e-01 1.078841216074470e-02 8.603107143410916e-07 6.344023347966188e-05 2.422172507395064e-06 1.159294427835340e-08 9.178858727710734e-02 5.676454455937369e-06 2.153446912581417e-01 5.992285327616587e-02 8.130608211073104e-02 4.879694186303200e-01 1.705489331463542e-06 9.531323006177934e-03 4.535232307521487e-01 4.814992680061730e-01 5.314752294253220e-01 3.553821473266743e-08 3.171880352483311e-01 3.855746949249343e-01 5.814476239422681e-06 2.370698957784700e-02 3.217732904100576e-01 1.548054858067758e-01 6.571453738285293e-08 5.174192604418093e-09 1.150665873633559e-01 2.122470038497091e-01 1.149274074508808e-08 5.042291307256893e-01 3.736862865687559e-01 2.449511484077473e-08 9.218768452291610e-04 3.889647152696929e-05 5.575800254006718e-06 2.293279465430672e-01 7.050714184606983e-02 5.754825469687751e-07 9.257379111005984e-02 2.551661488845804e-01 1.054098042523766e-08 5.346889463467430e-04 6.708072705829135e-02 6.184670659159699e-04 1.429418791897570e-02 1.791491391104051e-01 5.958693795485805e-07 8.128958018398334e-02 2.417685776089648e-01 6.763909650926767e-07 2.058800290726673e-08 3.962258201280283e-02 1.818490930875723e-01 3.523247131079066e-01 1.664052420314321e-01 7.637745225926548e-02 3.427717914650878e-06 1.641644687751030e-01 3.293981747637441e-01 2.468860719002586e-03 3.853972104860000e-01 2.557603690081752e-05 7.524286270581265e-07 8.037490336939317e-07 1.681400435280813e-01 4.358247130191850e-07 2.355232468906785e-01 4.667169441409145e-06 4.051099148257520e-01 4.192427022591714e-07 2.484506671215523e-01 1.176423188540153e-08 1.446204654804231e-06 1.383451543645821e-06 2.212411699129225e-07 3.129974357195126e-06 3.377382279788583e-01 5.591821755972709e-06 1.058146570175353e-07 2.742415307922609e-09 3.986588578812124e-01 3.038289909667442e-09 1.938883528317787e-06 1.202815961764181e-03 2.235906654881476e-06 3.895724315414140e-01 3.318525263939675e-08 4.977287612246872e-03 7.508299650954428e-07 3.489496262001805e-01 2.797246366220947e-01 7.380584384600029e-02 1.155585634683108e-08 2.580416547886553e-01 2.918788720948416e-01 1.246984707084393e-01 1.393236458909461e-08 5.856891172151474e-06 5.234906703964831e-01 2.032301799450833e-01 1.181860282044462e-01 9.487458401829837e-08 3.862475932752547e-01 1.591590697740933e-06 3.545491317710982e-07 3.135944089541719e-02 2.639780711865802e-02 2.355657839584294e-01 3.997128384734139e-08 9.149166846638500e-02 2.480343202536918e-01 3.868711892260687e-08 8.442707376465855e-02 1.287006448618442e-01 1.965015339069795e-01 8.091841665611746e-09 2.352801934315694e-02 2.012674247418834e-07 3.516954801400954e-01 3.201453615791660e-06 1.891022499510399e-02 6.035472936296660e-06 2.748682199262069e-01 8.764497075514060e-04 1.872530938116660e-03 1.602760215679360e-05 1.971322174202519e-06 1.698520141058450e-06 2.451609672314059e-06 2.816794672651899e-06 2.000757056818082e-02 2.143633051842482e-06 4.931804084217467e-07 2.686511341824581e-02 2.172649034348433e-02 2.522957250263424e-08 1.471179214305751e-01 3.141505053252387e-01 1.783189976235796e-03 1.251265060919648e-04 3.046077559778370e-09 1.602349556341197e-01 3.274345950978045e-01 4.429350093843687e-01 8.690674542071652e-07 7.897629977006319e-05 2.666219224242913e-07 9.023404509372768e-07 1.472342565893384e-06 3.928375958390283e-03 9.026294429575717e-08 6.586393414072541e-05 8.529962209746885e-07 4.738526339900147e-06 3.081382042541261e-06 1.638136402145362e-06 8.885192400902699e-08 2.154278048542081e-06 1.794796761557368e-06 2.670551202111379e-04 3.741072040685519e-04 1.644262307234989e-06 1.697112514466685e-07 5.600382810837780e-01 3.657529250677948e-06 1.404917015573773e-01 3.084898826293190e-01 6.208150841806066e-07 6.935515498541123e-08 6.501352938919392e-06 4.616805311342598e-01 2.102251880242699e-08 2.588786694397984e-03 1.147958783800758e-01 1.023877221899106e-04 6.671063738570019e-06 2.640352432858323e-06 2.153410435151129e-06 1.267864977143106e-06 4.101552246989563e-06 6.713988646363486e-02 5.943693859979107e-02 4.142942090187151e-01 8.448059798840343e-08 1.271360778493466e-05 1.750963959124449e-05 5.453591092310188e-01 2.161813484559889e-06 2.235039227698535e-05 1.219736885812155e-02 1.318563237837086e-07 1.404822791410834e-07 1.579869910930929e-06 2.665937087049442e-06 3.123084365756309e-06 1.349161793139053e-01 1.892268616429254e-01 2.183906992016480e-01 1.090310576996585e-01 2.047035679588130e-06 1.588807580514580e-02 2.330083500500858e-01 9.411408097062759e-08 9.623487563761511e-02 3.500565767485024e-08 3.160386635746260e-02 1.675846124623564e-01 3.368359783712229e-01 1.602078238546670e-02 6.789731810878695e-06 1.279417546978809e-02 3.161350488387761e-08 5.567288343059129e-09 2.973884349837880e-02 1.695616650712688e-01 3.357756271978229e-01 3.359890431213728e-01 3.473249074006785e-06 1.540406297408614e-04 4.865724454199653e-06 9.214645149884610e-03 1.925627321482876e-07 8.382496778122928e-05 1.895831158394844e-01 1.778220368761698e-01 4.790223402385920e-07 4.864248232035136e-06 5.111268788936579e-06 3.705198807502410e-06 5.114221413966450e-05 1.479565620039312e-02 2.404291300152913e-09 1.225704664389635e-08 2.492676592582840e-01 8.398760431527015e-02 7.078221758385048e-03 4.906443514530396e-06 3.489676130448819e-03 4.306598862666131e-06 7.902283905068200e-07 8.260203913677959e-07 3.922912454843933e-09 2.686286480538559e-01 1.297534312027688e-06 6.844836900168293e-06 4.029189821433045e-01 2.582683990625009e-07 6.243535593686316e-07 2.041806838802797e-07 1.285593926020101e-01 1.988549428639492e-01 2.493426449301932e-08 1.517926485576846e-09 2.360029110449013e-05 4.093071147215882e-05 5.275621881616127e-02 2.950808561513270e-08 4.341495487049984e-08 5.805453002526870e-06 1.258290742841057e-02 2.036419645999058e-04 3.887188250993397e-02 5.865904327526751e-06 1.811249229325155e-01 3.487107897465101e-01 1.124878279819115e-04 5.796151127148446e-06 5.718981996648647e-06 3.920398827563180e-01 1.918732681872329e-01 4.535740440022494e-02 2.044456757140515e-01 5.215620004143860e-02 1.898022993434482e-02 1.233024799782487e-07 2.432875124335932e-02 8.806294320010816e-05 3.946766689463274e-04 5.702448485439012e-04 4.904952783683436e-01 3.176354866254207e-01 3.071405998999658e-01 7.266365080234731e-08 7.555159534094502e-08 1.287611728550819e-06 3.200549120616047e-08 1.706017130460992e-01 1.569894470688520e-01 4.166384371644913e-07 4.072396176381569e-02 3.056771058182014e-06 5.253972639937368e-01 5.182235867363647e-01 5.196061642603929e-01 5.246277553433435e-01 3.791135006841364e-01 4.715678114985113e-06 3.555034295817085e-06 2.390859516448087e-08 1.356929299790892e-01 1.632519439869511e-05 3.172640347957845e-05 2.747548407400802e-06 4.004056945281009e-03 4.481613928325140e-01 6.557350644310505e-03 4.379025765721365e-06 8.562933613124045e-05 8.531681442651141e-03 1.514515456029641e-06 7.843639501580642e-04 5.501432792174866e-01 2.839202912117955e-03 8.552156306202662e-07 1.521635580739388e-05 7.058630397129394e-06 3.301924866356865e-01 3.063280600844952e-08 4.615214033633971e-08 1.793181380211824e-06 7.167237525139741e-08 6.170707589261723e-06 1.575128162030247e-07 5.865193715952945e-06 2.888674378262610e-01 2.922325548662070e-06 2.933475835732281e-01 3.305970956014017e-08 1.847474142408826e-01 1.417016397002796e-01 5.007302288042168e-01 5.610607307591515e-01 5.610607380045792e-01 4.200398789935934e-01 4.182090831040425e-01 3.541246492350646e-02 2.174754180625860e-08 3.473324091370137e-01 1.081109500587520e-08 3.139818076637722e-01 1.177920297696921e-07 4.987777253509666e-01 4.671313998018281e-06 1.221353712725469e-06 2.062976622477637e-01 5.471320841174854e-02 1.214242881584957e-03 5.862910455793720e-08 2.341751258423867e-04 2.170938310851534e-04 4.153208206885738e-01 4.959307279141459e-01 1.553200690652591e-06 4.049667916763786e-07 4.766359022730957e-03 9.651820151193032e-06 4.936798442140957e-06 2.947500516622016e-06 2.641494195860045e-01 2.480299462550982e-01 3.262299968729789e-07 2.801979586990361e-02 4.795839458008707e-01 3.550386369854270e-03 3.458430362836996e-06 2.229155993373436e-06 2.991676690223857e-06 3.437149480307315e-07 9.252365933850601e-02 4.549117488945515e-01 2.563099655150294e-01 1.837125937084833e-02 5.603208308481269e-01 1.911296705752043e-02 7.416862093340512e-07 3.002614593625927e-01 4.860062495643586e-01 5.172965730338245e-07 7.249953608630628e-07 1.456934783244878e-01 4.449247547869671e-05 7.781399742562527e-08 8.321577274093611e-02 2.448763781283353e-01 3.893375335487261e-01 7.438952514286880e-06 2.998222060827108e-04 3.293699222509627e-07 9.594344818436129e-09 5.602458335092551e-02 2.078817998772986e-01 3.798393593085069e-01 4.355124993530927e-05 1.354712434306983e-08 4.836221565789032e-02 1.981688460665377e-01 3.688964964838525e-01 1.965172535431668e-06 1.593334164520887e-08 1.828444547963814e-01 1.420713520993157e-01 2.488536356452011e-02 1.484339640706521e-01 1.783114720915959e-01 2.812371751761842e-01 1.140269622028846e-01 3.067009509808262e-01 1.382839922737823e-01 2.318575574557523e-03 6.333677888164099e-06 5.384967229130883e-01 3.317611125678930e-03 3.483931900482205e-07 1.043211792460051e-01 5.272572302658024e-01 2.672381745729991e-01 1.012333482210924e-01 1.746551483904139e-02 1.766099605759146e-06 1.994039073644264e-04 2.837154756437128e-09 4.442991208740782e-01 4.885805356786957e-01 5.854183209496970e-06 1.457178018084886e-03 3.294482862982366e-03 5.201021849663388e-06 5.289752369794687e-01 5.194443248540032e-01 7.177050972565806e-07 3.119609364852107e-01 1.020635909967667e-02 1.085549143215102e-02 2.215976006050409e-02 4.826329543635842e-01 4.668481359716063e-01 4.782485459001651e-01 1.256881761319001e-06 1.136366238568394e-06 7.575045948211244e-08 1.702486458197965e-03 3.789435422876496e-01 5.143256990053178e-07 4.202013937706821e-01 1.494703641117902e-01 1.203849424637210e-08 7.721412229989179e-08 3.441924668077205e-01 1.648767888749838e-01 1.510932268834216e-01 1.851170580227645e-06 2.593002480988751e-01 5.184596541083870e-01 4.319850514195656e-01 2.959086061362411e-01 3.233967701115381e-01 1.543142233564372e-01 5.308880331843600e-03 4.026337622663105e-01 4.676583034048452e-02 4.338996386060029e-01 3.707929931530659e-08 2.251698706721466e-06 2.195329162241859e-06 2.543362499067073e-01 9.266912146655872e-02 2.031584223582006e-01 1.229234762262389e-01 2.656041539718254e-07 3.727669187925259e-08 1.141943094342197e-04 4.060398838713954e-01 5.989251025645396e-06 1.806097963655287e-03 4.906210807045197e-06 3.666924874916619e-04 1.476111740923350e-06 2.835897861283824e-01 3.728089489378749e-01 4.366092567763885e-01 4.407394842435794e-01 3.406844690326508e-06 6.573317512482747e-06 1.413865307906479e-04 2.512026180118645e-09 4.580615369736740e-01 4.131851346951393e-01 6.896928138009556e-07 3.224535183300723e-01 2.496227634436032e-02 4.667863023541134e-01 3.138564905243223e-02 2.058750089989740e-06 4.238990456808183e-01 3.467884703227224e-01 6.939912556353980e-03 8.814296186249164e-02 1.360081524259159e-02 2.902295896126794e-06 2.871860056531128e-05 4.050097731003777e-01 7.745268738728728e-02 3.513126958831909e-01 1.525816336856630e-08 1.830099367752271e-01 3.870587041599997e-02 1.792480998513792e-08 3.544570496895837e-07 4.308623653715815e-01 1.148188410372256e-02 5.446236037889642e-06 7.490042680587609e-06 2.999610171699467e-05 6.477009558368018e-08 2.588825946101120e-01 9.529762034681251e-02 4.135095696918362e-06 3.884359739889274e-01 4.725872132475856e-01 5.358322048230536e-06 4.792840485547634e-06 8.726891227713566e-08 5.495085327884143e-05 1.388542487949676e-07 5.711134000696461e-02 2.126417319312681e-01 2.869812002621447e-07 2.872251496293778e-01 6.393949419388508e-06 5.050642297015655e-01 4.543908127410876e-06 5.423674346860089e-07 4.449787300526719e-01 4.373860476911116e-01 5.955856129990530e-08 3.928959541230155e-01 4.011634104844846e-01 1.532850708110372e-04 2.001519116498634e-02 1.807584583738680e-01 1.406041372221755e-05 7.229739623190944e-03 5.007935270448203e-01 4.893244490024451e-01 8.111058966611775e-04 2.179010707918633e-07 1.495021115386012e-01 1.277849188144523e-03 7.078087847865235e-03 9.409721232829401e-08 3.622315048136080e-01 3.761625199165630e-08 2.335682249068201e-08 2.700811549011192e-01 2.252373927550309e-08 2.788783707160616e-01 5.277582136220863e-01 5.161395409235077e-01 7.234982706711883e-04 8.217369412638954e-02 7.266004910169592e-06 1.366638185102174e-08 1.014815826284888e-07 2.415496947390041e-01 6.975903841528468e-06 8.043348780494909e-02 4.984890898989385e-01 7.858443290018477e-07 7.122309114229699e-07 3.953371603184614e-08 4.725424444361051e-03 5.108638104840632e-07 6.868126555730154e-06 3.335013659736702e-08 5.500524129895736e-07 4.017823826489116e-01 5.672185756683801e-07 2.610599000156377e-07 5.546176197706802e-04 4.256148443799287e-02 1.142664494050860e-08 3.066209606732374e-01 9.210539729171335e-03 2.365747751715295e-04 2.273696256522923e-05 3.615626736583213e-01 2.341398759805867e-07 1.348487397633190e-03 1.100425169954758e-07 6.067987443872636e-06 2.821523177144301e-06 3.184345258149207e-01 3.081125646722915e-01 1.081881542818825e-07 7.362435637921490e-05 2.439705979316769e-01 1.277409818873307e-06 2.103142994674537e-08 1.546672647936094e-01 1.332871991490702e-07 6.506969145304251e-02 2.221861507888113e-01 2.791588601236593e-07 3.129732686680248e-07 2.057634434714812e-07 2.306396017617685e-01 9.989085888501791e-02 3.163334953580079e-04 8.214175954865236e-03 1.225007901174746e-07 2.943114127447164e-07 3.069655570751629e-06 4.304443462202620e-01 9.343295250806851e-06 2.784349595236969e-07 2.555452654529049e-01 9.235165082751146e-02 2.094039070437382e-06 3.676981861133969e-01 3.596752127445654e-01 2.513158626859625e-07 2.210782639897079e-07 3.270169121563968e-01 3.007457064290802e-06 4.134502554187743e-07 7.224643079672328e-08 6.068838009784859e-08 5.974247583718494e-04 1.238903445836876e-02 8.518409298400091e-04 1.936102203436545e-06 2.017689980269258e-06 3.374568962651791e-01 3.285436497251065e-01 2.971027153927006e-02 3.856976666761695e-08 4.024643994305053e-08 6.259686120908478e-08 5.079306689183580e-03 4.512458904297265e-02 4.884113368961818e-06 4.308292669342614e-08 1.658502569481197e-08 1.939737255052582e-01 6.234638203399839e-06 1.455937512134091e-02 4.580449965577512e-01 4.140404739415756e-06 5.519575311757952e-01 5.503128471797787e-01 2.156192389577476e-03 7.282866304674022e-06 1.408812517536152e-01 1.308621272884150e-01 3.474193259234173e-02 2.218729190939028e-03 1.652153108911199e-03 7.386903074264874e-02 8.150100788657878e-08 2.341997034373084e-01 5.761484450141923e-03 3.737320544242764e-01 1.799144596004861e-05 5.392157340154903e-01 5.511657279172648e-01 5.515001169044993e-01 5.395623731352863e-01 5.352548326112513e-01 5.369436040807233e-01 1.210696329292688e-06 2.300446248257916e-01 3.753368718267947e-02 3.497970149165722e-02 1.935832201096969e-07 1.315459539984450e-03 4.284638994448607e-06 1.051543029426360e-07 4.445417620750325e-01 1.794053303011107e-03 2.420387578007037e-03 1.322462563069193e-06 1.358781097249738e-06 2.200531908031800e-01 1.099349306223422e-01 8.049117811297608e-06 2.405585182192626e-03 4.938313172236736e-07 7.472263066509023e-03 2.839062422983419e-08 2.853075384346306e-06 6.476494174994256e-08 1.299201683162795e-08 5.258395805140574e-02 2.812432918040969e-01 6.071754149701162e-08 1.150399090213704e-01 7.045645918081085e-05 2.276889047276064e-07 3.403551641862126e-08 6.482067258389008e-07 7.163250334145766e-06 2.013042822067492e-01 7.132607824443349e-07 5.625549537806840e-07 5.431622277357066e-02 4.933408146720864e-02 4.241778282152249e-09 2.820320289051315e-01 2.010921379915089e-07 2.753751248834428e-06 3.557942558365518e-02 5.643392575819289e-01 5.643392602210078e-01 3.534681345194801e-08 3.760825786869518e-01 5.861662451865468e-02 4.814028418395588e-04 2.364632950798718e-06 2.502394984053479e-01 1.080631043935131e-07 8.301430895811082e-02 8.051012606267550e-06 1.300463291805806e-01 5.503999878582284e-01 5.503999957806460e-01 2.199186675299770e-01 4.442269613151828e-01 4.315468031948676e-01 3.979252299785515e-01 3.607433566077924e-06 2.702734870690573e-08 4.683032845953501e-01 4.560777467960435e-01 1.148917586959292e-03 1.998149736916479e-08 1.757074412979436e-06 1.994394781845776e-08 1.641090003225106e-08 4.400730479718350e-01 4.245188285982118e-02 5.373081535963570e-01 5.375316431675849e-01 2.405204954303983e-06 1.752913674034724e-07 2.925832987671786e-01 3.268747691616525e-07 1.265678740645911e-01 9.879465197177362e-08 2.052015325957759e-06 3.338725424621174e-01 3.596862914062473e-01 5.800140352377315e-06 5.135708674773626e-06 6.682382838898448e-04 9.192247504318280e-04 1.593947423106576e-02 6.506197150259301e-08 3.763972414975835e-01 1.139709541140280e-01 1.042788719647582e-01 2.783670306310845e-01 2.667158599422673e-01 4.377686090552791e-02 4.420997459383719e-06 1.281380270217080e-01 2.421659267102676e-07 2.053835158815482e-01 3.146937017912176e-07 3.335800611386770e-02 1.720521774692909e-01 3.395556464589360e-01 3.012677663563101e-01 1.349000375625851e-01 3.647162809163128e-02 1.181190477276640e-01 6.380048483173206e-08 2.125982580797806e-01 6.887459430794571e-06 1.826572356430735e-08 5.144165183377413e-06 2.133504741362410e-06 3.224340113215530e-01 3.828445574416936e-02 4.793205024992570e-01 1.635911635007269e-01 3.587549933765692e-01 6.950916619653620e-02 9.808345828964723e-08 2.234315832295987e-01 1.063928930805548e-01 3.517175123122288e-01 1.549805292068909e-02 1.180609399135472e-02 6.126782531888860e-05 6.978615546000916e-06 6.093217009552688e-08 2.098936106891057e-02 4.957635545140540e-01 5.045557022878986e-01 1.884580467071558e-04 1.904982788672821e-01 4.317302515337525e-02 4.816059057805215e-01 2.512959064649511e-08 4.512748336475283e-06 5.173822113300846e-06 4.521128391154853e-01 4.647401604613444e-01 1.401579140812571e-06 7.618497562804524e-09 6.560058099455929e-02 2.208938734600458e-01 1.371860773183386e-06 1.309616861901612e-06 1.651062677408348e-01 5.574158775691324e-07 1.770633158544074e-04 1.743943315919094e-03 2.803868184555433e-05 4.674992719388977e-01 1.051499356336106e-09 8.899856369389936e-04 7.475745195323865e-06 5.045226253932171e-01 5.380812193108847e-01 5.507602147815365e-01 2.340369877371672e-01 7.017739673770316e-07 2.894519229790671e-03 3.796753753775281e-03 2.240274003979617e-08 3.174894236256497e-01 1.525308604621343e-01 4.104581995416703e-06 9.855010176231041e-06 6.296426902987878e-02 5.424937974945786e-02 4.998178280141198e-06 1.260634397563428e-06 1.853716764956624e-06 1.114245136478091e-08 2.122502042157858e-09 1.908373345355067e-08 9.026478980863144e-04 3.903277325377912e-07 1.163630321033050e-01 2.818062235878383e-01 2.642711801135994e-04 4.084209056225615e-04 2.129800371772643e-07 3.407978149245443e-01 4.751502888460722e-05 2.356596143288648e-01 9.074970161761061e-03 8.850075728973558e-05 1.414093419282533e-04 1.912143987774271e-01 4.956941041388811e-01 4.544084636645739e-04 6.352445712244514e-04 9.867461976264361e-06 4.362023386683231e-01 4.923347569367457e-01 1.1025526