<?xml version="1.0"?>
<VTKFile type="UnstructuredGrid" version="0.1" byte_order="LittleEndian">
<UnstructuredGrid>
<Piece NumberOfPoints="714" NumberOfCells="1306">
<Points>
<DataArray type="Float64" NumberOfComponents="3" format="ascii">
0 0 0 0.099999999999928008 0 0 0.082799035591426873 0.082799035591510806 0 0 0.10000000000041601 0 0.066361468125430589 0.15903440181097661 0 0 0.20000000000083221 0 0 0.30000000000124832 0 0.089078158003765312 0.2493007687782936 0 0.140351188660986 0.16130415108589741 0 0.21725788110387281 0.17316968768743621 0 0.17318221359491059 0.27409688392309489 0 0.24783073444672249 0.24783073444648379 0 0.29145143692666958 0.13500804559578439 0 0.20669143849501961 0.085546078947938975 0 0.19999999999983389 0 0 0.29999999999973409 0 0 0.35933948296838258 0.073809900849860513 0 0.43504744109702559 0.077628892606360606 0 0.39999999999966429 0 0 0.49999999999959438 0 0 0.59999999999951659 0 0 0.57505385014294308 0.072457888465917331 0 0.50264032148191051 0.12292784096123539 0 0.49255105193724569 0.22337579986912359 0 0.5565830077206213 0.19095699352548859 0 0.58612580217118482 0.27813894450229909 0 0.41589935411558732 0.26752529264016389 0 0.40428440976105728 0.1643886070295453 0 0.33604819894646598 0.23280286076243209 0 0.34318159319555042 0.3314386771104964 0 0.38593969585746768 0.44843324941957241 0 0.42544665781957403 0.3726599289372452 0 0.49272830291620878 0.32528628960011152 0 0.56509579243166053 0.39588847936247551 0 0.47711113382803011 0.43513410852522788 0 0.55763912874459476 0.49619993861770217 0 0.56379254693201075 0.58472273515948836 0 0.46433624429412901 0.61260020600107856 0 0.45232393232070839 0.53082724112931345 0 0.34793494568226019 0.52426775179830853 0 0.38240158409674341 0.60644575028138747 0 0.27661118526457179 0.58730386222759956 0 0.16324260003398389 0.62262730759772122 0 0.1946526892501724 0.54636184660733622 0 0.27220668248394869 0.50912429725145214 0 0.29987747321592639 0.43430880093746571 0 0.2371857680100064 0.35865548441110112 0 0.16486701364709541 0.41592657376307979 0 0.21928696632013719 0.4676461135047027 0 0.083393126324559225 0.42307471369029392 0 0.13897501191807771 0.34545639364066222 0 0.0632094674441709 0.3449112819864934 0 0 0.40000000000166441 0 0 0.50000000000205869 0 0.12353277228144981 0.51086097771927308 0 0.070553891733833127 0.57745844360881338 0 0 0.60000000000138687 0 0 0.7000000000006934 0 0.089684836063650353 0.74720097194875412 0 0.079752623936563252 0.65630726580969023 0 0.25446499951716589 0.69023946426646743 0 0.22047232289835689 0.77501739045979867 0 0.16551550920047911 0.70947866912672319 0 0.29792158491427922 0.79537096033156995 0 0.2235202862591317 0.88873896332704583 0 0.1332109546178302 0.87498377138822103 0 0.1533088418661793 0.80370257472597129 0 0.074918724681641777 0.83311952320732263 0 0 0.79999999999999982 0 0 0.89999999999958358 0 0.075231054453351903 0.92314074346405706 0 0 1 0 0.14716362552681639 0.93861610753355362 0 0.099999999999999645 1 0 0.19999999999999929 1 0 0.30000000000000071 1 0 0.39999999999999952 1 0 0.49999999999999911 1 0 0.59999999999999964 1 0 0.5499999999999996 0.93976792513729512 0 0.56701461556202259 0.86335846433862784 0 0.62017612851329729 0.81451802170669263 0 0.51076728641122882 0.81691863363193817 0 0.45907587517201498 0.90165918271477563 0 0.37337282601342481 0.92616598444216514 0 0.31535921456193688 0.88154045330654418 0 0.36912581253574028 0.83088590731704637 0 0.43819239467549531 0.79296936871720936 0 0.33985912385126898 0.73174041004507751 0 0.32437633398017029 0.65970549827478953 0 0.42824324229177341 0.6924957961634054 0 0.5174764925733939 0.65338828204098198 0 0.52912171753951986 0.73993242892488531 0 0.62152629835360762 0.73285157302339954 0 0.59670004617370476 0.65981579440137683 0 0.6754414170471299 0.67700559910555169 0 0.69085763855200755 0.76120667115691065 0 0.74547688787239819 0.70026419381674654 0 0.81910554849723838 0.69100245438023977 0 0.90192269692920224 0.70295054578552552 0 0.84477163403336131 0.77519844632340484 0 0.91372311269140116 0.80486176357476358 0 0.93540888248908083 0.88281232945237675 0 0.8793859710393791 0.93083561064221121 0 0.82192606283926717 0.87651855948129354 0 0.73937541854631073 0.9288754054780668 0 0.76404828705430583 0.78174230667165401 0 0.71722872346306721 0.85096302760907838 0 0.64588148000090029 0.91512139508160772 0 0.70000000000000018 1 0 0.79999999999999982 1 0 0.89999999999999947 1 0 0.94997493298435887 0.94717135651053852 0 0.99999999999999911 1 0 1.1000000000000001 1 0 1.1999999999999991 1 0 1.246238897717278 0.90016207822659 0 1.2104878010462079 0.79638517641579154 0 1.130022579458912 0.80264790230838934 0 1.1492841477515361 0.89495863909300122 0 1.035017143854235 0.92577305964649748 0 1.039491394416145 0.83402983011495258 0 1.0785590511537511 0.75365885686631617 0 0.98491966670915287 0.745702719141624 0 0.9749171938312049 0.68304286407835557 0 1.05 0.67063679245255348 0 1.1595355377629719 0.69612720023346242 0 1.2316049928421089 0.71268197388690568 0 1.160572984923127 0.60155304747043781 0 1.1544259370261769 0.49580194535795907 0 1.2482752740169289 0.44264463249545388 0 1.1787318575418491 0.43180077319900678 0 1.193211192060164 0.36417169501775798 0 1.11366617971111 0.39530889117858181 0 1.049999999998295 0.45311778235774403 0 1.0499999999982661 0.33749999999944968 0 0.97284972811175952 0.32057650487681749 0 0.97803218086495292 0.39957666910545891 0 0.95438428234324713 0.50021891445525024 0 1.0610070115193291 0.56187728740506249 0 0.95554667482020261 0.61387123313571723 0 0.89730215834238125 0.56352362508531118 0 0.82099888937423493 0.54529350322201742 0 0.85383906663538056 0.62014574817393608 0 0.74991769371388628 0.60451627361984739 0 0.65500944633069913 0.60601350811213128 0 0.66278242936710119 0.53985356489900171 0 0.74775703275407246 0.49059679564787018 0 0.71094001953927277 0.41472992215547572 0 0.64897033023755402 0.45530630145656431 0 0.65823561246403328 0.35502292901158627 0 0.83603391221093415 0.31708941802047369 0 0.79315209058920677 0.38802315963964318 0 0.84897848255088726 0.46000674997733482 0 0.9184189969982266 0.43608586792060411 0 0.89716106756302072 0.36571612550017968 0 0.91043121937362004 0.26518856856736223 0 0.8520969719592798 0.19112077159544111 0 0.81051762114363357 0.25355176211442859 0 0.7545004114404561 0.31098089234202853 0 0.68811979868824935 0.26566684131589419 0 0.64669101990832323 0.1799054750174742 0 0.75284581776561577 0.20455093921856349 0 0.75434135135171976 0.12888799631625769 0 0.66267222434682926 0.078497159578092612 0 0.69999999999928797 0 0 0.73796379772146625 0.059893436010741673 0 0.79999999999899607 0 0 0.8072276847200428 0.07509171132446453 0 0.87151744524583186 0.1145610820769897 0 0.89999999999870417 0 0 0.99999999999841238 0 0 1.0527907183502181 0.1005001786211816 0 0.95940036225003311 0.0802667348803804 0 0.96758455917765662 0.17206502793490561 0 1.0273907165533489 0.25089655084417212 0 1.0673059847957449 0.1861726764986896 0 1.14543293599463 0.16096823716187 0 1.1317936052402791 0.27327200211975772 0 1.2189485028845071 0.28846717556219142 0 1.225209211892335 0.20648826945283069 0 1.09999999999812 0 0 1.1494214575391031 0.075340014825429069 0 1.199999999997829 0 0 1.2999999999975369 0 0 1.254652873386052 0.105753482544517 0 1.3681535985071449 0.13698083382674339 0 1.349999999997392 0.060567969661089648 0 1.399999999997245 0 0 1.4999999999969531 0 0 1.542152768646126 0.073248247890105089 0 1.53341268746562 0.14194251306413061 0 1.456639397274391 0.1016053838939758 0 1.4156792278190771 0.19574754335211339 0 1.4905184776249101 0.20629734327603311 0 1.545236949037224 0.29434567071731399 0 1.473286192129879 0.27883707652097373 0 1.3878996413210389 0.26723502210068018 0 1.316869459340541 0.18778020585802921 0 1.291408388555241 0.26372433042992383 0 1.2615469736996101 0.34090999671933891 0 1.347125314110625 0.32447518420453242 0 1.385017785528226 0.40713366384701549 0 1.3198129865007471 0.39133224900025881 0 1.2709684905841181 0.55537862536316829 0 1.3860523322451299 0.56073196187600105 0 1.3462106466432811 0.48060664220838062 0 1.4795754400412069 0.53983964974648579 0 1.445918816848357 0.6075709531782556 0 1.5386621965636409 0.60828218080060537 0 1.550364457075788 0.50467902559054656 0 1.551956040519719 0.40384519109247291 0 1.4491802319415681 0.4666714614197911 0 1.4507225717793131 0.3561247496431208 0 1.6419306970571019 0.3436055112169133 0 1.645895854313963 0.45222881216869149 0 1.645263810758179 0.55814977621663464 0 1.7537858687071439 0.50406839622489796 0 1.742806034420483 0.6006074591026016 0 1.8544400981153091 0.62488101477716596 0 1.8316048184152021 0.54157006606434721 0 1.850967139686138 0.45738417241574703 0 1.7808296409871709 0.43587276890434401 0 1.71976181471802 0.39635806210359681 0 1.787749129254824 0.36176402170097799 0 1.8620515405159661 0.32644761881501039 0 1.799219293849516 0.26438879273789773 0 1.8480644103363271 0.19193194889233381 0 1.7304700827703301 0.17386188770806579 0 1.714493154391862 0.28897291620938281 0 1.6351951680630969 0.23707571199064051 0 1.567491488875842 0.20218805454405439 0 1.6799832100487111 0.082202015566833181 0 1.609545399082946 0.1308291592921435 0 1.599999999996661 0 0 1.6999999999963691 0 0 1.75369588639865 0.074917217572982864 0 1.8299024103288899 0.1151394713368583 0 1.799999999996077 0 0 1.8999999999957851 0 0 1.894432874635162 0.07551835003504323 0 1.9999999999955109 0 0 1.9480526939991849 0.12898730409406539 0 1.949071218763063 0.20551835056699769 0 1.889482378851052 0.25355176211435237 0 1.9370762551310139 0.30659376302738528 0 2.0131266155023031 0.26735551396116869 0 2.0579369465445829 0.18492358211896681 0 2.109175777466048 0.28747319291998968 0 2.1529249143000921 0.20760117016104621 0 2.145863811971962 0.09449602309195497 0 2.0499999999955518 0.089783354580979427 0 2.0999999999955929 0 0 2.1999999999957449 0 0 2.2631085279260659 0.078835433122263737 0 2.2171573042311432 0.14903409558359759 0 2.2999999999958969 0 0 2.3999999999960488 0 0 2.
[...]
<CellData Scalars="A_conc,As-lin_conc,Bs-lang_conc,Cs-freund_conc," Vectors="" Tensors="">
<DataArray type="Float64" Name="A_conc" format="ascii">
2.5104040490553078e-06 2.1874360126327143e-06 2.4974290162869517e-06 1.1204711189491675e-06 1.0874641654383083e-06 1.0516458607373364e-06 7.0800985362976137e-07 2.6425307210758544e-07 1.5856648298737966e-07 7.0101244940366897e-08 7.616873097468854e-08 2.6298039957671711e-07 2.7410664925085159e-07 1.8239038963633243e-07 2.7257803084916368e-07 1.6703698360499851e-08 2.525197504007864e-08 2.4855955065175104e-07 2.5577251439168628e-07 1.1624515105406907e-06 1.1286023264437562e-06 2.6102448102128557e-06 2.3883242900753638e-06 1.9306666779460978e-06 1.9934356754749688e-06 2.9910885263503923e-06 8.9173210754763451e-07 9.2703426365526073e-07 8.9265988609660189e-07 2.4055028245478962e-06 2.3448825040001159e-06 1.6478173467731155e-06 1.6872612257370734e-06 2.7985009344839584e-06 1.9445925683104542e-06 2.059369589892753e-07 1.983210958136716e-07 2.313619595747828e-08 1.3641005477521461e-07 2.5441179157886005e-08 1.4280103697567997e-08 1.2760238202242136e-08 7.4322699366187421e-08 1.2833319862859288e-07 7.0250941701809091e-08 3.0293288027729724e-07 2.7421368405038135e-08 4.460010191081566e-09 3.8379234165474692e-09 3.8076321141596226e-09 4.9622341559581036e-09 8.262476531904986e-09 7.2474463263616368e-09 5.4387245335464328e-09 9.1263511801522805e-09 8.1775559532685483e-09 2.7199729788725633e-09 3.7386946343902208e-09 2.395517782240329e-09 1.8165890185327712e-09 1.6792959807466158e-09 2.0272438754230087e-09 2.1114390475750059e-09 1.3346020514240557e-08 3.7966501036533442e-09 1.0247674892741177e-08 2.4714484338050155e-09 3.2241983730105706e-09 1.2790992600027579e-09 1.5493421457564599e-09 1.4305190837955192e-09 8.0685310186654798e-09 1.9746051462680082e-09 1.237484511432926e-09 3.2304721580634048e-09 2.070752935753861e-09 7.6824882020119444e-10 9.6021864754532065e-10 1.053598740822009e-09 1.5222770536314632e-09 1.2335118546983726e-09 2.1516363573773947e-09 3.1845902573034379e-09 1.7938440445420884e-08 1.5322390829509088e-08 3.8313152344280753e-09 1.8602601312475715e-09 1.1218034440824498e-09 9.0984517410202372e-10 3.1809760055438417e-09 7.3080601908934075e-08 3.3153224440562904e-09 2.9959604214729409e-09 3.1913155401746293e-08 1.015709745208311e-09 6.5800495582815415e-10 1.0812876558270091e-09 6.7839431620771536e-09 1.6536309008545937e-09 6.0541978525061109e-09 1.8929704591487409e-09 3.4538159335436445e-08 7.6057437493190904e-08 1.627205870117155e-07 1.8289029551908607e-07 8.0592652223191376e-08 1.6034971359966899e-08 1.8128825256644673e-08 7.5897127495529923e-09 9.7941315374101982e-09 1.9197269395536229e-08 7.2922627363562801e-08 7.8738951963083656e-08 6.6744599995238852e-08 1.9133749579079624e-07 4.823216969214727e-07 5.0241802455008596e-07 6.4405525549008226e-07 5.2051719271141179e-07 2.322817079442802e-06 2.1276166622911501e-06 2.0699847251645154e-06 1.2914288932358637e-06 2.6825310271079226e-07 4.6517578274961186e-07 2.564985837880723e-07 8.9110935652591522e-07 1.2505603585811175e-06 2.9782889751090257e-06 2.5032437424528226e-06 2.9126720904154123e-06 3.218910906408182e-06 2.6764263670651698e-06 2.7449357041769953e-06 3.4443241453313191e-06 2.638938460245834e-06 2.7134726355727525e-06 2.0573400329684968e-06 1.8617710346589288e-06 3.0134516288956148e-06 7.5917416738054995e-07 2.9498047859050012e-07 8.5880813878023391e-08 2.6518926717810588e-07 7.5870874725830432e-08 3.4101186160371822e-07 7.1558628141560982e-07 4.4029489323059587e-07 8.7790721731686329e-07 2.4074749856724362e-06 8.5332677653338309e-07 1.3596927276511811e-07 5.3502731856773977e-07 1.2787934427509166e-07 3.2071423770378759e-07 3.9894147105905029e-08 4.7289351287003823e-08 2.2666045053082281e-08 1.2768682606354405e-08 1.525769103068722e-08 1.8892307470387876e-08 3.3300819917372317e-08 9.534512345957867e-08 4.6776480842077549e-08 1.1784892894103742e-08 3.9037795119756211e-08 2.0046942424206652e-08 2.2273024696098172e-08 4.9010023590273231e-08 6.468882921007049e-08 1.0838371037365634e-07 7.0273060762488302e-08 9.5610918858214618e-08 1.0345056674305013e-07 2.7558031376295331e-08 2.5211596036944716e-08 2.2189240427055971e-08 2.8952470100842579e-08 3.1365386351874977e-08 1.4569937174447357e-07 1.3717233749516041e-07 1.1279965712548351e-07 1.1141972689379008e-07 2.2104419785983797e-07 3.0684118758602872e-07 2.3934262839574811e-07 4.0545060541340051e-07 4.6386199910258238e-07 7.1599087622523447e-07 6.8024492102785306e-07 4.8484351214249781e-07 2.0100751464184187e-07 1.6378899345520923e-07 1.4750385363972864e-07 3.1428736796986794e-07 4.5060649123938719e-07 1.9309589783418158e-06 1.0997549345188789e-06 1.2868878869623802e-06 1.0191508043778637e-06 6.0645042502455537e-07 6.9132589472046057e-07 6.3730640234748061e-07 6.7343277293085031e-07 7.2212949263915897e-07 7.7135365976612443e-07 8.8689988921732753e-07 5.2244131856541167e-07 8.2124131250722441e-07 5.5421822049498959e-07 4.97104089400802e-07 4.653934061947723e-07 5.0915336005215451e-07 4.7143687908233107e-07 4.9044962205431906e-07 2.0846160411915612e-07 3.3870526354689483e-07 2.5817643927767138e-07 2.2745224456298368e-07 9.4266469372756859e-08 8.3433666181866706e-08 8.9257004727756551e-08 3.455977612038984e-08 2.3135821452509067e-08 1.9998024772806261e-08 1.014505789595203e-07 1.5648505903382085e-07 1.492615067586645e-07 1.4460670285278607e-07 1.7370055471083005e-07 2.1895855940060038e-08 3.6164751202888296e-08 1.7879478702503202e-09 8.7736754517200679e-10 7.752946293367439e-10 3.9953642000705169e-10 6.586492703666796e-10 2.1725556376821094e-09 2.2565626702390002e-09 7.1068178707073377e-09 7.8742989707654528e-09 8.2401372302455468e-09 1.0593379013161423e-09 2.0742502531824409e-09 1.1306504755274021e-09 4.2801913576508399e-09 4.0700648175874995e-09 6.6717891857109933e-09 7.0803057328545156e-09 2.3370782734908026e-09 2.240370231991093e-09 7.969315155414386e-10 7.1290031762992795e-10 1.0797593925034257e-08 1.1852170712963344e-08 4.7933420900522426e-09 6.7446756163978806e-09 4.5105324153765097e-09 3.2580730410087352e-09 3.0222297365103081e-09 2.7183999281748267e-09 4.8019993336402621e-09 5.3982562149965119e-09 2.6651425269538338e-09 3.0780607600538686e-09 2.4386532077248311e-09 3.4682496303729969e-09 3.0906460347594407e-09 2.5561656827583372e-09 2.3223012196449548e-09 4.1702034489102241e-09 6.4247046784173935e-09 5.9135968717176772e-09 8.4049882681797344e-09 8.435229522543472e-09 3.1599060054679878e-09 2.7637924055554554e-09 3.4368155182562264e-09 2.0859631661652638e-09 4.1284191280318236e-09 1.2518619241124779e-08 1.1857217391468583e-08 9.1035495190314873e-08 5.2777906970871885e-08 7.0058545471177373e-08 4.5634724742239516e-08 4.9185124690827869e-08 1.7252652716598923e-08 1.6066285430420406e-08 2.6502713838760632e-08 2.8197926725124036e-08 2.8076396719826909e-08 1.3510860441262637e-08 1.5044174664049983e-08 3.3705302969702608e-08 6.3329591219700518e-08 2.6109173897593402e-07 2.4984108732173932e-07 1.4600315962204507e-07 2.3616214458115837e-07 1.9999351189562653e-06 1.2094308027339658e-06 1.5451255177960356e-06 6.6521571686852963e-07 6.4765734078037717e-07 8.3049109100284614e-08 1.6384245071163982e-07 1.1416328993283119e-07 2.1785535557369304e-07 2.0859226222913355e-07 1.7902985923667739e-07 2.7635024906296691e-07 1.8839496352683783e-07 1.1498372011502647e-07 1.2211456090147612e-07 1.2159646410276041e-07 5.6907258813456314e-08 1.8527749666509257e-08 1.9973161066509531e-08 2.0970223862224619e-08 6.3798299840137212e-08 6.8969271557700062e-08 6.7194697781044634e-08 7.0098777730740376e-08 1.0862151572487869e-08 3.2493405776404698e-08 3.4079674637915111e-08 1.3341499417273144e-07 1.619522749238976e-07 1.535680320453763e-07 2.2795437605316979e-07 1.9972025840322945e-07 2.4014312307440081e-07 2.6324776841891193e-07 2.5105571522291196e-07 2.2309036504847397e-07 1.684663956915191e-07 2.340317834369322e-07 3.2297681308370864e-07 3.0938041018764457e-07 3.3436775671995922e-07 3.4797121447161097e-07 3.7348451983214143e-07 3.1787988019869765e-07 3.2797226122199181e-07 1.6185120233266568e-07 1.5243985154245305e-07 4.3852445008646334e-08 1.5719887407105971e-07 7.0811020787073977e-08 2.95894816995013e-08 2.8828974130957261e-08 6.5897734381991671e-09 1.087603631353978e-08 4.2393215165640708e-08 4.8478959972711928e-08 1.2100972653951183e-08 5.0671335774397452e-08 1.4642760922966637e-07 1.398504844703254e-07 4.6473934782672494e-08 9.9374463731771234e-09 9.6095251170278162e-09 3.8811501647194871e-09 4.1711570316854108e-09 1.0469899257017583e-08 4.0480726409773704e-09 1.0690609530002196e-09 4.7717512661799433e-10 1.0126942532502369e-09 2.3455552698555388e-09 4.4365947154841863e-10 2.0186150844921158e-09 2.2322144041985217e-09 2.6534923485392987e-09 2.1655447252058978e-10 2.6118160020220556e-10 3.0278899878169834e-10 4.5254874787216738e-10 5.8467936104676008e-10 5.1192365604134664e-10 3.1021239165808251e-10 1.3796483693169267e-10 5.7052289726847354e-10 5.9476909899869624e-10 1.2900597268335005e-09 1.3589091806921875e-09 1.8023400413848238e-10 1.2984301002797347e-10 2.8773092356539066e-10 1.6720529583169098e-10 7.3572175460304588e-11 3.361826564967809e-10 6.4608727290134554e-10 1.2051821672085927e-09 9.956629623222525e-10 1.4319410592925892e-09 4.3402162910798243e-10 1.592964931742161e-09 2.916926821581083e-09 2.3165493534139535e-09 1.4952893746491068e-09 1.032784672743606e-09 5.8151715264598896e-10 7.7607044692006736e-10 3.7419676275187072e-10 2.6755547348884961e-09 1.6024460254912683e-09 3.476830090149939e-09 4.1489475417756933e-09 4.5769775859814181e-08 1.0342913618437784e-08 7.3767906377529164e-10 7.4795798617010296e-09 3.2819686339023994e-09 3.1064698112647419e-09 3.0522091987046831e-08 7.5919145526526562e-08 7.8027085002315634e-08 7.9844607023010816e-08 6.9654135124883007e-09 1.9543735211955405e-07 3.8762441832094773e-07 3.9659547559935648e-07 5.3240755043774519e-07 5.5106713476081146e-07 4.6369306835933346e-07 6.0006074464290869e-07 2.0259869805245497e-07 2.0824779405470988e-07 4.7614125308119946e-07 6.196791227701656e-07 2.8107060276654203e-07 4.720914954974424e-07 3.2265996927943363e-07 9.3892742039724968e-08 5.1138934011778057e-08 2.5082379022383111e-07 2.0407778577943006e-08 8.4914103889959285e-09 7.6034594298182807e-09 1.6587010477837869e-08 4.323722518215343e-08 2.8205588427714867e-08 6.0394211542220878e-08 3.9449418921424773e-08 2.6693540016578708e-07 8.8095640364240117e-08 1.325620306437412e-07 5.5424850144793028e-07 4.0236857628988505e-07 8.1644941609834299e-07 2.007990179063129e-07 5.4146994059107191e-07 5.6544826590439315e-07 9.5896249713757113e-07 3.6368248201918728e-06 1.6159679020497887e-06 1.7233449738049846e-06 6.5641171659841514e-06 3.5767126359234711e-06 6.9903242981904482e-06 1.306460030104622e-05 2.4376972445180592e-05 4.6055337980794609e-05 8.1991414301485081e-05 2.6412277423384175e-05 7.1502554107355439e-05 4.5312090786046855e-05 2.2296921145949002e-05 1.2901765395954875e-05 7.2010519264868202e-06 1.4137592954102098e-05 4.253306011967193e-05 2.4291918023030876e-05 4.4664395438927877e-05 2.9777855156221314e-05 1.8822305991113321e-05 1.0802555309240149e-05 4.3098353880397316e-06 2.0864224941538573e-06 1.1032419938697826e-06 1.0834137746827389e-06 2.1963212820849366e-06 1.0035605473328866e-06 1.8833344701108782e-06 3.1018490511947204e-06 5.4096002265539295e-06 9.8735715762346747e-06 3.6139272960483624e-06 6.6542325680965992e-06 1.6668009043632996e-05 4.9760432309565497e-05 2.9335199752652695e-05 4.6197231407234735e-05 1.5913315590679784e-05 2.7731233438434594e-05 5.2737972224429605e-05 4.7184113846246436e-05 2.8647714704822731e-05 1.468054712742652e-05 9.2187160112089538e-06 4.4379356989156223e-06 9.4775259613949739e-06 4.2134430306615723e-06 2.3223056557253847e-06 1.2258032155585332e-06 2.4835668048158101e-06 1.4560279636803953e-06 7.3651328733480521e-07 2.0767784788704013e-07 1.1349660261866671e-07 2.3169573214182857e-07 1.2358509697943156e-07 4.8418950795027505e-07 6.0387487050602453e-07 4.1778506450609607e-07 2.0022775904396385e-07 3.0135948286086507e-07 1.2469101146201137e-07 3.1853208299011803e-08 7.1131459912317457e-08 1.7236731481077459e-08 3.1964176911576491e-08 8.8796017017023836e-09 5.3204316531176256e-09 1.2622363267667178e-08 1.0582072788900126e-08 4.8776702550835384e-09 5.8650439033015124e-08 2.6792328998244751e-08 5.3507871486449169e-08 1.0776886623690547e-08 5.6514102670616173e-09 1.40475648875448e-08 8.4645062334655883e-09 2.7494019303370148e-08 4.8161128162651639e-08 5.1200186009657547e-08 8.6300564232960656e-08 4.5201306124046586e-08 5.9828978783586459e-08 3.464378461930306e-07 7.9707951267165845e-07 8.5992407646319298e-07 1.6591759407323749e-07 1.3129537831410383e-07 2.9574920586205091e-07 8.7832747667765363e-07 9.1480950280866115e-07 1.6932301379024707e-06 4.6749962547260821e-07 6.0223368874745168e-07 3.0033109541614209e-07 1.6670965993412291e-07 2.5130720964967626e-07 1.332763635165185e-07 1.0416906772790289e-07 5.0695861026968774e-07 3.8101875739288945e-07 9.1965813725006417e-07 1.6932931702896217e-06 1.2078504196371472e-06 8.8344850086519593e-06 5.4309699443390779e-06 3.5883155950064552e-06 1.1156064323477681e-05 1.7965442842963216e-05 5.1481722152745857e-05 2.9262196781480696e-05 2.9522490943446073e-05 5.1568141076267271e-05 1.6861973213806791e-05 1.8033185739802369e-05 3.1244235231827399e-05 5.9278233775773639e-05 3.8040818863626471e-05 7.5179392280944485e-06 8.8649652400421237e-06 4.714140828250979e-06 5.1903997421256341e-06 2.8909972198054988e-06 2.6119240897847917e-06 1.5171965352503379e-06 2.7200087212456006e-06 4.4848654217682808e-06 1.5445986421599912e-05 2.8209454702234944e-05 4.566234188313235e-05 2.545803866527254e-06 1.4521873487769813e-06 2.585145896332649e-06 2.4691726330238153e-06 3.1903752330317394e-06 2.1885925189032364e-06 1.6927720839191832e-06 2.1448462260535519e-06 2.2295871212780983e-06 2.2862043469874097e-06 2.3719998525900828e-06 2.2972589045159608e-06 9.7730669725155268e-07 1.094092608956079e-06 9.4961458007783463e-07 3.390493839343542e-07 2.6486693806109609e-07 2.8649457548114531e-07 2.7594884105453183e-07 3.8603494767322181e-08 3.1429063502659798e-08 5.0884535341797717e-09 3.0182081521308862e-09 3.3493124561151195e-08 3.6107313931392589e-08 2.3643069032190687e-08 2.2454491100459667e-09 7.1481841459954347e-09 2.0982337101023129e-08 2.2345629095885676e-08 4.7971764671486139e-07 3.1636330503938103e-07 4.9783675353003705e-07 2.865275111821162e-07 1.0615716688731765e-06 1.6415731465415195e-06 8.1925573420879053e-07 7.861950860230564e-07 1.3276590524011117e-06 7.2237007352263164e-07 5.4142955817809533e-07 2.9293765412600514e-07 5.6650149622937443e-07 3.0191457882590458e-07 1.1176706683440619e-07 8.9250365381494807e-08 6.6521913197503818e-09 6.0660412312918185e-09 5.5422934900193092e-09 8.5623074098765142e-08 2.7538797091270344e-07 4.9000137340323157e-08 5.2200058291812257e-08 3.9978849079381617e-08 3.8298230625136842e-08 2.6112665833617177e-07 2.4786659905503015e-07 6.3225824513775478e-07 6.9946247439733338e-07 9.7811330149734055e-07 9.3865114037199412e-07 6.6830208987054328e-07 1.1714043652849184e-06 1.2314915504555956e-06 1.2671291111056277e-06 1.5725455261862676e-06 0.078570340857018597 0.067214700908211342 0.092755722557527912 0.11572715173783879 0.1054376986353804 0.12909702567304882 0.12906947639054878 0.1159600076166506 0.1048596400444629 0.14385757900367124 0.1393871845703723 0.13106722206242238 0.13807990926393948 0.12469068537463443 0.11118045868126246 0.12002416161320384 0.10593126178651777 0.095686505758009577 0.07235668819112262 0.083544351523843874 0.075750747409034092 0.071930111507552713 0.083303077782148155 0.091715227821910397 0.093008647117735654 0.080773443569641445 0.053629735964228549 0.05762787024189453 0.039965762473152353 0.040332461980110187 0.046792835004176254 0.063538977111584835 0.067274143060057079 0.051820300136577478 0.061058741918704612 0.061535527958918181 0.05328957449973265 0.044656788524462844 0.034694069470862593 0.037645531893975182 0.044436982780452598 0.028452346185777112 0.029403567324862045 0.030227146226451736 0.02461033944675305 0.023656856462695795 0.018479990901883049 0.016509759554073598 0.017876201234089686 0.021912362979834732 0.034918054308948385 0.032683496797780792 0.028238684988699608 0.033652588205887027 0.023708928122361937 0.017480272268217568 0.020727670320098427 0.026662549782864715 0.047896836812278548 0.010395141248730602 0.0042279910270128663 0.0060609457532602292 0.0020984856416647497 0.0031332933982066635 0.00012939724772738164 8.0869134582359025e-05 0.00022033828544877106 0.00036678191693764961 0.00059729295058168186 0.00091273934669696744 0.0014236936749616668 0.0009971500999739198 0.0015423392301262633 0.0015395584825209016 0.0010331305471754421 0.00038554403287958396 0.00059217138919489111 0.0006219193929035791 0.00044091486608041402 0.00017169734131449458 0.00027147244941783918 0.00011320764665552827 6.1697771004124303e-05 0.00024681182361080103 0.00013567310499271933 0.0002125741195714557 8.0774572009312281e-05 0.00012713346806593505 8.57747485386633e-05 0.00069865860930026823 0.00044543602788689528 0.00035264280404963039 0.00064455836612680242 0.0010283136992336711 0.0011142124791643853 0.0026266261713920034 0.0017827625116040454 0.0053571437494871962 0.0037100618087286784 0.0025179267722534732 0.0017522327789332103 0.003110705895411907 0.002228546488886081 0.0022171742497554599 0.0032040720585426626 0.0042485765297407066 0.0051631941943805926 0.0042796917018945715 0.00544370882779871 0.0067676568952278965 0.0082571030555740037 0.007732089719324502 0.014063019591998543 0.01388529735212379 0.010796193638840879 0.012838425634538724 0.0096738087561241224 0.0072571273266341836 0.0068573797080957559 0.0089057339772130734 0.014378956661795655 0.011234425178510785 0.014050661427431336 0.00960066611378688 0.011391655963403399 0.0053268956018793449 0.0071123045021725707 0.0054724430239442403 0.011315032770522067 0.014572685663150935 0.011627288096006586 0.013571251371990363 0.012143967459812626 0.015516139443684887 0.006124884444389871 0.0088061291614321014 0.0084271915810744044 0.0042086969592798652 0.002105037888157343 0.0029758995538197081 0.002723227297510468 0.0019942374550980121 0.0026864995144167394 0.0017208325433234078 0.0038254363326671063 0.0038649052551097533 0.001116925433499382 0.0012520047326215213 0.00053879283769877207 0.00046785514308977341 0.00077121611708970157 0.0002825877812480149 0.00018942576015733344 0.00011259984292218202 7.1741204695406231e-05 0.00015769376635697683 8.4905564139225515e-05 0.000235762162563904 0.00033847502892169845 0.00033247698731845373 0.00026141255640016551 0.0001585764026472675 8.2143682004001995e-05 0.00010410251227441936 7.813214656107849e-05 0.0007053242245998987 0.00047576394063026105 0.00040383285241802778 0.00088325470991783023 0.00080095809138033304 0.0013165978996761867 0.0014512497749726517 0.0010604036060563036 0.0012280639912975644 0.001602825329931821 0.00074282980655538712 0.00052033516889070451 0.0008702053065443771 0.00063295910609473651 0.0002582504019685849 0.00018598399829926305 7.5805581494256403e-05 0.00011690842501130473 0.00012696067337330779 0.00021118196903057628 0.00032684373744864512 0.0003439224374107486 0.00019503996459509226 0.00010989773203583085 0.00012737766771996349 0.0002175334321270011 0.00037453987669923286 0.00061057110193830683 0.00053934862565638503 0.00088314330696444548 0.0013525739417705467 0.0014850950597537097 0.00095273004905383559 0.0023205877063829415 0.0034525201551056247 0.0049917656353577365 0.0029160673162938154 0.0020298722660326471 0.0023459426335918371 0.0046666716502651705 0.004480385882252109 0.0033062578977306432 0.005917498363333106 0.0080189635060153759 0.0065856095924248948 0.0084752209744524895 0.015786352317737947 0.012380275036646673 0.014644787846200174 0.010316973009777727 0.010774928526524506 0.0079219611890599569 0.0071028972708073856 0.013584415655671698 0.0099829851450411976 0.022416767127316231 0.01711809322107689 0.02489583215395471 0.030841815022154