<?xml version="1.0"?>
<VTKFile type="UnstructuredGrid" version="0.1" byte_order="LittleEndian">
<UnstructuredGrid>
<Piece NumberOfPoints="714" NumberOfCells="1306">
<Points>
<DataArray type="Float64" NumberOfComponents="3" format="ascii">
0 0 0 0 0.10000000000041601 0 0.082799035591426873 0.082799035591510806 0 0.099999999999928008 0 0 0.19999999999983389 0 0 0.20669143849501961 0.085546078947938975 0 0.29145143692666958 0.13500804559578439 0 0.29999999999973409 0 0 0.24783073444672249 0.24783073444648379 0 0.21725788110387281 0.17316968768743621 0 0.17318221359491059 0.27409688392309489 0 0.089078158003765312 0.2493007687782936 0 0.140351188660986 0.16130415108589741 0 0 0.20000000000083221 0 0.066361468125430589 0.15903440181097661 0 0 0.30000000000124832 0 0.0632094674441709 0.3449112819864934 0 0 0.40000000000166441 0 0.083393126324559225 0.42307471369029392 0 0.13897501191807771 0.34545639364066222 0 0.070553891733833127 0.57745844360881338 0 0 0.60000000000138687 0 0 0.50000000000205869 0 0.12353277228144981 0.51086097771927308 0 0.16324260003398389 0.62262730759772122 0 0.1946526892501724 0.54636184660733622 0 0.27220668248394869 0.50912429725145214 0 0.27661118526457179 0.58730386222759956 0 0.16486701364709541 0.41592657376307979 0 0.21928696632013719 0.4676461135047027 0 0.29987747321592639 0.43430880093746571 0 0.2371857680100064 0.35865548441110112 0 0.34318159319555042 0.3314386771104964 0 0.38593969585746768 0.44843324941957241 0 0.42544665781957403 0.3726599289372452 0 0.38240158409674341 0.60644575028138747 0 0.34793494568226019 0.52426775179830853 0 0.45232393232070839 0.53082724112931345 0 0.46433624429412901 0.61260020600107856 0 0.55763912874459476 0.49619993861770217 0 0.56379254693201075 0.58472273515948836 0 0.49272830291620878 0.32528628960011152 0 0.47711113382803011 0.43513410852522788 0 0.56509579243166053 0.39588847936247551 0 0.58612580217118482 0.27813894450229909 0 0.49255105193724569 0.22337579986912359 0 0.5565830077206213 0.19095699352548859 0 0.59999999999951659 0 0 0.57505385014294308 0.072457888465917331 0 0.49999999999959438 0 0 0.50264032148191051 0.12292784096123539 0 0.43504744109702559 0.077628892606360606 0 0.39999999999966429 0 0 0.35933948296838258 0.073809900849860513 0 0.33604819894646598 0.23280286076243209 0 0.41589935411558732 0.26752529264016389 0 0.40428440976105728 0.1643886070295453 0 0 1 0 0.099999999999999645 1 0 0.14716362552681639 0.93861610753355362 0 0.19999999999999929 1 0 0.30000000000000071 1 0 0.29792158491427922 0.79537096033156995 0 0.2235202862591317 0.88873896332704583 0 0.1332109546178302 0.87498377138822103 0 0.075231054453351903 0.92314074346405706 0 0 0.89999999999958358 0 0 0.79999999999999982 0 0.074918724681641777 0.83311952320732263 0 0.1533088418661793 0.80370257472597129 0 0.089684836063650353 0.74720097194875412 0 0 0.7000000000006934 0 0.079752623936563252 0.65630726580969023 0 0.16551550920047911 0.70947866912672319 0 0.22047232289835689 0.77501739045979867 0 0.25446499951716589 0.69023946426646743 0 0.32437633398017029 0.65970549827478953 0 0.33985912385126898 0.73174041004507751 0 0.42824324229177341 0.6924957961634054 0 0.5174764925733939 0.65338828204098198 0 0.59670004617370476 0.65981579440137683 0 0.62152629835360762 0.73285157302339954 0 0.52912171753951986 0.73993242892488531 0 0.51076728641122882 0.81691863363193817 0 0.62017612851329729 0.81451802170669263 0 0.56701461556202259 0.86335846433862784 0 0.45907587517201498 0.90165918271477563 0 0.43819239467549531 0.79296936871720936 0 0.36912581253574028 0.83088590731704637 0 0.37337282601342481 0.92616598444216514 0 0.31535921456193688 0.88154045330654418 0 0.39999999999999952 1 0 0.49999999999999911 1 0 0.59999999999999964 1 0 0.5499999999999996 0.93976792513729512 0 0.70000000000000018 1 0 0.79999999999999982 1 0 0.89999999999999947 1 0 0.8793859710393791 0.93083561064221121 0 0.93540888248908083 0.88281232945237675 0 0.91372311269140116 0.80486176357476358 0 0.82192606283926717 0.87651855948129354 0 0.73937541854631073 0.9288754054780668 0 0.64588148000090029 0.91512139508160772 0 0.76404828705430583 0.78174230667165401 0 0.71722872346306721 0.85096302760907838 0 0.69085763855200755 0.76120667115691065 0 0.6754414170471299 0.67700559910555169 0 0.74547688787239819 0.70026419381674654 0 0.81910554849723838 0.69100245438023977 0 0.84477163403336131 0.77519844632340484 0 0.90192269692920224 0.70295054578552552 0 0.9749171938312049 0.68304286407835557 0 0.98491966670915287 0.745702719141624 0 1.0785590511537511 0.75365885686631617 0 1.05 0.67063679245255348 0 1.1595355377629719 0.69612720023346242 0 1.2316049928421089 0.71268197388690568 0 1.130022579458912 0.80264790230838934 0 1.2104878010462079 0.79638517641579154 0 1.246238897717278 0.90016207822659 0 1.1492841477515361 0.89495863909300122 0 1.035017143854235 0.92577305964649748 0 1.039491394416145 0.83402983011495258 0 0.99999999999999911 1 0 0.94997493298435887 0.94717135651053852 0 1.1000000000000001 1 0 1.1999999999999991 1 0 0.8520969719592798 0.19112077159544111 0 0.81051762114363357 0.25355176211442859 0 0.91043121937362004 0.26518856856736223 0 0.87151744524583186 0.1145610820769897 0 0.89999999999870417 0 0 0.8072276847200428 0.07509171132446453 0 0.79999999999899607 0 0 0.75434135135171976 0.12888799631625769 0 0.73796379772146625 0.059893436010741673 0 0.69999999999928797 0 0 0.66267222434682926 0.078497159578092612 0 0.64669101990832323 0.1799054750174742 0 0.75284581776561577 0.20455093921856349 0 0.7545004114404561 0.31098089234202853 0 0.68811979868824935 0.26566684131589419 0 0.65823561246403328 0.35502292901158627 0 0.64897033023755402 0.45530630145656431 0 0.71094001953927277 0.41472992215547572 0 0.65500944633069913 0.60601350811213128 0 0.66278242936710119 0.53985356489900171 0 0.74775703275407246 0.49059679564787018 0 0.74991769371388628 0.60451627361984739 0 0.85383906663538056 0.62014574817393608 0 0.82099888937423493 0.54529350322201742 0 0.89730215834238125 0.56352362508531118 0 0.79315209058920677 0.38802315963964318 0 0.83603391221093415 0.31708941802047369 0 0.84897848255088726 0.46000674997733482 0 0.9184189969982266 0.43608586792060411 0 0.89716106756302072 0.36571612550017968 0 0.97284972811175952 0.32057650487681749 0 0.97803218086495292 0.39957666910545891 0 1.049999999998295 0.45311778235774403 0 1.0499999999982661 0.33749999999944968 0 0.95554667482020261 0.61387123313571723 0 0.95438428234324713 0.50021891445525024 0 1.0610070115193291 0.56187728740506249 0 1.160572984923127 0.60155304747043781 0 1.1544259370261769 0.49580194535795907 0 1.11366617971111 0.39530889117858181 0 1.1787318575418491 0.43180077319900678 0 1.2482752740169289 0.44264463249545388 0 1.193211192060164 0.36417169501775798 0 1.2189485028845071 0.28846717556219142 0 1.225209211892335 0.20648826945283069 0 1.14543293599463 0.16096823716187 0 1.1317936052402791 0.27327200211975772 0 1.0273907165533489 0.25089655084417212 0 1.0673059847957449 0.1861726764986896 0 0.96758455917765662 0.17206502793490561 0 0.99999999999841238 0 0 0.95940036225003311 0.0802667348803804 0 1.0527907183502181 0.1005001786211816 0 1.1494214575391031 0.075340014825429069 0 1.09999999999812 0 0 1.199999999997829 0 0 1.2999999999975369 0 0 1.254652873386052 0.105753482544517 0 1.3681535985071449 0.13698083382674339 0 1.399999999997245 0 0 1.349999999997392 0.060567969661089648 0 1.291408388555241 0.26372433042992383 0 1.316869459340541 0.18778020585802921 0 1.3878996413210389 0.26723502210068018 0 1.473286192129879 0.27883707652097373 0 1.4156792278190771 0.19574754335211339 0 1.4905184776249101 0.20629734327603311 0 1.545236949037224 0.29434567071731399 0 1.456639397274391 0.1016053838939758 0 1.53341268746562 0.14194251306413061 0 1.542152768646126 0.073248247890105089 0 1.4999999999969531 0 0 1.599999999996661 0 0 1.6999999999963691 0 0 1.6799832100487111 0.082202015566833181 0 1.609545399082946 0.1308291592921435 0 1.567491488875842 0.20218805454405439 0 1.6351951680630969 0.23707571199064051 0 1.714493154391862 0.28897291620938281 0 1.7304700827703301 0.17386188770806579 0 1.799219293849516 0.26438879273789773 0 1.8480644103363271 0.19193194889233381 0 1.8299024103288899 0.1151394713368583 0 1.799999999996077 0 0 1.75369588639865 0.074917217572982864 0 1.7537858687071439 0.50406839622489796 0 1.742806034420483 0.6006074591026016 0 1.8544400981153091 0.62488101477716596 0 1.8316048184152021 0.54157006606434721 0 1.850967139686138 0.45738417241574703 0 1.8620515405159661 0.32644761881501039 0 1.787749129254824 0.36176402170097799 0 1.7808296409871709 0.43587276890434401 0 1.71976181471802 0.39635806210359681 0 1.645895854313963 0.45222881216869149 0 1.6419306970571019 0.3436055112169133 0 1.645263810758179 0.55814977621663464 0 1.5386621965636409 0.60828218080060537 0 1.550364457075788 0.50467902559054656 0 1.4795754400412069 0.53983964974648579 0 1.445918816848357 0.6075709531782556 0 1.551956040519719 0.40384519109247291 0 1.4491802319415681 0.4666714614197911 0 1.4507225717793131 0.3561247496431208 0 1.347125314110625 0.32447518420453242 0 1.385017785528226 0.40713366384701549 0 1.3198129865007471 0.39133224900025881 0 1.2615469736996101 0.34090999671933891 0 1.3860523322451299 0.56073196187600105 0 1.3462106466432811 0.48060664220838062 0 1.2709684905841181 0.55537862536316829 0 1.2546738886072291 0.63615646469940468 0 1.3545060270195819 0.65002758689694418 0 1.4000454837723419 0.73943313674757749 0 1.3035852436207409 0.73866974635260263 0 1.2914654457895349 0.81843301378315825 0 1.3255948392482531 0.88328132587465524 0 1.3864786876100039 0.92208751032957958 0 1.386174597084219 0.82350876346868962 0 1.482119963281066 0.782586299849238 0 1.463012078585596 0.89209645917012148 0 1.546104640467868 0.9195568013001878 0 1.535346256113697 0.70153336654872078 0 1.4534042830965781 0.68426123045930609 0 1.2999999999999989 1 0 1.399999999999999 1 0 1.5 1 0 1.599999999999999 1 0 1.6999999999999991 1 0 1.7999999999999989 1 0 1.6597641702579149 0.778
[...]
<CellData Scalars="A_conc,As-lin_conc,Bs-lang_conc,Cs-freund_conc," Vectors="" Tensors="">
<DataArray type="Float64" Name="A_conc" format="ascii">
3.6090254953054692e-06 4.1085631801090883e-06 1.1657522186329157e-06 1.7284505034898791e-06 1.7716265176070434e-06 1.8111388401097354e-06 4.0554354472744849e-06 4.1954246849814239e-06 1.7988132199596926e-06 1.838472588090909e-06 3.0584194786468557e-06 3.8133407166230926e-06 2.5079947063543125e-08 3.5248538511696301e-07 3.5904912317851306e-07 4.1250291618034058e-07 2.6011835092901671e-07 1.773745506698962e-08 1.1381302813290999e-07 4.0261034131247781e-07 4.2684310970561977e-07 4.1622197859049767e-07 1.0811264571635746e-07 2.5224549584050769e-07 3.4893887242792007e-09 4.93474026548643e-08 1.1754043790886233e-09 3.03710844464789e-09 8.1182542049799721e-10 3.6365609392926089e-09 1.1095359368709476e-07 1.7838351871330094e-08 7.062921792933401e-09 6.3475137070979015e-10 5.0749062176614722e-09 7.1387493029975385e-09 1.9717103029967133e-08 8.1384797516100952e-09 1.2280685370261143e-08 2.0940159339718236e-09 1.8174542587555367e-09 4.3847206698510885e-09 1.0662667298986683e-09 9.4345894317370155e-10 3.8859659079565658e-09 3.4241079176497581e-09 1.7119459159292927e-08 5.1087696085056263e-10 9.5171010101957088e-10 5.9153259493730302e-10 5.9460663950875801e-10 1.8268504517215408e-08 9.1722856776933727e-10 7.5150998311744442e-10 1.1144435179287729e-09 1.2518433071275477e-09 1.2666975927384594e-09 1.0202465079359764e-09 5.8015419647411849e-09 2.371251067333213e-08 1.2001432407708063e-09 1.7329911576612796e-09 1.4862067220711627e-09 6.6105528140423986e-09 8.030230946987269e-09 8.8406529435650268e-09 2.2733079065187634e-08 1.9793162647016868e-09 3.3015406157854267e-09 3.2408014489891144e-09 3.7670816223660831e-09 2.6604418106881538e-08 1.4413273707094808e-09 1.7007148572633728e-09 1.5842317196523567e-09 1.9583786501910216e-09 1.7468445967925376e-09 2.139974978593153e-09 2.1765476892325722e-09 1.4154105658329892e-07 3.6342029731581817e-09 4.3743276761595068e-09 2.1677279062783941e-07 2.5257974587242559e-06 3.8864005887667645e-06 2.3323935498238578e-06 2.291392302289006e-06 2.1194354354670404e-07 1.2331005566316742e-06 1.3057084066184669e-06 3.6677067363624822e-06 3.5971549261576597e-06 4.777389499734311e-06 3.1330277387532486e-06 1.2698884195028304e-06 4.2092891835431647e-07 7.4490757318466038e-08 2.6016809816895673e-08 1.7660874842403708e-09 1.3684667893107395e-07 7.6627433413401442e-08 4.2617695043118902e-06 5.017535321404235e-06 4.9292349807107009e-06 5.3962841807828263e-06 4.5912791355120295e-06 4.6874952762810225e-06 4.0418119123345924e-06 9.2968171251486624e-07 1.1375604293120485e-06 9.0256440259855211e-07 8.717324175605823e-07 3.6809468377869124e-06 3.5982086067196508e-06 2.2703939446259094e-06 2.209964240045397e-06 1.5907469971643517e-06 4.7800103470912906e-07 8.4493108126228877e-07 4.9778502588409479e-07 1.5940663608429359e-07 3.4536303655393728e-07 3.0828644030534232e-07 1.5074439313437541e-07 7.1459178191252987e-08 4.2218793799920312e-08 2.627071994584399e-08 4.6602346301745337e-08 1.4033215232502945e-07 3.594277765701057e-07 1.5057230389262679e-07 1.5962324744282456e-07 5.5197458289527847e-08 3.0407426650932127e-08 3.4111769223401966e-08 6.0662108944529429e-08 1.0591250130159634e-07 9.6022036829708711e-08 3.7706622634009898e-08 7.2396485713310897e-08 4.3655347061114186e-08 7.940270011062336e-08 2.4686775493292823e-08 1.7662020317168818e-07 9.0278266438750436e-08 5.732269188854461e-07 1.5610475491509952e-07 1.6791778168806364e-07 4.370150287631788e-07 1.1864752441056246e-06 4.6943816274653673e-07 1.1360485920476605e-06 7.2004333217288784e-07 1.5054996076302234e-06 5.4833059302810066e-07 2.5404870365771355e-07 2.4296003842660262e-07 9.3925062562580042e-07 4.1599270178597738e-06 1.4726176084915671e-06 5.9182314605247968e-06 4.4694674360813365e-06 4.5680928477219401e-06 3.321508118984331e-06 4.8368489262331617e-06 2.8367106678282306e-06 1.7101062835222174e-06 2.9163336566892388e-06 1.9795960450718974e-06 1.3641983537050112e-06 7.3980884391487647e-07 5.8569723038101318e-07 6.4978878637955767e-07 3.5592839095966559e-07 4.4505284070438964e-07 3.3718107743447655e-07 9.883780386286616e-07 9.5240197012633351e-07 7.0501948755527932e-07 6.6993672622067353e-07 4.8985621626790874e-07 2.4926581059248319e-07 2.6637773351417236e-07 3.1656371717560974e-07 1.6503948309112227e-07 1.1924463139651197e-07 1.5671701144785549e-07 1.1319003877969301e-07 1.9091859577634371e-07 4.0616162363066951e-08 8.9772513153135126e-08 3.8025825173043921e-08 4.3992280960914877e-08 4.6661074615731477e-08 3.7112429478190461e-08 4.6822094569373659e-08 1.7120589362350136e-07 1.7347013457422864e-07 2.1198155944607811e-07 2.0293494441342939e-07 4.9637381430380228e-08 5.3389067424652782e-08 3.6284176371170981e-08 1.3023832141763825e-07 1.237194879881342e-07 1.3588712823280451e-07 3.1468768663911118e-07 3.2691836708703633e-08 3.5713213114386541e-08 5.7091916901951346e-08 2.3608127102404587e-07 1.988461364975846e-07 1.440468545801705e-07 2.1508679621078423e-07 2.0685606213807198e-07 6.4863621289344134e-07 6.1567147858696543e-07 7.0885651824586151e-07 1.0391725121310512e-06 6.7520696940338429e-07 6.8089419506276866e-07 3.5100017707289927e-07 2.9467472490951736e-07 4.7745314341363514e-07 6.7647643202723503e-07 6.4263014856461013e-07 8.0638377823062086e-07 8.5373486177977632e-07 8.8988116357680965e-07 9.3876870141922846e-07 9.8845429452421868e-07 1.1095848314382534e-06 1.5341003341189023e-08 1.2731934245768674e-08 6.0054580417286201e-09 5.1871636966417779e-09 1.4831344289448055e-08 1.7126250743891758e-08 2.3472759995851746e-08 3.1295754676646525e-08 1.4975629029348397e-07 1.4383539701229376e-07 7.81554445842566e-07 7.6617224387707124e-07 1.9490755268758012e-08 1.0414111538379609e-07 2.3614778840660732e-07 2.4360773016369676e-07 1.8639326559127848e-06 2.5807679517726484e-06 1.4520346700660161e-06 2.4612114791521318e-07 1.1806731513111049e-07 7.0078285934450459e-09 1.2530717777444703e-08 7.7886716934323885e-09 6.8555858224075674e-09 5.3093628801310154e-09 3.8777138116308698e-09 3.1402530112001114e-09 1.9002732612672574e-09 1.9684039625038308e-09 2.2572808526123106e-09 2.6369528193861251e-09 2.2496935697295482e-09 5.8007043103221645e-09 5.2341532521295674e-09 3.6600789124904021e-09 5.6238124181890608e-09 6.1649601942914577e-09 8.63380533511214e-09 9.4788484980906965e-09 5.0037090933106065e-09 4.5064051046746094e-09 5.4056064876537578e-09 8.2408711940132467e-09 1.1760987157138521e-08 3.7129050986263171e-09 3.2975036130457733e-09 2.2284299765358439e-09 2.5334422723021055e-09 2.6358220920493868e-09 2.3478855973667434e-09 3.1084316863057871e-09 5.3411795613328449e-09 5.9821909531045452e-09 4.3600308262965776e-09 4.9357208946368131e-09 2.6997554215514588e-09 2.9373202185898801e-09 4.796143280752205e-09 4.3124932934515346e-09 8.727821243853865e-09 2.6594041015224071e-09 2.2643250376562015e-09 2.0096465754139356e-08 1.8443337468411457e-08 3.228908192617272e-09 3.1747407448655389e-09 3.8006428193390847e-09 6.6078856427059142e-09 8.3344550109322719e-09 7.5667469028123425e-09 3.3857703690849577e-09 2.9483505361316791e-09 4.7970269164835393e-09 3.0559619238072383e-09 5.3548084491340453e-09 5.9267230053690599e-09 9.7110746696412133e-09 2.4816929000645082e-08 2.2388295803109074e-08 1.0705657320424595e-08 5.6359405523126869e-08 3.2870371105552916e-08 3.0135196676106067e-08 1.0015022997937817e-08 1.1084783031926498e-08 2.7112784992106679e-08 2.5791355444375944e-08 1.9958279101856978e-08 8.5833299555928923e-09 5.0955468723448536e-08 2.0975875828038986e-07 3.559917808611476e-08 3.7171948082511782e-08 4.1980272449136683e-08 5.6506152275167526e-08 7.5456958786032114e-08 6.3536577109966604e-08 5.3026550307926928e-08 5.9009212200118903e-08 8.3798365428591876e-08 9.1837013566367546e-08 1.0171482485856415e-07 9.2110626051526142e-08 7.6196903167711858e-08 1.0361212178995576e-07 1.4081815850846372e-07 1.2426003789928218e-07 1.3992080999110092e-08 1.2680856384906621e-08 6.218548680049165e-08 3.3233654164735528e-08 7.9600585479166316e-08 4.2247855923162388e-08 3.6972052157444034e-08 1.7992264585075155e-08 2.7520073385204668e-08 4.6546423632983008e-08 5.7133496268216211e-08 1.0423658486062569e-07 9.2007401928772206e-08 1.2390658449849448e-07 3.6749671932245526e-08 6.7941828556542639e-08 1.6107767262140045e-07 9.0821866853478426e-08 1.9836007985388471e-07 1.2423785161141971e-07 2.5776801236240045e-07 2.6453117456751168e-07 1.9813795335132231e-07 5.2588090511727658e-07 3.8368710209583345e-07 7.9873296549189968e-07 1.372126258742106e-06 7.6574354253567032e-07 1.7996436180540281e-07 2.6306905149648035e-07 1.9718762971529993e-07 1.3931627578857454e-07 3.6919601357011266e-07 3.8044914637820717e-07 6.891599607198749e-07 2.2761420259144902e-06 1.2348453108343481e-06 1.6505105156486725e-06 5.0314297466426413e-06 4.5819521268525705e-06 3.4305502007157352e-06 7.6951082868248754e-06 6.084183192611934e-06 3.9843168522967036e-06 2.2171443259376105e-06 1.3468682441078328e-06 2.1407658006604624e-06 1.7789366724064785e-06 2.9738146464551601e-06 3.302032365032484e-06 2.6999658657992045e-06 4.0408491124944586e-06 2.8839846933918774e-06 1.0058869941682157e-06 1.2199247457901619e-06 1.8171356887712487e-06 1.694998641276103e-06 6.4789655976358526e-07 3.5202776633011294e-07 5.8284007718942511e-07 9.9982819945323135e-08 9.5362832500247207e-08 1.8242428140774309e-07 1.9262961220651131e-07 3.7794974928587162e-07 9.0661297985877123e-07 4.495457746052751e-07 1.0206524569507904e-07 2.2082558942219207e-07 6.093294251127427e-08 3.1980799246393459e-08 2.9154482357157202e-08 1.5503531563524211e-08 1.8089652244504362e-08 5.3392876128971811e-08 4.6890725969952623e-08 1.7461265850026608e-08 2.6301057413176021e-08 1.3489141069974845e-08 2.1217136297002737e-08 1.1187104274991294e-08 9.9264932884474458e-09 7.9510504179448619e-09 6.1598397700433154e-09 6.6804805442347061e-09 9.2517803852167623e-09 1.0319764428314599e-08 1.5543744493770605e-08 8.9117956303883856e-09 5.2469646501076982e-09 4.1229368402613773e-09 8.1491651906104235e-09 6.0725808750071513e-08 6.3932251057344478e-08 8.8403379880185988e-08 7.9405367565942347e-08 3.6570569884212108e-07 3.3106376783038373e-07 3.4721735982333451e-07 1.1635130996985173e-06 8.4464111919426045e-07 8.780679405431392e-07 1.2057348021996454e-06 7.9898922520639004e-07 7.0181991236921861e-07 3.9072405564227685e-07 9.059921766126497e-07 1.633512761174368e-06 1.0318716829089623e-06 7.4541415928360114e-07 4.6613522987143191e-07 1.6429467360897773e-07 2.2453967521859423e-07 6.594880461590682e-08 4.0353304384600996e-08 2.6846048338523523e-08 1.4528979554145914e-07 1.4293771706148223e-06 1.5449726828894719e-06 1.4987671957747565e-06 1.9533704731962767e-06 2.3256801554122977e-06 3.803167227405983e-06 3.1096405105617019e-06 4.6172002086074983e-06 6.4837466429937957e-06 9.3520758871640704e-06 5.0908656852327716e-07 8.6469040840563984e-07 1.0946577426178891e-07 3.1078105504194967e-07 1.885777060573116e-07 8.4390647202161803e-07 5.4523064008850294e-07 1.1262006065814703e-06 2.1254026775832545e-06 1.7645510939918179e-06 1.1747141034505804e-06 1.0399674077346715e-06 1.9329608041706095e-06 2.9100003389212028e-06 2.133295947844847e-06 2.5237161426554595e-06 3.4294935543005646e-06 4.5947365394904345e-06 6.8355150854143012e-06 6.2653983062032614e-06 3.3585604164468e-06 1.9983662963204113e-06 1.08892769081589e-06 1.8107429765387099e-06 3.75860070473268e-06 1.1297397081909466e-05 6.9892163188307505e-06 3.1181103486584582e-05 1.9751012645963532e-05 2.8873395663643619e-05 4.2997045975155922e-05 1.0256227098061454e-05 1.7176663786026568e-05 1.1944615489884903e-05 1.7971006156322456e-05 3.164102437499086e-05 3.5338247469306812e-05 2.2686882533471371e-05 5.6994278451432027e-05 4.8329045526003409e-05 0.00013696147318626454 0.00017205779055545447 9.9593863061896235e-05 0.00015970984480447102 0.000128786193537444 0.00015368090835309159 6.2109641365508877e-05 5.3713516295210698e-05 6.3264021640395065e-05 9.7542431040736167e-05 9.5537725519752678e-05 2.4003152989221054e-05 1.4699512659174999e-05 3.8328536904878524e-05 5.7135951341974146e-05 9.3380133530522851e-05 0.00021142442497719356 0.00033849762280386674 0.00052031584041691275 0.0013205630705104311 0.0019641723289750687 0.0026148324504774684 0.00096710507773186479 0.00071879234801261655 0.0005551026610428109 0.00022752564348214437 0.00025803893728602856 0.00033632736439487759 0.00045430487788763096 0.00043592278139568767 0.00026301651512839743 0.00094597880131258301 0.00080576162681256962 0.0006693569501731709 0.00064235315945659725 0.0015095535718460968 0.0024335196491923803 0.0021529382379382603 0.0032310676544265509 0.0020993658913087392 0.0029727264506380791 0.0014677063643644317 0.0011577592837815184 0.001556398449949793 0.0020929507370089188 0.0029785692534931162 0.0021346437991238204 0.0028982285950523378 0.0030197142932442403 0.0020092285476433071 0.0014057384885306559 0.0010358102263168612 0.0013821929586404057 0.0006414162065525354 0.00059350427689480278 0.0010145198432953743 0.00040513574195558111 0.00026613875959249087 0.00031360292358157391 0.00044167535596496377 0.00024242357972721929 0.00036606287141281111 0.00049731899134866848 0.00071050043609343846 0.00056755847316139647 0.00084030521767696398 0.0010476652420929587 0.0014567930113193323 0.0020550033662926955 0.0027154868100838269 0.0029649679022253437 0.0027606067545248194 0.0021627262449355933 0.0026151571022846516 0.0018727942317847638 0.0013344360265000609 0.00087037613095395576 0.0016336570821847383 0.0011532554736439834 0.0026587494783544565 0.0038143241655227249 0.0026844152779535177 0.0036013515392257596 0.0019163997044156309 0.0017344460510575145 0.0012299996004896271 0.0017881889826639001 0.0011978620383466987 0.00079896736695387184 0.00079143318111524262 0.00053431362572480511 0.00032860611804475908 0.00029639523249622602 0.00051532971395790118 0.00062939265551416399 0.00038574275504815877 0.00025399060279532873 0.00025586837675151288 0.00040937873048771969 0.00016416499638248705 0.00012690067388241745 9.9873971168428578e-05 4.6513410405722522e-05 6.2305453519642827e-05 0.00018339997862839284 0.00020411079278940698 7.6512601269915925e-05 0.00011434227553983593 6.8230265128681043e-05 3.7663664474984382e-05 4.3676226534240293e-05 1.3491264118602533e-05 6.6777094264930805e-06 1.3744476601551139e-05 2.4241970870101063e-05 2.1528615947650372e-05 2.862977369808545e-05 3.6284020802004474e-05 2.2879910894132545e-05 8.3162507412827424e-06 1.2771529485468955e-05 1.5101036886849041e-05 8.7305316947376874e-06 6.5286298289933476e-06 9.5039668831928849e-06 1.4975252690548432e-05 2.303451351612514e-05 4.008054095247768e-05 2.2769487807058461e-05 1.0338836688513584e-05 1.1759424601992008e-05 5.785809943358294e-06 5.7134769067510111e-06 1.0251797514498987e-05 3.2483525240127989e-05 1.9956675505519366e-05 3.4189872216742253e-05 5.7044829903034943e-05 8.69667981346785e-05 5.4697031591243688e-05 8.6054672317581232e-05 0.00019969765455431123 0.00014344055354003387 0.0001691390832257844 0.00013390030822037197 8.143848668263644e-05 5.8167803597351138e-05 0.00010612589216544961 0.52377771638898252 0.51358052028770484 0.53777771356904458 0.56230722733293725 0.5707173631434278 0.54830723159506145 0.57827065497533492 0.59227065528768419 0.57642198985026627 0.57531283846369774 0.58933925216699212 0.57539998135639814 0.56194358185216231 0.56253162425782599 0.55397521529813343 0.59043937070986896 0.57650010543985419 0.58606073029308603 0.56421570579706681 0.53835994124543929 0.53561018138744698 0.54962771734072513 0.54460613412076209 0.51100622301741117 0.52093069522332758 0.5154952602241637 0.52712750002373909 0.5434596470625277 0.52955567953990923 0.53389789490233031 0.52076352805549009 0.50755708438885216 0.50660588828740905 0.47852321297791156 0.49613572906575976 0.49119711624373297 0.46954174267831394 0.50458393915073096 0.48974016512462082 0.49826762102222694 0.48306151695933375 0.46997870410472542 0.46238605777092889 0.47711285364263234 0.4381851772227785 0.45299834196118577 0.43748867624685051 0.44249332279256365 0.42649515595315679 0.42809146268635589 0.45889961797011808 0.4432090790922904 0.45586233247615093 0.42763378138156749 0.42365889329884954 0.42616342922733086 0.43103988764946749 0.4450398831353396 0.4554443450780139 0.49958052742701986 0.48902161863351518 0.47904865611791381 0.46504868394204008 0.51513410630062817 0.52573019073030991 0.52922916545119492 0.54444433545915083 0.53973018874272793 0.56248910565514043 0.56301089241681135 0.54901090112338047 0.57827065608739803 0.59227065660549161 0.57695752324903249 0.57673207203812971 0.55225723220312917 0.56230815023135339 0.56025485039081391 0.58933925868379555 0.57539999924042395 0.58606074155711974 0.57616575533566172 0.55039730682881183 0.543223624479093 0.53006428667597483 0.51296948147596966 0.51709990725914734 0.52789424176684396 0.52069415906433347 0.51733482006369813 0.53017064754124299 0.54113959765746189 0.52952268736476871 0.54158452477358432 0.53903508645775344 0.56349677983657509 0.56456241011244712 0.5901050111808388 0.57514331094057913 0.58503828640830491 0.5527582789018447 0.55647525062611669 0.57035912495762187 0.58532082717878164 0.5757601851648011 0.5630811924989263 0.54849066226579768 0.537942327777027 0.52579353181699984 0.51432443578580578 0.52348907093359687 0.49311281371447957 0.50300981736716088 0.49106301322676971 0.4810838168696987 0.46922697388563805 0.46929914276558149 0.48304500792903959 0.44889907128166773 0.46120237352567084 0.44032085232610896 0.42791902906466883 0.42132140151961056 0.45654681411394249 0.44737421595486693 0.45698505394113614 0.44531003658241097 0.4366141119163251 0.42267101265826679 0.4300097711916514 0.41789595290835985 0.44315717225057916 0.46793502446801505 0.48107776266378122 0.47991178244388133 0.5043205730521928 0.49184818501835104 0.49330332046086317 0.50763300052375848 0.50324859817228806 0.49178633725590076 0.50402313697745682 0.46573949182312324 0.48104713213665173 0.46160923688865257 0.44977165423116228 0.42730467218098789 0.43878011917974702 0.42678236958441551 0.43929420166929611 0.44998687974026075 0.45928186500390428 0.44520141468931929 0.42292522740152966 0.43010992783572682 0.42439738315760644 0.43907607559869655 0.45307584650328303 0.47907302860152323 0.46507312424621572 0.47316140323201661 0.48668053614447226 0.49758722723038451 0.49249925204086786 0.506499245660742 0.34218823757314487 0.35108427000307529 0.3627383454650247 0.37498934438357057 0.36098934646692565 0.38739759673303908 0.41039747599439169 0.40139750795958812 0.3872316149697857 0.37671762387678209 0.39873207527476712 0.38375502483615692 0.41589310841381455 0.41140057044310308 0.41343598114820901 0.40394356398507064 0.39269822432313051 0.37371081333600531 0.36455567051846216 0.37393875760255646 0.3543982273596108 0.33199554517118884 0.34248944661661324 0.3391504665450743 0.35243460289519268 0.33170085202596716 0.34839675900507305 0.33348981404622574 0.36183598620211915 0.3773247247035898 0.39389650266245207 0.40483936021509742 0.39984968515126396 0.41291716781456528 0.39051496363503246 0.37631271353660745 0.39034234486532843 0.3999715435170057 0.41228053538681092 0.40411356657323055 0.41124765649984396 0.39425543025384713 0.38467525206957753 0.36245693805234758 0.3723324375077865 0.36077563501518506 0.34677328172506172 0.33898179703294595 0.3535436812001399 0.32165720980028378 0.31320547489289707 0.33162093102660167 0.30703162677841389 0.31990902604039151 0.29362765577543165 0.29508061848538647 0.30387807581747273 0.27303199945430079 0.28304022540832885 0.27426534466709529 0.25151238899056705 0.24490351129917404 0.26070425323052215 0.25503541191205731 0.28130766793579076 0.26684646942958379 0.27089379979999251 0.25732824386758302 0.24333843224675183 0.24587708618498294 0.27845220576930857 0.2838803765013308 0.29426170541117586 0.32090842358771676 0.30472395387144779 0.31687853697409279 0.30624269261973014 0.31758307274103748 0.32626764256769347 0.32148219123703192 0.30336663078581061 0.295227137