<?xml version="1.0"?>
<VTKFile type="UnstructuredGrid" version="0.1" byte_order="LittleEndian">
<UnstructuredGrid>
<Piece NumberOfPoints="714" NumberOfCells="1306">
<Points>
<DataArray type="Float64" NumberOfComponents="3" format="ascii">
0 0 0 0 0.10000000000041601 0 0.082799035591426873 0.082799035591510806 0 0.099999999999928008 0 0 0.19999999999983389 0 0 0.20669143849501961 0.085546078947938975 0 0.29145143692666958 0.13500804559578439 0 0.29999999999973409 0 0 0.24783073444672249 0.24783073444648379 0 0.21725788110387281 0.17316968768743621 0 0.17318221359491059 0.27409688392309489 0 0.089078158003765312 0.2493007687782936 0 0.140351188660986 0.16130415108589741 0 0 0.20000000000083221 0 0.066361468125430589 0.15903440181097661 0 0 0.30000000000124832 0 0.0632094674441709 0.3449112819864934 0 0 0.40000000000166441 0 0.083393126324559225 0.42307471369029392 0 0.13897501191807771 0.34545639364066222 0 0.070553891733833127 0.57745844360881338 0 0 0.60000000000138687 0 0 0.50000000000205869 0 0.12353277228144981 0.51086097771927308 0 0.16324260003398389 0.62262730759772122 0 0.1946526892501724 0.54636184660733622 0 0.27220668248394869 0.50912429725145214 0 0.27661118526457179 0.58730386222759956 0 0.16486701364709541 0.41592657376307979 0 0.21928696632013719 0.4676461135047027 0 0.29987747321592639 0.43430880093746571 0 0.2371857680100064 0.35865548441110112 0 0.34318159319555042 0.3314386771104964 0 0.38593969585746768 0.44843324941957241 0 0.42544665781957403 0.3726599289372452 0 0.38240158409674341 0.60644575028138747 0 0.34793494568226019 0.52426775179830853 0 0.45232393232070839 0.53082724112931345 0 0.46433624429412901 0.61260020600107856 0 0.55763912874459476 0.49619993861770217 0 0.56379254693201075 0.58472273515948836 0 0.49272830291620878 0.32528628960011152 0 0.47711113382803011 0.43513410852522788 0 0.56509579243166053 0.39588847936247551 0 0.58612580217118482 0.27813894450229909 0 0.49255105193724569 0.22337579986912359 0 0.5565830077206213 0.19095699352548859 0 0.59999999999951659 0 0 0.57505385014294308 0.072457888465917331 0 0.49999999999959438 0 0 0.50264032148191051 0.12292784096123539 0 0.43504744109702559 0.077628892606360606 0 0.39999999999966429 0 0 0.35933948296838258 0.073809900849860513 0 0.33604819894646598 0.23280286076243209 0 0.41589935411558732 0.26752529264016389 0 0.40428440976105728 0.1643886070295453 0 0 1 0 0.099999999999999645 1 0 0.14716362552681639 0.93861610753355362 0 0.19999999999999929 1 0 0.30000000000000071 1 0 0.29792158491427922 0.79537096033156995 0 0.2235202862591317 0.88873896332704583 0 0.1332109546178302 0.87498377138822103 0 0.075231054453351903 0.92314074346405706 0 0 0.89999999999958358 0 0 0.79999999999999982 0 0.074918724681641777 0.83311952320732263 0 0.1533088418661793 0.80370257472597129 0 0.089684836063650353 0.74720097194875412 0 0 0.7000000000006934 0 0.079752623936563252 0.65630726580969023 0 0.16551550920047911 0.70947866912672319 0 0.22047232289835689 0.77501739045979867 0 0.25446499951716589 0.69023946426646743 0 0.32437633398017029 0.65970549827478953 0 0.33985912385126898 0.73174041004507751 0 0.42824324229177341 0.6924957961634054 0 0.5174764925733939 0.65338828204098198 0 0.59670004617370476 0.65981579440137683 0 0.62152629835360762 0.73285157302339954 0 0.52912171753951986 0.73993242892488531 0 0.51076728641122882 0.81691863363193817 0 0.62017612851329729 0.81451802170669263 0 0.56701461556202259 0.86335846433862784 0 0.45907587517201498 0.90165918271477563 0 0.43819239467549531 0.79296936871720936 0 0.36912581253574028 0.83088590731704637 0 0.37337282601342481 0.92616598444216514 0 0.31535921456193688 0.88154045330654418 0 0.39999999999999952 1 0 0.49999999999999911 1 0 0.59999999999999964 1 0 0.5499999999999996 0.93976792513729512 0 0.70000000000000018 1 0 0.79999999999999982 1 0 0.89999999999999947 1 0 0.8793859710393791 0.93083561064221121 0 0.93540888248908083 0.88281232945237675 0 0.91372311269140116 0.80486176357476358 0 0.82192606283926717 0.87651855948129354 0 0.73937541854631073 0.9288754054780668 0 0.64588148000090029 0.91512139508160772 0 0.76404828705430583 0.78174230667165401 0 0.71722872346306721 0.85096302760907838 0 0.69085763855200755 0.76120667115691065 0 0.6754414170471299 0.67700559910555169 0 0.74547688787239819 0.70026419381674654 0 0.81910554849723838 0.69100245438023977 0 0.84477163403336131 0.77519844632340484 0 0.90192269692920224 0.70295054578552552 0 0.9749171938312049 0.68304286407835557 0 0.98491966670915287 0.745702719141624 0 1.0785590511537511 0.75365885686631617 0 1.05 0.67063679245255348 0 1.1595355377629719 0.69612720023346242 0 1.2316049928421089 0.71268197388690568 0 1.130022579458912 0.80264790230838934 0 1.2104878010462079 0.79638517641579154 0 1.246238897717278 0.90016207822659 0 1.1492841477515361 0.89495863909300122 0 1.035017143854235 0.92577305964649748 0 1.039491394416145 0.83402983011495258 0 0.99999999999999911 1 0 0.94997493298435887 0.94717135651053852 0 1.1000000000000001 1 0 1.1999999999999991 1 0 0.8520969719592798 0.19112077159544111 0 0.81051762114363357 0.25355176211442859 0 0.91043121937362004 0.26518856856736223 0 0.87151744524583186 0.1145610820769897 0 0.89999999999870417 0 0 0.8072276847200428 0.07509171132446453 0 0.79999999999899607 0 0 0.75434135135171976 0.12888799631625769 0 0.73796379772146625 0.059893436010741673 0 0.69999999999928797 0 0 0.66267222434682926 0.078497159578092612 0 0.64669101990832323 0.1799054750174742 0 0.75284581776561577 0.20455093921856349 0 0.7545004114404561 0.31098089234202853 0 0.68811979868824935 0.26566684131589419 0 0.65823561246403328 0.35502292901158627 0 0.64897033023755402 0.45530630145656431 0 0.71094001953927277 0.41472992215547572 0 0.65500944633069913 0.60601350811213128 0 0.66278242936710119 0.53985356489900171 0 0.74775703275407246 0.49059679564787018 0 0.74991769371388628 0.60451627361984739 0 0.85383906663538056 0.62014574817393608 0 0.82099888937423493 0.54529350322201742 0 0.89730215834238125 0.56352362508531118 0 0.79315209058920677 0.38802315963964318 0 0.83603391221093415 0.31708941802047369 0 0.84897848255088726 0.46000674997733482 0 0.9184189969982266 0.43608586792060411 0 0.89716106756302072 0.36571612550017968 0 0.97284972811175952 0.32057650487681749 0 0.97803218086495292 0.39957666910545891 0 1.049999999998295 0.45311778235774403 0 1.0499999999982661 0.33749999999944968 0 0.95554667482020261 0.61387123313571723 0 0.95438428234324713 0.50021891445525024 0 1.0610070115193291 0.56187728740506249 0 1.160572984923127 0.60155304747043781 0 1.1544259370261769 0.49580194535795907 0 1.11366617971111 0.39530889117858181 0 1.1787318575418491 0.43180077319900678 0 1.2482752740169289 0.44264463249545388 0 1.193211192060164 0.36417169501775798 0 1.2189485028845071 0.28846717556219142 0 1.225209211892335 0.20648826945283069 0 1.14543293599463 0.16096823716187 0 1.1317936052402791 0.27327200211975772 0 1.0273907165533489 0.25089655084417212 0 1.0673059847957449 0.1861726764986896 0 0.96758455917765662 0.17206502793490561 0 0.99999999999841238 0 0 0.95940036225003311 0.0802667348803804 0 1.0527907183502181 0.1005001786211816 0 1.1494214575391031 0.075340014825429069 0 1.09999999999812 0 0 1.199999999997829 0 0 1.2999999999975369 0 0 1.254652873386052 0.105753482544517 0 1.3681535985071449 0.13698083382674339 0 1.399999999997245 0 0 1.349999999997392 0.060567969661089648 0 1.291408388555241 0.26372433042992383 0 1.316869459340541 0.18778020585802921 0 1.3878996413210389 0.26723502210068018 0 1.473286192129879 0.27883707652097373 0 1.4156792278190771 0.19574754335211339 0 1.4905184776249101 0.20629734327603311 0 1.545236949037224 0.29434567071731399 0 1.456639397274391 0.1016053838939758 0 1.53341268746562 0.14194251306413061 0 1.542152768646126 0.073248247890105089 0 1.4999999999969531 0 0 1.599999999996661 0 0 1.6999999999963691 0 0 1.6799832100487111 0.082202015566833181 0 1.609545399082946 0.1308291592921435 0 1.567491488875842 0.20218805454405439 0 1.6351951680630969 0.23707571199064051 0 1.714493154391862 0.28897291620938281 0 1.7304700827703301 0.17386188770806579 0 1.799219293849516 0.26438879273789773 0 1.8480644103363271 0.19193194889233381 0 1.8299024103288899 0.1151394713368583 0 1.799999999996077 0 0 1.75369588639865 0.074917217572982864 0 1.7537858687071439 0.50406839622489796 0 1.742806034420483 0.6006074591026016 0 1.8544400981153091 0.62488101477716596 0 1.8316048184152021 0.54157006606434721 0 1.850967139686138 0.45738417241574703 0 1.8620515405159661 0.32644761881501039 0 1.787749129254824 0.36176402170097799 0 1.7808296409871709 0.43587276890434401 0 1.71976181471802 0.39635806210359681 0 1.645895854313963 0.45222881216869149 0 1.6419306970571019 0.3436055112169133 0 1.645263810758179 0.55814977621663464 0 1.5386621965636409 0.60828218080060537 0 1.550364457075788 0.50467902559054656 0 1.4795754400412069 0.53983964974648579 0 1.445918816848357 0.6075709531782556 0 1.551956040519719 0.40384519109247291 0 1.4491802319415681 0.4666714614197911 0 1.4507225717793131 0.3561247496431208 0 1.347125314110625 0.32447518420453242 0 1.385017785528226 0.40713366384701549 0 1.3198129865007471 0.39133224900025881 0 1.2615469736996101 0.34090999671933891 0 1.3860523322451299 0.56073196187600105 0 1.3462106466432811 0.48060664220838062 0 1.2709684905841181 0.55537862536316829 0 1.2546738886072291 0.63615646469940468 0 1.3545060270195819 0.65002758689694418 0 1.4000454837723419 0.73943313674757749 0 1.3035852436207409 0.73866974635260263 0 1.2914654457895349 0.81843301378315825 0 1.3255948392482531 0.88328132587465524 0 1.3864786876100039 0.92208751032957958 0 1.386174597084219 0.82350876346868962 0 1.482119963281066 0.782586299849238 0 1.463012078585596 0.89209645917012148 0 1.546104640467868 0.9195568013001878 0 1.535346256113697 0.70153336654872078 0 1.4534042830965781 0.68426123045930609 0 1.2999999999999989 1 0 1.399999999999999 1 0 1.5 1 0 1.599999999999999 1 0 1.6999999999999991 1 0 1.7999999999999989 1 0 1.6597641702579149 0.778
[...]
<CellData Scalars="A_conc,As-lin_conc,Bs-lang_conc,Cs-freund_conc," Vectors="" Tensors="">
<DataArray type="Float64" Name="A_conc" format="ascii">
3.8035041287292749e-06 4.3232892111454615e-06 1.2334545219952063e-06 1.8260206332222858e-06 1.8692899811586931e-06 1.9089079491787654e-06 4.2630912024417835e-06 4.4033147967039332e-06 1.8928190253894964e-06 1.9326527149014992e-06 3.2102900153993933e-06 4.0007197167996419e-06 2.708080361554002e-08 3.7237910156138694e-07 3.7907884448895921e-07 4.3567386564542293e-07 2.7508790984337217e-07 1.9132736139063582e-08 1.2068082217193907e-07 4.2568220867038597e-07 4.5171167325924014e-07 4.4102345495833154e-07 1.1488583132599687e-07 2.6785713260774602e-07 3.8548739946950988e-09 5.2566751998327114e-08 1.4598551814275107e-09 3.41501686110832e-09 1.172571835164706e-09 4.0288077945385905e-09 1.177692768189923e-07 2.2780913060388697e-08 9.5235049623957729e-09 9.3890501611130934e-10 7.0468735109688322e-09 9.6434882895291946e-09 2.4977400649880901e-08 1.080617013375112e-08 1.6060900750154148e-08 2.8035250483877082e-09 2.4718254634434592e-09 5.650619420304857e-09 1.4642699993866776e-09 1.3055836962040519e-09 5.0786837084243891e-09 3.8431289739227935e-09 1.843678277078887e-08 7.8527238229051355e-10 1.3544194416380558e-09 9.0338669980993613e-10 9.5617652720178732e-10 1.9740452931226151e-08 1.4388463077882646e-09 1.1934197945115643e-09 1.6648942934597767e-09 1.9057405879333587e-09 2.0651469018708244e-09 1.699251696564744e-09 7.3613743326566976e-09 2.9528207984208968e-08 1.6368827000034548e-09 2.288796758095474e-09 1.9799494296703753e-09 8.2695148127745685e-09 9.9032410731900243e-09 1.0801503003209995e-08 2.7217724442539779e-08 2.5958610475159345e-09 4.1319717213376362e-09 4.0706147051780647e-09 4.6774760459810121e-09 3.1403025380549177e-08 2.1682607165329833e-09 2.3095190006273282e-09 2.3006102967061851e-09 2.6402183751831251e-09 2.7024151641355133e-09 3.2335394139579584e-09 3.4846557488865699e-09 1.5126928495347569e-07 5.6655488962732248e-09 6.6583649758832495e-09 2.3102328403290531e-07 2.644994745081598e-06 4.0656881432718016e-06 2.4432569075348404e-06 2.4018174008210951e-06 2.2579714736952807e-07 1.294743211030968e-06 1.3715839650515461e-06 3.8388537419101323e-06 3.7678848695514955e-06 5.0020290299615068e-06 3.2852282381268674e-06 1.3353312979771074e-06 4.4397073740661716e-07 7.9762123934044492e-08 2.8165750476177536e-08 2.9002567360926846e-09 1.4612496744593985e-07 8.2138972543038536e-08 4.5160106618535391e-06 5.3073706989753733e-06 5.2116168263732189e-06 5.6972474644400832e-06 4.854281421474887e-06 4.9520175968808593e-06 4.2754575889336817e-06 1.0035160443923306e-06 1.2236836436016935e-06 9.7525601492099153e-07 9.4298857503522627e-07 3.9004029133509527e-06 3.8159108484972792e-06 2.4179726728140503e-06 2.3556487885405433e-06 1.7014035446548556e-06 5.2330814200195646e-07 9.1482792970485158e-07 5.4453019545260092e-07 1.7950910159690853e-07 3.8193073175910736e-07 3.3990099541503199e-07 1.6993677997028409e-07 8.2034778569886144e-08 5.2029202171497239e-08 3.3603351485784184e-08 5.6952764009448637e-08 1.6370336005730165e-07 3.9698519946355631e-07 1.7478048302417306e-07 1.8449014383286184e-07 6.8448543458132953e-08 3.8183584123768024e-08 4.1809609153489655e-08 7.4365388323401662e-08 1.2627506704483731e-07 1.1573906982223332e-07 4.5686623794835395e-08 8.6015665136562354e-08 5.2375022195012168e-08 9.3463134539382154e-08 2.9330858813841863e-08 2.0493240378798695e-07 1.054888360085648e-07 6.3350288490167995e-07 1.8372355658744881e-07 1.9618208524683778e-07 4.9223427001718973e-07 1.2795242662600886e-06 5.2597473550454583e-07 1.2277440205440301e-06 7.9063139092637647e-07 1.6124367780413896e-06 6.0762186581988821e-07 2.8811987688324127e-07 2.7641432242503651e-07 1.014506440592972e-06 4.3953374538846305e-06 1.5786978740516037e-06 6.2336254816746324e-06 4.7189414857834973e-06 4.8187313534226532e-06 3.5159637631548595e-06 5.0981688232500558e-06 3.0101744744419555e-06 1.8320350013805133e-06 3.0910567583719504e-06 2.1128834336125726e-06 1.4728188263344239e-06 8.2145712263146294e-07 6.5432075916135453e-07 7.2219319478170524e-07 3.9982661979055651e-07 4.9778276220093831e-07 3.8026206422406564e-07 1.0784025795045299e-06 1.0413252057069724e-06 7.7728257623930635e-07 7.409776995841788e-07 5.4719269066892837e-07 2.8541887601375017e-07 3.0334375115148731e-07 3.5872579939287134e-07 1.8770873013658319e-07 1.3688239628010922e-07 1.7893836113543921e-07 1.3048198893492974e-07 2.1996556231875493e-07 4.7289276886902645e-08 1.0417849662214291e-07 4.45050289846709e-08 5.0916905794155636e-08 5.3783380941663324e-08 4.2800606882028094e-08 5.3683558218529131e-08 1.9332036430221586e-07 1.965873566586191e-07 2.3767564921102692e-07 2.2816397168089782e-07 5.6723662610359769e-08 6.0779106865932693e-08 4.1541817403504454e-08 1.4637986219160398e-07 1.394391057267446e-07 1.5241070832022883e-07 3.495175492891442e-07 3.822845564011103e-08 4.2366951009345651e-08 6.7575744176173397e-08 2.6349192303470021e-07 2.2190078228987609e-07 1.6116534803354221e-07 2.392689602968511e-07 2.3027070763420923e-07 7.1208882301613485e-07 6.7752638714395058e-07 7.7678420162703699e-07 1.1341029035296483e-06 7.4030215126322364e-07 7.50631179921638e-07 3.8857487039150707e-07 3.2854838958880282e-07 5.3148902641747164e-07 7.4983946976038161e-07 7.1093543458833939e-07 8.9221767704414849e-07 9.4115608107931237e-07 9.7852776047940428e-07 1.0291474755399043e-06 1.0808204373134321e-06 1.2098422016237723e-06 2.1120749264215679e-08 1.7206310637843545e-08 8.1866616987410779e-09 7.2040919198422769e-09 1.9662007968178521e-08 2.2306881357550793e-08 3.0857467150444959e-08 4.0223025945828032e-08 1.6511877239992134e-07 1.5867855666517279e-07 8.2319609730133223e-07 8.0730403055209744e-07 2.6224290125693386e-08 1.1610854580457864e-07 2.5347048502686287e-07 2.6152339395934417e-07 1.9520672664318855e-06 2.7006189196839615e-06 1.5228660565760794e-06 2.6221513450755491e-07 1.2861465881065341e-07 1.0118386233143429e-08 1.7702287617526334e-08 1.0767969059076926e-08 9.6376633157386764e-09 7.8827862285037124e-09 5.6024402111517339e-09 4.6575644377280754e-09 2.7114512183635529e-09 2.6701834346858129e-09 3.0306436156386561e-09 3.7307350398122049e-09 3.2430407195724852e-09 7.0363602648826178e-09 6.3852546422514359e-09 4.5713071410636729e-09 6.8266858572871804e-09 7.4522825468639956e-09 1.0282995851817114e-08 1.1244072534684874e-08 6.1461882649422747e-09 5.5585228554802846e-09 6.6207812226905336e-09 9.8624165061334513e-09 1.3843410154344751e-08 5.1088097138938725e-09 4.6276227681062514e-09 3.0921441105391546e-09 3.3708828580093028e-09 3.5904839460791571e-09 3.182612299424298e-09 4.1838189045406208e-09 7.16897184921325e-09 7.9218944857852908e-09 5.7742704462256157e-09 6.4601757012948381e-09 3.6175688831944135e-09 3.9156106802808828e-09 6.271231296850555e-09 5.6449167349489865e-09 1.0439039399387447e-08 3.6858939873350302e-09 3.0932388856632974e-09 2.3617645512937367e-08 2.1623372700992053e-08 4.7363564851516544e-09 6.4885035614610977e-09 6.0865412358123846e-09 1.1745740139140833e-08 1.0794880972038845e-08 9.7225925556580399e-09 4.948585532909755e-09 4.1109702486044752e-09 6.7066510077948932e-09 5.1059133473322491e-09 7.968817342703318e-09 9.6154221375458679e-09 1.3711329706417625e-08 3.2370534304743869e-08 2.8342025902418918e-08 1.4046697827550008e-08 6.9381042421406592e-08 4.0555035698850637e-08 3.7183551747811954e-08 1.2823676743623531e-08 1.4072837861052111e-08 3.36551027260633e-08 3.2406347527274708e-08 2.553426824225069e-08 1.1166519056939995e-08 6.3523451629850908e-08 2.28646974013615e-07 4.5061434058613232e-08 4.6455401704835869e-08 5.1855909972481841e-08 6.9710691573991081e-08 9.1663162341078671e-08 7.7634037314309913e-08 6.4956334299951105e-08 7.1999092832382703e-08 1.0211335681181679e-07 1.1359428398460386e-07 1.3056257102561574e-07 1.2001877517680435e-07 9.9512983783033775e-08 1.4725956149729678e-07 2.2115563598783163e-07 1.7249873131604434e-07 2.3095665216387841e-08 1.893768922215291e-08 7.8140317288672821e-08 4.483615494433834e-08 1.1799024709970786e-07 7.1438389474817238e-08 5.4287005488681809e-08 3.4689700840954743e-08 8.5140190089251234e-08 1.0026958602677521e-07 1.4995873761446891e-07 2.0997001417321188e-07 3.4721863115559859e-07 3.9605437681500578e-07 1.4589245730288713e-07 2.2764739252561594e-07 2.9440135385544454e-07 1.5595294134602192e-07 4.7532685260975946e-07 2.9761128640381908e-07 7.3544138657195855e-07 7.1942302816906655e-07 4.4461478715465886e-07 1.8414552332726027e-06 1.2365838705211373e-06 2.8943706257478495e-06 5.1726861122098686e-06 2.9599816114632778e-06 6.5263378274755279e-07 1.0331925751591911e-06 9.2729080020660222e-07 5.7751542729336905e-07 1.7150845486908254e-06 1.5532451942904377e-06 3.0392651647106603e-06 9.2808317824051643e-06 5.2735740498220082e-06 7.0456221371073979e-06 1.9543229006454671e-05 1.7841158590147956e-05 1.3188874692590947e-05 2.7418940083178478e-05 2.1972058937022193e-05 1.475467061478842e-05 8.3538483373714839e-06 5.2841634894081252e-06 8.305322199071618e-06 7.486687398160667e-06 1.1989514942054102e-05 1.3154171330268481e-05 1.105256387245106e-05 1.5926511554189298e-05 1.1749958070982648e-05 4.4781623749562907e-06 5.3408287339080825e-06 7.6450923416467011e-06 7.2360532265854112e-06 2.9850250294897941e-06 1.6971772039665898e-06 2.7058782289926405e-06 4.899765208533799e-07 4.9427741987656413e-07 9.1609445074923208e-07 9.599670002404598e-07 1.7972066499915196e-06 4.0252877688333118e-06 2.1005810707339617e-06 5.2110271957442767e-07 1.0766019503091824e-06 3.1703483495855377e-07 1.6632806644683622e-07 1.5243208697748734e-07 7.7443091327538985e-08 9.1088939048625825e-08 2.5315975840029437e-07 2.4787185899110888e-07 7.7192748793079841e-08 1.256333001797455e-07 3.9308364325456734e-08 5.3192916982393555e-08 2.7546784875640627e-08 3.7213879262781724e-08 2.3568604403054239e-08 1.4539283895834555e-08 1.2281053064239226e-08 1.8620075036213151e-08 2.7603294394788607e-08 5.3024333056961248e-08 4.0287179801045698e-08 1.9650828875132167e-08 1.0613381442023342e-08 1.7621535238560045e-08 7.3955810700473672e-08 8.0927467005735942e-08 1.3828352504740708e-07 1.0854817792322258e-07 4.2027296121841728e-07 3.6920855920884277e-07 3.9099046945489162e-07 1.2701833466152196e-06 9.2515878099375306e-07 9.7598930087741474e-07 1.3213116081991346e-06 8.7993960235293122e-07 8.3433723062013246e-07 4.6736189644578975e-07 1.0204001369502033e-06 1.9651954371020557e-06 1.373372670568739e-06 9.4556760989617422e-07 7.7358403650879194e-07 3.2525990727253711e-07 5.0828064982928577e-07 2.8353415663559588e-07 1.5447287312441625e-07 8.5769639262776481e-08 2.4550807994209837e-07 1.5745249326924303e-06 1.7677515350998718e-06 1.6800515534689682e-06 2.4873245529648646e-06 3.7429939585249549e-06 8.0440125871296549e-06 5.5070537589299163e-06 1.0990973386628966e-05 1.758823438990529e-05 2.7333799049032572e-05 2.1970631489552705e-06 3.8604702273996643e-06 4.9759790210397872e-07 1.3272670449861825e-06 7.6855517313797855e-07 1.7458620403512134e-06 1.0916999097523258e-06 1.6929604365779801e-06 3.032907850915234e-06 3.5669770988349208e-06 3.8714902291688316e-06 2.5416960370337166e-06 6.6938793630330108e-06 1.0625224214614639e-05 4.9920158713678786e-06 7.0017209302696984e-06 1.0362885472258972e-05 1.6671158168892507e-05 2.4362902673976908e-05 2.362953661355232e-05 1.3289176578052113e-05 8.1673450244403974e-06 4.5768394983321672e-06 7.6588881775929165e-06 1.503327776686611e-05 4.0979389613552496e-05 2.651204677384004e-05 0.00010285668243780323 6.8069011270569129e-05 9.562120666238699e-05 0.00013682055539178387 3.707988891887891e-05 5.9327019421287762e-05 4.1028981351672194e-05 5.8761359027550557e-05 9.9821455783323862e-05 0.00011252373632191889 7.525812546601364e-05 0.00017304788286600029 0.0001473871700290849 0.00038005053967062605 0.00047010360038530466 0.00028724548430234008 0.00044169429098698751 0.00036913359797203176 0.00043157421974363583 0.00019122787198347894 0.00016832989928669551 0.00019190585920604656 0.0002833456589922025 0.0002815251674146933 7.1644075923440529e-05 4.5079662466302883e-05 0.00011593340702522902 0.0001687055068154556 0.00026880247632712521 0.00056089365817456999 0.00085857276960749095 0.0012619595824098218 0.0029010549969761628 0.0041246710108479795 0.0052898418075247337 0.0022124512282026116 0.0017054409351680265 0.0013579059621970763 0.00061277305692168844 0.00067974032833622384 0.00086689486644806282 0.0011260994863317405 0.0010884249175246955 0.00068795991660676329 0.0021609452956217897 0.0018660363255808368 0.0015901697510266905 0.0015373155607052648 0.0032767680788108097 0.0050008667572235274 0.0044882226968063054 0.0064231411941762778 0.0043980443729038842 0.0059726212327471124 0.0032040195018225959 0.0026106157264590936 0.0033869093207988341 0.004389241253359941 0.005987618657205835 0.0044922699849788868 0.0058723850209433928 0.0060559944703479449 0.0042260680536235235 0.0030795870606408009 0.0023692497703734958 0.0030535058038739207 0.0015454939994033641 0.0014303771350561527 0.0023090406959859781 0.0010192169197485745 0.00070016204931298202 0.00081880897500703233 0.0011097836694598574 0.00064886466362430435 0.0009373405704191564 0.0012276190863134747 0.0016849223310972305 0.0013888187882103394 0.0019675302638433993 0.0023794387000691465 0.0031832348103192731 0.0043017870581212392 0.0054928795569429631 0.0059757084461617826 0.0056092967303978305 0.0045318631421700003 0.0053254244588700345 0.0039805413687330881 0.0029526240338803747 0.00202357501340442 0.0035439976745030499 0.0026070313656620667 0.0053694823798979986 0.0073787525596844946 0.0054361437538348895 0.0070513517901341881 0.0040401899027354467 0.0037040378046976265 0.0027351431087502126 0.0037875446004260885 0.0026544534231168738 0.0018514959394303988 0.0018467086126694524 0.0013020006826053668 0.00084221432538482389 0.00076134100689870352 0.0012514153032632013 0.0015192822001194918 0.00097870175229112654 0.0006738796522402289 0.00068107923316408636 0.0010376740595897014 0.00045777174548555029 0.00036015732588466078 0.0002924631642255319 0.00014658040252482448 0.00019126201117722363 0.00049425403979138803 0.00055211729988641016 0.00022801239556425684 0.00032276831843355358 0.00020214742391940651 0.00011815281292345826 0.00013713847469425247 4.6158209524690005e-05 2.4537731735205413e-05 4.6977963927163852e-05 7.9152712969681913e-05 7.3156430200342528e-05 9.4568984582338409e-05 0.00011727178561458988 7.6314520448640756e-05 3.0762854678533724e-05 4.4812311226449117e-05 5.3176865634924608e-05 3.2294483030293951e-05 2.4621837210835459e-05 3.4741607402199153e-05 5.2426796050113627e-05 7.7552777422377849e-05 0.00012812791927519751 7.6638318776635087e-05 3.7231429126264975e-05 4.1938914510918846e-05 2.1936767909709058e-05 2.1806269347967837e-05 3.7017995052718975e-05 0.00010587561959595055 6.8006176989125896e-05 0.00011043082003006528 0.00017542408010906831 0.00025639861729956674 0.00016960870299451475 0.00025727658064622193 0.00054677290245195469 0.00040246399083454406 0.00046805475712585938 0.00038028615804001865 0.00024304164953403647 0.00017897141823774944 0.00030791302913078442 0.54877771638898876 0.53858052028770953 0.56277771356905371 0.58730722733295782 0.59571736314345169 0.57330723159507879 0.6032706549753577 0.61727065528770386 0.60142198985028861 0.60031283846371464 0.61433925216700991 0.60039998135642003 0.58694358185218631 0.58753162425783412 0.57897521529814366 0.61543937070989063 0.60150010543986898 0.61106073029310937 0.58921570579708415 0.56335994124545241 0.56061018138746554 0.57462771734073748 0.56960613412078054 0.53600622301742984 0.54593069522334259 0.54049526022417649 0.55212750002375466 0.5684596470625376 0.55455567953992024 0.55889789490234376 0.54576352805550099 0.53255708438885985 0.53160588828742616 0.50352321297789815 0.5211357290657791 0.51619711624373399 0.49454174267827955 0.52958393915073798 0.51474016512462928 0.523267621022248 0.50806151695933799 0.49497870410469186 0.48738605777084965 0.50211285364262859 0.4631851772217408 0.47799834196099444 0.46248867624506712 0.46749332279135902 0.45149515594866108 0.45309146268380551 0.48389961797000397 0.46820907909113785 0.48086233247589305 0.45263378137294913 0.44865889328575159 0.45116342921613178 0.45603988764804648 0.4700398831350906 0.48044434507792011 0.52458052742702665 0.51402161863352169 0.5040486561179176 0.4900486839420275 0.5401341063006474 0.5507301907303267 0.55422916545121059 0.56944433545917239 0.5647301887427445 0.58748910565515222 0.58801089241683013 0.57401090112339737 0.60327065608742192 0.61727065660551372 0.60195752324905494 0.6017320720381476 0.5772572322031464 0.58730815023137617 0.58525485039082392 0.61433925868381967 0.60039999924043586 0.61106074155713463 0.60116575533567262 0.57539730682882162 0.56822362447909947 0.55506428667597829 0.53796948147597878 0.54209990725915613 0.5528942417668623 0.54569415906435936 0.54233482006370182 0.55517064754127365 0.56613959765747623 0.55452268736477917 0.56658452477361321 0.56403508645776546 0.58849677983659854 0.58956241011245858 0.6151050111808527 0.60014331094060103 0.6100382864083318 0.57775827890186959 0.58147525062613026 0.59535912495763688 0.61032082717879577 0.60076018516482044 0.58808119249894175 0.5734906622658138 0.56294232777704245 0.55079353181700785 0.53932443578581357 0.54848907093360899 0.51811281371447782 0.52800981736716512 0.51606301322676806 0.50608381686968995 0.49422697388560033 0.49429914276554865 0.50804500792903906 0.47389907128137476 0.48620237352559936 0.46532085232545733 0.45291902906223835 0.44632140151476069 0.48154681411377087 0.47237421595447815 0.48198505394106045 0.47031003658198234 0.46161411191543267 0.44767101265275022 0.45500977118772978 0.44289595289552558 0.46815717224959663 0.49293502446799498 0.50607776266379334 0.50491178244387691 0.52932057305219149 0.51684818501836127 0.51830332046087735 0.53263300052378648 0.52824859817229064 0.5167863372559075 0.52902313697746595 0.49073949182299847 0.50604713213664865 0.4866092368883157 0.4747716542301138 0.45230467217316228 0.46378011917696016 0.45178236957742646 0.46429420166740143 0.4749868797395338 0.48428186500370762 0.47020141468851728 0.44792522738957546 0.45510992783013193 0.4493973831496485 0.46407607559754804 0.47807584650311108 0.50407302860154346 0.49007312424618626 0.4981614032319952 0.51168053614448183 0.52258722723039885 0.51749925204089597 0.53149924566076523 0.36718822770666087 0.37608426454529575 0.38773834329671603 0.39998934361189492 0.38598934371566751 0.4123975964472929 0.43539747595867934 0.42639750788871672 0.41223161470639075 0.40171762327788574 0.42373207517959699 0.40875502449547485 0.44089310839592755 0.43640057041390079 0.43843598112344562 0.42894356393299232 0.4176982241881339 0.39871081206542375 0.38955566836212663 0.3989387568896996 0.37939822227174558 0.35699552002544022 0.36748943432452758 0.36415045078116937 0.3774345973839287 0.35670081821968547 0.37339675069454398 0.35848979241519185 0.38683598342936043 0.40232472387259555 0.41889650254650679 0.42983936016870766 0.42484968510418608 0.4379171678024068 0.41551496354501904 0.40131271313699712 0.41534234475977611 0.42497154348220073 0.43728053537656647 0.4291135665364299 0.43624765647785646 0.41925543017184114 0.40967525190906573 0.3874569369948932 0.39733243701474003 0.38577563336574261 0.3717732758622585 0.36398178799325109 0.37854367918005344 0.34665717869202017 0.33820542251477076 0.35662091662689122 0.33203150474941834 0.34490899179874152 0.31862734525113356 0.32008045233175247 0.32887797889579573 0.29803125811775649 0.30803977142074462 0.29926459964053392 0.27650961793313317 0.26989806119812593 0.28570247452391961 0.28003217858616525 0.30630691708754987 0.29184446399817765 0.29589245044958662 0.28232497337960227 0.268331820600688 0.27087093173407184 0.3034510922802689 0.30887964570524279 0.31926130621361187 0.34590836948575293 0.32972373876737504 0.34187843175158639 0.33124250237325575 0.34258300298731359 0.35126760144215907 0.34648214059136806 0.32836648389701073 0.32022686469176825 0.32301850752778