<?xml version="1.0"?>
<VTKFile type="UnstructuredGrid" version="0.1" byte_order="LittleEndian">
<UnstructuredGrid>
<Piece NumberOfPoints="714" NumberOfCells="1306">
<Points>
<DataArray type="Float64" NumberOfComponents="3" format="ascii">
0 0 0 0 0.10000000000041601 0 0.082799035591426873 0.082799035591510806 0 0.099999999999928008 0 0 0.19999999999983389 0 0 0.20669143849501961 0.085546078947938975 0 0.29145143692666958 0.13500804559578439 0 0.29999999999973409 0 0 0.24783073444672249 0.24783073444648379 0 0.21725788110387281 0.17316968768743621 0 0.17318221359491059 0.27409688392309489 0 0.089078158003765312 0.2493007687782936 0 0.140351188660986 0.16130415108589741 0 0 0.20000000000083221 0 0.066361468125430589 0.15903440181097661 0 0 0.30000000000124832 0 0.0632094674441709 0.3449112819864934 0 0 0.40000000000166441 0 0.083393126324559225 0.42307471369029392 0 0.13897501191807771 0.34545639364066222 0 0.070553891733833127 0.57745844360881338 0 0 0.60000000000138687 0 0 0.50000000000205869 0 0.12353277228144981 0.51086097771927308 0 0.16324260003398389 0.62262730759772122 0 0.1946526892501724 0.54636184660733622 0 0.27220668248394869 0.50912429725145214 0 0.27661118526457179 0.58730386222759956 0 0.16486701364709541 0.41592657376307979 0 0.21928696632013719 0.4676461135047027 0 0.29987747321592639 0.43430880093746571 0 0.2371857680100064 0.35865548441110112 0 0.34318159319555042 0.3314386771104964 0 0.38593969585746768 0.44843324941957241 0 0.42544665781957403 0.3726599289372452 0 0.38240158409674341 0.60644575028138747 0 0.34793494568226019 0.52426775179830853 0 0.45232393232070839 0.53082724112931345 0 0.46433624429412901 0.61260020600107856 0 0.55763912874459476 0.49619993861770217 0 0.56379254693201075 0.58472273515948836 0 0.49272830291620878 0.32528628960011152 0 0.47711113382803011 0.43513410852522788 0 0.56509579243166053 0.39588847936247551 0 0.58612580217118482 0.27813894450229909 0 0.49255105193724569 0.22337579986912359 0 0.5565830077206213 0.19095699352548859 0 0.59999999999951659 0 0 0.57505385014294308 0.072457888465917331 0 0.49999999999959438 0 0 0.50264032148191051 0.12292784096123539 0 0.43504744109702559 0.077628892606360606 0 0.39999999999966429 0 0 0.35933948296838258 0.073809900849860513 0 0.33604819894646598 0.23280286076243209 0 0.41589935411558732 0.26752529264016389 0 0.40428440976105728 0.1643886070295453 0 0 1 0 0.099999999999999645 1 0 0.14716362552681639 0.93861610753355362 0 0.19999999999999929 1 0 0.30000000000000071 1 0 0.29792158491427922 0.79537096033156995 0 0.2235202862591317 0.88873896332704583 0 0.1332109546178302 0.87498377138822103 0 0.075231054453351903 0.92314074346405706 0 0 0.89999999999958358 0 0 0.79999999999999982 0 0.074918724681641777 0.83311952320732263 0 0.1533088418661793 0.80370257472597129 0 0.089684836063650353 0.74720097194875412 0 0 0.7000000000006934 0 0.079752623936563252 0.65630726580969023 0 0.16551550920047911 0.70947866912672319 0 0.22047232289835689 0.77501739045979867 0 0.25446499951716589 0.69023946426646743 0 0.32437633398017029 0.65970549827478953 0 0.33985912385126898 0.73174041004507751 0 0.42824324229177341 0.6924957961634054 0 0.5174764925733939 0.65338828204098198 0 0.59670004617370476 0.65981579440137683 0 0.62152629835360762 0.73285157302339954 0 0.52912171753951986 0.73993242892488531 0 0.51076728641122882 0.81691863363193817 0 0.62017612851329729 0.81451802170669263 0 0.56701461556202259 0.86335846433862784 0 0.45907587517201498 0.90165918271477563 0 0.43819239467549531 0.79296936871720936 0 0.36912581253574028 0.83088590731704637 0 0.37337282601342481 0.92616598444216514 0 0.31535921456193688 0.88154045330654418 0 0.39999999999999952 1 0 0.49999999999999911 1 0 0.59999999999999964 1 0 0.5499999999999996 0.93976792513729512 0 0.70000000000000018 1 0 0.79999999999999982 1 0 0.89999999999999947 1 0 0.8793859710393791 0.93083561064221121 0 0.93540888248908083 0.88281232945237675 0 0.91372311269140116 0.80486176357476358 0 0.82192606283926717 0.87651855948129354 0 0.73937541854631073 0.9288754054780668 0 0.64588148000090029 0.91512139508160772 0 0.76404828705430583 0.78174230667165401 0 0.71722872346306721 0.85096302760907838 0 0.69085763855200755 0.76120667115691065 0 0.6754414170471299 0.67700559910555169 0 0.74547688787239819 0.70026419381674654 0 0.81910554849723838 0.69100245438023977 0 0.84477163403336131 0.77519844632340484 0 0.90192269692920224 0.70295054578552552 0 0.9749171938312049 0.68304286407835557 0 0.98491966670915287 0.745702719141624 0 1.0785590511537511 0.75365885686631617 0 1.05 0.67063679245255348 0 1.1595355377629719 0.69612720023346242 0 1.2316049928421089 0.71268197388690568 0 1.130022579458912 0.80264790230838934 0 1.2104878010462079 0.79638517641579154 0 1.246238897717278 0.90016207822659 0 1.1492841477515361 0.89495863909300122 0 1.035017143854235 0.92577305964649748 0 1.039491394416145 0.83402983011495258 0 0.99999999999999911 1 0 0.94997493298435887 0.94717135651053852 0 1.1000000000000001 1 0 1.1999999999999991 1 0 0.8520969719592798 0.19112077159544111 0 0.81051762114363357 0.25355176211442859 0 0.91043121937362004 0.26518856856736223 0 0.87151744524583186 0.1145610820769897 0 0.89999999999870417 0 0 0.8072276847200428 0.07509171132446453 0 0.79999999999899607 0 0 0.75434135135171976 0.12888799631625769 0 0.73796379772146625 0.059893436010741673 0 0.69999999999928797 0 0 0.66267222434682926 0.078497159578092612 0 0.64669101990832323 0.1799054750174742 0 0.75284581776561577 0.20455093921856349 0 0.7545004114404561 0.31098089234202853 0 0.68811979868824935 0.26566684131589419 0 0.65823561246403328 0.35502292901158627 0 0.64897033023755402 0.45530630145656431 0 0.71094001953927277 0.41472992215547572 0 0.65500944633069913 0.60601350811213128 0 0.66278242936710119 0.53985356489900171 0 0.74775703275407246 0.49059679564787018 0 0.74991769371388628 0.60451627361984739 0 0.85383906663538056 0.62014574817393608 0 0.82099888937423493 0.54529350322201742 0 0.89730215834238125 0.56352362508531118 0 0.79315209058920677 0.38802315963964318 0 0.83603391221093415 0.31708941802047369 0 0.84897848255088726 0.46000674997733482 0 0.9184189969982266 0.43608586792060411 0 0.89716106756302072 0.36571612550017968 0 0.97284972811175952 0.32057650487681749 0 0.97803218086495292 0.39957666910545891 0 1.049999999998295 0.45311778235774403 0 1.0499999999982661 0.33749999999944968 0 0.95554667482020261 0.61387123313571723 0 0.95438428234324713 0.50021891445525024 0 1.0610070115193291 0.56187728740506249 0 1.160572984923127 0.60155304747043781 0 1.1544259370261769 0.49580194535795907 0 1.11366617971111 0.39530889117858181 0 1.1787318575418491 0.43180077319900678 0 1.2482752740169289 0.44264463249545388 0 1.193211192060164 0.36417169501775798 0 1.2189485028845071 0.28846717556219142 0 1.225209211892335 0.20648826945283069 0 1.14543293599463 0.16096823716187 0 1.1317936052402791 0.27327200211975772 0 1.0273907165533489 0.25089655084417212 0 1.0673059847957449 0.1861726764986896 0 0.96758455917765662 0.17206502793490561 0 0.99999999999841238 0 0 0.95940036225003311 0.0802667348803804 0 1.0527907183502181 0.1005001786211816 0 1.1494214575391031 0.075340014825429069 0 1.09999999999812 0 0 1.199999999997829 0 0 1.2999999999975369 0 0 1.254652873386052 0.105753482544517 0 1.3681535985071449 0.13698083382674339 0 1.399999999997245 0 0 1.349999999997392 0.060567969661089648 0 1.291408388555241 0.26372433042992383 0 1.316869459340541 0.18778020585802921 0 1.3878996413210389 0.26723502210068018 0 1.473286192129879 0.27883707652097373 0 1.4156792278190771 0.19574754335211339 0 1.4905184776249101 0.20629734327603311 0 1.545236949037224 0.29434567071731399 0 1.456639397274391 0.1016053838939758 0 1.53341268746562 0.14194251306413061 0 1.542152768646126 0.073248247890105089 0 1.4999999999969531 0 0 1.599999999996661 0 0 1.6999999999963691 0 0 1.6799832100487111 0.082202015566833181 0 1.609545399082946 0.1308291592921435 0 1.567491488875842 0.20218805454405439 0 1.6351951680630969 0.23707571199064051 0 1.714493154391862 0.28897291620938281 0 1.7304700827703301 0.17386188770806579 0 1.799219293849516 0.26438879273789773 0 1.8480644103363271 0.19193194889233381 0 1.8299024103288899 0.1151394713368583 0 1.799999999996077 0 0 1.75369588639865 0.074917217572982864 0 1.7537858687071439 0.50406839622489796 0 1.742806034420483 0.6006074591026016 0 1.8544400981153091 0.62488101477716596 0 1.8316048184152021 0.54157006606434721 0 1.850967139686138 0.45738417241574703 0 1.8620515405159661 0.32644761881501039 0 1.787749129254824 0.36176402170097799 0 1.7808296409871709 0.43587276890434401 0 1.71976181471802 0.39635806210359681 0 1.645895854313963 0.45222881216869149 0 1.6419306970571019 0.3436055112169133 0 1.645263810758179 0.55814977621663464 0 1.5386621965636409 0.60828218080060537 0 1.550364457075788 0.50467902559054656 0 1.4795754400412069 0.53983964974648579 0 1.445918816848357 0.6075709531782556 0 1.551956040519719 0.40384519109247291 0 1.4491802319415681 0.4666714614197911 0 1.4507225717793131 0.3561247496431208 0 1.347125314110625 0.32447518420453242 0 1.385017785528226 0.40713366384701549 0 1.3198129865007471 0.39133224900025881 0 1.2615469736996101 0.34090999671933891 0 1.3860523322451299 0.56073196187600105 0 1.3462106466432811 0.48060664220838062 0 1.2709684905841181 0.55537862536316829 0 1.2546738886072291 0.63615646469940468 0 1.3545060270195819 0.65002758689694418 0 1.4000454837723419 0.73943313674757749 0 1.3035852436207409 0.73866974635260263 0 1.2914654457895349 0.81843301378315825 0 1.3255948392482531 0.88328132587465524 0 1.3864786876100039 0.92208751032957958 0 1.386174597084219 0.82350876346868962 0 1.482119963281066 0.782586299849238 0 1.463012078585596 0.89209645917012148 0 1.546104640467868 0.9195568013001878 0 1.535346256113697 0.70153336654872078 0 1.4534042830965781 0.68426123045930609 0 1.2999999999999989 1 0 1.399999999999999 1 0 1.5 1 0 1.599999999999999 1 0 1.6999999999999991 1 0 1.7999999999999989 1 0 1.6597641702579149 0.778
[...]
<CellData Scalars="A_conc,As-lin_conc,Bs-lang_conc,Cs-freund_conc," Vectors="" Tensors="">
<DataArray type="Float64" Name="A_conc" format="ascii">
4.1946742765415806e-07 5.5563956068482038e-07 7.7723633896101401e-08 1.4085893608868012e-07 1.6903409976709735e-07 1.9711334195730443e-07 5.9846262940659078e-07 7.1336187061983201e-07 2.3498561109465114e-07 2.6804350469178575e-07 5.1336559574168614e-07 6.6974130306606913e-07 1.6078668933289205e-09 3.2883759200261648e-08 3.7847663535314788e-08 3.6650086476300677e-08 2.0809888538155415e-08 6.5705382369950178e-10 6.6824998357588892e-09 3.028612737343497e-08 2.7794016185792788e-08 2.2293636204889717e-08 4.1718958839101261e-09 9.889262459554062e-09 3.5872576607826107e-11 1.5122055228494494e-09 5.5639116596783064e-12 3.4099085036708905e-11 9.9515832639093152e-25 5.1128962701180549e-11 5.3283189292636232e-09 9.9840873109520957e-11 1.5489109056747003e-11 1.2368407978673634e-25 2.0689408601172823e-13 4.977208267440978e-13 1.428248849434636e-10 8.1233249686487235e-13 1.7042391964490408e-12 2.0535788269430463e-22 4.0172399708931059e-23 5.5152929485064728e-21 2.0585756454023053e-21 5.2082847347677953e-22 1.2013610394140884e-21 5.5793775895834739e-11 4.5618838696409683e-10 1.594530844786451e-23 5.3460158884352594e-24 6.4744865450365686e-23 1.8576224711521356e-22 8.644808315097174e-10 4.0720361911027462e-21 9.4766400364629826e-22 2.1239707480532322e-20 6.8031890778456077e-20 9.1841990256985841e-21 2.2926780920078316e-21 2.8091140271243518e-20 1.9291214837071176e-19 7.7415807454182052e-21 1.6884024393244263e-19 3.6778758931596213e-20 1.3792776061148696e-19 7.1850113807965268e-19 2.7660330284843959e-18 2.7630193997305118e-17 6.7190903275000316e-19 4.2643136371698598e-18 4.9826412352870205e-17 1.7985426241321866e-17 3.1431099713386396e-16 2.0723982582071825e-19 1.8678577487272493e-18 4.3014847832356382e-18 6.6001454607078199e-18 1.3196879353698024e-19 4.8183002447554222e-19 1.4922774694498944e-20 2.1292382951153608e-08 7.2044310358109974e-22 2.6184329728297454e-21 3.8285096850667644e-08 5.8612439091072342e-07 9.1488903641520375e-07 5.0987406240469383e-07 4.7047466525745639e-07 3.4739430176091429e-08 2.2725710924815469e-07 2.2354614997873505e-07 8.0702030122127499e-07 7.389841445654556e-07 9.9915505262170832e-07 5.8164057725144108e-07 1.908874318927153e-07 5.1786092937059243e-08 7.2561074025783775e-09 2.0870794294707003e-09 4.0095115852577997e-21 1.7935613536354363e-08 8.6620451308433693e-09 4.9982003338553033e-07 6.7941488226265623e-07 7.2144703326693632e-07 8.8579256293932097e-07 7.3114307829717131e-07 8.044321944906328e-07 6.8714394180637886e-07 1.0086113774090632e-07 1.4050170900260036e-07 8.7869323440627728e-08 7.3795796683569295e-08 5.1274558548802815e-07 4.5516929008901399e-07 2.4313479159673291e-07 2.0775791099233032e-07 1.2309387669758897e-07 2.2857553139885167e-08 6.2201804001768572e-08 2.900610636976582e-08 7.3262485927036048e-09 2.1379170886259225e-08 1.0991855979805011e-08 5.6564725339211859e-09 1.9236848344712648e-09 4.875206980671312e-10 6.1162236926959977e-12 6.7748427784047757e-10 4.1468842825189044e-09 2.5563583540836783e-08 5.3335934278240747e-09 6.4727614675262304e-09 4.3793296594998615e-11 9.8796754094952038e-12 1.2180166640708306e-18 5.8655462059800633e-11 1.9315636650556443e-10 1.4813242941686825e-10 5.1210701638312588e-18 1.1161126368628151e-16 2.0569228226293547e-17 4.3511060299158269e-16 9.7157540705857919e-17 1.0021624713636686e-14 1.518776895426345e-15 5.149754099563533e-08 4.6458538476040741e-10 5.5090016271485249e-10 2.1651118401809912e-08 1.8084763076674459e-07 2.5679445948264479e-08 1.5914802252101496e-07 7.3829452501455142e-08 2.3297947640461252e-07 4.4752931632968013e-08 1.4584528322733701e-08 1.2682489087848754e-08 1.1838952060119136e-07 7.7686179622380372e-07 2.1449691641062522e-07 1.2199272147036101e-06 8.8951963974143261e-07 9.6544278245754886e-07 6.6869058988699237e-07 1.0839475090508167e-06 5.6834678955177974e-07 2.9839024580509063e-07 6.1816027038976554e-07 3.7685544680942373e-07 1.8370200852942629e-07 6.0872507717247002e-11 1.7843265673656128e-11 5.0404775885140472e-11 5.9768374986716085e-12 1.6535680180887568e-11 2.5498448747382441e-12 9.6888552123749017e-08 9.0329399952728768e-08 5.484254544914294e-08 4.9459365643625542e-08 2.8185113062541475e-08 1.1934733989312499e-13 3.3629509930280987e-13 9.7000134430595289e-13 3.3092557403216057e-13 4.1679212350727838e-14 1.3668343897577169e-13 1.6559138183970256e-14 3.2436325937105424e-14 4.0192367532414515e-15 4.5652977456123334e-15 1.3892657582787017e-15 1.3036410997929945e-14 3.3763439708039403e-14 5.9155781551680653e-14 1.9979051036878805e-13 1.7793536124534068e-12 7.6745751106287054e-13 9.7112062056567938e-12 4.8045355796412707e-12 4.7479085931912212e-13 1.2589149693515451e-12 1.5348131431118417e-12 1.1877026902842987e-11 5.6342110352265045e-12 2.2151344512472129e-11 7.6817806168230752e-11 1.1337458899556385e-11 2.4825729966071368e-11 7.5164064831831121e-11 6.6957836107791406e-10 3.6878889886507324e-10 4.7309401063709101e-11 2.370779546889769e-10 1.4180075914258505e-10 1.1549677899386433e-09 5.8643284338060046e-10 3.4727117174420253e-09 4.1961442729327591e-09 1.95128669693328e-09 3.5102421820312034e-10 1.725883513096005e-10 3.161411292606388e-11 4.3374662047758072e-11 9.6668400923484567e-11 1.5868707588482062e-10 1.3544216015676335e-10 3.0524385632474648e-10 5.665172585662795e-10 1.1615522619609321e-09 2.262557027969336e-09 7.5025679956963702e-09 2.6916820220162746e-22 6.6010080448948942e-22 1.6077188567624598e-22 3.1918091056196765e-23 3.4796104001583578e-21 1.7536206536496347e-20 1.0936674647381791e-20 7.8031207769365539e-20 2.9590532443927406e-08 2.7542518938321598e-08 2.0206759726800694e-07 1.8974226325517789e-07 1.7645420594123113e-21 1.8117553331352847e-08 4.780876013866119e-08 5.2257273139266226e-08 4.7928334519659841e-07 6.3860409444027496e-07 3.5337275294986362e-07 4.7621992748540802e-08 2.1001183660724794e-08 4.011471341771839e-24 4.1231838642675036e-23 8.3318881871364774e-23 1.8574364506224587e-23 9.8177050562625244e-21 1.1604482491202773e-18 3.0300260236540978e-19 1.4733945192632354e-17 7.9039081263167929e-17 2.3179142592822275e-16 2.2321698829891633e-17 7.5348980975858096e-18 3.0269382693900363e-16 8.801567777786961e-17 1.7663242099942684e-16 9.2902793618303696e-16 2.7226103504035558e-15 8.0048501166131597e-15 2.3403801824385401e-14 1.5326581738679036e-14 5.5755686613123185e-15 3.3779889559866604e-14 1.3450222390041439e-13 6.4804296777828485e-14 2.1107432795339915e-19 6.0223082556905187e-20 2.2900425484918062e-18 5.9207088132511821e-16 7.578434665137004e-18 2.5895737698232369e-17 1.4884000756495768e-17 3.1947024551909113e-22 1.3410725422253226e-21 1.0154811814171586e-21 4.6134613041294673e-21 7.3168113603633424e-17 1.5005624147311496e-16 4.4050267150760957e-20 1.118820407136278e-20 2.533677476493625e-13 2.3950117750421468e-15 8.4856843006215513e-16 3.2214054647316371e-12 1.3937807168214936e-12 1.057730254922895e-14 1.2016999096957136e-18 2.6557232369192049e-14 1.5934454834587102e-13 9.6083734497221646e-19 2.6556131325796501e-19 1.6362813854163973e-19 3.8471928344261456e-20 5.6705018351168451e-19 3.8758608529234535e-19 1.9639398850103564e-18 5.8401084621746688e-18 1.2630116540526517e-17 1.0415532856103128e-16 2.8219843177654515e-17 4.3959229696818908e-18 2.9235403479186094e-16 3.7645736068797069e-17 1.098367231672805e-17 5.0037801160250038e-20 1.9343253846830495e-19 2.7275291863580551e-18 5.8013801087555868e-19 9.3759305943563285e-20 9.1974205478480166e-21 2.5659113859987949e-18 4.5363533021609645e-08 3.6370115009929004e-19 1.3585320477155583e-18 6.0944654103942598e-18 1.0021171006483813e-17 1.9890545850220098e-16 4.3098969967542639e-17 2.7960586504870846e-17 1.1188955685284421e-16 7.7360545498685313e-16 2.6427167333143244e-15 9.3109852092310747e-15 8.2274754674657671e-15 4.1621357334945972e-15 2.8877403298212311e-14 1.2420385091840142e-13 3.9145276329045856e-14 1.3523695857124142e-16 4.8709036808907503e-17 1.0602163254419258e-15 4.2853116135479388e-16 1.6496359749956789e-14 4.6923687869664571e-15 1.4071919571041261e-15 5.1778954552719196e-16 5.0150235215490792e-15 1.4521607280057753e-14 3.8747619646200767e-14 1.2960721719354436e-13 1.8560047970356387e-13 4.0521196232979312e-13 1.3225853049584212e-14 8.5850729809970125e-14 3.3383648722485199e-13 5.1037923525488917e-14 1.1065815176375725e-12 3.1154751841062427e-13 2.6539371755659869e-12 2.5915867920989502e-12 9.5922649830020578e-13 1.2922748574928798e-11 6.7176959252193006e-12 2.9365030224235343e-11 6.6332944571384545e-11 2.0147746424776186e-11 9.7448018648936887e-13 2.0608431256457244e-12 2.9901492400240319e-13 4.3190825044865907e-13 7.4141504952295231e-13 3.8821410008387268e-12 2.861467576181227e-12 1.5122558276646441e-11 6.1607102140099314e-12 1.914698263797479e-12 1.0704512684267839e-11 2.0486988542727952e-11 8.1933858024023263e-11 5.5641132392242267e-10 4.2921587773351679e-10 2.638350179996624e-10 1.2846771932272271e-10 4.4787892062791732e-11 8.178912407528156e-11 9.2255685832516294e-14 2.8935229964573157e-13 7.7353084061373789e-14 5.0621954289506075e-13 8.7245498417569303e-13 3.9175597954498689e-12 7.030067462990663e-13 9.3262427744253393e-14 1.0025666480185815e-13 2.6604291844660618e-13 3.7467574989849372e-14 8.0013739106744537e-14 3.2987783853568088e-13 5.7661479975497844e-14 5.9123412222568332e-15 3.0345120973481197e-14 4.2940059563214387e-15 1.2207015063833826e-14 3.4243860064211107e-14 2.7747180653015824e-14 2.1197852855954193e-15 9.1110729635842205e-15 8.4684638966083991e-16 2.622763474372235e-16 4.6722798014715773e-16 1.2864165576509963e-16 8.3141694385096874e-17 2.031588579812911e-14 1.8839448813060467e-15 1.3251647799218171e-15 3.1949718447186618e-15 4.7394290050170157e-16 1.7403410993291073e-15 1.9203564148959703e-16 3.3482442049610208e-16 1.2340065360811151e-16 3.733844598195152e-17 1.7326752513997149e-17 6.1406660725855478e-17 7.5896464943442383e-13 1.7795120674551394e-12 3.6916873625725725e-17 8.7835242533634414e-18 5.0873080149918823e-18 3.7033818764206471e-13 1.2623191491127086e-10 1.8664414863882195e-10 5.9793886089170824e-10 3.6496008377282169e-10 3.847436859208282e-09 1.5188037257952803e-09 2.4363357321405835e-09 1.2617517140869855e-08 6.3723348985446294e-09 1.403936978544825e-08 1.837717281196911e-08 8.4659824664709326e-09 1.64957746588618e-08 6.021670502568295e-09 1.8552749045847187e-08 7.9200866688353023e-08 4.3924868937551046e-08 2.3030907670182758e-08 1.2504762609039667e-08 1.960604478800709e-09 3.2555530467517165e-09 2.1838155459548836e-11 1.2296113298211514e-11 6.5805898144733337e-12 1.4321642149598714e-09 3.0911628948408054e-08 5.7211726493224084e-08 4.5820323418775991e-08 1.173885478086473e-07 1.8047264529912599e-07 3.1820213923867298e-07 2.6458292184644162e-07 3.5557002521704508e-07 4.1323677518977505e-07 4.6442429800502386e-07 3.6971166198248326e-10 1.0322048146549161e-13 3.5117775359605539e-11 2.6528264585623299e-10 1.7830357892154443e-10 3.2242529440871429e-08 1.6939808162478942e-08 5.7230948711486839e-08 1.5187450614347641e-07 1.1516765879993071e-07 1.9787076647006158e-08 3.9913117309835926e-08 2.8169408523479964e-08 1.9502718816930391e-08 1.339816013627976e-07 1.2664973660968252e-07 1.433396972703461e-07 2.3233126208883557e-08 2.6511426132586542e-08 1.0651123129685467e-09 7.3132185332661549e-10 1.0471237752783423e-09 7.587965532879948e-10 3.0143578821493882e-13 9.5047039986135649e-13 4.2534733144110961e-12 2.2273016114927837e-12 5.2304885610892263e-12 8.7104084545031355e-12 3.5490618698699391e-11 5.6859471486375469e-11 1.3202376112380078e-09 1.7081056441088785e-09 3.5840068697789663e-08 1.0514709302725564e-07 1.2242801958456775e-07 6.4870117296014333e-09 5.5255881303255137e-09 1.2997618413325285e-08 1.2032720461842975e-07 2.2752279894046198e-07 2.7557092734344825e-08 1.5847699819115907e-08 5.3655900718254011e-10 2.6138494944536613e-11 6.4155711917184248e-11 2.3925766643141463e-11 1.0572232172972707e-11 1.98106546174692e-10 3.1658454909664335e-10 3.872346791941648e-11 7.8941128296558841e-07 4.8052729712845447e-07 5.7134113604316551e-07 6.1614947731018932e-07 2.0919025012331946e-07 3.2934726368965951e-07 1.3324114432790992e-07 1.5178870741217733e-07 7.937612837773295e-08 7.4504614838946238e-08 1.1227008284503029e-07 1.1777637379839263e-09 3.279280129186264e-10 2.6479251960160126e-10 9.5117347263127307e-11 8.5450324540740917e-10 1.6834442229363773e-10 5.5082877379351459e-09 1.4327396049971507e-09 3.1907925966768158e-08 9.5462734056123504e-09 5.7964467005806803e-08 7.4385624463274669e-09 1.3325211751301681e-09 1.3186521779281833e-08 3.4599803819924471e-08 4.6003327370915761e-09 6.0324914989374189e-09 6.9699558717745427e-10 9.0240616078713519e-10 1.6103309890642875e-09 1.1517320874584955e-11 1.557781663578369e-11 2.5514297526752268e-11 1.0478901133308466e-11 2.0222833567896616e-13 3.8898069862971077e-13 9.0547393745110287e-14 3.8950559329439062e-14 4.1083317619463368e-13 2.0301029189873635e-12 7.0768829494722934e-14 1.2190090620179861e-12 2.3381395837110662e-13 2.620127149467776e-13 3.3789105800383281e-13 2.0174623411888751e-13 4.8524549054283909e-11 6.6852175085040231e-11 2.748235387483646e-12 4.3312729187595815e-12 1.8430142334900044e-12 2.7181077799179615e-12 1.2268186605486108e-11 1.817984888104152e-11 7.5295038572732715e-12 1.0493748496573343e-11 1.5405214620290037e-12 2.3540084231379089e-12 1.0958767664185008e-11 2.7207733054031112e-10 6.2299833833055851e-11 8.0204099677063693e-09 1.6884942041004364e-09 1.3514313585516055e-09 7.8155241177190508e-10 4.8481317132184807e-11 3.5164513555956567e-11 8.4426297682077658e-08 9.9694156197284299e-08 4.1324714701334138e-08 9.5850570222039358e-09 3.5044445356845272e-08 1.6180493812182271e-08 1.280170565058985e-08 5.7904799063463944e-08 4.6824803541446499e-08 3.7158278828872611e-08 1.1366410543184591e-08 8.7261848752747237e-09 6.0996214316632588e-09 1.7625299751871549e-08 2.8303682699799726e-08 6.1547929103771459e-10 2.6261252180943282e-09 1.8936791727512129e-09 3.5453066131716421e-10 2.2556597822260689e-10 2.3761496229203811e-10 2.0112862192165836e-09 4.2037474842976649e-10 4.6140241392122642e-11 2.6742364292300107e-10 1.2413715651923381e-08 2.990085116446347e-09 1.5054382699269675e-09 8.5886031350280244e-09 5.5750810152867771e-09 2.718168590124633e-09 8.9096238676010931e-10 1.006628905838517e-09 1.7392732137352492e-10 1.0263035777695917e-09 1.8031316351489464e-09 6.612483539830417e-11 2.7155615198336509e-11 1.5469355000597832e-10 3.8198881762048325e-10 4.3081797809725775e-11 2.0768867314096909e-10 4.4669218467465233e-11 2.0613307074029169e-11 1.6233028444793295e-12 6.2981988604826823e-12 1.0839846361653555e-11 1.833183752173053e-12 3.5607338353029002e-12 9.9187388615523345e-13 6.2364508468275598e-13 4.3341596212894222e-13 1.6933780117802503e-13 7.1361245291398486e-13 3.661319059167153e-13 2.4279214865239306e-12 8.878496656220972e-13 5.7604513708826578e-13 1.1067229084491709e-12 3.6869012258361627e-12 4.6236549111196476e-12 1.670019591751292e-11 3.0929643314467642e-11 6.5518827624111412e-12 7.684580037702138e-13 4.4515592125635235e-11 2.65551238287254e-11 5.4904533206907358e-12 4.3524135945644573e-13 0.098825803713001162 0.088692779151898035 0.11278663044711447 0.13730759579501164 0.14571752079607328 0.12331070220194579 0.15327069223627396 0.16727065528764115 0.1514221291270251 0.15031290980944273 0.16433925226926965 0.15040004722501457 0.13694427959411826 0.13753220902893054 0.12897641908273566 0.16543937071778006 0.15150015499079589 0.16106074586355137 0.13921606410553816 0.11337408535746105 0.11063269416763563 0.12463214438315273 0.11961826146104881 0.086190305354213181 0.096017788348795777 0.090624151018230945 0.10216875827276675 0.11846366266868624 0.10458770054804298 0.10892906843043651 0.095827442951204961 0.082774287423397624 0.081818345026677314 0.055283539383012878 0.07158856293039477 0.067036728975783402 0.047179721637007829 0.079875963614578924 0.065617134387668891 0.073757519769592578 0.059419621933071529 0.047787537741732174 0.04146234043472638 0.05398600520384271 0.024020748628097478 0.034059835811388481 0.023775499790875759 0.027008572559537709 0.017578606514988798 0.018202604443993839 0.038294899748149633 0.027144590130410592 0.036414757663793693 0.018213118153916862 0.016487369770801685 0.017236836901904917 0.019271432064489256 0.027765140665446469 0.035415102617159751 0.074966056835947051 0.064773020159449884 0.055425790959896755 0.043201915225371777 0.09026643589893818 0.10078415216597678 0.10426756068474727 0.11944924379107491 0.11474159127970611 0.13749002214617109 0.13801195714468098 0.1240176964253181 0.15327069334831545 0.1672706566054003 0.1519575373438676 0.15173212131559879 0.12725965087147567 0.13730887211457382 0.13525617809560031 0.164339258785965 0.15040006510840054 0.16106075712752721 0.15116580895621426 0.12540074448380503 0.11823796214630099 0.10511631188681923 0.088217878123959731 0.092225352632167051 0.10292899708227188 0.095751095123814231 0.092455182547153944 0.10519444048759831 0.11615399031305905 0.10456370035587612 0.11659163214205587 0.11404671169684666 0.13849737757167568 0.13956271053347585 0.16510501119944937 0.15014344753353948 0.16003833267731449 0.12776030472372168 0.13147917926607677 0.14535976731161698 0.16032086197465595 0.15076028493928523 0.13808180446563861 0.1234966280054369 0.11297734825326616 0.10088770201487396 0.089541806051524758 0.098566001079597496 0.068878496488676555 0.07847345859320802 0.066996207358919591 0.057684021796551882 0.047167188351125072 0.047189854137402974 0.059406310138584301 0.031017675814619963 0.040354291199653045 0.025159386845833347 0.018026976497435745 0.014914274060243905 0.036888222045336691 0.030047495856842861 0.037027504597202651 0.028628739910007545 0.022930462663169646 0.015603714937122339 0.019432037746025838 0.013616668389108997 0.027243795179615803 0.045972818038104289 0.057540971845019773 0.056518521508120367 0.07966386625032526 0.06763198277062088 0.06898611582623905 0.082828588911591269 0.078638500362318495 0.067653282993358613 0.079451397310439556 0.044332853094895021 0.057573919238413873 0.041121170375369109 0.032126854903998747 0.018210075732908497 0.024741550549194885 0.017887632645192143 0.024920098159810649 0.03215857113682094 0.038930051110777207 0.028631318755684872 0.016115212460339826 0.019646169454217721 0.016668453619661374 0.024717781482418554 0.034177262895879162 0.055736256300749978 0.043636437502696239 0.050463140577815896 0.062714641564267259 0.073113603134739802 0.068208352892996732 0.081740198454716639 0.00052275714183488205 0.00087402786850988303 0.0015769761908880594 0.0027655605258020493 0.0014729024927760273 0.0046811563015838982 0.010882323071769973 0.0078785177473595213 0.0046354886492153257 0.0029435981049444251 0.007222694450043244 0.0040322851155177013 0.012854439804954017 0.011179890965792753 0.011978715838908659 0.0086121181834366654 0.0056490679860005952 0.002729844313661918 0.0017303679746337791 0.0025999450528322119 0.0010956577846998905 0.00031730756549941381 0.00058431754467068854 0.00047248455830129822 0.00094879752977503388 0.0003353071188949281 0.00079080365479661241 0.00033678931416438509 0.0015323929629307326 0.003125534061846476 0.0058991901275931985 0.0088844355664932512 0.0072399487512435886 0.011383592634560773 0.0049421402248671833 0.0027494966070999447 0.0049834968190579348 0.0071707271499170631 0.011066085539066566 0.008464686593348994 0.010991196915199231 0.0057857720188623611 0.0038456803483780644 0.0013497654759053821 0.0022200956948597492 0.0013291137843970582 0.0006571336179857064 0.00038761595206759827 0.00082157645885680278 0.00012515810568939723 6.6933298706758416e-05 0.00023645261800949358 5.8961648620455848e-05 0.00011151225142962121 2.3853086784375859e-05 1.6206198608548692e-05 3.3235736813821276e-05 2.7390029591672464e-06 7.752164420543659e-06 3.558513417083214e-06 4.419024307064343e-07 5.1320332607510092e-07 1.195290080283813e-06 1.2929109777126455e-06 1.0501151997795486e-05 4.0361364913719098e-06 4.51344127