<?xml version="1.0"?>
<VTKFile type="UnstructuredGrid" version="0.1" byte_order="LittleEndian">
<UnstructuredGrid>
<Piece NumberOfPoints="69" NumberOfCells="124">
<Points>
<DataArray type="Float64" NumberOfComponents="3" format="ascii">
0 1 0 1 1 0 1 0 0 0 0 0 0.25 -0 0 0 0.25 0 0.5 0.5 -0 0.75 1 0 0.6875 0.875 0 0.625 0.75 0 0.5625 0.625 0 0.1249999999997599 0.31249999999987998 0 0.24999999999960859 0.37499999999980432 0 0.37499999999973488 0.43749999999986738 0 0.43750000000006939 0.37500000000013878 0 0.37500000000027761 0.25000000000055511 0 0.31250000000020822 0.12500000000041631 0 1 0.83333333333356463 0 1 0.66666666666736052 0 1 0.50000000000138767 0 1 0.33333333333448978 0 1 0.16666666666736049 0 0.875 1 0 0.56250000000086742 1 0 0.37500000000069389 1 0 0.1875000000005205 1 0 0 0.81250000000104083 0 0 0.62500000000069389 0 0 0.43750000000034689 0 0 0.12500000000034689 0 0.1249999999997554 0 0 0.43749999999913258 0 0 0.62499999999895905 0 0 0.81249999999947953 0 0 0.27987960212930818 0.83442741470570525 0 0.26452443700674649 0.51563531581639865 0 0.4139414069912184 0.60563252640100373 0 0.44927105396715372 0.85565124085155886 0 0.27589467050686478 0.66058853156435704 0 0.13900789599611679 0.72618316107059999 0 0.14929124186975251 0.44582793568106382 0 0.50145856933078625 0.73674663046504862 0 0.13928587515912139 0.57339806105677438 0 0.38136204680495073 0.74038592213831234 0 0.12710107136012311 0.87094806618203435 0 0.56777512057187585 0.8470224641095303 0 0.56986707178436635 0.37762093650871992 0 0.71259747807844409 0.63846691315701831 0 0.86087286690217635 0.25206523597959418 0 0.85787927391517405 0.753532520882502 0 0.54475767668582953 0.1431838882066932 0 0.71508993406183785 0.15715956854777599 0 0.86127466977819722 0.57948076978797636 0 0.75338430262320943 0.49294443423175599 0 0.80552984491000901 0.88711122872127413 0 0.86569408477091048 0.40983673916766611 0 0.71826039492840632 0.34564020717216182 0 0.63236534182377013 0.50296756406332266 0 0.61108462585082757 0.25750599582343231 0 0.49457493289300231 0.26251703776555491 0 0.73857795170433571 0.77736788564284653 0 0.87698901648812122 0.1160638338657984 0 0.90637953422180084 0.90208583328057301 0 0.4287911518546233 0.15455445427966699 0 0.2403886547178353 0.24188814792673841 0 0.18402761812864499 0.1117324051466445 0 0.33819444444448321 0.33819444444456342 0 0.1008171452988615 0.18885703697250469 0 0.084352422163911631 0.086451712656266194 0 
</DataArray>
</Points>
<Cells>
<DataArray type="UInt32" Name="connectivity" format="ascii">
7 8 8 9 9 10 10 6 5 11 11 12 12 13 13 6 6 14 14 15 15 16 16 4 13 36 35 13 6 36 5 11 28 8 7 23 36 38 35 34 39 38 28 40 42 24 37 23 28 42 27 24 34 37 24 25 34 34 38 43 23 37 45 8 23 45 10 36 6 28 11 40 0 26 44 13 35 12 25 0 44 26 27 39 12 40 11 38 39 42 37 34 43 34 44 39 10 41 36 25 44 34 12 35 40 35 38 42 10 9 41 36 41 43 8 45 9 9 45 41 27 42 39 36 43 38 26 39 44 35 42 40 37 41 45 37 43 41 46 56 57 53 57 56 49 47 52 4 31 16 49 60 47 52 55 19 51 48 56 52 53 55 31 32 50 54 49 62 17 62 49 17 49 18 21 20 48 32 51 50 33 51 32 18 49 52 1 62 17 53 56 55 18 52 19 52 47 53 16 31 63 51 61 48 20 19 55 14 46 6 51 56 58 10 47 9 55 56 48 8 54 7 22 7 54 20 55 48 33 61 51 33 2 61 31 50 63 6 46 57 21 61 2 10 57 47 46 58 56 51 58 50 53 47 57 14 59 46 9 47 60 10 6 57 54 60 49 8 60 54 15 59 14 1 22 62 21 48 61 8 9 60 46 59 58 16 63 15 15 63 59 50 59 63 22 54 62 50 58 59 14 6 13 11 67 64 4 65 30 4 16 65 13 12 66 15 14 66 65 64 67 16 15 64 12 11 64 15 66 64 12 64 66 11 5 67 16 64 65 14 13 66 3 68 29 3 30 68 29 67 5 30 65 68 29 68 67 67 68 65 
</DataArray>
<DataArray type="UInt32" Name="offsets" format="ascii">
2 4 6 8 10 12 14 16 18 20 22 24 27 30 33 36 39 42 45 48 51 54 57 60 63 66 69 72 75 78 81 84 87 90 93 96 99 102 105 108 111 114 117 120 123 126 129 132 135 138 141 144 147 150 153 156 159 162 165 168 171 174 177 180 183 186 189 192 195 198 201 204 207 210 213 216 219 222 225 228 231 234 237 240 243 246 249 252 255 258 261 264 267 270 273 276 279 282 285 288 291 294 297 300 303 306 309 312 315 318 321 324 327 330 333 336 339 342 345 348 351 354 357 360 
</DataArray>
<DataArray type="UInt32" Name="types" format="ascii">
3 3 3 3 3 3 3 3 3 3 3 3 5 5 5 5 5 5 5 5 5 5 5 5 5 5 5 5 5 5 5 5 5 5 5 5 5 5 5 5 5 5 5 5 5 5 5 5 5 5 5 5 5 5 5 5 5 5 5 5 5 5 5 5 5 5 5 5 5 5 5 5 5 5 5 5 5 5 5 5 5 5 5 5 5 5 5 5 5 5 5 5 5 5 5 5 5 5 5 5 5 5 5 5 5 5 5 5 5 5 5 5 5 5 5 5 5 5 5 5 5 5 5 5 
</DataArray>
</Cells>
<CellData Scalars="age_conc,U235_conc," Vectors="" Tensors="">
<DataArray type="Float64" Name="age_conc" format="ascii">
30541.905497039013 58046.16067209476 80782.076153881993 99782.823692088568 139206.24850926091 136039.08247082477 130132.70063876001 119763.67247092094 120258.81918186849 130376.08530381686 136145.64093125911 139247.59978152823 141629.92998722868 141378.16887612318 141645.09580406253 79973.695217891654 141640.20077038716 141404.81698527452 141645.0617566052 91854.801742894197 141643.58229601051 127235.50163405715 99482.199762487173 140909.49263075559 135562.92054613668 115514.95443082227 140263.33191570721 141645.09377688932 125357.3457260026 141643.25259736768 94034.599880667534 141289.23297211982 141645.08728657587 141609.14694726624 138300.01634661257 138005.87526269761 140130.3539934945 126300.42813487016 141644.9821779523 141643.07985383875 135017.64419050745 141592.00439181563 125217.25050223581 136707.40457121664 141628.37887422182 141606.34712410794 139526.44239001328 141644.86251714162 140181.11662269404 141356.78258645011 141626.80271798724 141533.86580250016 138645.98598882361 141645.09568234245 141352.34335288717 126037.61541873409 141093.46409802511 137560.38598975629 141643.56959591887 134338.96622201949 121265.50116603341 95009.233982014237 94540.760513216082 141630.05745746844 141355.44113366483 126772.83934854373 78173.816572780037 140783.87438338448 92890.650257497313 140971.48582720655 141645.09216766676 138036.62797016927 91442.171639951775 141644.95759610983 141554.7670723206 141619.14451125017 138563.06510019823 120608.88718895096 87393.158114335602 125293.74754120753 139892.6144871976 124767.07206453374 141645.04447137282 141643.86815114514 93204.720835870539 141635.6164033268 141642.90232018291 141632.38477533136 141514.14936398089 141645.08128900896 141484.40189624697 141643.74259362175 139709.16521923442 136609.15051332896 141645.0949118952 80493.830734108167 123308.12837731749 140350.75551114662 141644.8535385181 141645.09577082557 141645.09337166001 141645.02422336509 117774.98523109434 141644.44097605709 137355.77760333483 141607.40678387496 141631.55075439808 141518.94680186341 140395.06972956026 140392.88888886513 141641.95847664351 141328.8971271264 141320.02071830348 141491.78810401223 141491.98814506733 141505.73310078323 141607.83653600197 140828.08135175612 141645.06790010017 141645.06279282458 141630.01100023987 141644.55362195402 141644.63258083156 141644.78927886157 
</DataArray>
<DataArray type="Float64" Name="U235_conc" format="ascii">
0.88768403850466826 0.75897345110656844 0.63308504468267501 0.49573670189291252 0.038228609068584135 0.088475404839432392 0.17456744156411186 0.30196118254670068 0.29491740133375055 0.1708279945302601 0.086803977616163944 0.037594363692554589 0.00022854455837160396 0.004085797127894056 1.6005044458565756e-09 0.61729963924717768 7.1470036375606159e-05 0.0035887618483493745 4.6189185134039047e-07 0.50278893932015167 2.1926552951086496e-05 0.1807341976114045 0.42806127174951647 0.010950363246040257 0.085518600356900343 0.32149949445646597 0.020169713527135546 2.720767238258432e-08 0.20192287888221111 2.6416874019665832e-05 0.47612450438254356 0.0053078212829145502 1.0583467815166857e-07 0.00053702668487017892 0.047141300091582412 0.05122611069494111 0.022640433472165423 0.19079347329515006 1.5132980380846648e-06 2.9140679519779162e-05 0.090033629014673919 0.00079183885704142709 0.2095953374742015 0.070932834063546862 0.00024912136230298171 0.00057940224675142693 0.030177458286579393 3.2201658949434277e-06 0.021842922942072993 0.0043479233578069465 0.00026921502857423413 0.0016720001509243421 0.042274574545373513 3.1235015867809775e-09 0.0044138692502271627 0.19435215721502183 0.0082119111160634736 0.057417070245334462 2.2141250012698942e-05 0.10198187992078157 0.25246804091610958 0.4692047732681095 0.47340873807661876 0.00022421321328100821 0.0043247455044451953 0.18534764744926474 0.62688588671656176 0.012816599034035685 0.48889175210523805 0.010025852101025502 4.8965950418356607e-08 0.050671527549929693 0.5035242920320282 1.8295470815940378e-06 0.0013578030387110299 0.00038206089706645051 0.043384922354867017 0.25778043750169266 0.53685608754022252 0.20350427976526264 0.025099321282025217 0.20862698415591766 7.0781071876578104e-07 1.7225597713926546e-05 0.48250435357868138 0.0001383616359278237 3.0980864683275453e-05 0.00018694509997161464 0.0019705230384785815 1.8162873892514968e-07 0.002416151088274423 1.8900823414927007e-05 0.028758430714432296 0.070256745911119439 1.1827516678590408e-08 0.60702390104187143 0.22620181507672088 0.019215615108410137 3.2325778883952561e-06 1.931883142521522e-09 3.1646570487644571e-08 9.495935237676561e-07 0.2932466635765924 9.1989653042693258e-06 0.065827120408114656 0.00053555812887211307 0.00017954572548498283 0.0018394761258590966 0.019480960135868031 0.019519525956457034 4.0595289828841936e-05 0.0048337900857375578 0.0049683442690884776 0.0022936971622916748 0.0022898724425005341 0.0020317392479902831 0.00052967007464618712 0.012594441784961668 3.0040333944565215e-07 3.5539168221041349e-07 0.0001999256065451721 6.4573832315349115e-06 5.5114817870753967e-06 3.5935676966553717e-06 
</DataArray>
</CellData>
</Piece>
</UnstructuredGrid>
</VTKFile>
