<?xml version="1.0"?>
<VTKFile type="UnstructuredGrid" version="0.1" byte_order="LittleEndian">
<UnstructuredGrid>
<Piece NumberOfPoints="69" NumberOfCells="124">
<Points>
<DataArray type="Float64" NumberOfComponents="3" format="ascii">
0 1 0 1 1 0 1 0 0 0 0 0 0.25 -0 0 0 0.25 0 0.5 0.5 -0 0.75 1 0 0.6875 0.875 0 0.625 0.75 0 0.5625 0.625 0 0.1249999999997599 0.31249999999987998 0 0.24999999999960859 0.37499999999980432 0 0.37499999999973488 0.43749999999986738 0 0.43750000000006939 0.37500000000013878 0 0.37500000000027761 0.25000000000055511 0 0.31250000000020822 0.12500000000041631 0 1 0.83333333333356463 0 1 0.66666666666736052 0 1 0.50000000000138767 0 1 0.33333333333448978 0 1 0.16666666666736049 0 0.875 1 0 0.56250000000086742 1 0 0.37500000000069389 1 0 0.1875000000005205 1 0 0 0.81250000000104083 0 0 0.62500000000069389 0 0 0.43750000000034689 0 0 0.12500000000034689 0 0.1249999999997554 0 0 0.43749999999913258 0 0 0.62499999999895905 0 0 0.81249999999947953 0 0 0.27987960212930818 0.83442741470570525 0 0.26452443700674649 0.51563531581639865 0 0.4139414069912184 0.60563252640100373 0 0.44927105396715372 0.85565124085155886 0 0.27589467050686478 0.66058853156435704 0 0.13900789599611679 0.72618316107059999 0 0.14929124186975251 0.44582793568106382 0 0.50145856933078625 0.73674663046504862 0 0.13928587515912139 0.57339806105677438 0 0.38136204680495073 0.74038592213831234 0 0.12710107136012311 0.87094806618203435 0 0.56777512057187585 0.8470224641095303 0 0.56986707178436635 0.37762093650871992 0 0.71259747807844409 0.63846691315701831 0 0.86087286690217635 0.25206523597959418 0 0.85787927391517405 0.753532520882502 0 0.54475767668582953 0.1431838882066932 0 0.71508993406183785 0.15715956854777599 0 0.86127466977819722 0.57948076978797636 0 0.75338430262320943 0.49294443423175599 0 0.80552984491000901 0.88711122872127413 0 0.86569408477091048 0.40983673916766611 0 0.71826039492840632 0.34564020717216182 0 0.63236534182377013 0.50296756406332266 0 0.61108462585082757 0.25750599582343231 0 0.49457493289300231 0.26251703776555491 0 0.73857795170433571 0.77736788564284653 0 0.87698901648812122 0.1160638338657984 0 0.90637953422180084 0.90208583328057301 0 0.4287911518546233 0.15455445427966699 0 0.2403886547178353 0.24188814792673841 0 0.18402761812864499 0.1117324051466445 0 0.33819444444448321 0.33819444444456342 0 0.1008171452988615 0.18885703697250469 0 0.084352422163911631 0.086451712656266194 0 
</DataArray>
</Points>
<Cells>
<DataArray type="UInt32" Name="connectivity" format="ascii">
7 8 8 9 9 10 10 6 5 11 11 12 12 13 13 6 6 14 14 15 15 16 16 4 13 36 35 13 6 36 5 11 28 8 7 23 36 38 35 34 39 38 28 40 42 24 37 23 28 42 27 24 34 37 24 25 34 34 38 43 23 37 45 8 23 45 10 36 6 28 11 40 0 26 44 13 35 12 25 0 44 26 27 39 12 40 11 38 39 42 37 34 43 34 44 39 10 41 36 25 44 34 12 35 40 35 38 42 10 9 41 36 41 43 8 45 9 9 45 41 27 42 39 36 43 38 26 39 44 35 42 40 37 41 45 37 43 41 46 56 57 53 57 56 49 47 52 4 31 16 49 60 47 52 55 19 51 48 56 52 53 55 31 32 50 54 49 62 17 62 49 17 49 18 21 20 48 32 51 50 33 51 32 18 49 52 1 62 17 53 56 55 18 52 19 52 47 53 16 31 63 51 61 48 20 19 55 14 46 6 51 56 58 10 47 9 55 56 48 8 54 7 22 7 54 20 55 48 33 61 51 33 2 61 31 50 63 6 46 57 21 61 2 10 57 47 46 58 56 51 58 50 53 47 57 14 59 46 9 47 60 10 6 57 54 60 49 8 60 54 15 59 14 1 22 62 21 48 61 8 9 60 46 59 58 16 63 15 15 63 59 50 59 63 22 54 62 50 58 59 14 6 13 11 67 64 4 65 30 4 16 65 13 12 66 15 14 66 65 64 67 16 15 64 12 11 64 15 66 64 12 64 66 11 5 67 16 64 65 14 13 66 3 68 29 3 30 68 29 67 5 30 65 68 29 68 67 67 68 65 
</DataArray>
<DataArray type="UInt32" Name="offsets" format="ascii">
2 4 6 8 10 12 14 16 18 20 22 24 27 30 33 36 39 42 45 48 51 54 57 60 63 66 69 72 75 78 81 84 87 90 93 96 99 102 105 108 111 114 117 120 123 126 129 132 135 138 141 144 147 150 153 156 159 162 165 168 171 174 177 180 183 186 189 192 195 198 201 204 207 210 213 216 219 222 225 228 231 234 237 240 243 246 249 252 255 258 261 264 267 270 273 276 279 282 285 288 291 294 297 300 303 306 309 312 315 318 321 324 327 330 333 336 339 342 345 348 351 354 357 360 
</DataArray>
<DataArray type="UInt32" Name="types" format="ascii">
3 3 3 3 3 3 3 3 3 3 3 3 5 5 5 5 5 5 5 5 5 5 5 5 5 5 5 5 5 5 5 5 5 5 5 5 5 5 5 5 5 5 5 5 5 5 5 5 5 5 5 5 5 5 5 5 5 5 5 5 5 5 5 5 5 5 5 5 5 5 5 5 5 5 5 5 5 5 5 5 5 5 5 5 5 5 5 5 5 5 5 5 5 5 5 5 5 5 5 5 5 5 5 5 5 5 5 5 5 5 5 5 5 5 5 5 5 5 5 5 5 5 5 5 
</DataArray>
</Cells>
<CellData Scalars="age_conc,U235_conc," Vectors="" Tensors="">
<DataArray type="Float64" Name="age_conc" format="ascii">
34714.163903144887 70751.467016105817 103213.62322845683 133620.01472989022 210900.42011509772 200887.49278980636 187372.85747279838 167828.22985898165 169984.34380363754 188873.8773061854 201899.39979313113 211571.00376092692 234978.86773624492 231813.65113413861 235486.72886392026 92006.164247476408 235132.27638162515 231270.11006826701 235476.67442678925 114358.13954363178 235355.74608702894 178266.69490807081 130326.64090384943 226046.73274061296 197250.26842741031 145402.50805753542 225841.17281635277 235485.22787324415 174330.28580365764 235340.78954437567 120925.6850938807 229979.3890043073 235481.56559815546 234210.76845270922 212377.93012538957 210810.98131459544 222169.0883203978 176934.17346056263 235461.35871166139 235307.14871515404 204126.22115538857 233332.39818188292 170851.48610274924 202290.79560408389 234825.11025622024 234148.44116962922 218568.96839917783 235440.91765457779 218342.3435618761 228722.15781203119 234468.20046323497 232511.75949714464 214457.70268800712 235486.67772833435 228862.74324647052 175672.08339849426 228146.93284211002 208425.00231438907 235358.54271110526 192143.09427212257 160486.54335560751 121259.10891348615 120996.24002201065 234900.65272710362 230716.26099552907 177734.07122909086 89724.012305536133 224733.11845683301 117977.47209482147 226784.82119506344 235485.01386185514 211667.84580532429 114735.61198517447 235441.73001505408 233062.770169219 234058.25267413975 214231.82352707162 160792.46638183837 107596.0503845576 173158.55182070221 220654.65490539634 172769.63092847649 235475.09006663153 235316.10790620596 119412.74378134815 234831.09482882271 235218.70971469017 234759.29311786714 232173.45457431721 235475.49819368625 231262.35282118537 235283.13575692527 214679.72733828798 204173.61561335617 235484.80022005638 93435.396019820924 168484.92893022954 221008.65118921519 235417.02079401552 235486.60057756415 235484.68072128788 235463.47612687782 151488.31529660447 235395.19589581742 206451.72523257427 233411.41791287996 234059.94737745615 231334.47897996445 221478.50497889749 221599.15438725223 234939.24907433504 229494.16826039719 229299.15432123787 230926.2365696702 230892.59759810235 230901.08209515619 233450.46361243349 222717.74234146639 235443.66926694434 235437.31534511354 233899.25744511047 235271.88437019082 235296.8905804714 235315.57037292313 
</DataArray>
<DataArray type="Float64" Name="U235_conc" format="ascii">
0.9113560061972682 0.79351859162476968 0.67344990338725597 0.54769937564717774 0.199837943374684 0.25248811664157322 0.31585538924007628 0.40212429747680883 0.38683709617922457 0.30434204362883654 0.24407017901308434 0.193777729846528 0.0051685053546787329 0.033973911556043387 3.0005328709968738e-06 0.77007212087608468 0.0037747920930349091 0.040707505206770626 0.0001111886039956692 0.6716344099579552 0.0014036406014099881 0.39738949919272798 0.59365540048957177 0.087075714724404757 0.30420784942622747 0.5853610383747192 0.079238142276717397 1.8979532686675991e-05 0.41508601489007785 0.001558511848232177 0.63230014881623386 0.052300878315729889 5.8939981559048097e-05 0.013131280918758224 0.18935776406672056 0.20113469981892146 0.11413679529904018 0.40023516905389644 0.00027860593918269512 0.0019252055958456258 0.23167158178035085 0.02235351819332973 0.44587557702265423 0.26834557123700298 0.0068587206335637904 0.0137510028241873 0.14366107537731052 0.00049809984161395626 0.15524912324594295 0.067065540342436558 0.010746567060748035 0.029917768054506882 0.17310215413706492 3.569793387609186e-06 0.065473930877961453 0.40942993119692883 0.068140152338928728 0.21912093443338757 0.0013726532377913172 0.33929833668553694 0.50350490439289597 0.63791886269457487 0.63575314217421619 0.006069848685145234 0.045673900178873066 0.39792036661975733 0.77708656273767551 0.098716542030886131 0.64866340326715255 0.080377294903713592 2.1363271351245007e-05 0.19278546422608114 0.66529298829851125 0.00049015001208814512 0.024386042328021017 0.015065020917796266 0.17420464011823 0.49458539783052541 0.69680325798916631 0.42551329462064946 0.12749916857596572 0.42397074609546925 0.00012833295378460039 0.0018472785262525406 0.63947786754673674 0.0069785075795260531 0.0028977289724190359 0.0076836454757925922 0.033142340765199826 0.00012305815167185457 0.042416815561297762 0.0022061371666746874 0.18560577535212211 0.24947935877833105 2.3059481974867525e-05 0.76316996834700201 0.44924054272598368 0.13036410872933116 0.00075902575752420285 4.3205577424826343e-06 2.4766865421323891e-05 0.00025440838416777557 0.55234287218501599 0.00099123303401146986 0.22663558446121423 0.021672937358612979 0.015425256667128365 0.041215927328032538 0.12163192398984948 0.12029382793748472 0.0060114127410848678 0.056157362386655377 0.058020397835972716 0.045448123403034356 0.045826934303986731 0.045510847662360118 0.021253976932822972 0.11788862449119247 0.0004757557273235483 0.00054640145572776668 0.017162826232158125 0.0023902263099346509 0.0021108048879595518 0.0018996424246200837 
</DataArray>
</CellData>
</Piece>
</UnstructuredGrid>
</VTKFile>
