<?xml version="1.0"?>
<VTKFile type="UnstructuredGrid" version="0.1" byte_order="LittleEndian">
<UnstructuredGrid>
<Piece NumberOfPoints="69" NumberOfCells="124">
<Points>
<DataArray type="Float64" NumberOfComponents="3" format="ascii">
0 0 0 0.084352422163911631 0.086451712656266194 0 0.1249999999997554 0 0 0 0.12500000000034689 0 0.1008171452988615 0.18885703697250469 0 0.2403886547178353 0.24188814792673841 0 0.18402761812864499 0.1117324051466445 0 0.25 -0 0 0.31250000000020822 0.12500000000041631 0 0.4287911518546233 0.15455445427966699 0 0.43749999999913258 0 0 0.43750000000006939 0.37500000000013878 0 0.49457493289300231 0.26251703776555491 0 0.37500000000027761 0.25000000000055511 0 0.33819444444448321 0.33819444444456342 0 0.37499999999973488 0.43749999999986738 0 0.14929124186975251 0.44582793568106382 0 0.24999999999960859 0.37499999999980432 0 0.1249999999997599 0.31249999999987998 0 0 0.25 0 0 0.43750000000034689 0 0 0.62500000000069389 0 0.13900789599611679 0.72618316107059999 0 0.13928587515912139 0.57339806105677438 0 0 1 0 0 0.81250000000104083 0 0.12710107136012311 0.87094806618203435 0 0.1875000000005205 1 0 0.27987960212930818 0.83442741470570525 0 0.44927105396715372 0.85565124085155886 0 0.37500000000069389 1 0 0.26452443700674649 0.51563531581639865 0 0.27589467050686478 0.66058853156435704 0 0.38136204680495073 0.74038592213831234 0 0.4139414069912184 0.60563252640100373 0 0.5 0.5 -0 0.50145856933078625 0.73674663046504862 0 0.5625 0.625 0 0.71259747807844409 0.63846691315701831 0 0.63236534182377013 0.50296756406332266 0 0.56250000000086742 1 0 0.56777512057187585 0.8470224641095303 0 0.625 0.75 0 0.73857795170433571 0.77736788564284653 0 0.6875 0.875 0 0.75 1 0 0.80552984491000901 0.88711122872127413 0 0.85787927391517405 0.753532520882502 0 1 0.83333333333356463 0 0.90637953422180084 0.90208583328057301 0 1 1 0 0.875 1 0 0.86127466977819722 0.57948076978797636 0 1 0.66666666666736052 0 1 0.50000000000138767 0 0.75338430262320943 0.49294443423175599 0 0.86569408477091048 0.40983673916766611 0 0.86087286690217635 0.25206523597959418 0 1 0.33333333333448978 0 1 0.16666666666736049 0 1 0 0 0.87698901648812122 0.1160638338657984 0 0.81249999999947953 0 0 0.71508993406183785 0.15715956854777599 0 0.62499999999895905 0 0 0.54475767668582953 0.1431838882066932 0 0.61108462585082757 0.25750599582343231 0 0.56986707178436635 0.37762093650871992 0 0.71826039492840632 0.34564020717216182 0 
</DataArray>
</Points>
<Cells>
<DataArray type="UInt32" Name="connectivity" format="ascii">
0 1 3 0 2 1 3 4 19 3 1 4 4 1 6 18 4 5 6 5 4 8 5 6 7 6 2 7 8 6 2 6 1 8 7 7 10 8 8 13 5 13 8 8 9 13 13 9 12 65 12 9 8 10 9 10 65 9 15 35 11 35 15 11 15 14 35 11 13 12 11 11 13 13 11 14 17 5 14 13 14 5 15 17 14 17 15 15 31 17 17 31 16 17 16 18 17 18 5 18 17 19 18 20 18 19 4 19 18 20 16 23 20 18 16 20 23 21 21 23 22 25 21 22 32 22 23 28 22 32 31 32 23 31 23 16 27 24 26 24 25 26 25 22 26 28 26 22 27 26 28 30 28 29 30 27 28 29 28 33 29 33 36 30 29 40 34 32 31 15 34 31 28 32 33 34 33 32 34 36 33 37 36 34 15 35 34 37 34 35 37 35 39 37 35 37 42 36 42 37 42 38 43 37 38 42 55 38 39 37 39 38 44 40 41 40 29 41 29 36 41 42 41 36 44 42 43 44 43 46 44 42 44 41 42 44 45 40 44 46 45 45 44 51 45 46 51 46 49 46 47 49 46 43 47 48 47 53 48 49 47 50 49 48 50 51 49 52 38 55 47 38 52 47 43 38 53 47 52 53 52 54 58 54 56 52 56 54 52 55 56 55 68 56 63 57 68 56 68 57 59 58 57 58 56 57 59 57 61 62 60 61 59 61 60 62 61 63 63 61 57 64 63 65 62 63 64 10 64 65 63 66 65 65 66 12 67 12 66 11 12 67 11 67 35 35 67 39 55 39 68 67 68 39 63 68 66 67 66 68 
</DataArray>
<DataArray type="UInt32" Name="offsets" format="ascii">
3 6 9 12 15 18 21 24 27 30 33 35 38 41 43 46 49 52 55 58 60 63 66 68 71 73 76 79 82 85 87 90 93 96 99 101 104 107 109 112 115 118 121 124 127 130 133 136 139 142 145 148 151 154 157 160 163 166 169 172 175 178 181 184 187 190 193 195 198 200 203 206 209 212 215 218 221 224 227 230 232 235 238 241 243 246 249 252 255 258 261 264 267 270 273 276 279 282 285 288 291 294 297 300 303 306 309 312 315 318 321 324 327 330 333 336 339 342 345 348 351 354 357 360 
</DataArray>
<DataArray type="UInt32" Name="types" format="ascii">
5 5 5 5 5 5 5 5 5 5 5 3 5 5 3 5 5 5 5 5 3 5 5 3 5 3 5 5 5 5 3 5 5 5 5 3 5 5 3 5 5 5 5 5 5 5 5 5 5 5 5 5 5 5 5 5 5 5 5 5 5 5 5 5 5 5 5 3 5 3 5 5 5 5 5 5 5 5 5 5 3 5 5 5 3 5 5 5 5 5 5 5 5 5 5 5 5 5 5 5 5 5 5 5 5 5 5 5 5 5 5 5 5 5 5 5 5 5 5 5 5 5 5 5 
</DataArray>
</Cells>
<CellData Scalars="age_conc,U235_conc," Vectors="" Tensors="">
<DataArray type="Float64" Name="age_conc" format="ascii">
44946.474475312098 44946.474475312098 44946.474475289986 44946.474475311814 44946.474475312054 44946.474475266928 44946.474475311399 44946.474475306422 44946.474475311188 44946.474475278847 44946.474475312047 44946.474473267903 44946.474475312119 44946.474475132469 44946.474466853782 44946.474475312069 44946.474475312178 44946.474475312323 44946.474475312119 44946.474475312083 44925.353412399178 44946.474476243609 44946.474475366413 44925.686517096932 44946.474475312069 44946.474449157708 44946.474473916729 44946.474475322902 44946.474475247713 44946.474475649105 44946.474484707687 44946.474475312178 44946.474475312098 44946.474475312098 44946.474474492934 44946.474452774724 44946.474475312134 44946.47447486662 44946.474462097285 44946.474475312119 44946.474475312069 44946.474475312083 44946.473967848106 44946.282712824897 44946.473346966937 44946.366342764442 44946.474475312076 44946.474475312149 39830.435587991567 44493.634006742868 44937.641371388745 44927.965228569818 44527.678773628439 44575.187684475321 40629.188561198331 44929.778486113792 44946.462820186563 39782.51316130624 44946.474475312119 44946.474475312069 44945.989945595138 44946.472961423133 44946.474475311865 44946.104544804533 44946.474475314251 44945.841674307849 44946.474475311959 44498.620307534686 44919.06690222719 42408.285092961305 44946.467400256806 44946.474475312243 44946.468432339127 44946.474475312054 44208.309772923436 44915.548065141898 44945.593642380722 44936.869705034849 44945.469708364348 44917.30251918202 35828.02096301398 44698.217280921235 38560.082728393761 44318.416832370902 21835.405969324835 38907.014184125328 44247.990852942792 44904.605123569701 44944.985548768942 40018.657492677376 44379.205290997867 37908.885592016319 38268.187673429376 44946.028884013227 44931.541941150637 44946.459779712539 44545.810586643282 39761.555023225621 39615.261037318291 44524.75393570368 44925.262306683799 44945.892962162194 44946.117685019613 44930.799303289205 39965.483885905021 44503.329775016922 44421.139408008763 44467.967858143988 39662.16529097053 44939.929190822433 44927.450228626112 44946.474002771865 44946.333891578266 44946.474475312098 44946.474475312134 44946.474475312039 44946.474475312098 44946.474475311959 44946.474475312098 44946.474475312098 44946.469666781952 44946.474475312149 44946.470500701413 44946.474475312214 
</DataArray>
<DataArray type="Float64" Name="U235_conc" format="ascii">
0 0 0 0 0 0 0 0 0 0 0 0 0 0 0 0 0 0 0 0 0.0023845676876265562 1.903226123655409e-05 0 0.0023460507131691437 0 8.6259631517197818e-05 0 0 0 0 8.7398752116445234e-05 0 0 0 0 0 0 0 0 0 0 3.8635060930353822e-10 7.1923974146179743e-08 1.592052235370795e-05 1.6005772597407256e-07 9.0810437798926038e-06 4.6023813043187301e-10 0 0.18667954069014689 0.022120962333069427 0.000553118000108416 0.0011466034140719481 0.020482740659054522 0.018231854229794585 0.15845928706604889 0.001035364618965248 1.6503593217804117e-06 0.18946806518320453 1.60412696888543e-09 0 3.9793314684805276e-05 2.0937773774817635e-07 3.9012671789839408e-08 4.5354290989741424e-05 6.8896523223610077e-07 7.4007021291853641e-05 0 0.031188769347615108 0.0020069492347469923 0.13792478917467887 9.8062007537356213e-07 9.5403384867430891e-09 8.3518466017232219e-07 2.7943403014689228e-09 0.036236179397023498 0.0019232448338675169 7.3655247719701155e-05 0.00073553614256760991 8.1763815177679031e-05 0.0017937162692030423 0.39211725367664779 0.014287973799403849 0.23705051737172153 0.030531999580619973 0.74150778886592006 0.21925593625460871 0.034030408697230362 0.0025792942052344074 0.00012134458804455775 0.18007028684613424 0.027724658805092783 0.25627593973280455 0.2436290750114459 3.6577480770112698e-05 0.00092580131250435678 2.0215843895753656e-06 0.019606828169474077 0.18952099425079796 0.19494141828143621 0.020641260671322145 0.0013127504127728774 4.7694520474334436e-05 2.9316582808801536e-05 0.00097066388787486713 0.18212586343518605 0.021687435170139706 0.0256142138205037 0.023339277684153753 0.19232402481487834 0.00041290681191514844 0.0011762243797974492 6.6786349003132389e-08 1.1753794987638481e-05 4.0523867911735719e-10 4.5839258365748738e-09 0 0 0 0 0 6.6743567960582104e-07 6.6417208551607719e-09 5.5078712033584449e-07 6.3224199318360947e-11 
</DataArray>
</CellData>
</Piece>
</UnstructuredGrid>
</VTKFile>
