<?xml version="1.0"?>
<VTKFile type="UnstructuredGrid" version="0.1" byte_order="LittleEndian">
<UnstructuredGrid>
<Piece NumberOfPoints="69" NumberOfCells="124">
<Points>
<DataArray type="Float64" NumberOfComponents="3" format="ascii">
0 0 0 0.084352422163911631 0.086451712656266194 0 0.1249999999997554 0 0 0 0.12500000000034689 0 0.1008171452988615 0.18885703697250469 0 0.2403886547178353 0.24188814792673841 0 0.18402761812864499 0.1117324051466445 0 0.25 -0 0 0.31250000000020822 0.12500000000041631 0 0.4287911518546233 0.15455445427966699 0 0.43749999999913258 0 0 0.43750000000006939 0.37500000000013878 0 0.49457493289300231 0.26251703776555491 0 0.37500000000027761 0.25000000000055511 0 0.33819444444448321 0.33819444444456342 0 0.37499999999973488 0.43749999999986738 0 0.14929124186975251 0.44582793568106382 0 0.24999999999960859 0.37499999999980432 0 0.1249999999997599 0.31249999999987998 0 0 0.25 0 0 0.43750000000034689 0 0 0.62500000000069389 0 0.13900789599611679 0.72618316107059999 0 0.13928587515912139 0.57339806105677438 0 0 1 0 0 0.81250000000104083 0 0.12710107136012311 0.87094806618203435 0 0.1875000000005205 1 0 0.27987960212930818 0.83442741470570525 0 0.44927105396715372 0.85565124085155886 0 0.37500000000069389 1 0 0.26452443700674649 0.51563531581639865 0 0.27589467050686478 0.66058853156435704 0 0.38136204680495073 0.74038592213831234 0 0.4139414069912184 0.60563252640100373 0 0.5 0.5 -0 0.50145856933078625 0.73674663046504862 0 0.5625 0.625 0 0.71259747807844409 0.63846691315701831 0 0.63236534182377013 0.50296756406332266 0 0.56250000000086742 1 0 0.56777512057187585 0.8470224641095303 0 0.625 0.75 0 0.73857795170433571 0.77736788564284653 0 0.6875 0.875 0 0.75 1 0 0.80552984491000901 0.88711122872127413 0 0.85787927391517405 0.753532520882502 0 1 0.83333333333356463 0 0.90637953422180084 0.90208583328057301 0 1 1 0 0.875 1 0 0.86127466977819722 0.57948076978797636 0 1 0.66666666666736052 0 1 0.50000000000138767 0 0.75338430262320943 0.49294443423175599 0 0.86569408477091048 0.40983673916766611 0 0.86087286690217635 0.25206523597959418 0 1 0.33333333333448978 0 1 0.16666666666736049 0 1 0 0 0.87698901648812122 0.1160638338657984 0 0.81249999999947953 0 0 0.71508993406183785 0.15715956854777599 0 0.62499999999895905 0 0 0.54475767668582953 0.1431838882066932 0 0.61108462585082757 0.25750599582343231 0 0.56986707178436635 0.37762093650871992 0 0.71826039492840632 0.34564020717216182 0 
</DataArray>
</Points>
<Cells>
<DataArray type="UInt32" Name="connectivity" format="ascii">
0 1 3 0 2 1 3 4 19 3 1 4 4 1 6 18 4 5 6 5 4 8 5 6 7 6 2 7 8 6 2 6 1 8 7 7 10 8 8 13 5 13 8 8 9 13 13 9 12 65 12 9 8 10 9 10 65 9 15 35 11 35 15 11 15 14 35 11 13 12 11 11 13 13 11 14 17 5 14 13 14 5 15 17 14 17 15 15 31 17 17 31 16 17 16 18 17 18 5 18 17 19 18 20 18 19 4 19 18 20 16 23 20 18 16 20 23 21 21 23 22 25 21 22 32 22 23 28 22 32 31 32 23 31 23 16 27 24 26 24 25 26 25 22 26 28 26 22 27 26 28 30 28 29 30 27 28 29 28 33 29 33 36 30 29 40 34 32 31 15 34 31 28 32 33 34 33 32 34 36 33 37 36 34 15 35 34 37 34 35 37 35 39 37 35 37 42 36 42 37 42 38 43 37 38 42 55 38 39 37 39 38 44 40 41 40 29 41 29 36 41 42 41 36 44 42 43 44 43 46 44 42 44 41 42 44 45 40 44 46 45 45 44 51 45 46 51 46 49 46 47 49 46 43 47 48 47 53 48 49 47 50 49 48 50 51 49 52 38 55 47 38 52 47 43 38 53 47 52 53 52 54 58 54 56 52 56 54 52 55 56 55 68 56 63 57 68 56 68 57 59 58 57 58 56 57 59 57 61 62 60 61 59 61 60 62 61 63 63 61 57 64 63 65 62 63 64 10 64 65 63 66 65 65 66 12 67 12 66 11 12 67 11 67 35 35 67 39 55 39 68 67 68 39 63 68 66 67 66 68 
</DataArray>
<DataArray type="UInt32" Name="offsets" format="ascii">
3 6 9 12 15 18 21 24 27 30 33 35 38 41 43 46 49 52 55 58 60 63 66 68 71 73 76 79 82 85 87 90 93 96 99 101 104 107 109 112 115 118 121 124 127 130 133 136 139 142 145 148 151 154 157 160 163 166 169 172 175 178 181 184 187 190 193 195 198 200 203 206 209 212 215 218 221 224 227 230 232 235 238 241 243 246 249 252 255 258 261 264 267 270 273 276 279 282 285 288 291 294 297 300 303 306 309 312 315 318 321 324 327 330 333 336 339 342 345 348 351 354 357 360 
</DataArray>
<DataArray type="UInt32" Name="types" format="ascii">
5 5 5 5 5 5 5 5 5 5 5 3 5 5 3 5 5 5 5 5 3 5 5 3 5 3 5 5 5 5 3 5 5 5 5 3 5 5 3 5 5 5 5 5 5 5 5 5 5 5 5 5 5 5 5 5 5 5 5 5 5 5 5 5 5 5 5 3 5 3 5 5 5 5 5 5 5 5 5 5 3 5 5 5 3 5 5 5 5 5 5 5 5 5 5 5 5 5 5 5 5 5 5 5 5 5 5 5 5 5 5 5 5 5 5 5 5 5 5 5 5 5 5 5 
</DataArray>
</Cells>
<CellData Scalars="age_conc,U235_conc," Vectors="" Tensors="">
<DataArray type="Float64" Name="age_conc" format="ascii">
204513.11171197752 204511.86547686398 203960.71778142083 204473.96457539202 204482.43096956587 203698.58496504938 204358.12914476436 203712.12004803805 204018.02305067325 202578.65103512772 204467.06320305823 189412.54643827109 204520.808010626 201444.19710570495 181462.53752962252 204520.80407217401 204520.48368160721 204515.89519773916 204520.5002569716 204518.22053291564 152652.21180899246 185938.71971964088 197835.63817572154 154112.60295838607 204520.56686003087 170391.55728055167 196563.64183055295 202462.11577897228 202470.98697874107 196523.69331304205 169432.13826454806 204473.78748152847 204514.59432487935 204519.82282099902 201348.0826875593 180859.70800223827 204520.81968404414 202373.50635379332 189047.75180822183 204518.72078851174 204520.56902644294 204482.28456882242 204279.65476669843 201886.40018907082 204035.51180197825 202578.18526303611 204468.18831923945 204509.93190968069 114078.3063646182 161392.56470094406 194828.66900750395 189650.44765754062 163440.08041910338 164822.1891355172 122386.53717234421 190686.15102010893 201551.64243199525 109046.50383367522 204410.87146220525 204318.8803364365 199724.23424175894 204014.19864643426 203719.593961601 196974.33116175432 202672.47427771945 198816.76020646075 204467.85604599272 122939.39949394221 183881.26618808965 96358.72019119194 202748.89928948227 204028.80355928384 203116.64121772288 204311.42568372382 138997.15162076693 180792.45671485236 195475.58823020253 184276.2154830611 196843.26084695314 185184.59041158753 67122.755710949947 159426.72783902168 89674.476592245352 150939.24970925378 33682.301421293341 102946.48582229747 143921.48925823378 177176.89415596172 193274.48738739503 114841.34838601839 151169.79777279851 87531.191184517651 90895.150260991621 200114.11390924975 192007.18121901408 201596.26687724906 164241.15861763779 111738.34776859064 109079.84437845822 162586.47930291522 188082.27424469596 199002.96869721776 200842.44420469028 191806.94265583347 114381.21305689322 160733.75395639549 156860.88602188745 160174.46896201212 112817.60519085079 196155.58998362522 190056.39325534904 204306.50867873448 202278.14254830324 204482.78189023328 204274.29412608113 204496.70326487927 204505.42928206333 204518.90918716253 204511.24125580839 204475.46042380657 203281.30316113139 204171.52671959464 203514.61257247641 204446.61683868023 
</DataArray>
<DataArray type="Float64" Name="U235_conc" format="ascii">
8.280996851813845e-05 9.6361665219668556e-05 0.0066649207594182483 0.00053487067759265799 0.00043076073591601376 0.009706657186649854 0.0019012415535146132 0.0095469305744424037 0.0059820508360784877 0.022828061816300871 0.00061493272776124786 0.1606475496821094 4.9284836886704387e-07 0.034703247669008112 0.22119661628762827 5.1789710207929586e-07 3.9313590437775847e-06 5.4983501130402947e-05 3.8342871588604881e-06 2.934639331957197e-05 0.38972750106868415 0.18060839100514794 0.0737131442582033 0.37739137407728923 2.9187829535112782e-06 0.29021728402743413 0.084382761692480962 0.0237643586875977 0.023657133666066109 0.084900828460125352 0.29923639335124047 0.00054434135498895582 7.1017701176105704e-05 1.1269434988987816e-05 0.035798423086423684 0.22743365660186227 3.623789856648276e-07 0.025244714351079205 0.16472640655685375 2.3563457802760701e-05 3.0312361358720202e-06 0.00043982053685875954 0.0027331942581052516 0.028409050676477681 0.005497084154499619 0.021165912034119126 0.00060090386598118733 0.00012279732798689967 0.59179548949882932 0.34985544693733961 0.095734562489476926 0.14255148375346149 0.33512545087469792 0.3284964381563642 0.54876656560609527 0.1330671839087646 0.033241920891363047 0.62945919772096637 0.0012561649000921034 0.0022968905589710533 0.050851991205896986 0.0057182859787897897 0.0091342386331189421 0.075935839949129419 0.01975470267983289 0.054617313736061782 0.00060197890054809202 0.5382290812560574 0.17968577038074932 0.66245603270611864 0.019894778954846978 0.0056453587640062208 0.015734974507964038 0.0023992931959840647 0.51596030679047189 0.22443601733303478 0.095181529096330195 0.19414937370243152 0.080158058685784489 0.18192004110008811 0.78205998988812575 0.37211599903656012 0.73784972875302623 0.42581216225311519 0.90438080897314654 0.65652288464190689 0.48065080830797291 0.25528397906342343 0.11708401012077378 0.59292837376225105 0.43020991848420753 0.74523929902184871 0.72902163613516779 0.046733496486887946 0.12064514711748997 0.032643199000438897 0.33052405569554438 0.60794866007791593 0.62478599498209553 0.34271091238896068 0.15690145656921975 0.058352208947660175 0.039113254144732747 0.12218687035057074 0.5934478543537326 0.35725131262994275 0.38287276688222266 0.35830607312443929 0.59839755224064906 0.083481264544425879 0.13788084830425615 0.0024274022549729186 0.024320380445392229 0.00043427833840753872 0.0028268811043705585 0.00027450206464637618 0.00017203881823240515 2.0769126639422639e-05 0.00010666837002191368 0.00051661377636929066 0.013923086503717675 0.0040074744605043729 0.011297279382067781 0.00084779210813170725 
</DataArray>
</CellData>
</Piece>
</UnstructuredGrid>
</VTKFile>
