<?xml version="1.0"?>
<VTKFile type="UnstructuredGrid" version="0.1" byte_order="LittleEndian">
<UnstructuredGrid>
<Piece NumberOfPoints="69" NumberOfCells="124">
<Points>
<DataArray type="Float64" NumberOfComponents="3" format="ascii">
0 0 0 0 0.25 0 0 1 0 0.1249999999997554 0 0 0.084352422163911631 0.086451712656266194 0 0 0.12500000000034689 0 0.1008171452988615 0.18885703697250469 0 0.2403886547178353 0.24188814792673841 0 0.18402761812864499 0.1117324051466445 0 0.1249999999997599 0.31249999999987998 0 0.43749999999913258 0 0 0.4287911518546233 0.15455445427966699 0 0.31250000000020822 0.12500000000041631 0 0.33819444444448321 0.33819444444456342 0 0.37500000000027761 0.25000000000055511 0 0.49457493289300231 0.26251703776555491 0 0.43750000000006939 0.37500000000013878 0 0.37499999999973488 0.43749999999986738 0 0.14929124186975251 0.44582793568106382 0 0.24999999999960859 0.37499999999980432 0 0 0.43750000000034689 0 0.25 -0 0 0.13928587515912139 0.57339806105677438 0 0.13900789599611679 0.72618316107059999 0 0 0.62500000000069389 0 0 0.81250000000104083 0 0.1875000000005205 1 0 0.12710107136012311 0.87094806618203435 0 0.27987960212930818 0.83442741470570525 0 0.37500000000069389 1 0 0.44927105396715372 0.85565124085155886 0 0.38136204680495073 0.74038592213831234 0 0.27589467050686478 0.66058853156435704 0 0.26452443700674649 0.51563531581639865 0 0.4139414069912184 0.60563252640100373 0 0.5 0.5 -0 0.63236534182377013 0.50296756406332266 0 0.71259747807844409 0.63846691315701831 0 0.50145856933078625 0.73674663046504862 0 0.5625 0.625 0 0.56777512057187585 0.8470224641095303 0 0.56250000000086742 1 0 0.73857795170433571 0.77736788564284653 0 0.625 0.75 0 0.85787927391517405 0.753532520882502 0 0.80552984491000901 0.88711122872127413 0 0.90637953422180084 0.90208583328057301 0 0.875 1 0 1 0.83333333333356463 0 1 0.66666666666736052 0 0.6875 0.875 0 0.86127466977819722 0.57948076978797636 0 1 0.50000000000138767 0 0.75 1 0 1 0.33333333333448978 0 0.86087286690217635 0.25206523597959418 0 0.86569408477091048 0.40983673916766611 0 0.75338430262320943 0.49294443423175599 0 0.56986707178436635 0.37762093650871992 0 0.61108462585082757 0.25750599582343231 0 0.71826039492840632 0.34564020717216182 0 0.71508993406183785 0.15715956854777599 0 1 0 0 0.54475767668582953 0.1431838882066932 0 0.62499999999895905 0 0 0.81249999999947953 0 0 1 1 0 1 0.16666666666736049 0 0.87698901648812122 0.1160638338657984 0 
</DataArray>
</Points>
<Cells>
<DataArray type="UInt32" Name="connectivity" format="ascii">
1 9 0 3 4 0 4 5 5 4 6 5 6 1 6 4 8 9 6 7 8 7 6 12 7 8 21 8 3 21 12 8 3 8 4 21 10 12 10 63 11 12 10 11 63 15 11 14 11 15 12 14 7 12 11 14 9 19 19 7 13 14 13 7 14 15 16 14 16 13 16 17 13 16 35 17 17 33 19 17 19 13 19 33 18 19 18 9 19 9 7 1 9 20 9 1 6 20 9 18 20 18 22 20 22 24 12 21 14 12 19 17 33 32 22 33 22 18 28 23 32 32 23 22 25 24 23 24 22 23 25 23 27 26 2 27 2 25 27 26 27 28 28 27 23 16 14 35 16 17 35 30 28 31 29 28 30 29 26 28 29 30 41 30 31 38 39 38 34 34 38 31 34 31 32 28 32 31 34 32 33 17 34 33 17 35 34 39 34 35 39 35 36 39 35 43 39 39 36 37 57 37 36 39 37 43 43 37 42 39 43 38 43 40 38 30 38 40 41 30 40 50 41 40 50 53 41 50 45 53 50 42 45 50 40 43 50 43 42 45 42 44 50 43 53 50 45 44 46 47 53 45 47 45 46 66 47 46 66 46 48 48 44 49 48 46 44 49 44 51 44 37 51 44 42 37 51 37 57 49 51 52 54 52 56 51 56 52 67 54 55 54 56 55 56 60 55 61 55 60 51 57 56 57 60 56 58 60 36 57 36 60 16 58 35 35 58 36 16 15 58 58 15 59 61 60 59 58 59 60 61 59 63 63 59 15 10 64 63 64 61 63 65 61 64 65 68 61 61 68 55 67 55 68 65 62 68 67 68 62 
</DataArray>
<DataArray type="UInt32" Name="offsets" format="ascii">
2 5 8 11 14 17 20 23 26 29 32 35 38 41 44 47 50 53 56 58 61 64 67 70 73 76 79 82 85 88 91 94 97 100 103 106 108 110 112 115 118 121 124 127 130 133 136 139 142 145 147 149 151 154 157 160 163 166 169 172 175 178 181 184 187 190 193 195 197 200 203 206 209 212 215 218 221 224 227 230 233 236 239 242 244 246 249 252 255 258 261 264 267 270 273 276 279 282 285 288 291 294 297 300 303 306 309 312 315 318 321 324 327 330 333 336 339 342 345 348 351 354 357 360 
</DataArray>
<DataArray type="UInt32" Name="types" format="ascii">
3 5 5 5 5 5 5 5 5 5 5 5 5 5 5 5 5 5 5 3 5 5 5 5 5 5 5 5 5 5 5 5 5 5 5 5 3 3 3 5 5 5 5 5 5 5 5 5 5 5 3 3 3 5 5 5 5 5 5 5 5 5 5 5 5 5 5 3 3 5 5 5 5 5 5 5 5 5 5 5 5 5 5 5 3 3 5 5 5 5 5 5 5 5 5 5 5 5 5 5 5 5 5 5 5 5 5 5 5 5 5 5 5 5 5 5 5 5 5 5 5 5 5 5 
</DataArray>
</Cells>
<CellData Scalars="age_conc,U235_conc," Vectors="" Tensors="">
<DataArray type="Float64" Name="age_conc" format="ascii">
139206.24789773321 141645.06279285721 141645.06789959047 141644.63257818558 141630.01097040594 141644.78927879466 141607.40677855592 141641.95847626697 141607.83653677732 141631.5507562093 141518.94680824329 141644.55362213924 141645.09568234257 141645.04447137302 141645.09216766723 141645.02422336562 141645.09337165894 141328.89713098796 141645.09577082453 136039.08223925365 141491.98812686998 141491.78811272045 141645.0949118945 140392.88892133563 140828.08132075323 137355.77750067308 141643.25259731713 140395.06964629263 141644.98217794971 141645.08728657535 141320.02069175011 141645.09580406276 141505.7330042083 141645.09377688903 141645.0617566056 141643.58229601153 139247.59982350457 136145.64094179371 130132.70024499841 141643.07985383854 141644.86251714104 141404.81698503948 141609.14694725408 141289.23297224825 141628.3788742313 139526.44238916604 94034.599824457255 125357.34571404188 126300.4281151404 138005.87525785921 130376.08540209509 120258.81909857379 119763.67194564425 138300.01633824687 127235.50160983863 99482.199722771868 91854.801669585228 141356.78258622557 140130.35397223852 141592.00439080005 141606.34712392956 140909.49262922199 141640.20077036909 141629.92998685918 141378.16887197641 140263.3318978851 141643.74259362443 99782.823533509727 80782.076008015094 141635.61640335291 141514.14936428473 141619.14451127435 141484.40189644581 135017.64411394688 136707.40453380076 140181.11662077054 135562.92054627233 115514.95441498469 79973.695204318137 120608.88721223982 136609.15051655754 125217.25041561133 140350.75551385598 139709.16521994665 58046.160628630729 30541.905517046896 134338.96621951417 87393.158152658769 117774.98522930982 80493.830712548908 78173.816552172357 95009.233953515388 121265.50115832724 126772.83935045317 138645.98599357082 141352.34335327393 140971.4858282787 92890.650226199243 91442.171594933781 126037.61540558575 94540.760468668654 125293.74752371293 138563.06509367126 141093.46409663977 137560.38598376306 140783.87438175725 141626.80271797284 141533.86580231329 141644.95759610867 141643.86815114756 141645.08128900922 141644.85353851778 141554.76707207243 141642.90232018323 141632.38477529798 141644.44097605799 141643.56959591646 141630.05745741844 141355.44113292766 139892.61448251145 138036.62796314529 123308.12835170723 124767.0720547439 93204.720808369981 
</DataArray>
<DataArray type="Float64" Name="U235_conc" format="ascii">
0.038228608864167658 3.553916818488499e-07 3.0040334044073005e-07 5.5114818049021351e-06 0.00019992560666020126 3.593567701642252e-06 0.00053555812912009038 4.0595289853114695e-05 0.00052967007412958104 0.0001795457255019957 0.001839476125881282 6.4573832296123653e-06 3.123501592509731e-09 7.0781072044334419e-07 4.896595052060476e-08 9.4959352215955569e-07 3.1646570365849128e-08 0.0048337900814225138 1.9318831347445304e-09 0.088475404506165742 0.0022898724487631183 0.0022936971498707173 1.1827516643866791e-08 0.019519525848647409 0.01259444176647897 0.065827120319384827 2.6416874307397347e-05 0.019480960160358132 1.5132980530686821e-06 1.058346792475601e-07 0.0049683442659675817 1.6005044422524448e-09 0.0020317392467662696 2.720767233055234e-08 4.6189185005161279e-07 2.1926552927909648e-05 0.037594363714140301 0.086803977679073926 0.17456744079244538 2.9140679509458676e-05 3.2201658913675129e-06 0.0035887618518629142 0.00053702668504737811 0.0053078212810031633 0.00024912136214733495 0.030177458298920656 0.47612450490531444 0.20192287902867345 0.19079347353439527 0.051226110762504239 0.1708279947528441 0.29491740125548338 0.30196118092310126 0.047141300208833552 0.18073419791232379 0.42806127213658918 0.50278894004569175 0.0043479233601555114 0.022640433644403036 0.00079183887013125904 0.00057940224905749795 0.010950363268892531 7.1470036590958147e-05 0.00022854456112843198 0.0040857971528843488 0.020169713639619377 1.8900823358521901e-05 0.49573670091353411 0.6330850432044719 0.00013836163552845621 0.0019705230339174614 0.00038206089669236124 0.002416151085267681 0.090033629593428782 0.070932834491278157 0.021842922966668954 0.08551860035700351 0.32149949465302263 0.61729963939999766 0.25778043723099625 0.070256745868576512 0.20959533826406812 0.019215615068521291 0.028758430703902604 0.75897345032835428 0.88768403852594469 0.10198187995514843 0.53685608720589972 0.29324666359776125 0.60702390122583805 0.62688588689251523 0.46920477351720197 0.25246804100676229 0.18534764742528248 0.042274574477728789 0.0044138692443732013 0.010025852085032632 0.48889175239009791 0.50352429245725239 0.19435215737281744 0.47340873849740484 0.20350427997774581 0.043384922446117295 0.0082119111366689423 0.057417070328490555 0.012816599058221956 0.00026921502880055331 0.0016720001537751106 1.8295470771046118e-06 1.7225597683230885e-05 1.8162873855565035e-07 3.2325778886542021e-06 0.0013578030424650409 3.098086469050145e-05 0.0001869451004791467 9.1989652995882271e-06 2.2141250056995276e-05 0.00022421321403069211 0.0043247455154239592 0.025099321348133141 0.050671527647671487 0.2262018153816337 0.20862698427764911 0.48250435385464135 
</DataArray>
</CellData>
</Piece>
</UnstructuredGrid>
</VTKFile>
