<?xml version="1.0"?>
<VTKFile type="UnstructuredGrid" version="0.1" byte_order="LittleEndian">
<UnstructuredGrid>
<Piece NumberOfPoints="69" NumberOfCells="124">
<Points>
<DataArray type="Float64" NumberOfComponents="3" format="ascii">
0 1 0 1 1 0 1 0 0 0 0 0 0.25 -0 0 0 0.25 0 0.5 0.5 -0 0.75 1 0 0.6875 0.875 0 0.625 0.75 0 0.5625 0.625 0 0.1249999999997599 0.31249999999987998 0 0.24999999999960859 0.37499999999980432 0 0.37499999999973488 0.43749999999986738 0 0.43750000000006939 0.37500000000013878 0 0.37500000000027761 0.25000000000055511 0 0.31250000000020822 0.12500000000041631 0 1 0.83333333333356463 0 1 0.66666666666736052 0 1 0.50000000000138767 0 1 0.33333333333448978 0 1 0.16666666666736049 0 0.875 1 0 0.56250000000086742 1 0 0.37500000000069389 1 0 0.1875000000005205 1 0 0 0.81250000000104083 0 0 0.62500000000069389 0 0 0.43750000000034689 0 0 0.12500000000034689 0 0.1249999999997554 0 0 0.43749999999913258 0 0 0.62499999999895905 0 0 0.81249999999947953 0 0 0.27987960212930818 0.83442741470570525 0 0.26452443700674649 0.51563531581639865 0 0.4139414069912184 0.60563252640100373 0 0.44927105396715372 0.85565124085155886 0 0.27589467050686478 0.66058853156435704 0 0.13900789599611679 0.72618316107059999 0 0.14929124186975251 0.44582793568106382 0 0.50145856933078625 0.73674663046504862 0 0.13928587515912139 0.57339806105677438 0 0.38136204680495073 0.74038592213831234 0 0.12710107136012311 0.87094806618203435 0 0.56777512057187585 0.8470224641095303 0 0.56986707178436635 0.37762093650871992 0 0.71259747807844409 0.63846691315701831 0 0.86087286690217635 0.25206523597959418 0 0.85787927391517405 0.753532520882502 0 0.54475767668582953 0.1431838882066932 0 0.71508993406183785 0.15715956854777599 0 0.86127466977819722 0.57948076978797636 0 0.75338430262320943 0.49294443423175599 0 0.80552984491000901 0.88711122872127413 0 0.86569408477091048 0.40983673916766611 0 0.71826039492840632 0.34564020717216182 0 0.63236534182377013 0.50296756406332266 0 0.61108462585082757 0.25750599582343231 0 0.49457493289300231 0.26251703776555491 0 0.73857795170433571 0.77736788564284653 0 0.87698901648812122 0.1160638338657984 0 0.90637953422180084 0.90208583328057301 0 0.4287911518546233 0.15455445427966699 0 0.2403886547178353 0.24188814792673841 0 0.18402761812864499 0.1117324051466445 0 0.33819444444448321 0.33819444444456342 0 0.1008171452988615 0.18885703697250469 0 0.084352422163911631 0.086451712656266194 0 
</DataArray>
</Points>
<Cells>
<DataArray type="UInt32" Name="connectivity" format="ascii">
7 8 8 9 9 10 10 6 5 11 11 12 12 13 13 6 6 14 14 15 15 16 16 4 13 36 35 13 6 36 5 11 28 8 7 23 36 38 35 34 39 38 28 40 42 24 37 23 28 42 27 24 34 37 24 25 34 34 38 43 23 37 45 8 23 45 10 36 6 28 11 40 0 26 44 13 35 12 25 0 44 26 27 39 12 40 11 38 39 42 37 34 43 34 44 39 10 41 36 25 44 34 12 35 40 35 38 42 10 9 41 36 41 43 8 45 9 9 45 41 27 42 39 36 43 38 26 39 44 35 42 40 37 41 45 37 43 41 46 56 57 53 57 56 49 47 52 4 31 16 49 60 47 52 55 19 51 48 56 52 53 55 31 32 50 54 49 62 17 62 49 17 49 18 21 20 48 32 51 50 33 51 32 18 49 52 1 62 17 53 56 55 18 52 19 52 47 53 16 31 63 51 61 48 20 19 55 14 46 6 51 56 58 10 47 9 55 56 48 8 54 7 22 7 54 20 55 48 33 61 51 33 2 61 31 50 63 6 46 57 21 61 2 10 57 47 46 58 56 51 58 50 53 47 57 14 59 46 9 47 60 10 6 57 54 60 49 8 60 54 15 59 14 1 22 62 21 48 61 8 9 60 46 59 58 16 63 15 15 63 59 50 59 63 22 54 62 50 58 59 14 6 13 11 67 64 4 65 30 4 16 65 13 12 66 15 14 66 65 64 67 16 15 64 12 11 64 15 66 64 12 64 66 11 5 67 16 64 65 14 13 66 3 68 29 3 30 68 29 67 5 30 65 68 29 68 67 67 68 65 
</DataArray>
<DataArray type="UInt32" Name="offsets" format="ascii">
2 4 6 8 10 12 14 16 18 20 22 24 27 30 33 36 39 42 45 48 51 54 57 60 63 66 69 72 75 78 81 84 87 90 93 96 99 102 105 108 111 114 117 120 123 126 129 132 135 138 141 144 147 150 153 156 159 162 165 168 171 174 177 180 183 186 189 192 195 198 201 204 207 210 213 216 219 222 225 228 231 234 237 240 243 246 249 252 255 258 261 264 267 270 273 276 279 282 285 288 291 294 297 300 303 306 309 312 315 318 321 324 327 330 333 336 339 342 345 348 351 354 357 360 
</DataArray>
<DataArray type="UInt32" Name="types" format="ascii">
3 3 3 3 3 3 3 3 3 3 3 3 5 5 5 5 5 5 5 5 5 5 5 5 5 5 5 5 5 5 5 5 5 5 5 5 5 5 5 5 5 5 5 5 5 5 5 5 5 5 5 5 5 5 5 5 5 5 5 5 5 5 5 5 5 5 5 5 5 5 5 5 5 5 5 5 5 5 5 5 5 5 5 5 5 5 5 5 5 5 5 5 5 5 5 5 5 5 5 5 5 5 5 5 5 5 5 5 5 5 5 5 5 5 5 5 5 5 5 5 5 5 5 5 
</DataArray>
</Cells>
<CellData Scalars="age_conc,U235_conc," Vectors="" Tensors="">
<DataArray type="Float64" Name="age_conc" format="ascii">
21835.405982371627 35828.020963210474 42408.285092627579 44498.620300558818 44946.474481465462 44946.474471857218 44946.474485834908 44925.353397593957 44925.68650385426 44946.474444530024 44946.474484096099 44946.474477217591 44946.474475311988 44946.474475310555 44946.474475312105 38560.082731291244 44946.474475312069 44946.366342764435 44946.474475312054 39782.513175884669 44946.474475312112 44575.187686095582 40629.188579581722 44945.989945596273 44915.548065187199 44208.30977378758 44945.841674252049 44946.474475312105 44493.634007349079 44946.474475312163 39830.435594596041 44946.282712825086 44946.474475312127 44946.473346966879 44929.778486174779 44927.965228637018 44946.104544803726 44527.678775440269 44946.474475312098 44946.474475312178 44919.06690219634 44946.474475311865 44698.217280914032 44936.869705028446 44946.473967848156 44946.472961423198 44937.641371407772 44946.474475312185 44945.593642381566 44946.462820186483 44946.474475312127 44946.469666781799 44931.541941160998 44946.474475312105 44946.459779712597 44524.753936165267 44946.117685020348 44925.262306696277 44946.474475312025 44904.60512353386 44379.205290425423 40018.657487655575 39965.483897344326 44946.47400277188 44946.333891578943 44545.81058693245 37908.885586609926 44945.892962162179 39761.555030632611 44946.028884012965 44946.474475312039 44927.450228688111 39615.261040168007 44946.474475312301 44946.470500701354 44946.47447531217 44930.799303293352 44318.416831843635 38907.014180223348 44503.329775392885 44939.929190864255 44467.967858765747 44946.474475312127 44946.474475312229 39662.165299466462 44946.474475312105 44946.474475312149 44946.474475312076 44946.468432339199 44946.474475312069 44946.467400256726 44946.474475312127 44944.985548768491 44917.302519183002 44946.474475312149 38268.187668020539 44421.139410116033 44945.469708363664 44946.474475312134 44946.474475312098 44946.474475312149 44946.474475312243 44247.990852337061 44946.474475311887 44946.47447519641 44946.474475301802 44946.474475311799 44946.474475349212 44946.47447579851 44946.474473753435 44946.474475312309 44946.474475740535 44946.474475147319 44946.474475242685 44946.474475332645 44946.474475593161 44946.47447534019 44946.474475305949 44946.474475312105 44946.474475312105 44946.474475330622 44946.474475312032 44946.47447531228 44946.474475312083 
</DataArray>
<DataArray type="Float64" Name="U235_conc" format="ascii">
0.74150778988653798 0.39211725393816266 0.13792478925224311 0.031188769354962943 0 0 8.7398752153755978e-05 0.0023845676865971396 0.0023460507153086466 8.6259631686616279e-05 0 0 0 6.8896522058006821e-07 0 0.23705051729791407 1.604126961840098e-09 9.0810437744149078e-06 0 0.18946806465529067 3.863506090698905e-10 0.01823185415085456 0.15845928639280038 3.979331459501216e-05 0.0019232448311657863 0.036236179358464439 7.4007019947937018e-05 0 0.02212096230348563 0 0.18667954044952453 1.5920522340961635e-05 0 1.6005772603676338e-07 0.0010353646152014013 0.0011466034099058314 4.535429098746239e-05 0.020482740570518656 0 4.6023813090918885e-10 0.0020069492360539143 3.9012671128005992e-08 0.014287973798953909 0.00073553614203151238 7.1923974074783786e-08 2.0937773687063534e-07 0.00055311799891508476 0 7.3655247627454741e-05 1.6503593194249969e-06 6.6417208442415569e-09 6.6743567988324339e-07 0.00092580131188083514 0 2.0215843894194518e-06 0.020641260648550704 2.9316582748780162e-05 0.0013127504119770388 4.0523867879830644e-10 0.0025792942074048999 0.027724658832664291 0.18007028702588049 0.18212586302600092 6.6786348895969116e-08 1.1753794929090175e-05 0.01960682815559105 0.2562759399229661 4.7694520463605469e-05 0.18952099397837371 3.6577480789721972e-05 0 0.0011762243760205303 0.1949414181804619 0 5.507871189619795e-07 9.5403384871755342e-09 0.00097066388764731814 0.030531999606105385 0.21925593639547322 0.021687435151989388 0.00041290680932828125 0.023339277653712184 0 0 0.19232402450576164 2.7943402995162141e-09 6.3224221565503502e-11 4.5839258371051462e-09 8.3518466140250943e-07 0 9.8062007542395001e-07 0 0.00012134458807062781 0.0017937162691091619 0 0.24362907520217925 0.025614213719076233 8.1763815225434748e-05 0 0 0 0 0.034030408726294273 0 1.9032261245167856e-05 0 0 0 0 0 0 0 0 0 0 0 0 0 0 0 0 0 0 0 
</DataArray>
</CellData>
</Piece>
</UnstructuredGrid>
</VTKFile>
