<?xml version="1.0"?>
<VTKFile type="UnstructuredGrid" version="0.1" byte_order="LittleEndian">
<UnstructuredGrid>
<Piece NumberOfPoints="441" NumberOfCells="800">
<Points>
<DataArray type="Float64" NumberOfComponents="3" format="ascii">
1.000000000000000e+00 0.000000000000000e+00 0.000000000000000e+00 1.000000000000000e+00 1.000000000000000e+00 0.000000000000000e+00 0.000000000000000e+00 0.000000000000000e+00 0.000000000000000e+00 0.000000000000000e+00 1.000000000000000e+00 0.000000000000000e+00 1.000000000000000e+00 4.999999999989965e-02 0.000000000000000e+00 1.000000000000000e+00 9.999999999981467e-02 0.000000000000000e+00 1.000000000000000e+00 1.499999999997036e-01 0.000000000000000e+00 1.000000000000000e+00 1.999999999995579e-01 0.000000000000000e+00 1.000000000000000e+00 2.499999999994121e-01 0.000000000000000e+00 1.000000000000000e+00 2.999999999992664e-01 0.000000000000000e+00 1.000000000000000e+00 3.499999999991206e-01 0.000000000000000e+00 1.000000000000000e+00 3.999999999989749e-01 0.000000000000000e+00 1.000000000000000e+00 4.499999999988292e-01 0.000000000000000e+00 1.000000000000000e+00 4.999999999986943e-01 0.000000000000000e+00 1.000000000000000e+00 5.499999999988151e-01 0.000000000000000e+00 1.000000000000000e+00 5.999999999989468e-01 0.000000000000000e+00 1.000000000000000e+00 6.499999999990784e-01 0.000000000000000e+00 1.000000000000000e+00 6.999999999992100e-01 0.000000000000000e+00 1.000000000000000e+00 7.499999999993417e-01 0.000000000000000e+00 1.000000000000000e+00 7.999999999994734e-01 0.000000000000000e+00 1.000000000000000e+00 8.499999999996051e-01 0.000000000000000e+00 1.000000000000000e+00 8.999999999997368e-01 0.000000000000000e+00 1.000000000000000e+00 9.499999999998684e-01 0.000000000000000e+00 0.000000000000000e+00 4.999999999989965e-02 0.000000000000000e+00 0.000000000000000e+00 9.999999999981467e-02 0.000000000000000e+00 0.000000000000000e+00 1.499999999997036e-01 0.000000000000000e+00 0.000000000000000e+00 1.999999999995579e-01 0.000000000000000e+00 0.000000000000000e+00 2.499999999994121e-01 0.000000000000000e+00 0.000000000000000e+00 2.999999999992664e-01 0.000000000000000e+00 0.000000000000000e+00 3.499999999991206e-01 0.000000000000000e+00 0.000000000000000e+00 3.999999999989749e-01 0.000000000000000e+00 0.000000000000000e+00 4.499999999988292e-01 0.000000000000000e+00 0.000000000000000e+00 4.999999999986943e-01 0.000000000000000e+00 0.000000000000000e+00 5.499999999988151e-01 0.000000000000000e+00 0.000000000000000e+00 5.999999999989468e-01 0.000000000000000e+00 0.000000000000000e+00 6.499999999990784e-01 0.000000000000000e+00 0.000000000000000e+00 6.999999999992100e-01 0.000000000000000e+00 0.000000000000000e+00 7.499999999993417e-01 0.000000000000000e+00 0.000000000000000e+00 7.999999999994734e-01 0.000000000000000e+00 0.000000000000000e+00 8.499999999996051e-01 0.000000000000000e+00 0.000000000000000e+00 8.999999999997368e-01 0.000000000000000e+00 0.000000000000000e+00 9.499999999998684e-01 0.000000000000000e+00 9.500000000000000e-01 0.000000000000000e+00 0.000000000000000e+00 9.000000000000000e-01 0.000000000000000e+00 0.000000000000000e+00 8.500000000000000e-01 0.000000000000000e+00 0.000000000000000e+00 8.000000000000000e-01 0.000000000000000e+00 0.000000000000000e+00 7.500000000000000e-01 0.000000000000000e+00 0.000000000000000e+00 7.000000000000000e-01 0.000000000000000e+00 0.000000000000000e+00 6.500000000000000e-01 0.000000000000000e+00 0.000000000000000e+00 6.000000000000000e-01 0.000000000000000e+00 0.000000000000000e+00 5.500000000000000e-01 0.000000000000000e+00 0.000000000000000e+00 5.000000000000000e-01 0.000000000000000e+00 0.000000000000000e+00 4.500000000000000e-01 0.000000000000000e+00 0.000000000000000e+00 4.000000000000000e-01 0.000000000000000e+00 0.000000000000000e+00 3.500000000000000e-01 0.000000000000000e+00 0.000000000000000e+00 3.000000000000000e-01 0.000000000000000e+00 0.000000000000000e+00 2.500000000000000e-01 0.000000000000000e+00 0.000000000000000e+00 2.000000000000000e-01 0.000000000000000e+00 0.000000000000000e+00 1.500000000000000e-01 0.000000000000000e+00 0.000000000000000e+00 9.999999999999998e-02 0.000000000000000e+00 0.000000000000000e+00 5.000000000000004e-02 0.000000000000000e+00 0.000000000000000e+00 9.500000000000000e-01 1.000000000000000e+00 0.000000000000000e+00 9.000000000000000e-01 1.000000000000000e+00 0.000000000000000e+00 8.500000000000000e-01 1.000000000000000e+00 0.000000000000000e+00 8.000000000000000e-01 1.000000000000000e+00 0.000000000000000e+00 7.500000000000000e-01 1.000000000000000e+00 0.000000000000000e+00 7.000000000000000e-01 1.000000000000000e+00 0.000000000000000e+00 6.500000000000000e-01 1.000000000000000e+00 0.000000000000000e+00 6.000000000000000e-01 1.000000000000000e+00 0.000000000000000e+00 5.500000000000000e-01 1.000000000000000e+00 0.000000000000000e+00 5.000000000000000e-01 1.000000000000000e+00 0.000000000000000e+00 4.500000000000000e-01 1.000000000000000e+00 0.000000000000000e+00 4.000000000000000e-01 1.000000000000000e+00 0.000000000000000e+00 3.500000000000000e-01 1.000000000000000e+00 0.000000000000000e+00 3.000000000000000e-01 1.000000000000000e+00 0.000000000000000e+00 2.500000000000000e-01 1.000000000000000e+00 0.000000000000000e+00 2.000000000000000e-01 1.000000000000000e+00 0.000000000000000e+00 1.500000000000000e-01 1.000000000000000e+00 0.000000000000000e+00 9.999999999999998e-02 1.000000000000000e+00 0.000000000000000e+00 5.000000000000004e-02 1.000000000000000e+00 0.000000000000000e+00 9.500000000000000e-01 4.999999999989965e-02 0.000000000000000e+00 9.000000000000000e-01 4.999999999989965e-02 0.000000000000000e+00 8.500000000000000e-01 4.999999999989965e-02 0.000000000000000e+00 8.000000000000000e-01 4.999999999989965e-02 0.000000000000000e+00 7.500000000000000e-01 4.999999999989965e-02 0.000000000000000e+00 7.000000000000000e-01 4.999999999989965e-02 0.000000000000000e+00 6.500000000000000e-01 4.999999999989965e-02 0.000000000000000e+00 6.000000000000000e-01 4.999999999989965e-02 0.000000000000000e+00 5.500000000000000e-01 4.999999999989965e-02 0.000000000000000e+00 5.000000000000000e-01 4.999999999989965e-02 0.000000000000000e+00 4.500000000000000e-01 4.999999999989965e-02 0.000000000000000e+00 4.000000000000000e-01 4.999999999989965e-02 0.000000000000000e+00 3.500000000000000e-01 4.999999999989965e-02 0.000000000000000e+00 3.000000000000000e-01 4.999999999989965e-02 0.000000000000000e+00 2.500000000000000e-01 4.999999999989965e-02 0.000000000000000e+00 2.000000000000000e-01 4.999999999989965e-02 0.000000000000000e+00 1.500000000000000e-01 4.999999999989965e-02 0.000000000000000e+00 9.999999999999998e-02 4.999999999989965e-02 0.000000000000000e+00 5.000000000000004e-02 4.999999999989965e-02 0.000000000000000e+00 9.500000000000000e-01 9.999999999981467e-02 0.000000000000000e+00 9.000000000000000e-01 9.999999999981467e-02 0.000000000000000e+00 8.500000000000000e-01 9.999999999981467e-02 0.000000000000000e+00 8.000000000000000e-01 9.999999999981467e-02 0.000000000000000e+00 7.500000000000000e-01 9.999999999981467e-02 0.000000000000000e+00 7.000000000000000e-01 9.999999999981467e-02 0.000000000000000e+00 6.500000000000000e-01 9.999999999981467e-02 0.000000000000000e+00 6.000000000000000e-01 9.999999999981467e-02 0.000000000000000e+00 5.500000000000000e-01 9.999999999981467e-02 0.000000000000000e+00 5.000000000000000e-01 9.999999999981467e-02 0.000000000000000e+00 4.500000000000000e-01 9.999999999981467e-02 0.000000000000000e+00 4.000000000000000e-01 9.999999999981467e-02 0.000000000000000e+00 3.500000000000000e-01 9.999999999981467e-02 0.000000000000000e+00 3.000000000000000e-01 9.999999999981467e-02 0.000000000000000e+00 2.500000000000000e-01 9.999999999981467e-02 0.000000000000000e+00 2.000000000000000e-01 9.999999999981467e-02 0.000000000000000e+00 1.500000000000000e-01 9.999999999981467e-02 0.000000000000000e+00 9.999999999999998e-02 9.999999999981467e-02 0.000000000000000e+00 5.000000000000004e-02 9.999999999981467e-02 0.000000000000000e+00 9.500000000000000e-01 1.499999999997036e-01 0.000000000000000e+00 9.000000000000000e-01 1.499999999997036e-01 0.000000000000000e+00 8.500000000000000e-01 1.499999999997036e-01 0.000000000000000e+00 8.000000000000000e-01 1.499999999997036e-01 0.000000000000000e+00 7.500000000000000e-01 1.499999999997036e-01 0.000000000000000e+00 7.000000000000000e-01 1.499999999997036e-01 0.000000000000000e+00 6.500000000000000e-01 1.499999999997036e-01 0.000000000000000e+00 6.000000000000000e-01 1.499999999997036e-01 0.000000000000000e+00 5.500000000000000e-01 1.499999999997036e-01 0.000000000000000e+00 5.000000000000000e-01 1.499999999997036e-01 0.000000000000000e+00 4.500000000000000e-01 1.499999999997036e-01 0.000000000000000e+00 4.000000000000000e-01 1.499999999997036e-01 0.000000000000000e+00 3.500000000000000e-01 1.499999999997036e-01 0.000000000000000e+00 3.000000000000000e-01 1.499999999997036e-01 0.000000000000000e+00 2.500000000000000e-01 1.499999999997036e-01 0.000000000000000e+00 2.000000000000000e-01 1.499999999997036e-01 0.000000000000000e+00 1.500000000000000e-01 1.499999999997036e-01 0.000000000000000e+00 9.999999999999998e-02 1.499999999997036e-01 0.000000000000000e+00 5.000000000000004e-02 1.499999999997036e-01 0.000000000000000e+00 9.500000000000000e-01 1.999999999995579e-01 0.000000000000000e+00 9.000000000000000e-01 1.999999999995579e-01 0.000000000000000e+00 8.500000000000000e-01 1.999999999995579e-01 0.000000000000000e+00 8.000000000000000e-01 1.999999999995579e-01 0.000000000000000e+00 7.500000000000000e-01 1.999999999995579e-01 0.000000000000000e+00 7.000000000000000e-01 1.999999999995579e-01 0.000000000000000e+00 6.500000000000000e-01 1.999999999995579e-01 0.000000000000000e+00 6.000000000000000e-01 1.999999999995579e-01 0.000000000000000e+00 5.500000000000000e-01 1.999999999995579e-01 0.000000000000000e+00 5.000000000000000e-01 1.999999999995579e-01 0.000000000000000e+00 4.500000000000000e-01 1.999999999995579e-01 0.00000000000000
[...]
<CellData Scalars="pressure_p0," Vectors="velocity_p0," Tensors="">
<DataArray type="Float64" Name="pressure_p0" format="ascii">
1.666666666666644e-03 3.333333333333311e-03 6.666666666666585e-03 8.333333333333276e-03 1.166666666666651e-02 1.333333333333325e-02 1.666666666666645e-02 1.833333333333322e-02 2.166666666666639e-02 2.333333333333320e-02 2.666666666666637e-02 2.833333333333318e-02 3.166666666666634e-02 3.333333333333317e-02 3.666666666666631e-02 3.833333333333314e-02 4.166666666666624e-02 4.333333333333311e-02 4.666666666666618e-02 4.833333333333306e-02 5.166666666666613e-02 5.333333333333306e-02 5.666666666666617e-02 5.833333333333311e-02 6.166666666666626e-02 6.333333333333310e-02 6.666666666666626e-02 6.833333333333315e-02 7.166666666666630e-02 7.333333333333313e-02 7.666666666666626e-02 7.833333333333313e-02 8.166666666666625e-02 8.333333333333312e-02 8.666666666666632e-02 8.833333333333317e-02 9.166666666666642e-02 9.333333333333323e-02 9.666666666666651e-02 9.833333333333330e-02 1.666666666666616e-03 3.333333333333251e-03 6.666666666666468e-03 8.333333333333127e-03 1.166666666666629e-02 1.333333333333298e-02 1.666666666666612e-02 1.833333333333285e-02 2.166666666666595e-02 2.333333333333273e-02 2.666666666666587e-02 2.833333333333269e-02 3.166666666666587e-02 3.333333333333267e-02 3.666666666666576e-02 3.833333333333255e-02 4.166666666666564e-02 4.333333333333245e-02 4.666666666666541e-02 4.833333333333228e-02 5.166666666666531e-02 5.333333333333228e-02 5.666666666666537e-02 5.833333333333236e-02 6.166666666666554e-02 6.333333333333246e-02 6.666666666666569e-02 6.833333333333259e-02 7.166666666666575e-02 7.333333333333258e-02 7.666666666666568e-02 7.833333333333255e-02 8.166666666666571e-02 8.333333333333259e-02 8.666666666666585e-02 8.833333333333275e-02 9.166666666666612e-02 9.333333333333294e-02 9.666666666666633e-02 9.833333333333318e-02 1.666666666666592e-03 3.333333333333200e-03 6.666666666666370e-03 8.333333333332990e-03 1.166666666666611e-02 1.333333333333275e-02 1.666666666666581e-02 1.833333333333249e-02 2.166666666666553e-02 2.333333333333229e-02 2.666666666666542e-02 2.833333333333224e-02 3.166666666666544e-02 3.333333333333224e-02 3.666666666666540e-02 3.833333333333214e-02 4.166666666666517e-02 4.333333333333186e-02 4.666666666666476e-02 4.833333333333154e-02 5.166666666666443e-02 5.333333333333137e-02 5.666666666666449e-02 5.833333333333154e-02 6.166666666666488e-02 6.333333333333187e-02 6.666666666666514e-02 6.833333333333200e-02 7.166666666666519e-02 7.333333333333200e-02 7.666666666666508e-02 7.833333333333192e-02 8.166666666666512e-02 8.333333333333201e-02 8.666666666666537e-02 8.833333333333229e-02 9.166666666666581e-02 9.333333333333273e-02 9.666666666666629e-02 9.833333333333309e-02 1.666666666666574e-03 3.333333333333162e-03 6.666666666666302e-03 8.333333333332882e-03 1.166666666666596e-02 1.333333333333255e-02 1.666666666666553e-02 1.833333333333214e-02 2.166666666666511e-02 2.333333333333184e-02 2.666666666666495e-02 2.833333333333178e-02 3.166666666666505e-02 3.333333333333185e-02 3.666666666666509e-02 3.833333333333182e-02 4.166666666666489e-02 4.333333333333144e-02 4.666666666666427e-02 4.833333333333092e-02 5.166666666666375e-02 5.333333333333058e-02 5.666666666666374e-02 5.833333333333077e-02 6.166666666666425e-02 6.333333333333128e-02 6.666666666666471e-02 6.833333333333158e-02 7.166666666666482e-02 7.333333333333157e-02 7.666666666666472e-02 7.833333333333146e-02 8.166666666666472e-02 8.333333333333159e-02 8.666666666666503e-02 8.833333333333197e-02 9.166666666666558e-02 9.333333333333255e-02 9.666666666666623e-02 9.833333333333316e-02 1.666666666666563e-03 3.333333333333135e-03 6.666666666666269e-03 8.333333333332825e-03 1.166666666666589e-02 1.333333333333241e-02 1.666666666666533e-02 1.833333333333187e-02 2.166666666666477e-02 2.333333333333143e-02 2.666666666666454e-02 2.833333333333136e-02 3.166666666666471e-02 3.333333333333155e-02 3.666666666666493e-02 3.833333333333162e-02 4.166666666666475e-02 4.333333333333123e-02 4.666666666666405e-02 4.833333333333051e-02 5.166666666666332e-02 5.333333333333000e-02 5.666666666666320e-02 5.833333333333016e-02 6.166666666666379e-02 6.333333333333081e-02 6.666666666666443e-02 6.833333333333130e-02 7.166666666666471e-02 7.333333333333136e-02 7.666666666666459e-02 7.833333333333120e-02 8.166666666666450e-02 8.333333333333125e-02 8.666666666666478e-02 8.833333333333164e-02 9.166666666666537e-02 9.333333333333232e-02 9.666666666666612e-02 9.833333333333309e-02 1.666666666666561e-03 3.333333333333131e-03 6.666666666666285e-03 8.333333333332818e-03 1.166666666666590e-02 1.333333333333238e-02 1.666666666666529e-02 1.833333333333172e-02 2.166666666666459e-02 2.333333333333115e-02 2.666666666666426e-02 2.833333333333105e-02 3.166666666666450e-02 3.333333333333133e-02 3.666666666666488e-02 3.833333333333160e-02 4.166666666666488e-02 4.333333333333127e-02 4.666666666666414e-02 4.833333333333045e-02 5.166666666666325e-02 5.333333333332976e-02 5.666666666666297e-02 5.833333333332982e-02 6.166666666666354e-02 6.333333333333055e-02 6.666666666666433e-02 6.833333333333122e-02 7.166666666666476e-02 7.333333333333142e-02 7.666666666666470e-02 7.833333333333128e-02 8.166666666666461e-02 8.333333333333127e-02 8.666666666666478e-02 8.833333333333163e-02 9.166666666666534e-02 9.333333333333227e-02 9.666666666666614e-02 9.833333333333308e-02 1.666666666666565e-03 3.333333333333140e-03 6.666666666666330e-03 8.333333333332875e-03 1.166666666666601e-02 1.333333333333246e-02 1.666666666666539e-02 1.833333333333175e-02 2.166666666666460e-02 2.333333333333105e-02 2.666666666666417e-02 2.833333333333086e-02 3.166666666666439e-02 3.333333333333124e-02 3.666666666666496e-02 3.833333333333169e-02 4.166666666666514e-02 4.333333333333156e-02 4.666666666666454e-02 4.833333333333073e-02 5.166666666666356e-02 5.333333333332985e-02 5.666666666666308e-02 5.833333333332975e-02 6.166666666666357e-02 6.333333333333048e-02 6.666666666666442e-02 6.833333333333126e-02 7.166666666666499e-02 7.333333333333161e-02 7.666666666666502e-02 7.833333333333149e-02 8.166666666666486e-02 8.333333333333136e-02 8.666666666666487e-02 8.833333333333158e-02 9.166666666666530e-02 9.333333333333221e-02 9.666666666666610e-02 9.833333333333309e-02 1.666666666666573e-03 3.333333333333161e-03 6.666666666666397e-03 8.333333333332967e-03 1.166666666666618e-02 1.333333333333264e-02 1.666666666666562e-02 1.833333333333194e-02 2.166666666666481e-02 2.333333333333117e-02 2.666666666666426e-02 2.833333333333086e-02 3.166666666666440e-02 3.333333333333124e-02 3.666666666666511e-02 3.833333333333191e-02 4.166666666666553e-02 4.333333333333199e-02 4.666666666666516e-02 4.833333333333131e-02 5.166666666666420e-02 5.333333333333035e-02 5.666666666666358e-02 5.833333333333007e-02 6.166666666666384e-02 6.333333333333069e-02 6.666666666666468e-02 6.833333333333153e-02 7.166666666666537e-02 7.333333333333202e-02 7.666666666666554e-02 7.833333333333195e-02 8.166666666666533e-02 8.333333333333182e-02 8.666666666666528e-02 8.833333333333189e-02 9.166666666666549e-02 9.333333333333224e-02 9.666666666666605e-02 9.833333333333308e-02 1.666666666666585e-03 3.333333333333188e-03 6.666666666666476e-03 8.333333333333071e-03 1.166666666666639e-02 1.333333333333287e-02 1.666666666666597e-02 1.833333333333226e-02 2.166666666666519e-02 2.333333333333146e-02 2.666666666666456e-02 2.833333333333105e-02 3.166666666666461e-02 3.333333333333137e-02 3.666666666666534e-02 3.833333333333216e-02 4.166666666666599e-02 4.333333333333250e-02 4.666666666666587e-02 4.833333333333203e-02 5.166666666666502e-02 5.333333333333110e-02 5.666666666666428e-02 5.833333333333064e-02 6.166666666666432e-02 6.333333333333101e-02 6.666666666666499e-02 6.833333333333186e-02 7.166666666666574e-02 7.333333333333243e-02 7.666666666666602e-02 7.833333333333251e-02 8.166666666666586e-02 8.333333333333232e-02 8.666666666666570e-02 8.833333333333224e-02 9.166666666666581e-02 9.333333333333246e-02 9.666666666666614e-02 9.833333333333302e-02 1.666666666666601e-03 3.333333333333225e-03 6.666666666666571e-03 8.333333333333203e-03 1.166666666666663e-02 1.333333333333317e-02 1.666666666666642e-02 1.833333333333273e-02 2.166666666666575e-02 2.333333333333196e-02 2.666666666666507e-02 2.833333333333147e-02 3.166666666666503e-02 3.333333333333170e-02 3.666666666666568e-02 3.833333333333253e-02 4.166666666666653e-02 4.333333333333313e-02 4.666666666666666e-02 4.833333333333291e-02 5.166666666666603e-02 5.333333333333205e-02 5.666666666666523e-02 5.833333333333142e-02 6.166666666666499e-02 6.333333333333152e-02 6.666666666666544e-02 6.833333333333219e-02 7.166666666666616e-02 7.333333333333283e-02 7.666666666666655e-02 7.833333333333305e-02 8.166666666666648e-02 8.333333333333287e-02 8.666666666666624e-02 8.833333333333268e-02 9.166666666666620e-02 9.333333333333277e-02 9.666666666666640e-02 9.833333333333315e-02 1.666666666666620e-03 3.333333333333261e-03 6.666666666666651e-03 8.333333333333330e-03 1.166666666666685e-02 1.333333333333346e-02 1.666666666666687e-02 1.833333333333326e-02 2.166666666666641e-02 2.333333333333262e-02 2.666666666666576e-02 2.833333333333205e-02 3.166666666666557e-02 3.333333333333216e-02 3.666666666666610e-02 3.833333333333291e-02 4.166666666666700e-02 4.333333333333371e-02 4.666666666666743e-02 4.833333333333378e-02 5.166666666666713e-02 5.333333333333317e-02 5.666666666666639e-02 5.833333333333243e-02 6.166666666666590e-02 6.333333333333228e-02 6.666666666666610e-02 6.833333333333270e-02 7.166666666666663e-02 7.333333333333328e-02 7.666666666666699e-02 7.833333333333353e-02 8.166666666666697e-02 8.333333333333345e-02 8.666666666666679e-02 8.833333333333321e-02 9.166666666666667e-02 9.333333333333318e-02 9.666666666666664e-02 9.833333333333330e-02 1.666666666666641e-03 3.333333333333304e-03 6.666666666666728e-03 8.333333333333443e-03 1.166666666666705e-02 1.333333333333375e-02 1.666666666666731e-02 1.833333333333380e-02 2.166666666666711e-02 2.333333333333338e-02 2.666666666666658e-02 2.833333333333284e-02 3.166666666666627e-02 3.333333333333275e-02 3.666666666666661e-02 3.833333333333339e-02 4.166666666666748e-02 4.333333333333425e-02 4.666666666666813e-02 4.833333333333464e-02 5.166666666666817e-02 5.333333333333434e-02 5.666666666666762e-02 5.833333333333369e-02 6.166666666666704e-02 6.333333333333326e-02 6.666666666666690e-02 6.833333333333340e-02 7.166666666666717e-02 7.333333333333381e-02 7.666666666666749e-02 7.833333333333406e-02 8.166666666666746e-02 8.333333333333390e-02 8.666666666666724e-02 8.833333333333367e-02 9.166666666666709e-02 9.333333333333352e-02 9.666666666666676e-02 9.833333333333336e-02 1.666666666666661e-03 3.333333333333339e-03 6.666666666666781e-03 8.333333333333519e-03 1.166666666666716e-02 1.333333333333394e-02 1.666666666666761e-02 1.833333333333424e-02 2.166666666666769e-02 2.333333333333409e-02 2.666666666666735e-02 2.833333333333363e-02 3.166666666666698e-02 3.333333333333340e-02 3.666666666666708e-02 3.833333333333383e-02 4.166666666666779e-02 4.333333333333462e-02 4.666666666666852e-02 4.833333333333525e-02 5.166666666666887e-02 5.333333333333528e-02 5.666666666666858e-02 5.833333333333476e-02 6.166666666666797e-02 6.333333333333421e-02 6.666666666666760e-02 6.833333333333404e-02 7.166666666666757e-02 7.333333333333421e-02 7.666666666666780e-02 7.833333333333448e-02 8.166666666666789e-02 8.333333333333441e-02 8.666666666666774e-02 8.833333333333421e-02 9.166666666666749e-02 9.333333333333396e-02 9.666666666666701e-02 9.833333333333348e-02 1.666666666666684e-03 3.333333333333374e-03 6.666666666666824e-03 8.333333333333574e-03 1.166666666666722e-02 1.333333333333405e-02 1.666666666666780e-02 1.833333333333454e-02 2.166666666666811e-02 2.333333333333464e-02 2.666666666666799e-02 2.833333333333436e-02 3.166666666666766e-02 3.333333333333403e-02 3.666666666666756e-02 3.833333333333420e-02 4.166666666666804e-02 4.333333333333487e-02 4.666666666666873e-02 4.833333333333557e-02 5.166666666666929e-02 5.333333333333588e-02 5.666666666666924e-02 5.833333333333558e-02 6.166666666666871e-02 6.333333333333496e-02 6.666666666666818e-02 6.833333333333458e-02 7.166666666666791e-02 7.333333333333451e-02 7.666666666666799e-02 7.833333333333468e-02 8.166666666666801e-02 8.333333333333466e-02 8.666666666666789e-02 8.833333333333449e-02 9.166666666666765e-02 9.333333333333413e-02 9.666666666666708e-02 9.833333333333355e-02 1.666666666666708e-03 3.333333333333410e-03 6.666666666666862e-03 8.333333333333611e-03 1.166666666666723e-02 1.333333333333409e-02 1.666666666666785e-02 1.833333333333470e-02 2.166666666666834e-02 2.333333333333502e-02 2.666666666666845e-02 2.833333333333492e-02 3.166666666666820e-02 3.333333333333460e-02 3.666666666666797e-02 3.833333333333457e-02 4.166666666666821e-02 4.333333333333502e-02 4.666666666666879e-02 4.833333333333567e-02 5.166666666666941e-02 5.333333333333617e-02 5.666666666666959e-02 5.833333333333607e-02 6.166666666666920e-02 6.333333333333555e-02 6.666666666666862e-02 6.833333333333501e-02 7.166666666666818e-02 7.333333333333471e-02 7.666666666666803e-02 7.833333333333470e-02 8.166666666666794e-02 8.333333333333459e-02 8.666666666666781e-02 8.833333333333447e-02 9.166666666666762e-02 9.333333333333411e-02 9.666666666666698e-02 9.833333333333349e-02 1.666666666666726e-03 3.333333333333440e-03 6.666666666666885e-03 8.333333333333626e-03 1.166666666666719e-02 1.333333333333405e-02 1.666666666666777e-02 1.833333333333467e-02 2.166666666666834e-02 2.333333333333516e-02 2.666666666666862e-02 2.833333333333525e-02 3.166666666666852e-02 3.333333333333500e-02 3.666666666666822e-02 3.833333333333482e-02 4.166666666666825e-02 4.333333333333501e-02 4.666666666666860e-02 4.833333333333557e-02 5.166666666666923e-02 5.333333333333614e-02 5.666666666666954e-02 5.833333333333625e-02 6.166666666666933e-02 6.333333333333584e-02 6.666666666666882e-02 6.833333333333524e-02 7.166666666666828e-02 7.333333333333483e-02 7.666666666666798e-02 7.833333333333467e-02 8.166666666666783e-02 8.333333333333452e-02 8.666666666666771e-02 8.833333333333440e-02 9.166666666666755e-02 9.333333333333414e-02 9.666666666666704e-02 9.833333333333351e-02 1.666666666666738e-03 3.333333333333462e-03 6.666666666666895e-03 8.333333333333628e-03 1.166666666666712e-02 1.333333333333396e-02 1.666666666666759e-02 1.833333333333451e-02 2.166666666666813e-02 2.333333333333504e-02 2.666666666666852e-02 2.833333333333529e-02 3.166666666666856e-02 3.333333333333516e-02 3.666666666666829e-02 3.833333333333490e-02 4.166666666666819e-02 4.333333333333493e-02 4.666666666666836e-02 4.833333333333528e-02 5.166666666666886e-02 5.333333333333582e-02 5.666666666666921e-02 5.833333333333603e-02 6.166666666666912e-02 6.333333333333578e-02 6.666666666666873e-02 6.833333333333529e-02 7.166666666666825e-02 7.333333333333480e-02 7.666666666666788e-02 7.833333333333450e-02 8.166666666666754e-02 8.333333333333424e-02 8.666666666666741e-02 8.833333333333415e-02 9.166666666666734e-02 9.333333333333391e-02 9.666666666666683e-02 9.833333333333344e-02 1.666666666666736e-03 3.333333333333464e-03 6.666666666666873e-03 8.333333333333599e-03 1.166666666666702e-02 1.333333333333383e-02 1.666666666666734e-02 1.833333333333424e-02 2.166666666666777e-02 2.333333333333473e-02 2.666666666666816e-02 2.833333333333505e-02 3.166666666666829e-02 3.333333333333502e-02 3.666666666666810e-02 3.833333333333480e-02 4.166666666666794e-02 4.333333333333470e-02 4.666666666666798e-02 4.833333333333488e-02 5.166666666666830e-02 5.333333333333530e-02 5.666666666666861e-02 5.833333333333554e-02 6.166666666666863e-02 6.333333333333541e-02 6.666666666666840e-02 6.833333333333506e-02 7.166666666666802e-02 7.333333333333465e-02 7.666666666666767e-02 7.833333333333431e-02 8.166666666666733e-02 8.333333333333401e-02 8.666666666666724e-02 8.833333333333393e-02 9.166666666666723e-02 9.333333333333382e-02 9.666666666666685e-02 9.833333333333341e-02 1.666666666666717e-03 3.333333333333441e-03 6.666666666666808e-03 8.333333333333526e-03 1.166666666666687e-02 1.333333333333365e-02 1.666666666666704e-02 1.833333333333390e-02 2.166666666666730e-02 2.333333333333425e-02 2.666666666666758e-02 2.833333333333454e-02 3.166666666666772e-02 3.333333333333457e-02 3.666666666666761e-02 3.833333333333442e-02 4.166666666666749e-02 4.333333333333429e-02 4.666666666666745e-02 4.833333333333437e-02 5.166666666666764e-02 5.333333333333462e-02 5.666666666666782e-02 5.833333333333481e-02 6.166666666666785e-02 6.333333333333478e-02 6.666666666666776e-02 6.833333333333461e-02 7.166666666666754e-02 7.333333333333431e-02 7.666666666666735e-02 7.833333333333409e-02 8.166666666666719e-02 8.333333333333387e-02 8.666666666666711e-02 8.833333333333386e-02 9.166666666666713e-02 9.333333333333380e-02 9.666666666666690e-02 9.833333333333344e-02 1.666666666666681e-03 3.333333333333388e-03 6.666666666666708e-03 8.333333333333418e-03 1.166666666666672e-02 1.333333333333346e-02 1.666666666666676e-02 1.833333333333355e-02 2.166666666666682e-02 2.333333333333371e-02 2.666666666666691e-02 2.833333333333385e-02 3.166666666666696e-02 3.333333333333389e-02 3.666666666666694e-02 3.833333333333384e-02 4.166666666666691e-02 4.333333333333377e-02 4.666666666666688e-02 4.833333333333377e-02 5.166666666666692e-02 5.333333333333386e-02 5.666666666666695e-02 5.833333333333394e-02 6.166666666666697e-02 6.333333333333395e-02 6.666666666666698e-02 6.833333333333390e-02 7.166666666666692e-02 7.333333333333378e-02 7.666666666666686e-02 7.833333333333370e-02 8.166666666666683e-02 8.333333333333362e-02 8.666666666666681e-02 8.833333333333360e-02 9.166666666666684e-02 9.333333333333363e-02 9.666666666666679e-02 9.833333333333344e-02 
</DataArray>
<DataArray type="Float64" Name="velocity_p0" NumberOfComponents="3" format="ascii">