<?xml version="1.0"?>
<VTKFile type="UnstructuredGrid" version="0.1" byte_order="LittleEndian">
<UnstructuredGrid>
<Piece NumberOfPoints="714" NumberOfCells="1306">
<Points>
<DataArray type="Float64" NumberOfComponents="3" format="ascii">
0.000000000000000e+00 0.000000000000000e+00 0.000000000000000e+00 5.000000000000000e+00 0.000000000000000e+00 0.000000000000000e+00 5.000000000000000e+00 1.000000000000000e+00 0.000000000000000e+00 0.000000000000000e+00 1.000000000000000e+00 0.000000000000000e+00 9.999999999992801e-02 0.000000000000000e+00 0.000000000000000e+00 1.999999999998339e-01 0.000000000000000e+00 0.000000000000000e+00 2.999999999997341e-01 0.000000000000000e+00 0.000000000000000e+00 3.999999999996643e-01 0.000000000000000e+00 0.000000000000000e+00 4.999999999995944e-01 0.000000000000000e+00 0.000000000000000e+00 5.999999999995166e-01 0.000000000000000e+00 0.000000000000000e+00 6.999999999992880e-01 0.000000000000000e+00 0.000000000000000e+00 7.999999999989961e-01 0.000000000000000e+00 0.000000000000000e+00 8.999999999987042e-01 0.000000000000000e+00 0.000000000000000e+00 9.999999999984124e-01 0.000000000000000e+00 0.000000000000000e+00 1.099999999998120e+00 0.000000000000000e+00 0.000000000000000e+00 1.199999999997829e+00 0.000000000000000e+00 0.000000000000000e+00 1.299999999997537e+00 0.000000000000000e+00 0.000000000000000e+00 1.399999999997245e+00 0.000000000000000e+00 0.000000000000000e+00 1.499999999996953e+00 0.000000000000000e+00 0.000000000000000e+00 1.599999999996661e+00 0.000000000000000e+00 0.000000000000000e+00 1.699999999996369e+00 0.000000000000000e+00 0.000000000000000e+00 1.799999999996077e+00 0.000000000000000e+00 0.000000000000000e+00 1.899999999995785e+00 0.000000000000000e+00 0.000000000000000e+00 1.999999999995511e+00 0.000000000000000e+00 0.000000000000000e+00 2.099999999995593e+00 0.000000000000000e+00 0.000000000000000e+00 2.199999999995745e+00 0.000000000000000e+00 0.000000000000000e+00 2.299999999995897e+00 0.000000000000000e+00 0.000000000000000e+00 2.399999999996049e+00 0.000000000000000e+00 0.000000000000000e+00 2.499999999996201e+00 0.000000000000000e+00 0.000000000000000e+00 2.599999999996353e+00 0.000000000000000e+00 0.000000000000000e+00 2.699999999996505e+00 0.000000000000000e+00 0.000000000000000e+00 2.799999999996657e+00 0.000000000000000e+00 0.000000000000000e+00 2.899999999996809e+00 0.000000000000000e+00 0.000000000000000e+00 2.999999999996961e+00 0.000000000000000e+00 0.000000000000000e+00 3.099999999997114e+00 0.000000000000000e+00 0.000000000000000e+00 3.199999999997265e+00 0.000000000000000e+00 0.000000000000000e+00 3.299999999997417e+00 0.000000000000000e+00 0.000000000000000e+00 3.399999999997569e+00 0.000000000000000e+00 0.000000000000000e+00 3.499999999997721e+00 0.000000000000000e+00 0.000000000000000e+00 3.599999999997873e+00 0.000000000000000e+00 0.000000000000000e+00 3.699999999998025e+00 0.000000000000000e+00 0.000000000000000e+00 3.799999999998176e+00 0.000000000000000e+00 0.000000000000000e+00 3.899999999998329e+00 0.000000000000000e+00 0.000000000000000e+00 3.999999999998481e+00 0.000000000000000e+00 0.000000000000000e+00 4.099999999998633e+00 0.000000000000000e+00 0.000000000000000e+00 4.199999999998784e+00 0.000000000000000e+00 0.000000000000000e+00 4.299999999998937e+00 0.000000000000000e+00 0.000000000000000e+00 4.399999999999088e+00 0.000000000000000e+00 0.000000000000000e+00 4.499999999999240e+00 0.000000000000000e+00 0.000000000000000e+00 4.599999999999393e+00 0.000000000000000e+00 0.000000000000000e+00 4.699999999999545e+00 0.000000000000000e+00 0.000000000000000e+00 4.799999999999696e+00 0.000000000000000e+00 0.000000000000000e+00 4.899999999999848e+00 0.000000000000000e+00 0.000000000000000e+00 5.000000000000000e+00 9.999999999981467e-02 0.000000000000000e+00 5.000000000000000e+00 1.999999999995579e-01 0.000000000000000e+00 5.000000000000000e+00 2.999999999992664e-01 0.000000000000000e+00 5.000000000000000e+00 3.999999999989749e-01 0.000000000000000e+00 5.000000000000000e+00 4.999999999986943e-01 0.000000000000000e+00 5.000000000000000e+00 5.999999999989468e-01 0.000000000000000e+00 5.000000000000000e+00 6.999999999992100e-01 0.000000000000000e+00 5.000000000000000e+00 7.999999999994734e-01 0.000000000000000e+00 5.000000000000000e+00 8.999999999997368e-01 0.000000000000000e+00 4.899999999999999e+00 1.000000000000000e+00 0.000000000000000e+00 4.800000000000000e+00 1.000000000000000e+00 0.000000000000000e+00 4.699999999999999e+00 1.000000000000000e+00 0.000000000000000e+00 4.600000000000000e+00 1.000000000000000e+00 0.000000000000000e+00 4.499999999999999e+00 1.000000000000000e+00 0.000000000000000e+00 4.399999999999999e+00 1.000000000000000e+00 0.000000000000000e+00 4.299999999999999e+00 1.000000000000000e+00 0.000000000000000e+00 4.199999999999998e+00 1.000000000000000e+00 0.000000000000000e+00 4.099999999999999e+00 1.000000000000000e+00 0.000000000000000e+00 3.999999999999999e+00 1.000000000000000e+00 0.000000000000000e+00 3.899999999999999e+00 1.000000000000000e+00 0.000000000000000e+00 3.799999999999999e+00 1.000000000000000e+00 0.000000000000000e+00 3.699999999999998e+00 1.000000000000000e+00 0.000000000000000e+00 3.599999999999999e+00 1.000000000000000e+00 0.000000000000000e+00 3.499999999999999e+00 1.000000000000000e+00 0.000000000000000e+00 3.399999999999999e+00 1.000000000000000e+00 0.000000000000000e+00 3.299999999999999e+00 1.000000000000000e+00 0.000000000000000e+00 3.199999999999998e+00 1.000000000000000e+00 0.000000000000000e+00 3.099999999999999e+00 1.000000000000000e+00 0.000000000000000e+00 2.999999999999999e+00 1.000000000000000e+00 0.000000000000000e+00 2.899999999999999e+00 1.000000000000000e+00 0.000000000000000e+00 2.799999999999999e+00 1.000000000000000e+00 0.000000000000000e+00 2.699999999999999e+00 1.000000000000000e+00 0.000000000000000e+00 2.599999999999999e+00 1.000000000000000e+00 0.000000000000000e+00 2.500000000000000e+00 1.000000000000000e+00 0.000000000000000e+00 2.399999999999999e+00 1.000000000000000e+00 0.000000000000000e+00 2.299999999999999e+00 1.000000000000000e+00 0.000000000000000e+00 2.199999999999999e+00 1.000000000000000e+00 0.000000000000000e+00 2.100000000000000e+00 1.000000000000000e+00 0.000000000000000e+00 2.000000000000000e+00 1.000000000000000e+00 0.000000000000000e+00 1.899999999999999e+00 1.000000000000000e+00 0.000000000000000e+00 1.799999999999999e+00 1.000000000000000e+00 0.000000000000000e+00 1.699999999999999e+00 1.000000000000000e+00 0.000000000000000e+00 1.599999999999999e+00 1.000000000000000e+00 0.000000000000000e+00 1.500000000000000e+00 1.000000000000000e+00 0.000000000000000e+00 1.399999999999999e+00 1.000000000000000e+00 0.000000000000000e+00 1.299999999999999e+00 1.000000000000000e+00 0.000000000000000e+00 1.199999999999999e+00 1.000000000000000e+00 0.000000000000000e+00 1.100000000000000e+00 1.000000000000000e+00 0.000000000000000e+00 9.999999999999991e-01 1.000000000000000e+00 0.000000000000000e+00 8.999999999999995e-01 1.000000000000000e+00 0.000000000000000e+00 7.999999999999998e-01 1.000000000000000e+00 0.000000000000000e+00 7.000000000000002e-01 1.000000000000000e+00 0.000000000000000e+00 5.999999999999996e-01 1.000000000000000e+00 0.000000000000000e+00 4.999999999999991e-01 1.000000000000000e+00 0.000000000000000e+00 3.999999999999995e-01 1.000000000000000e+00 0.000000000000000e+00 3.000000000000007e-01 1.000000000000000e+00 0.000000000000000e+00 1.999999999999993e-01 1.000000000000000e+00 0.000000000000000e+00 9.999999999999964e-02 1.000000000000000e+00 0.000000000000000e+00 0.000000000000000e+00 8.999999999995836e-01 0.000000000000000e+00 0.000000000000000e+00 7.999999999999998e-01 0.000000000000000e+00 0.000000000000000e+00 7.000000000006934e-01 0.000000000000000e+00 0.000000000000000e+00 6.000000000013869e-01 0.000000000000000e+00 0.000000000000000e+00 5.000000000020587e-01 0.000000000000000e+00 0.000000000000000e+00 4.000000000016644e-01 0.000000000000000e+00 0.000000000000000e+00 3.000000000012483e-01 0.000000000000000e+00 0.000000000000000e+00 2.000000000008322e-01 0.000000000000000e+00 0.000000000000000e+00 1.000000000004160e-01 0.000000000000000e+00 7.477570327540725e-01 4.905967956478702e-01 0.000000000000000e+00 1.346210646643281e+00 4.806066422083806e-01 0.000000000000000e+00 1.949496869330408e+00 5.032480558805372e-01 0.000000000000000e+00 4.449999999999997e+00 5.000000000000384e-01 0.000000000000000e+00 3.859142349610828e+00 5.103468031113156e-01 0.000000000000000e+00 3.246530027037640e+00 5.183101712757180e-01 0.000000000000000e+00 2.657531292711257e+00 5.037429884868682e-01 0.000000000000000e+00 3.824015840967434e-01 6.064457502813875e-01 0.000000000000000e+00 2.306343155343502e+00 6.315316747431162e-01 0.000000000000000e+00 1.049999999998266e+00 3.374999999994497e-01 0.000000000000000e+00 1.641930697057102e+00 3.436055112169133e-01 0.000000000000000e+00 4.150000000000006e+00 6.625000000000185e-01 0.000000000000000e+00 3.552784161359181e+00 6.642488388863971e-01 0.000000000000000e+00 2.940292465243163e+00 6.575992780735344e-01 0.000000000000000e+00 1.641237689750194e+00 6.703960699373966e-01 0.000000000000000e+00 1.050000000000000e+00 6.706367924525535e-01 0.000000000000000e+00 2.960517759676693e+00 3.261740577967960e-01 0.000000000000000e+00 3.551899302943298e+00 3.210887133285832e-01 0.000000000000000e+00 4.150779393876139e+00 3.209867287821391e-01 0.000000000000000e+00 2.213980362532827e+00 3.194901812685164e-01 0.000000000000000e+00 4.927283029162088e-01 3.252862896001115e-01 0.000000000000000e+00 4.696684455724628e+00 3.145438084075651e-01 0.000000000000000e+00 4.690990908683984e+00 6.962960281446974e-01 0.000000000000000e+00 2.487221901830106e+00 2.763334294511438e-01 0.000000000000000e+00 6.215262983536076e-01 7.328515730233995e-01 0.000000000000000e+00 2.065768881873406e+00 7.342557316219342e-01 0.000000000000000e+00 2.543072460766750e+00 7.257064952909391e-01 0.000000000000000e+00 8.105176211436336e-01 2.535517621144286e-01 0.0000000000000
[...]
<PointData Scalars="pressure_nodes_[L]," Vectors="">
<DataArray type="Float64" Name="pressure_nodes_[L]" format="ascii">
3.670257987854882e-02 4.970839675629054e+00 4.970839675988000e+00 3.466093907703631e-02 1.157527827157471e-01 2.017948825767756e-01 2.943758536652538e-01 3.989660064563048e-01 5.017342108100702e-01 6.066865590825703e-01 7.002475155848291e-01 7.900518919185293e-01 8.916416972897047e-01 1.002019923366597e+00 1.100589455805009e+00 1.200479924833068e+00 1.301176288424742e+00 1.400844678105372e+00 1.499993060969049e+00 1.604212405293464e+00 1.706096006046896e+00 1.810498176327173e+00 1.898502616963794e+00 1.985445805049206e+00 2.099226378812271e+00 2.201716070507445e+00 2.304901416705041e+00 2.402882717684777e+00 2.497541144884336e+00 2.597282520491175e+00 2.698926773336591e+00 2.798925386377008e+00 2.899642330095787e+00 3.000557717476510e+00 3.097675613124614e+00 3.194448208807513e+00 3.287555420526855e+00 3.388383983886012e+00 3.502327304704481e+00 3.602375531052680e+00 3.696837977618411e+00 3.794033636339778e+00 3.888904988507788e+00 3.988825761766707e+00 4.104998762228517e+00 4.208006432498538e+00 4.300060302787555e+00 4.397494498543825e+00 4.496308465713240e+00 4.594545531294994e+00 4.699846498331258e+00 4.803173207039549e+00 4.897288781221069e+00 4.968148123088293e+00 4.967565931621913e+00 4.968544330058569e+00 4.967281791770104e+00 4.961043357574741e+00 4.968038235272593e+00 4.968984802609605e+00 4.967565912826135e+00 4.967214805080449e+00 4.896784755868413e+00 4.799436695522992e+00 4.705164070572554e+00 4.600681645045342e+00 4.486690078155450e+00 4.400933994219225e+00 4.314754944723121e+00 4.199852992299455e+00 4.098977472556864e+00 3.999566150153337e+00 3.898977118465147e+00 3.801515027352716e+00 3.700028912309563e+00 3.598420819431076e+00 3.499791145281569e+00 3.400066693945742e+00 3.290739061151099e+00 3.201315745052145e+00 3.113588670678274e+00 2.991936052202095e+00 2.891242486777682e+00 2.797973971534748e+00 2.700915825737972e+00 2.602394625786810e+00 2.503349345892229e+00 2.410469931476022e+00 2.312674518996285e+00 2.207503277176583e+00 2.097439534559636e+00 1.995147878328461e+00 1.902328008908023e+00 1.803646273678040e+00 1.708141296388497e+00 1.608071497063319e+00 1.501828941511471e+00 1.408676669637109e+00 1.307997789277849e+00 1.199240910020061e+00 1.096968665839215e+00 9.971645707391531e-01 9.053822237498789e-01 8.054996322892677e-01 6.974817739102904e-01 5.990750529055674e-01 5.019071657314210e-01 4.056206548458482e-01 3.019071071092926e-01 1.944017006675106e-01 1.041279593652356e-01 2.785749383775360e-02 3.046818074146228e-02 3.135821470195894e-02 2.788977228084377e-02 3.835432619511369e-02 2.723757352654912e-02 2.820824843551373e-02 2.879366983322701e-02 2.770346405422778e-02 7.478445567982102e-01 1.344628207162814e+00 1.949380552205465e+00 4.450909446162249e+00 3.861739823765798e+00 3.244535376748218e+00 2.659521399193633e+00 3.823800091895046e-01 2.307967604284023e+00 1.047521531410289e+00 1.638448018840586e+00 4.152598917920154e+00 3.553639782473396e+00 2.937485458898453e+00 1.639316449576049e+00 1.051796728111782e+00 2.963213216678903e+00 3.552556306161012e+00 4.151970177587898e+00 2.210812226392437e+00 4.931872514966145e-01 4.698167628921866e+00 4.690971232701475e+00 2.491974999429959e+00 6.221466103220775e-01 2.067832719440100e+00 2.543576778664406e+00 8.162427124971539e-01 1.292178570768344e+00 1.883882121841505e+00 4.384640284402990e+00 3.906531426408398e+00 3.186677315206283e+00 1.397896081418867e+00 3.201447598385115e+00 3.800780554578290e+00 4.393631520045941e+00 2.578917509165841e-01 2.723564820162476e+00 8.444521183377157e-01 2.195823305364893e-01 2.759945144238977e+00 1.827306565280225e+00 2.172048740962502e-01 4.796177849768897e+00 2.462792349988264e+00 3.698876808896024e+00 3.395761011359901e+00 1.494994725519392e+00 1.213531979650935e+00 3.984571349311480e+00 3.384645654809808e+00 5.598599292267519e-01 4.388978357424989e-01 2.135151507468155e+00 1.551026631562817e+00 3.050079159700849e+00 9.565198969483563e-01 3.648667850347580e+00 4.250204391528156e+00 1.154593387833486e+00 4.053399672223874e+00 3.451936289430466e+00 1.749286334923504e+00 2.856925299615021e+00 2.361385141450435e+00 2.054997209244486e+00 6.505450940383783e-01 4.559830519920969e+00 4.558028033285018e+00 2.317726790135461e+00 4.816256898740481e+00 4.832331373499021e+00 9.651231244051509e-01 1.732312166348628e+00 4.217852105364790e+00 3.019150383111028e+00 1.562741774100400e+00 3.035738085955834e+00 3.622695750617675e+00 4.229545568372671e+00 4.620684020231072e+00 4.045415803086881e-01 1.146135993800411e+00 4.053946789961663e+00 2.024954046862339e+00 6.586885625030456e-01 4.513332160744604e+00 1.035684986721088e+00 3.887378006443811e-01 3.541650881069406e+00 1.449456663048104e+00 3.749739149302358e+00 3.349356896977360e+00 1.250339984063056e+00 3.947776927892678e+00 3.349771329070019e+00 2.190300131049472e+00 1.649335532763369e-01 2.877296898349106e+00 4.845945009271498e+00 4.841218976964417e+00 2.767594329824127e+00 4.521376476417148e+00 2.599464081141621e+00 1.851179580779251e+00 8.558461784070724e-01 2.294428845449731e+00 2.614179816160830e+00 7.153109703363250e-01 1.396904391556044e-01 1.712295426750648e+00 2.628064813095057e+00 1.985565417330249e+00 2.444048568701445e+00 2.889472615337876e+00 1.368710054558967e-01 8.954889873878457e-01 3.086498848156164e+00 4.304499139028007e+00 1.192714908150015e+00 1.787769655986136e+00 4.007105175330224e+00 1.444051082800237e+00 4.360943681747566e+00 3.754054966991176e+00 3.161919809875903e+00 2.760415702712705e+00 2.361032697810107e+00 1.363166319763906e+00 3.842492773377217e+00 3.275488071547415e+00 5.617742603321604e-01 1.323722602410721e+00 3.282374924414780e+00 3.877679401292797e+00 2.042348507683932e+00 2.221651269186537e+00 5.169581315207392e-01 6.521086149395388e-01 1.947423345714733e+00 4.676705560113342e+00 4.701914698187864e+00 7.583122004936826e-01 2.474112208067324e+00 2.452099219639205e+00 2.170478049906714e+00 3.512969810681125e+00 4.113888926236554e+00 2.611082346204280e+00 4.359564102950791e+00 3.141037741056717e-01 1.339917379190664e-01 4.455282964814401e+00 1.611089843653684e+00 3.390154795311915e-01 4.978713849559598e-01 7.423850268930798e-01 3.136684691944359e+00 1.318693975820689e+00 3.881752008815908e+00 3.219711753231296e+00 2.938602938551095e-01 9.377798933123113e-01 1.927539446080796e+00 1.537338054823596e+00 3.062516547980154e+00 3.665081010425622e+00 4.264744193864233e+00 2.745915452609181e+00 7.964727605256317e-01 1.465015470917526e+00 3.734658046821973e+00 3.136446955956009e+00 3.464078019568006e-01 4.691899866543595e+00 1.936761000829999e+00 1.255923171536868e+00 3.945147582162809e+00 2.862250401995571e+00 4.413746227137466e+00 9.893602959754040e-01 2.769032022572058e-01 2.091254299681556e+00 8.387601994658404e-02 1.829496545972662e+00 8.725349879691353e-01 2.272185972188395e+00 1.763612564004978e+00 1.142760005893532e+00 2.541367691185672e+00 2.750337810362526e+00 1.260727745017682e-01 2.835156620944752e+00 3.639813758129322e+00 3.453268787664685e+00 4.151542438331654e+00 2.947777646032718e+00 3.550778421609563e+00 1.051036287613548e+00 1.644757801434153e+00 4.466019106486497e+00 4.894071751633271e+00 1.863864456059203e+00 2.517204216953357e+00 2.648472282979677e+00 2.313683721642968e-01 4.345342170826060e+00 4.034098130769108e+00 1.159527532514860e+00 3.434582322662223e+00 3.443545784668996e+00 3.661268635967666e+00 1.544730115531745e+00 1.054338638610629e+00 4.144808160893227e+00 3.809732888316882e+00 1.384956335350781e+00 3.283991663981287e+00 9.557990596962415e-01 4.715203055226725e+00 4.901196822538227e+00 4.900509832484591e+00 1.645366503806183e+00 1.057301042721483e+00 2.955455803916224e+00 3.554344869471008e+00 4.154097571943434e+00 8.232071243426555e-01 8.582673688004432e-02 1.303829096964789e+00 3.296592466105805e+00 3.896120339427370e+00 1.247186520873603e+00 3.955317873941955e+00 3.146435579955321e+00 2.272673809718514e+00 1.854970906320263e+00 1.130900633088556e+00 4.069306093683172e+00 2.951284561418629e+00 2.381906322078843e+00 5.678377016705395e-01 6.498371050632442e-01 4.546890575624913e+00 2.015064622930962e+00 8.557748411800846e-01 1.453036145648197e+00 2.357239159473594e+00 3.965161120689860e+00 3.365626832991891e+00 1.634932591142548e+00 6.836185426011512e-01 4.903460106952476e+00 4.900643413419616e+00 4.532644086910181e-01 2.850849285750045e+00 2.045862179974877e+00 2.129175218812310e+00 4.892815583262177e+00 2.929650168292382e+00 4.615564771808434e-01 4.347273154460592e+00 2.550458710688002e-01 2.104240814290390e+00 1.449564704129649e+00 3.749862694165640e+00 3.348108048506911e+00 5.858904651602866e-01 9.096066434145235e-01 3.094721001324119e+00 4.284415462880043e+00 1.802705092088754e+00 2.232684966372513e+00 2.050276367098858e+00 5.314283978916775e-01 4.154985488170647e+00 3.553470780895401e+00 2.854838763262737e+00 2.948799822084097e+00 6.661978471720694e-01 4.490541871118305e+00 4.589633193698679e+00 4.262894668336725e+00 1.536990755143776e+00 3.662963919643973e+00 3.062452752694759e+00 1.661733057094303e+00 1.549416971874932e+00 3.649807683329797e+00 3.450662548477927e+00 2.219911585945760e-01 2.752279539822886e+00 1.357187134545382e+00 3.834984882421245e+00 3.238216188166096e+00 1.745856669462209e+00 2.571633232298657e+00 3.455249864482883e+00 4.053990691579742e+00 4.448645337962445e+00 2.971430955224895e+00 1.627927877199603e+00 4.789368613906329e+00 4.787976518370683e+00 1.246255087818217e+00 4.928545298938968e-01 2.243861226477524e+00 4.603387095686532e+00 3.758769876208207e+00 3.353930068325615e+00 4.280931340125177e-01 1.950860867530397e+00 2.387337740412220e+00 2.367762312919033e+00 7.485994286365917e-01 4.480334478994080e+00 4.533517293121720e+00 1.021570206194198e+00 4.177108551356822e+00 2.646123812227929e+00 4.755759981409369e+00 2.462350454219968e+00 4.772886237345545e+00 4.253584486428255e+00 1.159468161144872e+00 6.437260051795776e-01 4.614975085191569e+00 4.607042531099365e+00 3.646103501247119e+00 3.047204637479938e+00 3.521589155440723e+00 8.256319673447240e-02 2.159195340702941e+00 1.679446412741252e+00 2.402849994407479e+00 9.588646194847156e-01 4.777644421894908e+00 4.182146256945289e+00 4.339719580836548e-01 1.075426020200446e+00 3.606224131992052e+00 2.556525045034697e+00 4.610685739671974e+00 2.370303002957041e+00 4.785484632741668e-01 1.271640962934456e+00 3.960801307280296e+00 2.536287944959301e+00 8.069857561886011e-02 4.533184701423628e+00 1.149989840558131e+00 4.049643636434948e+00 3.056455698848910e+00 9.045574774159471e-01 3.461905226379939e-01 2.581154138495661e+00 1.548952206018441e+00 4.313967601494474e+00 2.845135508612525e+00 3.385512148349051e-01 1.482886332645213e+00 3.117047997088498e+00 3.716052390285538e+00 2.690582850734121e+00 4.657061980475813e+00 4.706099049973654e+00 1.031593425020170e+00 2.516043534897796e+00 2.169545274668251e+00 1.226018904531589e+00 3.974820268990391e+00 3.548319694682136e+00 3.375175451141557e+00 3.004135978105502e-01 2.260385846258285e+00 3.631637517142578e-01 2.147463400421478e+00 1.758579368692502e+00 1.841485844420712e+00 9.756234441974463e-01 1.120679178990356e+00 1.720415461069163e+00 4.225567601882820e+00 4.079914644760832e+00 3.019252521617226e+00 2.496825894527286e+00 1.977321634512935e-01 3.455481294561180e+00 4.042305399349098e+00 2.691172029221656e+00 4.241571512578862e-01 2.432841288804499e+00 2.839935158218450e+00 6.155920714561824e-01 2.703653168484100e+00 4.928635069367894e+00 4.929536928170105e+00 8.420954551365420e-02 2.843364453417053e+00 1.752169794663246e+00 2.293094775559122e+00 3.272293193012219e+00 3.882759166432643e+00 8.203040279915954e-01 1.540896154147644e+00 3.560177467171361e+00 4.428383301923497e+00 7.689842179749301e-01 2.159479561645947e+00 2.719399677495563e+00 2.788041084398762e+00 2.554477824802337e+00 4.626093253290205e+00 7.380153807951267e-01 2.120554331998297e+00 4.801443644866070e+00 2.683649748489678e+00 4.157875610827210e-01 4.449704120766303e+00 2.217276585859298e+00 2.035528149633751e-01 1.716984386864583e+00 1.951721876781938e+00 2.656744821288649e+00 1.625934710282794e-01 3.013762047593688e+00 3.468896895185454e+00 1.999029297924780e+00 8.479075744864284e-01 1.219980463499540e+00 3.980168186549828e+00 9.727470208629336e-01 4.226938517138767e+00 2.143687827526396e-01 4.073221753252162e+00 3.473187677904109e+00 3.204364517967556e+00 1.853375773385358e+00 5.606994891100617e-01 2.014493783742558e+00 1.750575347900137e+00 1.862002109814676e+00 3.182732340869159e+00 4.767656466803587e+00 7.160690916665494e-01 1.382144885465289e+00 3.220170858137907e+00 3.818915336763876e+00 4.738614002907280e+00 1.760730701148271e-01 1.380260759012849e+00 3.833777301388347e+00 3.234689341197070e+00 3.213953870501416e+00 4.924371115866970e+00 4.923793135367660e+00 5.951470444685504e-01 4.638191991056002e+00 4.704576118454845e+00 2.307341454079708e+00 7.573048780899869e-02 1.383619808369102e+00 3.816938353130122e+00 3.283770881408904e+00 1.353169562623472e+00 3.849261566995488e+00 6.269424458093549e-02 3.708374950700015e-01 1.388899173195775e+00 1.128582964577922e+00 5.524105238215189e-01 3.163945055006599e+00 1.969635450172740e+00 6.424808924131054e-02 1.863439678031965e+00 1.320691459698072e+00 3.879368170108859e+00 2.094724627059985e+00 4.364963464451224e+00 8.344009378419172e-01 4.255936128949497e+00 6.759873932553238e-01 2.082811766566743e+00 4.436369655470417e+00 2.274946161317164e+00 1.564889192249977e+00 4.301843131427629e+00 1.456673848498031e+00 4.341954306273562e+00 3.743047855464421e+00 3.142699672706192e+00 8.915525898557124e-01 5.766940416674521e-01 4.480758744779100e+00 1.948925943810759e+00 4.539192568120766e+00 3.111785719978415e+00 2.707945442147977e+00 2.781360070481540e+00 1.914533977403869e+00 2.023807502789542e+00 7.518896039524471e-02 2.921287072450598e-01 2.456975760874444e+00 4.321377650374770e+00 2.798864320416909e+00 2.470093883473568e+00 1.466172132573003e-01 1.894989125719572e+00 7.519348520931521e-01 1.476575061912546e+00 3.722334338262603e+00 1.415602038534324e+00 3.784929260272359e+00 3.314989809379583e+00 8.099591104425009e-01 1.784878881816816e+00 1.624719961411164e-01 2.382641606258293e+00 6.907504854163459e-01 2.464996634105320e+00 2.549233750365822e+00 5.586793850349373e-01 3.364676714794248e+00 3.733211460643226e+00 1.465037340150160e+00 2.450615656550179e+00 1.293081855628044e+00 3.311795266802555e+00 3.910515769516163e+00 2.038543393243447e+00 6.579252650457855e-01 4.444755886850507e+00 8.141704185748238e-01 7.200206863084294e-02 4.282977826662793e+00 9.498615691645149e-01 4.033292141812582e+00 3.433697883919991e+00 3.307592194210967e-01 3.802444058104879e+00 3.967721773479243e+00 3.368202621756078e+00 1.231856885127110e+00 2.777243175890270e+00 2.234070907160928e+00 3.621115247108385e+00 4.221918084828132e+00 9.191078874298293e-01 3.022012521539799e+00 1.779317394307031e+00 4.132537624145551e+00 1.066025686420628e+00 3.078760427689291e+00 1.178032158478826e+00 4.022510101638870e+00 4.403610170268060e+00 4.667469042332180e-01 5.172226544359535e-01 4.670405588093353e+00 4.386753523241260e+00 1.578400098778736e+00 9.739302388918911e-01 1.520865433856352e-01 7.521138529093874e-01 2.654241763436194e+00 1.533415286019160e+00 3.116945609317096e+00 8.807454347158430e-01 4.627738196593158e+00 9.178316418922122e-01 3.308120621994540e+00 3.910519477425300e+00 2.915921945547413e+00 3.698210822972762e-01 4.393528612703738e+00 1.682780793176148e+00 4.836539471480090e+00 3.933651747033478e+00 1.266039777290986e+00 2.697203191033259e-01 4.848889846899796e+00 4.756379337618958e+00 1.940937207156040e+00 3.248316479869134e+00 1.348255793481239e+00 3.850634096775632e+00 4.935888634745576e+00 4.946847144831200e+00 2.613318562710761e+00 7.417246689220048e-01 2.405918951751090e+00 2.952909606981613e+00 
</DataArray>
</PointData>
<CellData Scalars="pressure_elements_[L]," Vectors="velocity_elements_[L/T],">
<DataArray type="Float64" Name="pressure_elements_[L]" format="ascii">