<?xml version="1.0"?>
<VTKFile type="UnstructuredGrid" version="0.1" byte_order="LittleEndian">
<UnstructuredGrid>
<Piece NumberOfPoints="300" NumberOfCells="677">
<Points>
<DataArray type="Float64" NumberOfComponents="3" format="ascii">
0.000000000000000e+00 3.750000000000000e+00 0.000000000000000e+00 1.750000000000000e+00 5.000000000000000e+00 0.000000000000000e+00 2.250000000000000e+00 4.750000000000000e+00 0.000000000000000e+00 2.750000000000000e+00 4.000000000000000e+00 0.000000000000000e+00 3.500000000000000e+00 5.000000000000000e+00 0.000000000000000e+00 3.250000000000000e+00 6.250000000000000e+00 0.000000000000000e+00 4.000000000000000e+00 5.750000000000000e+00 0.000000000000000e+00 5.000000000000000e+00 6.250000000000000e+00 0.000000000000000e+00 4.750000000000000e+00 7.250000000000000e+00 0.000000000000000e+00 4.250000000000000e+00 4.750000000000000e+00 0.000000000000000e+00 3.500000000000000e+00 4.000000000000000e+00 0.000000000000000e+00 4.250000000000000e+00 3.500000000000000e+00 0.000000000000000e+00 4.750000000000000e+00 2.750000000000000e+00 0.000000000000000e+00 4.250000000000000e+00 1.500000000000000e+00 0.000000000000000e+00 5.250000000000000e+00 5.000000000000000e+00 0.000000000000000e+00 4.750000000000000e+00 4.750000000000000e+00 0.000000000000000e+00 5.250000000000000e+00 4.000000000000000e+00 0.000000000000000e+00 5.000000000000000e+00 2.250000000000000e+00 0.000000000000000e+00 5.750000000000000e+00 7.500000000000000e-01 0.000000000000000e+00 5.750000000000000e+00 2.500000000000000e+00 0.000000000000000e+00 5.500000000000000e+00 2.750000000000000e+00 0.000000000000000e+00 6.000000000000000e+00 3.750000000000000e+00 0.000000000000000e+00 6.500000000000000e+00 5.250000000000000e+00 0.000000000000000e+00 7.250000000000000e+00 6.000000000000000e+00 0.000000000000000e+00 6.750000000000000e+00 4.000000000000000e+00 0.000000000000000e+00 7.000000000000000e+00 2.250000000000000e+00 0.000000000000000e+00 7.500000000000000e+00 2.000000000000000e+00 0.000000000000000e+00 7.500000000000000e+00 3.750000000000000e+00 0.000000000000000e+00 7.500000000000000e+00 4.750000000000000e+00 0.000000000000000e+00 7.750000000000000e+00 6.250000000000000e+00 0.000000000000000e+00 7.750000000000000e+00 5.500000000000000e+00 0.000000000000000e+00 8.250000000000000e+00 5.000000000000000e+00 0.000000000000000e+00 8.250000000000000e+00 3.750000000000000e+00 0.000000000000000e+00 8.000000000000000e+00 2.500000000000000e+00 0.000000000000000e+00 8.500000000000000e+00 7.500000000000000e-01 0.000000000000000e+00 9.000000000000000e+00 8.000000000000000e+00 0.000000000000000e+00 9.000000000000000e+00 5.500000000000000e+00 0.000000000000000e+00 9.750000000000000e+00 4.000000000000000e+00 0.000000000000000e+00 9.000000000000000e+00 2.750000000000000e+00 0.000000000000000e+00 9.750000000000000e+00 5.500000000000000e+00 0.000000000000000e+00 1.050000000000000e+01 4.750000000000000e+00 0.000000000000000e+00 1.125000000000000e+01 4.250000000000000e+00 0.000000000000000e+00 1.200000000000000e+01 3.750000000000000e+00 0.000000000000000e+00 1.275000000000000e+01 4.500000000000000e+00 0.000000000000000e+00 4.750000000000000e+00 4.000000000000000e+00 0.000000000000000e+00 2.000000000000000e+00 3.000000000000000e+00 0.000000000000000e+00 6.000000000000000e+00 6.400000000000000e+00 0.000000000000000e+00 1.000000000000000e+00 6.200000000000000e+00 0.000000000000000e+00 1.040000000000000e+01 2.300000000000000e+00 0.000000000000000e+00 1.150000000000000e+01 1.100000000000000e+00 0.000000000000000e+00 6.000000000000000e-01 7.500000000000000e-01 0.000000000000000e+00 1.190000000000000e+01 7.000000000000000e+00 0.000000000000000e+00 0.000000000000000e+00 7.500000000000000e-01 0.000000000000000e+00 0.000000000000000e+00 8.000000000000000e+00 0.000000000000000e+00 1.275000000000000e+01 7.500000000000000e-01 0.000000000000000e+00 1.275000000000000e+01 8.000000000000000e+00 0.000000000000000e+00 5.624999999964863e-01 3.999999999998438e+00 0.000000000000000e+00 1.124999999995812e+00 4.249999999998138e+00 0.000000000000000e+00 1.687499999998485e+00 4.499999999999327e+00 0.000000000000000e+00 2.875000000000000e+00 4.375000000000000e+00 0.000000000000000e+00 2.687500000002093e+00 5.000000000001196e+00 0.000000000000000e+00 3.125000000002093e+00 5.250000000001196e+00 0.000000000000000e+00 3.562500000002093e+00 5.500000000001196e+00 0.000000000000000e+00 4.500000000000000e+00 6.000000000000000e+00 0.000000000000000e+00 4.500000000005181e+00 6.750000000010362e+00 0.000000000000000e+00 4.250000000005181e+00 6.250000000010362e+00 0.000000000000000e+00 4.625000000000000e+00 5.375000000000000e+00 0.000000000000000e+00 4.750000000000000e+00 4.375000000000000e+00 0.000000000000000e+00 4.624999999997918e+00 1.874999999997918e+00 0.000000000000000e+00 5.250000000000000e+00 1.750000000000000e+00 0.000000000000000e+00 5.500000000000000e+00 1.250000000000000e+00 0.000000000000000e+00 4.125000000008327e+00 4.000000000000000e+00 0.000000000000000e+00 5.125000000000000e+00 3.375000000000000e+00 0.000000000000000e+00 5.749999999991033e+00 4.666666666672645e+00 0.000000000000000e+00 6.249999999991033e+00 4.333333333339311e+00 0.000000000000000e+00 5.916666666666667e+00 3.166666666666667e+00 0.000000000000000e+00 6.333333333333333e+00 3.583333333333333e+00 0.000000000000000e+00 5.750000000000000e+00 5.250000000000000e+00 0.000000000000000e+00 6.250000000000000e+00 5.500000000000000e+00 0.000000000000000e+00 6.750000000000000e+00 5.750000000000000e+00 0.000000000000000e+00 6.875000000000000e+00 5.625000000000000e+00 0.000000000000000e+00 7.600000000000000e+00 6.400000000000000e+00 0.000000000000000e+00 7.950000000000000e+00 6.800000000000000e+00 0.000000000000000e+00 8.300000000000001e+00 7.200000000000000e+00 0.000000000000000e+00 8.650000000000000e+00 7.600000000000000e+00 0.000000000000000e+00 7.249999999991033e+00 4.333333333327355e+00 0.000000000000000e+00 7.749999999991033e+00 4.666666666660689e+00 0.000000000000000e+00 8.750000000000000e+00 5.166666666666667e+00 0.000000000000000e+00 9.250000000000000e+00 5.333333333333333e+00 0.000000000000000e+00 8.750000000000000e+00 4.666666666666667e+00 0.000000000000000e+00 9.250000000000000e+00 4.333333333333333e+00 0.000000000000000e+00 8.750000000000000e+00 3.833333333333334e+00 0.000000000000000e+00 9.250000000000000e+00 3.916666666666667e+00 0.000000000000000e+00 1.025000000000000e+01 4.083333333333333e+00 0.000000000000000e+00 1.075000000000000e+01 4.166666666666667e+00 0.000000000000000e+00 1.175000000000000e+01 4.333333333333333e+00 0.000000000000000e+00 1.225000000000000e+01 4.416666666666667e+00 0.000000000000000e+00 8.437500000000000e+00 2.875000000000000e+00 0.000000000000000e+00 8.875000000000000e+00 3.250000000000000e+00 0.000000000000000e+00 9.312500000000000e+00 3.625000000000000e+00 0.000000000000000e+00 7.750000000000000e+00 3.125000000000000e+00 0.000000000000000e+00 7.500000000000000e+00 2.375000000000000e+00 0.000000000000000e+00 8.500000000000000e+00 2.625000000000000e+00 0.000000000000000e+00 8.166666666666545e+00 1.916666666667094e+00 0.000000000000000e+00 8.333333333333211e+00 1.333333333333761e+00 0.000000000000000e+00 2.166666666666796e+00 4.166666666667574e+00 0.000000000000000e+00 2.083333333333204e+00 3.583333333332427e+00 0.000000000000000e+00 2.499999999996517e+00 2.875000000000871e+00 0.000000000000000e+00 2.999999999994993e+00 2.750000000001252e+00 0.000000000000000e+00 3.499999999995429e+00 2.625000000001143e+00 0.000000000000000e+00 3.999999999996735e+00 2.500000000000816e+00 0.000000000000000e+00 4.499999999998258e+00 2.375000000000435e+00 0.000000000000000e+00 1.720000000001057e+00 2.550000000001699e+00 0.000000000000000e+00 1.440000000001740e+00 2.100000000002797e+00 0.000000000000000e+00 1.160000000001491e+00 1.650000000002397e+00 0.000000000000000e+00 8.800000000005590e-01 1.200000000000898e+00 0.000000000000000e+00 3.500000000003257e+00 5.824999999999512e+00 0.000000000000000e+00 3.000000000004434e+00 5.899999999999335e+00 0.000000000000000e+00 2.500000000003529e+00 5.974999999999471e+00 0.000000000000000e+00 2.000000000002081e+00 6.049999999999688e+00 0.000000000000000e+00 1.500000000000905e+00 6.124999999999864e+00 0.000000000000000e+00 9.699999999999999e+00 2.525000000000000e+00 0.000000000000000e+00 1.061250000000038e+01 2.787500000000867e+00 0.000000000000000e+00 1.082499999999898e+01 3.274999999997668e+00 0.000000000000000e+00 1.103749999999759e+01 3.762499999994468e+00 0.000000000000000e+00 1.076666666666475e+01 1.900000000002095e+00 0.000000000000000e+00 1.113333333333433e+01 1.499999999998911e+00 0.000000000000000e+00 1.177000000000000e+01 6.450000000000000e+00 0.000000000000000e+00 1.164000000000035e+01 5.900000000001491e+00 0.000000000000000e+00 1.151000000000059e+01 5.350000000002485e+00 0.000000000000000e+00 1.138000000000047e+01 4.800000000001989e+00 0.000000000000000e+00 5.500000000000000e+00 6.325000000000000e+00 0.000000000000000e+00 6.625000000000000e+00 6.200000000000000e+00 0.000000000000000e+00 6.375000000000000e+00 2.375000000000000e+00 0.000000000000000e+00 1.114999999998196e+00 7.500000000000000e-01 0.000000000000000e+00 1.629999999996392e+00 7.500000000000000e-01 0.000000000000000e+00 2.144999999994866e+00 7.500000000000000e-01 0.000000000000000e+00 2.659999999993617e+00 7.500000000000000e-01 0.000000000000000e+00 3.174999999992368e+00 7.500000000000000e-01 0.000000000000000e+00 3.689999999993339e+00 7.500000000000000e-01 0.000000000000000e+00 4.204999999994310e+00 7.500000000000000e-01 0.000000000000000e+00 4.719999999995837e+00 7.500000000000000e-01 0.000000000000000e+00 5.234999999997918e+00 7.500000000000000e-01 0.000000000000000e+00 6.300000000000000e+00 7.500000000000000e-01 0.000000000000000e+00 6.850000000000000e+00 7.500000000000000e-01 0.000000000000000e+00 7.400000000000000e+00 7.500000000000000e-01 0.000000000000000e+00 7.950000000000000e+00 7.500000000000000e-01 0.000000000000000e+00 9.131968328037775e+00 7.500000000000000e-01 0.00000000000000
[...]
<CellData Scalars="A_conc,B_conc,region_ids," Vectors="" Tensors="">
<DataArray type="Float64" Name="A_conc" format="ascii">
9.229986458283868e-01 9.243118824072492e-01 9.255481124913787e-01 9.264538901426592e-01 9.086036473437614e-01 9.510896969149705e-01 9.568414433912109e-01 8.928939348874579e-01 9.099142661856479e-01 9.131123677541466e-01 9.178666794646297e-01 9.275136818606764e-01 5.311981193757550e-01 8.853392402426910e-01 8.883112988717126e-01 9.010528792747861e-01 2.413807443750478e-01 5.278402924388823e-01 7.882056859503497e-01 9.587630939717230e-01 9.663991731227830e-01 6.091869449280167e-01 8.351932748812672e-01 9.445984580813196e-01 9.640304559463723e-01 8.743440155667407e-01 9.109342257987110e-01 6.244876166442213e-01 5.918363787481682e-01 5.528080932623316e-01 8.414837661249722e-01 9.666584797176900e-01 9.771620382682419e-01 9.648072180340286e-01 9.658213264838817e-01 9.696383776669726e-01 9.700684056433309e-01 9.644646334619258e-01 9.802370994700904e-01 9.771204503918862e-01 9.794111255809952e-01 9.809213552209518e-01 9.299474815854446e-01 9.372460543939551e-01 9.498762799534843e-01 9.018536233811238e-01 9.103431743334790e-01 9.164126756459303e-01 9.258526459023478e-01 9.247832627245277e-01 9.419844490539970e-01 9.549129661087812e-01 9.577041797589564e-01 9.620855463807908e-01 9.659908992419992e-01 9.690951056256479e-01 9.054720698292322e-01 9.823016640983062e-01 9.843228690357557e-01 9.861767389048568e-01 9.763212080903783e-01 9.757697948578726e-01 8.311309058995396e-01 9.520300358893887e-01 9.548916081553809e-01 9.576618724611223e-01 9.923580203720701e-01 9.936101328921934e-01 9.945890542515804e-01 9.749096486927957e-01 9.849730620734769e-01 9.908240429113241e-01 9.954621045220278e-01 9.959868368590001e-01 9.963622231244033e-01 9.880870679960052e-01 9.836515868792888e-01 9.988851195754548e-01 9.993443877790368e-01 9.996924212939855e-01 9.838239450545920e-01 9.863587439661385e-01 9.892831717381767e-01 9.924584127913328e-01 9.504448178597708e-01 9.669847137062307e-01 9.797782758661118e-01 9.803181695846087e-01 9.639590985827169e-01 9.820072111487859e-01 9.837698178277099e-01 8.558271120363135e-01 8.833166457786044e-01 9.042742446729239e-01 9.757760914643239e-01 8.772372324947131e-01 8.905464886298216e-01 9.065941135443514e-01 9.178537049457175e-01 9.218475451858908e-01 9.240292344241969e-01 9.255838120219779e-01 9.270985899331177e-01 9.285893267389460e-01 9.066620173351794e-01 8.849393223006958e-01 8.430060869260851e-01 7.747325096314246e-01 6.615828883000755e-01 9.281127170834683e-01 9.256862627525231e-01 9.230287916452575e-01 9.199384318784308e-01 9.159282460025799e-01 9.089486515555644e-01 9.849578984595961e-01 9.862062743343925e-01 9.899208703796740e-01 9.915995402010180e-01 9.933666473626716e-01 9.951901457850900e-01 9.783850585014544e-01 9.809869309320831e-01 9.829595318998314e-01 9.858352172124476e-01 9.825249615036733e-01 9.816352606831098e-01 9.800903065987634e-01 9.787528486935058e-01 9.169351557466463e-01 9.264024137488376e-01 9.325029357133734e-01 9.360285918959679e-01 9.781914057749699e-01 9.790997366405514e-01 8.953141766470800e-01 9.113087193453600e-01 6.514713057183028e-01 8.468662905600391e-01 7.460174562999837e-01 5.975754421408417e-01 3.799745019508648e-01 9.564602627931684e-01 8.951655384546250e-01 1.818421823340337e-01 8.877349974551352e-01 8.802246502782756e-01 8.999734636221712e-01 9.021954249788240e-01 8.973614733441413e-01 3.053727843591124e-01 5.140770476074735e-01 9.033969432267702e-01 9.040328924880139e-01 9.002573797115798e-01 8.959204003552709e-01 8.829537148933602e-01 8.861636977867724e-01 8.768328642072654e-01 8.816911697512861e-01 8.364377192447362e-01 3.198185117774982e-01 3.340212892446903e-01 2.878734610553366e-01 2.249018985763874e-01 4.430216940964880e-01 6.122558096339430e-01 4.451805612246329e-01 6.237810058370568e-01 4.864906418313452e-01 8.360756050846792e-01 9.052956375516161e-01 8.438179076425503e-01 8.659076453978082e-01 8.240842835467233e-01 7.794350491782027e-01 7.032430138222481e-01 1.769965906211613e-01 2.936300676806579e-01 8.434024727221718e-01 5.421596458008141e-01 6.732665555283891e-01 8.057310753956560e-01 4.145452952959999e-01 2.039323661374002e-01 7.270287237224599e-01 2.111436568464275e-01 3.263638304972740e-01 9.370082172747644e-01 9.183441236654513e-01 3.254472725634135e-01 2.601587449191155e-01 5.700544305332385e-01 3.913784490242695e-01 5.837238442796721e-01 7.773891213404780e-01 8.107363006556105e-01 8.627121511068666e-01 8.886323343674489e-01 7.153923990606007e-01 5.901034903071073e-01 4.735470541043897e-01 9.222903975637837e-01 9.036243404223447e-01 7.387546914351720e-01 8.574597796696732e-01 7.324826838918540e-01 7.997064551546289e-01 7.615453328797515e-01 7.693944439380234e-01 6.879618342243382e-01 9.260447372847078e-01 9.383861045071322e-01 8.933546932553754e-01 8.932376482640312e-01 8.567174253621900e-01 9.445044511144342e-01 9.429795981365776e-01 9.296399305468805e-01 9.225335092295324e-01 9.561422758518944e-01 9.456908742941150e-01 8.797774059102108e-01 8.863460343623186e-01 8.792350350208507e-01 9.047513176200757e-01 9.026882801888513e-01 9.169077500495206e-01 9.140135111953798e-01 9.148975619286015e-01 9.094853166445520e-01 7.361242897207542e-01 8.229238916170858e-01 4.444439531766278e-01 4.567035084218725e-01 2.071295431160440e-01 9.150207553955696e-01 9.121382284091146e-01 9.209156965789028e-01 9.060879748579029e-01 8.910986751013109e-01 9.051631543621887e-01 8.908754967114487e-01 8.994315253207310e-01 8.918710895088807e-01 9.068460306646782e-01 8.993463710731050e-01 9.014134169202124e-01 9.050399980097998e-01 9.073661696456525e-01 9.006281481057932e-01 6.512566165327958e-01 8.961406615579037e-01 7.651949200152051e-01 8.748817098443540e-01 8.420526330725311e-01 6.677917739208332e-01 6.678029215306143e-01 5.811616267646194e-01 8.356938934926108e-01 6.207123057206199e-01 7.371602942653057e-01 8.281007733509878e-01 8.751894168767955e-01 8.439079100931606e-01 5.189616152151323e-01 7.098125986422872e-01 8.132655619676843e-01 7.923178068372059e-01 7.523954090204392e-01 5.060664227691563e-01 9.555543462670184e-01 9.442682440939556e-01 9.385150091817712e-01 9.601195228987779e-01 8.967250596153857e-01 8.857140799899843e-01 8.736039720446911e-01 8.617904798824687e-01 4.199360886170547e-01 8.104036730588597e-01 4.810974765078044e-01 9.708208799629199e-01 9.622176637251936e-01 9.476932888643637e-01 9.251723630423021e-01 9.212798742594177e-01 9.265330023840310e-01 9.375235882423176e-01 8.962641391177794e-01 9.135097336529008e-01 7.808454316875482e-01 7.812609440022561e-01 7.631584807113014e-01 8.749349183686290e-01 8.247307506732748e-01 8.018952331239430e-01 8.796960320713643e-01 8.686851038075519e-01 8.642809071593434e-01 8.377847489285730e-01 8.229154319012277e-01 8.716465863083989e-01 8.695081606496226e-01 8.764372844017352e-01 8.848372218522682e-01 8.850033371671107e-01 9.028738124315483e-01 8.841941875257511e-01 8.903714185401905e-01 9.030112205500496e-01 8.991504138577233e-01 8.894021417629466e-01 8.684176296562571e-01 8.749600674984175e-01 8.851349696188286e-01 8.794789152235999e-01 8.105960059356356e-01 8.059129157557040e-01 7.710243392506203e-01 6.575357924141014e-01 8.594043530888347e-01 8.789828627932899e-01 8.548677272395716e-01 8.752470696728576e-01 8.606493704479067e-01 6.899254835553033e-01 7.059886944023885e-01 8.542087309629136e-01 7.985446478186614e-01 8.561840519562377e-01 8.031763099847067e-01 8.191352209387280e-01 8.205115176998637e-01 8.332490539608325e-01 8.378245899988248e-01 8.523387028590039e-01 8.664051903589600e-01 8.873802696680548e-01 8.949971258397249e-01 8.783492420044793e-01 9.025298890341785e-01 1.444995065448499e-01 3.508528453462768e-01 2.613755810639641e-01 2.853540177452534e-01 9.076139946381681e-01 6.159046296198751e-01 8.968382128447620e-01 8.934676964875017e-01 1.741952770085221e-01 2.013663711633004e-01 8.654749038847915e-01 2.567238647996857e-01 6.381319679811308e-01 4.200310159438367e-01 4.663890449496315e-01 3.046852367853582e-01 3.364745362176440e-01 2.302206872186184e-01 8.518768474262015e-01 8.369024175054330e-01 6.149906502175277e-01 2.503511209727083e-01 2.991187674826815e-01 2.771196159311625e-01 4.878064559981933e-01 3.656803197321264e-01 5.119570863306544e-01 6.893304082653955e-01 7.894467867605592e-01 8.108823792885400e-01 6.584148810384658e-01 7.910989927412865e-01 7.298808492208950e-01 5.357587367025891e-01 8.787958847034761e-01 8.837320969573450e-01 8.460182585472545e-01 8.320390544409292e-01 8.096290929355230e-01 8.248637581845997e-01 5.089828899960681e-01 8.501929867621991e-01 8.047187682605488e-01 8.592765323416993e-01 8.689132878206941e-01 4.243111303329079e-01 5.263275756598764e-01 3.921953825058688e-01 4.150926576207961e-01 4.784151669984132e-01 4.996900148238672e-01 3.696651740347940e-01 4.204127973529472e-01 3.466709269345700e-01 3.241370611549033e-01 3.702348833869812e-01 4.381599945498706e-01 4.900831879215952e-01 4.477529684211123e-01 4.659213738123823e-01 4.527778754938155e-01 5.793289497121841e-01 6.805139641176321e-01 6.859732426331321e-01 4.933894806150342e-01 3.791669173524047e-01 9.398314841597973e-01 9.496497446851480e-01 9.392985126779638e-01 9.477236913143492e-01 9.431815277798985e-01 9.349798042575582e-01 8.586804017429847e-01 9.178605453494997e-01 8.652693468698960e-01 8.219904271690811e-01 7.750085107557354e-01 9.185944856393936e-01 9.017127093770162e-01 9.424485186977161e-01 8.619449894716371e-01 8.881375400982338e-01 8.358626518717809e-01 7.637419163917017e-01 8.539646062712736e-01 7.865141239472843e-01 8.075989372703722e-01 6.874846186841562e-01 8.965770703963960e-01 7.086811911381847e-01 8.754788714955021e-01 8.513691236271436e-01 7.628683571186032e-01 7.366242334045798e-01 7.958623473257962e-01 8.186933485607928e-01 8.332861128837092e-01 7.866234730406059e-01 8.077279110760622e-01 9.428647097989987e-01 9.056674874462372e-01 9.142214258535004e-01 8.459571855790848e-01 8.309471349420998e-01 8.905544441771249e-01 8.634921727552998e-01 8.823085300431082e-01 9.629710517806016e-01 9.611934029968349e-01 9.874840256642035e-01 9.373808391897315e-01 9.434196776069235e-01 9.386048532312598e-01 9.525054351257553e-01 9.415322132769657e-01 9.494735181993864e-01 9.451179705882112e-01 9.328586727907924e-01 9.636999023362336e-01 9.677442979955898e-01 9.728895466528595e-01 9.720736505556540e-01 9.645577456297139e-01 9.376472164075755e-01 9.340972278327793e-01 9.473683913866078e-01 9.633984298208439e-01 9.578470347475376e-01 9.529499207802632e-01 9.795219001647533e-01 9.778352121841332e-01 9.762558548993768e-01 9.838586477984737e-01 9.812856412993859e-01 9.560769318448352e-01 9.680165519555888e-01 9.581529198462597e-01 8.906268130220498e-01 9.681141638459764e-01 9.619425878217240e-01 9.556390516603925e-01 9.752797398212303e-01 9.713842089615640e-01 9.834085898941368e-01 9.805377397182294e-01 9.923372683208321e-01 9.901051793902143e-01 9.599218971345127e-01 9.688382199382715e-01 9.667818690612220e-01 9.464997132650925e-01 9.589745219250344e-01 9.516516455221518e-01 9.388427079169717e-01 9.335897026100087e-01 9.589331093383440e-01 9.531575313767262e-01 9.360701692454934e-01 9.429365365992441e-01 9.480726189646846e-01 9.434918330900852e-01 9.553570054263656e-01 9.491582028414365e-01 9.680775962181321e-01 9.629133497786831e-01 9.790757904944445e-01 9.725225427333504e-01 9.833905384846149e-01 9.871080896548263e-01 9.812835700660018e-01 9.721418146004006e-01 9.974712492923691e-01 9.961768221638232e-01 9.986548405941155e-01 9.904939772940067e-01 9.898443763923026e-01 9.875835387809178e-01 9.825259500687593e-01 9.816867635816153e-01 9.950578883178475e-01 9.915012456909462e-01 9.939946055103230e-01 9.974687905204032e-01 9.852817198359362e-01 9.879612728526433e-01 9.841596554155949e-01 9.829267320031164e-01 9.930732580154215e-01 9.895522766304750e-01 9.856827292157686e-01 9.865094393100819e-01 9.829538734907119e-01 9.890866385956387e-01 9.916096116771221e-01 9.928320901643559e-01 9.979966689163380e-01 9.953313568944400e-01 9.948938480094509e-01 9.981812062644723e-01 9.941235735773853e-01 9.923904069692048e-01 9.970892035365531e-01 9.953403364931656e-01 9.465235023794133e-01 9.509754745546428e-01 9.547589356782473e-01 9.925663557497520e-01 9.855722235932747e-01 9.632085455315015e-01 9.859503241648910e-01 9.892348930654220e-01 9.587169576462713e-01 9.626976125186913e-01 9.884227409165476e-01 9.833417044136104e-01 9.689366722402126e-01 9.783946112002846e-01 9.788709898590218e-01 9.818801488287061e-01 9.735709934668417e-01 9.677773351605941e-01 9.727717889064124e-01 9.754660139534044e-01 9.834884589558390e-01 9.890434183307676e-01 9.982263358804687e-01 9.977647770535190e-01 9.937493078127503e-01 9.902747622929318e-01 9.911931499236744e-01 9.883780397042495e-01 9.975494809958050e-01 9.912729337631210e-01 9.957198848222543e-01 9.937923529390126e-01 9.942820165685073e-01 9.893763736065611e-01 9.967815738579668e-01 9.933249071481317e-01 9.703135183100029e-01 9.661146125846812e-01 9.628496846154518e-01 9.076659087986687e-01 9.289129991067548e-01 9.730116788727057e-01 9.753400360499840e-01 9.369357542181787e-01 9.739143715019805e-01 9.403079032007291e-01 9.497619929385834e-01 9.058638883625791e-01 9.704334418841561e-01 9.641647899131862e-01 9.723455652513460e-01 9.674176429573818e-01 9.582562147631921e-01 9.591349081608590e-01 9.629382892673424e-01 9.568293069833880e-01 9.455902225810040e-01 9.530004189465087e-01 9.429902750721388e-01 9.451104868618707e-01 9.534119948986782e-01 9.579727685602992e-01 9.871685652340727e-01 9.633971611294181e-01 9.701779823919700e-01 9.661174277139768e-01 9.668706518914891e-01 9.709134642510409e-01 9.689741924885487e-01 9.686383816826168e-01 9.730291612956367e-01 9.861743680209635e-01 9.820155530339312e-01 9.840659449521022e-01 9.785905570528380e-01 9.751046949683588e-01 9.786075689642961e-01 9.765459056556278e-01 9.508052109732128e-01 9.525827900343873e-01 9.955031067716326e-01 9.775896126816935e-01 9.753928008832717e-01 9.821497742744452e-01 9.652936294301773e-01 9.601617217665939e-01 9.627938837408426e-01 9.733368099724760e-01 9.705054938911875e-01 9.693619934930717e-01 9.668398116157182e-01 9.703188492876509e-01 9.676690078940806e-01 9.934198121041085e-01 9.907600310700192e-01 9.739142765723311e-01 9.644155399698813e-01 9.625233544105076e-01 9.761604218346098e-01 9.694992050578359e-01 9.667636751836148e-01 9.566735594003075e-01 9.727723246312363e-01 9.744798242950926e-01 9.118949250938073e-01 9.568799893725196e-01 9.755507088995424e-01 9.112044566459196e-01 8.876454636903617e-01 9.775218250064848e-01 9.792337544542329e-01 9.533074465725830e-01 9.534747358789077e-01 9.850977563206333e-01 9.727640086351991e-01 9.700090073695353e-01 9.771699512938405e-01 9.698023652702741e-01 9.794937104430976e-01 9.750596533741324e-01 9.732131778002497e-01 9.724124208838054e-01 9.797006588538995e-01 9.762712733915048e-01 9.812525662228290e-01 9.884897354457387e-01 9.814280691276085e-01 9.835995466602863e-01 9.860029152383493e-01 9.884682617248850e-01 9.838508699831321e-01 9.806766544909853e-01 
</DataArray>
<DataArray type="Float64" Name="B_conc" format="ascii">