<?xml version="1.0"?>
<VTKFile type="UnstructuredGrid" version="0.1" byte_order="LittleEndian">
<UnstructuredGrid>
<Piece NumberOfPoints="300" NumberOfCells="677">
<Points>
<DataArray type="Float64" NumberOfComponents="3" format="ascii">
0.000000000000000e+00 3.750000000000000e+00 0.000000000000000e+00 1.750000000000000e+00 5.000000000000000e+00 0.000000000000000e+00 2.250000000000000e+00 4.750000000000000e+00 0.000000000000000e+00 2.750000000000000e+00 4.000000000000000e+00 0.000000000000000e+00 3.500000000000000e+00 5.000000000000000e+00 0.000000000000000e+00 3.250000000000000e+00 6.250000000000000e+00 0.000000000000000e+00 4.000000000000000e+00 5.750000000000000e+00 0.000000000000000e+00 5.000000000000000e+00 6.250000000000000e+00 0.000000000000000e+00 4.750000000000000e+00 7.250000000000000e+00 0.000000000000000e+00 4.250000000000000e+00 4.750000000000000e+00 0.000000000000000e+00 3.500000000000000e+00 4.000000000000000e+00 0.000000000000000e+00 4.250000000000000e+00 3.500000000000000e+00 0.000000000000000e+00 4.750000000000000e+00 2.750000000000000e+00 0.000000000000000e+00 4.250000000000000e+00 1.500000000000000e+00 0.000000000000000e+00 5.250000000000000e+00 5.000000000000000e+00 0.000000000000000e+00 4.750000000000000e+00 4.750000000000000e+00 0.000000000000000e+00 5.250000000000000e+00 4.000000000000000e+00 0.000000000000000e+00 5.000000000000000e+00 2.250000000000000e+00 0.000000000000000e+00 5.750000000000000e+00 7.500000000000000e-01 0.000000000000000e+00 5.750000000000000e+00 2.500000000000000e+00 0.000000000000000e+00 5.500000000000000e+00 2.750000000000000e+00 0.000000000000000e+00 6.000000000000000e+00 3.750000000000000e+00 0.000000000000000e+00 6.500000000000000e+00 5.250000000000000e+00 0.000000000000000e+00 7.250000000000000e+00 6.000000000000000e+00 0.000000000000000e+00 6.750000000000000e+00 4.000000000000000e+00 0.000000000000000e+00 7.000000000000000e+00 2.250000000000000e+00 0.000000000000000e+00 7.500000000000000e+00 2.000000000000000e+00 0.000000000000000e+00 7.500000000000000e+00 3.750000000000000e+00 0.000000000000000e+00 7.500000000000000e+00 4.750000000000000e+00 0.000000000000000e+00 7.750000000000000e+00 6.250000000000000e+00 0.000000000000000e+00 7.750000000000000e+00 5.500000000000000e+00 0.000000000000000e+00 8.250000000000000e+00 5.000000000000000e+00 0.000000000000000e+00 8.250000000000000e+00 3.750000000000000e+00 0.000000000000000e+00 8.000000000000000e+00 2.500000000000000e+00 0.000000000000000e+00 8.500000000000000e+00 7.500000000000000e-01 0.000000000000000e+00 9.000000000000000e+00 8.000000000000000e+00 0.000000000000000e+00 9.000000000000000e+00 5.500000000000000e+00 0.000000000000000e+00 9.750000000000000e+00 4.000000000000000e+00 0.000000000000000e+00 9.000000000000000e+00 2.750000000000000e+00 0.000000000000000e+00 9.750000000000000e+00 5.500000000000000e+00 0.000000000000000e+00 1.050000000000000e+01 4.750000000000000e+00 0.000000000000000e+00 1.125000000000000e+01 4.250000000000000e+00 0.000000000000000e+00 1.200000000000000e+01 3.750000000000000e+00 0.000000000000000e+00 1.275000000000000e+01 4.500000000000000e+00 0.000000000000000e+00 4.750000000000000e+00 4.000000000000000e+00 0.000000000000000e+00 2.000000000000000e+00 3.000000000000000e+00 0.000000000000000e+00 6.000000000000000e+00 6.400000000000000e+00 0.000000000000000e+00 1.000000000000000e+00 6.200000000000000e+00 0.000000000000000e+00 1.040000000000000e+01 2.300000000000000e+00 0.000000000000000e+00 1.150000000000000e+01 1.100000000000000e+00 0.000000000000000e+00 6.000000000000000e-01 7.500000000000000e-01 0.000000000000000e+00 1.190000000000000e+01 7.000000000000000e+00 0.000000000000000e+00 0.000000000000000e+00 7.500000000000000e-01 0.000000000000000e+00 0.000000000000000e+00 8.000000000000000e+00 0.000000000000000e+00 1.275000000000000e+01 7.500000000000000e-01 0.000000000000000e+00 1.275000000000000e+01 8.000000000000000e+00 0.000000000000000e+00 5.624999999964863e-01 3.999999999998438e+00 0.000000000000000e+00 1.124999999995812e+00 4.249999999998138e+00 0.000000000000000e+00 1.687499999998485e+00 4.499999999999327e+00 0.000000000000000e+00 2.875000000000000e+00 4.375000000000000e+00 0.000000000000000e+00 2.687500000002093e+00 5.000000000001196e+00 0.000000000000000e+00 3.125000000002093e+00 5.250000000001196e+00 0.000000000000000e+00 3.562500000002093e+00 5.500000000001196e+00 0.000000000000000e+00 4.500000000000000e+00 6.000000000000000e+00 0.000000000000000e+00 4.500000000005181e+00 6.750000000010362e+00 0.000000000000000e+00 4.250000000005181e+00 6.250000000010362e+00 0.000000000000000e+00 4.625000000000000e+00 5.375000000000000e+00 0.000000000000000e+00 4.750000000000000e+00 4.375000000000000e+00 0.000000000000000e+00 4.624999999997918e+00 1.874999999997918e+00 0.000000000000000e+00 5.250000000000000e+00 1.750000000000000e+00 0.000000000000000e+00 5.500000000000000e+00 1.250000000000000e+00 0.000000000000000e+00 4.125000000008327e+00 4.000000000000000e+00 0.000000000000000e+00 5.125000000000000e+00 3.375000000000000e+00 0.000000000000000e+00 5.749999999991033e+00 4.666666666672645e+00 0.000000000000000e+00 6.249999999991033e+00 4.333333333339311e+00 0.000000000000000e+00 5.916666666666667e+00 3.166666666666667e+00 0.000000000000000e+00 6.333333333333333e+00 3.583333333333333e+00 0.000000000000000e+00 5.750000000000000e+00 5.250000000000000e+00 0.000000000000000e+00 6.250000000000000e+00 5.500000000000000e+00 0.000000000000000e+00 6.750000000000000e+00 5.750000000000000e+00 0.000000000000000e+00 6.875000000000000e+00 5.625000000000000e+00 0.000000000000000e+00 7.600000000000000e+00 6.400000000000000e+00 0.000000000000000e+00 7.950000000000000e+00 6.800000000000000e+00 0.000000000000000e+00 8.300000000000001e+00 7.200000000000000e+00 0.000000000000000e+00 8.650000000000000e+00 7.600000000000000e+00 0.000000000000000e+00 7.249999999991033e+00 4.333333333327355e+00 0.000000000000000e+00 7.749999999991033e+00 4.666666666660689e+00 0.000000000000000e+00 8.750000000000000e+00 5.166666666666667e+00 0.000000000000000e+00 9.250000000000000e+00 5.333333333333333e+00 0.000000000000000e+00 8.750000000000000e+00 4.666666666666667e+00 0.000000000000000e+00 9.250000000000000e+00 4.333333333333333e+00 0.000000000000000e+00 8.750000000000000e+00 3.833333333333334e+00 0.000000000000000e+00 9.250000000000000e+00 3.916666666666667e+00 0.000000000000000e+00 1.025000000000000e+01 4.083333333333333e+00 0.000000000000000e+00 1.075000000000000e+01 4.166666666666667e+00 0.000000000000000e+00 1.175000000000000e+01 4.333333333333333e+00 0.000000000000000e+00 1.225000000000000e+01 4.416666666666667e+00 0.000000000000000e+00 8.437500000000000e+00 2.875000000000000e+00 0.000000000000000e+00 8.875000000000000e+00 3.250000000000000e+00 0.000000000000000e+00 9.312500000000000e+00 3.625000000000000e+00 0.000000000000000e+00 7.750000000000000e+00 3.125000000000000e+00 0.000000000000000e+00 7.500000000000000e+00 2.375000000000000e+00 0.000000000000000e+00 8.500000000000000e+00 2.625000000000000e+00 0.000000000000000e+00 8.166666666666545e+00 1.916666666667094e+00 0.000000000000000e+00 8.333333333333211e+00 1.333333333333761e+00 0.000000000000000e+00 2.166666666666796e+00 4.166666666667574e+00 0.000000000000000e+00 2.083333333333204e+00 3.583333333332427e+00 0.000000000000000e+00 2.499999999996517e+00 2.875000000000871e+00 0.000000000000000e+00 2.999999999994993e+00 2.750000000001252e+00 0.000000000000000e+00 3.499999999995429e+00 2.625000000001143e+00 0.000000000000000e+00 3.999999999996735e+00 2.500000000000816e+00 0.000000000000000e+00 4.499999999998258e+00 2.375000000000435e+00 0.000000000000000e+00 1.720000000001057e+00 2.550000000001699e+00 0.000000000000000e+00 1.440000000001740e+00 2.100000000002797e+00 0.000000000000000e+00 1.160000000001491e+00 1.650000000002397e+00 0.000000000000000e+00 8.800000000005590e-01 1.200000000000898e+00 0.000000000000000e+00 3.500000000003257e+00 5.824999999999512e+00 0.000000000000000e+00 3.000000000004434e+00 5.899999999999335e+00 0.000000000000000e+00 2.500000000003529e+00 5.974999999999471e+00 0.000000000000000e+00 2.000000000002081e+00 6.049999999999688e+00 0.000000000000000e+00 1.500000000000905e+00 6.124999999999864e+00 0.000000000000000e+00 9.699999999999999e+00 2.525000000000000e+00 0.000000000000000e+00 1.061250000000038e+01 2.787500000000867e+00 0.000000000000000e+00 1.082499999999898e+01 3.274999999997668e+00 0.000000000000000e+00 1.103749999999759e+01 3.762499999994468e+00 0.000000000000000e+00 1.076666666666475e+01 1.900000000002095e+00 0.000000000000000e+00 1.113333333333433e+01 1.499999999998911e+00 0.000000000000000e+00 1.177000000000000e+01 6.450000000000000e+00 0.000000000000000e+00 1.164000000000035e+01 5.900000000001491e+00 0.000000000000000e+00 1.151000000000059e+01 5.350000000002485e+00 0.000000000000000e+00 1.138000000000047e+01 4.800000000001989e+00 0.000000000000000e+00 5.500000000000000e+00 6.325000000000000e+00 0.000000000000000e+00 6.625000000000000e+00 6.200000000000000e+00 0.000000000000000e+00 6.375000000000000e+00 2.375000000000000e+00 0.000000000000000e+00 1.114999999998196e+00 7.500000000000000e-01 0.000000000000000e+00 1.629999999996392e+00 7.500000000000000e-01 0.000000000000000e+00 2.144999999994866e+00 7.500000000000000e-01 0.000000000000000e+00 2.659999999993617e+00 7.500000000000000e-01 0.000000000000000e+00 3.174999999992368e+00 7.500000000000000e-01 0.000000000000000e+00 3.689999999993339e+00 7.500000000000000e-01 0.000000000000000e+00 4.204999999994310e+00 7.500000000000000e-01 0.000000000000000e+00 4.719999999995837e+00 7.500000000000000e-01 0.000000000000000e+00 5.234999999997918e+00 7.500000000000000e-01 0.000000000000000e+00 6.300000000000000e+00 7.500000000000000e-01 0.000000000000000e+00 6.850000000000000e+00 7.500000000000000e-01 0.000000000000000e+00 7.400000000000000e+00 7.500000000000000e-01 0.000000000000000e+00 7.950000000000000e+00 7.500000000000000e-01 0.000000000000000e+00 9.131968328037775e+00 7.500000000000000e-01 0.00000000000000
[...]
<CellData Scalars="A_conc,B_conc," Vectors="" Tensors="">
<DataArray type="Float64" Name="A_conc" format="ascii">
9.416254870008917e-01 9.425265803832188e-01 9.433740309367593e-01 9.440191851196276e-01 9.313464518221339e-01 9.604082114557750e-01 9.642999791084270e-01 9.232345034646749e-01 9.312246683864394e-01 9.334592151501686e-01 9.367832987069344e-01 9.435741116929578e-01 6.736671150168816e-01 9.169226180036715e-01 9.165776398493888e-01 9.235802669294173e-01 4.343528593073511e-01 6.773018969713536e-01 8.546945992830965e-01 9.652014707808956e-01 9.700223202196085e-01 7.349410510636076e-01 8.880099472204914e-01 9.522142278387761e-01 9.672801909185449e-01 9.098661232951537e-01 9.376964618864687e-01 7.970123584986720e-01 7.880918234295826e-01 7.766383309870364e-01 8.896929435335545e-01 9.711854721548445e-01 9.788398520213795e-01 9.696293321527750e-01 9.704953021566903e-01 9.738027562575273e-01 9.729831964625538e-01 9.693114579009716e-01 9.810943176597211e-01 9.782775181028017e-01 9.802925935697535e-01 9.817180732350936e-01 9.407315694484373e-01 9.463270561555217e-01 9.560140502507060e-01 9.212556016285842e-01 9.259691235201846e-01 9.296407293042431e-01 9.363938851636446e-01 9.376187149436108e-01 9.489529745020476e-01 9.566306155329434e-01 9.593129579095414e-01 9.635253386223948e-01 9.672832739666952e-01 9.702707518896438e-01 9.241891387412664e-01 9.830325152875385e-01 9.849529108007284e-01 9.867180545923967e-01 9.774031377722543e-01 9.769074279868926e-01 8.834159752090276e-01 9.539546782671131e-01 9.566687499105211e-01 9.593107448956625e-01 9.926513510576576e-01 9.938554988896060e-01 9.947968678781970e-01 9.758757717644091e-01 9.855482239029845e-01 9.911761703713085e-01 9.956363663445076e-01 9.961409345178607e-01 9.965018435896116e-01 9.885434595072320e-01 9.842774733696527e-01 9.989282248120906e-01 9.993697626154052e-01 9.997043313386997e-01 9.844488008728348e-01 9.868822530077659e-01 9.896934067051515e-01 9.927475341974683e-01 9.573753832848266e-01 9.710167117509418e-01 9.811658674101766e-01 9.816707835956638e-01 9.671895009027827e-01 9.827171147347856e-01 9.843924750255748e-01 9.016114319806444e-01 9.127355150189601e-01 9.228838028706334e-01 9.777602753289342e-01 9.164615547740429e-01 9.251559327584038e-01 9.356939017028649e-01 9.434757125098285e-01 9.463679505012571e-01 9.480207269554078e-01 9.491971353371905e-01 9.503388273953166e-01 9.514589539175189e-01 9.356339856201495e-01 9.203913674940649e-01 8.885992435271175e-01 8.330698772026260e-01 7.358160181497049e-01 9.439233924935528e-01 9.420868203039547e-01 9.400889764041448e-01 9.377845732529843e-01 9.348274783812804e-01 9.297921055191450e-01 9.855335776844825e-01 9.867343388362273e-01 9.903074717041489e-01 9.919219107487419e-01 9.936212967032347e-01 9.953748231144567e-01 9.792106885671600e-01 9.817140191441889e-01 9.836117548589862e-01 9.863778683462240e-01 9.831935411362631e-01 9.823374959805671e-01 9.808511233312813e-01 9.795641730105022e-01 9.322157023130744e-01 9.375652932768468e-01 9.412278327700496e-01 9.439099066887096e-01 9.797036399870038e-01 9.805317858995490e-01 9.222193417512330e-01 9.332406567537511e-01 7.682990877188207e-01 8.864842720690520e-01 8.278581042479274e-01 7.470838489952646e-01 6.636398605309499e-01 9.582919852873983e-01 9.179308285817858e-01 4.497585507204345e-01 9.156345963491235e-01 9.115868632533981e-01 9.251898492515338e-01 9.251081961010204e-01 9.217657724686925e-01 4.586356030019024e-01 6.198380294104431e-01 9.274825973706997e-01 9.279995996461186e-01 9.254736143865865e-01 9.225131111954068e-01 9.124827324073366e-01 9.145637187366724e-01 9.088089175894234e-01 9.119226520938796e-01 8.789320123518575e-01 4.784238898777921e-01 4.974348603143975e-01 4.794303358298835e-01 5.017487043265476e-01 7.067750003706286e-01 8.044131868401470e-01 7.130198890451880e-01 8.101549659838327e-01 7.350089494437155e-01 8.865807371625078e-01 9.274911987585912e-01 8.839962825722010e-01 9.044719276294171e-01 8.796031681380359e-01 8.742027437403097e-01 8.444649203958219e-01 4.001030143105653e-01 4.749810450931311e-01 8.977529197807859e-01 7.700149878583635e-01 8.315974091898126e-01 8.676990195557784e-01 5.681267303364474e-01 4.386508845040400e-01 8.012586330405440e-01 4.492238111674419e-01 5.193533950405252e-01 9.416722838742362e-01 9.298899281986049e-01 6.216482922486399e-01 5.623283660845715e-01 6.810386853033237e-01 5.446769259291776e-01 6.925529199900256e-01 8.645568746800774e-01 8.843013083594120e-01 9.046204339826804e-01 9.149844965704135e-01 8.259466581916857e-01 7.891790943915673e-01 6.956952205865334e-01 9.323609798228704e-01 9.267168440996272e-01 8.095018410416241e-01 8.993049744605328e-01 8.554507129502871e-01 8.811969627887917e-01 8.615220459151663e-01 8.684682589658959e-01 8.352094580400798e-01 9.347576103402904e-01 9.435124166040691e-01 9.181869448633195e-01 9.175059533981922e-01 9.027489061071979e-01 9.478665642935644e-01 9.461166720844887e-01 9.363809109271291e-01 9.316899607412017e-01 9.578873562915966e-01 9.485328081973965e-01 9.134563958803457e-01 9.174345486059794e-01 9.129759988562187e-01 9.283616136603952e-01 9.266896265719100e-01 9.355433089980426e-01 9.334208569796855e-01 9.340696258959273e-01 9.301758666451607e-01 8.220693569781636e-01 8.778780883300839e-01 6.056213461679966e-01 6.117714353108461e-01 3.958340963850042e-01 9.343516438353792e-01 9.322077430250253e-01 9.385829093099836e-01 9.278185659643583e-01 9.178938914884703e-01 9.272982063002537e-01 9.179162378385948e-01 9.234736629980815e-01 9.182097174228998e-01 9.284297490973537e-01 9.232552929429428e-01 9.247480386197715e-01 9.271171533254616e-01 9.288095054105230e-01 9.240817610153175e-01 8.014229329122586e-01 9.186921152090444e-01 8.594479697061550e-01 9.079070353800225e-01 8.930467902002208e-01 8.141570195796148e-01 8.129042336939192e-01 7.677681473966511e-01 8.976996454018960e-01 7.913686417247998e-01 8.496262916830304e-01 8.877795063534806e-01 9.080057628689640e-01 8.954860914261089e-01 7.345547961748975e-01 8.331548228123329e-01 8.655535242058808e-01 8.520757832118493e-01 8.276220184675924e-01 6.617288298466912e-01 9.607897506886697e-01 9.519681613082507e-01 9.477274346647323e-01 9.643902069514516e-01 9.205399319247922e-01 9.135994981962463e-01 9.063629529799646e-01 8.996294437043635e-01 5.917187992212165e-01 8.643215733135707e-01 6.377711914830111e-01 9.722402087342388e-01 9.644703815401021e-01 9.533116325998712e-01 9.398103652329839e-01 9.360566476617502e-01 9.397936487449357e-01 9.460190980108781e-01 9.232104153366002e-01 9.323625913197104e-01 8.516557662262907e-01 8.539192512556901e-01 8.442677631332484e-01 9.120960108348191e-01 8.816242053651582e-01 8.691964521878158e-01 9.167955288935525e-01 9.081978763142331e-01 9.061783682299218e-01 8.849467602761182e-01 8.731933046520803e-01 9.104814249878399e-01 9.098542745680600e-01 9.139963353672025e-01 9.204378066194190e-01 9.199931501052592e-01 9.329529302285283e-01 9.206874378682349e-01 9.244588563982226e-01 9.329633096725105e-01 9.300919815433606e-01 9.232598338204450e-01 9.092149417937749e-01 9.137387964244957e-01 9.203899251851425e-01 9.162882033059193e-01 8.631918076345751e-01 8.598391396999969e-01 8.303800479962129e-01 7.325992643121493e-01 9.027544330188408e-01 9.156468096066861e-01 8.995757417740848e-01 9.128693767063203e-01 9.031596328306888e-01 7.608584663052180e-01 7.749232492609994e-01 8.986185203919470e-01 8.611982245211232e-01 8.953971501830835e-01 8.656573509121279e-01 8.727238114407438e-01 8.754556326063174e-01 8.814094751913316e-01 8.837253193976589e-01 8.927205043852906e-01 9.017975152244143e-01 9.161490602094237e-01 9.213993774667415e-01 9.098502728920925e-01 9.266675687798966e-01 2.844506634413750e-01 6.412164750071911e-01 5.545917901736374e-01 5.510837910233292e-01 9.350849382203265e-01 7.323216793571604e-01 9.265182347987676e-01 9.237895055439693e-01 3.140636668354484e-01 3.400892415101360e-01 9.031289769624964e-01 4.043852875811947e-01 7.267263852447473e-01 5.640141847701924e-01 5.973739768205193e-01 4.466970937700425e-01 4.717553827901291e-01 3.674858117427022e-01 8.931171276091641e-01 8.807500211274917e-01 7.096940265378429e-01 3.866941161868481e-01 4.368372039922773e-01 4.136889070247055e-01 6.059112431952908e-01 4.954370918988256e-01 6.236507710339447e-01 7.743872190666420e-01 8.516703653473896e-01 8.643117620115971e-01 7.560942021115822e-01 8.522101291224646e-01 8.144173910348447e-01 6.542343592567513e-01 9.121118639297621e-01 9.160151932724349e-01 8.887985792956543e-01 8.790095621808155e-01 8.641730376335610e-01 8.741211013293164e-01 6.411738444496474e-01 8.902636800840910e-01 8.610344893298184e-01 8.970526152887282e-01 9.043707301015702e-01 5.892356956151594e-01 6.607466089444460e-01 5.446067975556905e-01 5.725770034384617e-01 5.979931477025107e-01 6.196576859967882e-01 4.975340254676043e-01 5.437812265023452e-01 4.900465512986446e-01 4.642393880878682e-01 5.179638918437279e-01 5.604775011100471e-01 6.642177459407950e-01 6.171102877827247e-01 6.378162214060890e-01 7.178886472446391e-01 7.278191495804850e-01 7.836784637062970e-01 8.124593711438899e-01 7.306014302133870e-01 6.338954828039427e-01 9.514817536411915e-01 9.576202862569084e-01 9.494981653172068e-01 9.560461804817937e-01 9.525938001555727e-01 9.464887814628327e-01 9.031624912836129e-01 9.342671131744388e-01 9.067812794684653e-01 8.863292514565426e-01 8.649139707200679e-01 9.359657337496793e-01 9.303539811846141e-01 9.537106727429865e-01 9.101483606504077e-01 9.146570210494873e-01 8.931478241998633e-01 8.704961342544626e-01 9.002888206145744e-01 8.801952050445567e-01 8.890305712905946e-01 8.408188864061290e-01 9.294035031978678e-01 8.483146736914998e-01 9.162203731463676e-01 8.992980811617697e-01 8.669339101500886e-01 8.583072659272523e-01 8.825475699603496e-01 8.916174428028729e-01 8.975130339103827e-01 8.752420895387033e-01 8.827762502217076e-01 9.540751805405974e-01 9.342995490527036e-01 9.391206874136903e-01 9.055354323907061e-01 8.979054925951930e-01 9.261076622688540e-01 9.116972364597316e-01 9.216408618627013e-01 9.663190726025416e-01 9.647637544070263e-01 9.879636587164007e-01 9.455360661319440e-01 9.513584746602065e-01 9.475591713906691e-01 9.548272408217475e-01 9.487697189741127e-01 9.564480452260975e-01 9.529229440122413e-01 9.431509159554756e-01 9.677399856735716e-01 9.713044636244744e-01 9.739317466181208e-01 9.731371704163816e-01 9.659112512114206e-01 9.460684962545174e-01 9.432871381863712e-01 9.536141439657388e-01 9.673054891089086e-01 9.624797776934664e-01 9.582888780271019e-01 9.803040277327022e-01 9.786811250823344e-01 9.771615145726071e-01 9.844763149843120e-01 9.820008753491478e-01 9.581661122997731e-01 9.692515193347615e-01 9.601200812665536e-01 9.209016305672102e-01 9.693438392652857e-01 9.634352435842675e-01 9.579329617942079e-01 9.762238836210944e-01 9.724823936404078e-01 9.840433385687474e-01 9.812816034013403e-01 9.926323872203673e-01 9.904858133945448e-01 9.614424940148905e-01 9.700220662039462e-01 9.680425527438106e-01 9.486882535938045e-01 9.605432758193810e-01 9.535487701637042e-01 9.417533650116052e-01 9.372222863167485e-01 9.604944471574501e-01 9.549564279159036e-01 9.390457736175706e-01 9.452693866075933e-01 9.501084554435910e-01 9.457695182583569e-01 9.570545032879523e-01 9.511232926460608e-01 9.692891964138795e-01 9.643201093801514e-01 9.798755031613746e-01 9.735685878707805e-01 9.840269886133313e-01 9.876031667423502e-01 9.819996334458556e-01 9.732017436820359e-01 9.975689293409893e-01 9.963244320216224e-01 9.987068702036030e-01 9.908597434495421e-01 9.902349882007661e-01 9.880604764344207e-01 9.831953218804107e-01 9.823878858119022e-01 9.952485396508796e-01 9.918283984683652e-01 9.942260852103785e-01 9.975665652763286e-01 9.858464173081858e-01 9.884238583608665e-01 9.847669130383832e-01 9.835807823175469e-01 9.933401952716834e-01 9.899540259213968e-01 9.862320037435045e-01 9.870273139653044e-01 9.836068917372467e-01 9.895061686452680e-01 9.919326175398668e-01 9.931082706681189e-01 9.980740987965147e-01 9.955114955095170e-01 9.950907767254898e-01 9.982515174109441e-01 9.943502281145622e-01 9.926836309441249e-01 9.972016843549727e-01 9.955202112058741e-01 9.486887662812681e-01 9.529034974297915e-01 9.565132499405405e-01 9.928518317276624e-01 9.861244193659247e-01 9.646162285725222e-01 9.864885980233307e-01 9.896479018052620e-01 9.603034056019675e-01 9.641161281171344e-01 9.888665382347841e-01 9.839787946381082e-01 9.701207609679303e-01 9.792190193271102e-01 9.796778172391716e-01 9.825729975593398e-01 9.745778369979975e-01 9.690023855734182e-01 9.738083419662477e-01 9.764015587870872e-01 9.841198635011505e-01 9.894647331123956e-01 9.982949067540264e-01 9.978511456507431e-01 9.939903104868214e-01 9.906487655403491e-01 9.915322017456674e-01 9.888246403866456e-01 9.976441474326014e-01 9.916088370784284e-01 9.958850846434552e-01 9.940316077825564e-01 9.945024496418877e-01 9.897846025321424e-01 9.969057984671953e-01 9.935820047365973e-01 9.717729899511567e-01 9.678880298867225e-01 9.649011473135554e-01 9.277801856403125e-01 9.416562864996834e-01 9.742987992586858e-01 9.764725964562972e-01 9.437683555036653e-01 9.751319069213829e-01 9.462021920613288e-01 9.535166935195731e-01 9.269049472567423e-01 9.718736528208538e-01 9.661154317097582e-01 9.736531866115397e-01 9.690758932807795e-01 9.608082354397571e-01 9.615526965133678e-01 9.649748508425946e-01 9.595001238027234e-01 9.502240953907777e-01 9.562568149453918e-01 9.484838998259049e-01 9.473009499276452e-01 9.551835442091731e-01 9.595676134983968e-01 9.876600789756284e-01 9.647965781404246e-01 9.713163319408766e-01 9.674092278110000e-01 9.681353790322653e-01 9.720211150415761e-01 9.701553903680762e-01 9.698338303194297e-01 9.740587544673813e-01 9.867038605723164e-01 9.827036097786004e-01 9.846759123288387e-01 9.794089958300307e-01 9.760553027062442e-01 9.794244329245936e-01 9.774411378163936e-01 9.526851340349980e-01 9.543913583360411e-01 9.956766463669932e-01 9.784448730459803e-01 9.763306924361814e-01 9.828327792083664e-01 9.666118577962108e-01 9.616735622111539e-01 9.642062941581491e-01 9.743523203375900e-01 9.716283968465395e-01 9.705271482031568e-01 9.680996745616306e-01 9.714481532841044e-01 9.688980640402840e-01 9.936734610591926e-01 9.911156548636313e-01 9.749085491813927e-01 9.657677134652922e-01 9.639470438094881e-01 9.770698948706136e-01 9.706595873458236e-01 9.680271779095657e-01 9.583203130898110e-01 9.738098864804736e-01 9.754530128603288e-01 9.309590517552429e-01 9.585167385551722e-01 9.764837993236517e-01 9.316730839772296e-01 9.156637488882283e-01 9.783805968149373e-01 9.800278179685422e-01 9.550873766062122e-01 9.552465283527207e-01 9.856687298910992e-01 9.738012862173764e-01 9.711498032803285e-01 9.780406805389525e-01 9.709509670933372e-01 9.802761994720965e-01 9.760103468089687e-01 9.742334455193921e-01 9.734627688421174e-01 9.804762581024773e-01 9.771764247311543e-01 9.819692355767037e-01 9.889316078505526e-01 9.821388078528911e-01 9.842278483037221e-01 9.865402052370972e-01 9.889115279241754e-01 9.844700406276127e-01 9.814160804484553e-01 
</DataArray>
<DataArray type="Float64" Name="B_conc" format="ascii">