<?xml version="1.0"?>
<VTKFile type="UnstructuredGrid" version="0.1" byte_order="LittleEndian">
<UnstructuredGrid>
<Piece NumberOfPoints="300" NumberOfCells="677">
<Points>
<DataArray type="Float64" NumberOfComponents="3" format="ascii">
0.000000000000000e+00 3.750000000000000e+00 0.000000000000000e+00 1.750000000000000e+00 5.000000000000000e+00 0.000000000000000e+00 2.250000000000000e+00 4.750000000000000e+00 0.000000000000000e+00 2.750000000000000e+00 4.000000000000000e+00 0.000000000000000e+00 3.500000000000000e+00 5.000000000000000e+00 0.000000000000000e+00 3.250000000000000e+00 6.250000000000000e+00 0.000000000000000e+00 4.000000000000000e+00 5.750000000000000e+00 0.000000000000000e+00 5.000000000000000e+00 6.250000000000000e+00 0.000000000000000e+00 4.750000000000000e+00 7.250000000000000e+00 0.000000000000000e+00 4.250000000000000e+00 4.750000000000000e+00 0.000000000000000e+00 3.500000000000000e+00 4.000000000000000e+00 0.000000000000000e+00 4.250000000000000e+00 3.500000000000000e+00 0.000000000000000e+00 4.750000000000000e+00 2.750000000000000e+00 0.000000000000000e+00 4.250000000000000e+00 1.500000000000000e+00 0.000000000000000e+00 5.250000000000000e+00 5.000000000000000e+00 0.000000000000000e+00 4.750000000000000e+00 4.750000000000000e+00 0.000000000000000e+00 5.250000000000000e+00 4.000000000000000e+00 0.000000000000000e+00 5.000000000000000e+00 2.250000000000000e+00 0.000000000000000e+00 5.750000000000000e+00 7.500000000000000e-01 0.000000000000000e+00 5.750000000000000e+00 2.500000000000000e+00 0.000000000000000e+00 5.500000000000000e+00 2.750000000000000e+00 0.000000000000000e+00 6.000000000000000e+00 3.750000000000000e+00 0.000000000000000e+00 6.500000000000000e+00 5.250000000000000e+00 0.000000000000000e+00 7.250000000000000e+00 6.000000000000000e+00 0.000000000000000e+00 6.750000000000000e+00 4.000000000000000e+00 0.000000000000000e+00 7.000000000000000e+00 2.250000000000000e+00 0.000000000000000e+00 7.500000000000000e+00 2.000000000000000e+00 0.000000000000000e+00 7.500000000000000e+00 3.750000000000000e+00 0.000000000000000e+00 7.500000000000000e+00 4.750000000000000e+00 0.000000000000000e+00 7.750000000000000e+00 6.250000000000000e+00 0.000000000000000e+00 7.750000000000000e+00 5.500000000000000e+00 0.000000000000000e+00 8.250000000000000e+00 5.000000000000000e+00 0.000000000000000e+00 8.250000000000000e+00 3.750000000000000e+00 0.000000000000000e+00 8.000000000000000e+00 2.500000000000000e+00 0.000000000000000e+00 8.500000000000000e+00 7.500000000000000e-01 0.000000000000000e+00 9.000000000000000e+00 8.000000000000000e+00 0.000000000000000e+00 9.000000000000000e+00 5.500000000000000e+00 0.000000000000000e+00 9.750000000000000e+00 4.000000000000000e+00 0.000000000000000e+00 9.000000000000000e+00 2.750000000000000e+00 0.000000000000000e+00 9.750000000000000e+00 5.500000000000000e+00 0.000000000000000e+00 1.050000000000000e+01 4.750000000000000e+00 0.000000000000000e+00 1.125000000000000e+01 4.250000000000000e+00 0.000000000000000e+00 1.200000000000000e+01 3.750000000000000e+00 0.000000000000000e+00 1.275000000000000e+01 4.500000000000000e+00 0.000000000000000e+00 4.750000000000000e+00 4.000000000000000e+00 0.000000000000000e+00 2.000000000000000e+00 3.000000000000000e+00 0.000000000000000e+00 6.000000000000000e+00 6.400000000000000e+00 0.000000000000000e+00 1.000000000000000e+00 6.200000000000000e+00 0.000000000000000e+00 1.040000000000000e+01 2.300000000000000e+00 0.000000000000000e+00 1.150000000000000e+01 1.100000000000000e+00 0.000000000000000e+00 6.000000000000000e-01 7.500000000000000e-01 0.000000000000000e+00 1.190000000000000e+01 7.000000000000000e+00 0.000000000000000e+00 0.000000000000000e+00 7.500000000000000e-01 0.000000000000000e+00 0.000000000000000e+00 8.000000000000000e+00 0.000000000000000e+00 1.275000000000000e+01 7.500000000000000e-01 0.000000000000000e+00 1.275000000000000e+01 8.000000000000000e+00 0.000000000000000e+00 5.624999999964863e-01 3.999999999998438e+00 0.000000000000000e+00 1.124999999995812e+00 4.249999999998138e+00 0.000000000000000e+00 1.687499999998485e+00 4.499999999999327e+00 0.000000000000000e+00 2.875000000000000e+00 4.375000000000000e+00 0.000000000000000e+00 2.687500000002093e+00 5.000000000001196e+00 0.000000000000000e+00 3.125000000002093e+00 5.250000000001196e+00 0.000000000000000e+00 3.562500000002093e+00 5.500000000001196e+00 0.000000000000000e+00 4.500000000000000e+00 6.000000000000000e+00 0.000000000000000e+00 4.500000000005181e+00 6.750000000010362e+00 0.000000000000000e+00 4.250000000005181e+00 6.250000000010362e+00 0.000000000000000e+00 4.625000000000000e+00 5.375000000000000e+00 0.000000000000000e+00 4.750000000000000e+00 4.375000000000000e+00 0.000000000000000e+00 4.624999999997918e+00 1.874999999997918e+00 0.000000000000000e+00 5.250000000000000e+00 1.750000000000000e+00 0.000000000000000e+00 5.500000000000000e+00 1.250000000000000e+00 0.000000000000000e+00 4.125000000008327e+00 4.000000000000000e+00 0.000000000000000e+00 5.125000000000000e+00 3.375000000000000e+00 0.000000000000000e+00 5.749999999991033e+00 4.666666666672645e+00 0.000000000000000e+00 6.249999999991033e+00 4.333333333339311e+00 0.000000000000000e+00 5.916666666666667e+00 3.166666666666667e+00 0.000000000000000e+00 6.333333333333333e+00 3.583333333333333e+00 0.000000000000000e+00 5.750000000000000e+00 5.250000000000000e+00 0.000000000000000e+00 6.250000000000000e+00 5.500000000000000e+00 0.000000000000000e+00 6.750000000000000e+00 5.750000000000000e+00 0.000000000000000e+00 6.875000000000000e+00 5.625000000000000e+00 0.000000000000000e+00 7.600000000000000e+00 6.400000000000000e+00 0.000000000000000e+00 7.950000000000000e+00 6.800000000000000e+00 0.000000000000000e+00 8.300000000000001e+00 7.200000000000000e+00 0.000000000000000e+00 8.650000000000000e+00 7.600000000000000e+00 0.000000000000000e+00 7.249999999991033e+00 4.333333333327355e+00 0.000000000000000e+00 7.749999999991033e+00 4.666666666660689e+00 0.000000000000000e+00 8.750000000000000e+00 5.166666666666667e+00 0.000000000000000e+00 9.250000000000000e+00 5.333333333333333e+00 0.000000000000000e+00 8.750000000000000e+00 4.666666666666667e+00 0.000000000000000e+00 9.250000000000000e+00 4.333333333333333e+00 0.000000000000000e+00 8.750000000000000e+00 3.833333333333334e+00 0.000000000000000e+00 9.250000000000000e+00 3.916666666666667e+00 0.000000000000000e+00 1.025000000000000e+01 4.083333333333333e+00 0.000000000000000e+00 1.075000000000000e+01 4.166666666666667e+00 0.000000000000000e+00 1.175000000000000e+01 4.333333333333333e+00 0.000000000000000e+00 1.225000000000000e+01 4.416666666666667e+00 0.000000000000000e+00 8.437500000000000e+00 2.875000000000000e+00 0.000000000000000e+00 8.875000000000000e+00 3.250000000000000e+00 0.000000000000000e+00 9.312500000000000e+00 3.625000000000000e+00 0.000000000000000e+00 7.750000000000000e+00 3.125000000000000e+00 0.000000000000000e+00 7.500000000000000e+00 2.375000000000000e+00 0.000000000000000e+00 8.500000000000000e+00 2.625000000000000e+00 0.000000000000000e+00 8.166666666666545e+00 1.916666666667094e+00 0.000000000000000e+00 8.333333333333211e+00 1.333333333333761e+00 0.000000000000000e+00 2.166666666666796e+00 4.166666666667574e+00 0.000000000000000e+00 2.083333333333204e+00 3.583333333332427e+00 0.000000000000000e+00 2.499999999996517e+00 2.875000000000871e+00 0.000000000000000e+00 2.999999999994993e+00 2.750000000001252e+00 0.000000000000000e+00 3.499999999995429e+00 2.625000000001143e+00 0.000000000000000e+00 3.999999999996735e+00 2.500000000000816e+00 0.000000000000000e+00 4.499999999998258e+00 2.375000000000435e+00 0.000000000000000e+00 1.720000000001057e+00 2.550000000001699e+00 0.000000000000000e+00 1.440000000001740e+00 2.100000000002797e+00 0.000000000000000e+00 1.160000000001491e+00 1.650000000002397e+00 0.000000000000000e+00 8.800000000005590e-01 1.200000000000898e+00 0.000000000000000e+00 3.500000000003257e+00 5.824999999999512e+00 0.000000000000000e+00 3.000000000004434e+00 5.899999999999335e+00 0.000000000000000e+00 2.500000000003529e+00 5.974999999999471e+00 0.000000000000000e+00 2.000000000002081e+00 6.049999999999688e+00 0.000000000000000e+00 1.500000000000905e+00 6.124999999999864e+00 0.000000000000000e+00 9.699999999999999e+00 2.525000000000000e+00 0.000000000000000e+00 1.061250000000038e+01 2.787500000000867e+00 0.000000000000000e+00 1.082499999999898e+01 3.274999999997668e+00 0.000000000000000e+00 1.103749999999759e+01 3.762499999994468e+00 0.000000000000000e+00 1.076666666666475e+01 1.900000000002095e+00 0.000000000000000e+00 1.113333333333433e+01 1.499999999998911e+00 0.000000000000000e+00 1.177000000000000e+01 6.450000000000000e+00 0.000000000000000e+00 1.164000000000035e+01 5.900000000001491e+00 0.000000000000000e+00 1.151000000000059e+01 5.350000000002485e+00 0.000000000000000e+00 1.138000000000047e+01 4.800000000001989e+00 0.000000000000000e+00 5.500000000000000e+00 6.325000000000000e+00 0.000000000000000e+00 6.625000000000000e+00 6.200000000000000e+00 0.000000000000000e+00 6.375000000000000e+00 2.375000000000000e+00 0.000000000000000e+00 1.114999999998196e+00 7.500000000000000e-01 0.000000000000000e+00 1.629999999996392e+00 7.500000000000000e-01 0.000000000000000e+00 2.144999999994866e+00 7.500000000000000e-01 0.000000000000000e+00 2.659999999993617e+00 7.500000000000000e-01 0.000000000000000e+00 3.174999999992368e+00 7.500000000000000e-01 0.000000000000000e+00 3.689999999993339e+00 7.500000000000000e-01 0.000000000000000e+00 4.204999999994310e+00 7.500000000000000e-01 0.000000000000000e+00 4.719999999995837e+00 7.500000000000000e-01 0.000000000000000e+00 5.234999999997918e+00 7.500000000000000e-01 0.000000000000000e+00 6.300000000000000e+00 7.500000000000000e-01 0.000000000000000e+00 6.850000000000000e+00 7.500000000000000e-01 0.000000000000000e+00 7.400000000000000e+00 7.500000000000000e-01 0.000000000000000e+00 7.950000000000000e+00 7.500000000000000e-01 0.000000000000000e+00 9.131968328037775e+00 7.500000000000000e-01 0.00000000000000
[...]
<CellData Scalars="A_conc,B_conc,region_ids," Vectors="" Tensors="">
<DataArray type="Float64" Name="A_conc" format="ascii">
4.791172706022290e-01 4.863216484984445e-01 4.928576422025713e-01 4.978716553000168e-01 3.706030768939972e-01 6.191377825978928e-01 6.526926708581933e-01 2.831639902972097e-01 3.707445427844296e-01 3.874494688327483e-01 4.047752368094064e-01 4.181300016916680e-01 4.165151020207714e-03 2.570498158849267e-01 4.219454364706553e-02 5.590294430548449e-02 1.325310385270380e-03 3.116710619169372e-02 1.788419556198875e-01 6.300575097097436e-01 6.543894472809278e-01 3.496052775043906e-02 6.822225493638413e-02 3.899909682209237e-01 6.307055307409635e-01 2.453706462199076e-01 4.912230876326272e-01 1.426299704900786e-02 8.024119196246484e-03 1.418851532006216e-03 2.555523366004794e-01 7.229883567705456e-01 8.300653460747140e-01 6.993500347561519e-01 7.095043009801383e-01 7.333207142760790e-01 7.409548811431651e-01 7.066298782070527e-01 7.895217836195045e-01 7.533135739612999e-01 7.786453285689898e-01 7.941961650029352e-01 2.044818607454063e-01 2.790860233504083e-01 4.083573813536276e-01 3.194238468415255e-02 4.803318902916837e-02 5.569689290547843e-02 9.343311590176193e-02 2.196375106599657e-01 2.790420141380099e-01 2.270033505136035e-01 3.053377489371145e-01 4.317405340849571e-01 5.676075171165975e-01 6.748535666690793e-01 1.433895943183877e-01 8.068422232006562e-01 8.369550571818558e-01 8.625313975513196e-01 7.666847182650899e-01 7.586327762142719e-01 2.283550716620806e-01 2.456984218420657e-01 3.023798307113260e-01 3.558909208046869e-01 9.635715202675441e-01 9.747972084496113e-01 9.806310477237210e-01 7.700442998233966e-01 9.297031814482419e-01 9.678423163077217e-01 9.840644565029077e-01 9.859219708504788e-01 9.867693611274297e-01 9.394581529472441e-01 9.403183267895948e-01 9.987411305206160e-01 9.992625219371739e-01 9.996540176402147e-01 8.587356203973806e-01 8.903205470354354e-01 9.278892044348352e-01 9.641947634243649e-01 4.730038241013508e-01 7.234679135016382e-01 8.599758281930721e-01 8.647751073658321e-01 6.095522346161616e-01 8.937819679234723e-01 9.193061549947965e-01 1.275314134591559e-02 7.373145814487727e-03 1.639579590243428e-02 7.617857995247269e-01 3.830114216473225e-01 4.474210709318762e-01 5.147695858549930e-01 5.707276232900571e-01 5.929181750283756e-01 6.080724260708683e-01 6.188354387994419e-01 6.288646248510534e-01 6.383250882473970e-01 5.255472706152517e-01 4.701052906258677e-01 4.059118148961368e-01 3.270814328716288e-01 2.078076423083688e-01 4.156956641001530e-01 4.051291923051943e-01 3.945219561378469e-01 3.832473887683536e-01 3.694112731145578e-01 3.386178147176596e-01 9.349548295718484e-01 9.472272173961667e-01 9.709983644449467e-01 9.760728299697887e-01 9.804816946797518e-01 9.846489760661209e-01 8.978936809750884e-01 9.233910587494794e-01 9.389240949001806e-01 9.479268668849712e-01 9.268663749546406e-01 9.143629981097594e-01 8.978721495645163e-01 8.747543299015201e-01 7.626185769926533e-02 9.912784721560344e-02 1.261275368882802e-01 1.651708657763730e-01 8.431049347407732e-01 8.536068630941578e-01 2.773341528856130e-01 3.907031431238021e-01 1.448934442298541e-03 1.776185779099421e-01 8.171409233967118e-03 5.504163275902320e-04 1.484164211410221e-06 3.170630732296676e-01 6.178224408747596e-03 1.901110940704952e-04 2.244465646105538e-01 1.772991973731507e-01 3.113615018938950e-01 3.012883944185292e-01 2.692011459055074e-01 4.011291684111191e-03 6.517159684805804e-02 3.353033385702030e-01 3.404072263142389e-01 3.134634957429739e-01 2.816060344970926e-01 1.934656810341391e-01 1.999744035580555e-01 1.544330772626026e-01 1.858989026481850e-01 1.983864424850140e-01 7.293975627828126e-03 1.195121537620490e-02 3.995284112808539e-03 4.402812388571807e-04 4.981713745489249e-06 1.055613514788176e-05 4.061420990717543e-07 2.577562064199028e-05 5.065932726587828e-06 1.537790434650464e-01 3.279650428594270e-01 2.322746126015562e-01 2.215370885010356e-01 1.215710590784140e-01 2.687404761623804e-04 5.692494129485214e-05 1.133332878394620e-03 8.681358664212418e-03 1.296588769986496e-03 2.410082606055464e-06 2.266321775835254e-05 1.166927288740759e-01 2.441352366836528e-02 2.198161002761051e-03 8.262572957748425e-02 1.595765851205273e-04 7.906979947089081e-03 5.981894085490246e-02 3.084493244048817e-02 4.533238327973603e-07 1.078823508098025e-07 3.562453630577017e-02 1.538929797861277e-02 4.963728531285322e-02 1.382442806507000e-02 2.581734530954537e-03 8.465821119418977e-03 7.668963059687882e-03 3.481723735453174e-03 5.451373503516631e-05 1.891320569720895e-04 2.686515255174891e-02 3.277496783516776e-01 1.107079847460254e-01 1.901329309125364e-01 9.362945563848016e-05 4.471176225462525e-04 1.712424034208007e-02 9.434255460085024e-04 2.377406335801610e-04 3.985787132051993e-02 8.773220401812530e-02 9.370321901890660e-03 6.355806906925503e-03 2.113401455927705e-03 1.344122250049476e-01 9.839450737080407e-02 4.366934230557182e-02 2.442672206211429e-02 2.800570874872896e-01 1.364577220684485e-01 2.365528095113235e-01 2.605646581297287e-01 2.346554698965603e-01 3.278446681535752e-01 3.204464451608637e-01 3.728635342242687e-01 3.629566762093056e-01 3.658884503323939e-01 3.412437113499608e-01 1.020813967271259e-01 1.566346386010483e-01 1.846596339681626e-02 1.975267422323261e-02 7.003310571908010e-04 3.745063794641560e-01 3.579098187047628e-01 3.886170316152868e-01 3.223951024053147e-01 2.455772498136948e-01 3.092757068974420e-01 2.574613809958259e-01 3.084418542599936e-01 2.617037577274265e-01 3.229728763627848e-01 2.767931284899118e-01 3.128151118705950e-01 3.224371806611638e-01 3.260249881366134e-01 2.872007418755423e-01 5.818643158132136e-02 3.070543352455861e-02 1.529582371212744e-03 1.425118645610228e-02 6.864890205935951e-03 3.219726862702056e-04 5.460084012689258e-04 1.299097847993746e-04 1.577239030702348e-01 1.734517519333405e-04 8.570215483560253e-04 4.019204089425674e-03 1.433068278533241e-02 7.547154161957734e-03 3.515824240755875e-05 9.027873364466868e-02 1.389480979522040e-01 8.413952938588695e-02 3.469613293491064e-02 1.539717709355118e-02 5.452746862205788e-01 3.894540383398841e-01 3.142162890892456e-01 5.973694376555816e-01 1.777534595150909e-01 1.142671926952457e-01 6.754169957418577e-02 3.880730765557126e-02 4.039413987094566e-04 2.938917423028147e-02 1.448283643569602e-03 6.854619672284529e-01 5.600876412860147e-01 3.697578909580367e-01 2.303885248908788e-01 1.409059697604326e-01 2.005354275161912e-01 2.549617256858449e-01 6.291532889545530e-02 1.315186333694723e-01 2.066208910145041e-03 1.718798170271875e-02 9.673139635085409e-03 1.937089307420895e-01 9.389810456529668e-02 5.677727953807153e-02 3.582940916088827e-01 2.700875373541820e-01 2.364408577929983e-01 3.756311586410753e-01 2.681593887077799e-01 3.285902010024896e-01 2.801208229634745e-01 3.701723844641267e-01 3.836445314681285e-01 3.678962720255449e-01 4.894986556184338e-01 4.087070252439517e-01 4.250913997455832e-01 4.979863175568612e-01 4.709086129241690e-01 4.051605605437734e-01 2.834155676772212e-01 3.321140384835756e-01 4.489289415848544e-01 4.110932764380395e-01 3.284865182822455e-01 3.001431938497749e-01 3.096941163272509e-01 1.893645138223220e-01 1.957034205661096e-01 3.166344770652555e-01 1.592882539001804e-01 2.797170565435859e-01 1.854403181721878e-01 2.080765602056294e-01 2.016133708019496e-01 3.060440963017104e-01 4.657411765465999e-03 6.543397956153124e-02 2.898542130966368e-02 1.123605026625390e-02 4.618846096893891e-02 2.882189818970488e-02 2.516233255614735e-02 4.807789395541082e-02 8.652476098055036e-02 1.970029717780172e-01 2.506550032460751e-01 1.400737709669941e-01 3.111871359743107e-01 5.336086977230920e-09 1.207001094708372e-04 2.923298728572744e-05 1.312763968043050e-04 4.622131865707959e-01 4.863809481536675e-04 3.640050269015807e-01 3.336850191677286e-01 2.999600658853676e-08 1.432855755559379e-07 1.875556436404434e-01 6.915360952276792e-07 6.713561794331755e-03 2.803246381020193e-05 9.910535453680445e-05 3.148750346047517e-06 1.203294383499542e-05 6.688530707665393e-07 1.207433248570206e-01 5.270317588362865e-02 2.967070076590851e-03 2.002858787712309e-06 2.766262601186193e-05 8.259980844660229e-06 3.168179592630604e-04 4.157879763986543e-05 7.896200178666092e-04 4.007827711061954e-03 1.317071938839864e-02 2.562759506380690e-02 1.546978616528790e-03 1.252859884184511e-02 3.623036381684788e-03 1.021116935489256e-02 2.224692548746398e-01 2.518649076275987e-01 9.538505125373381e-02 5.578338908996005e-02 2.482601207090881e-02 4.469870731049541e-02 1.363285361552576e-02 8.668859817720737e-02 2.327151024518761e-02 1.211495156951620e-01 1.611293353438329e-01 7.645723126866641e-03 2.322255139186718e-02 1.947011217029004e-03 4.461801186642541e-03 1.884699609016954e-03 4.384426865212379e-03 7.836593483456409e-05 2.776364293950863e-04 2.812609975662867e-04 9.493327543349313e-05 7.913723658419466e-04 6.505908994118659e-04 3.639412070562695e-02 1.458216188299138e-02 2.270101285655605e-02 4.483755548709305e-04 4.898914689331173e-02 8.594003338975620e-02 1.262307465797219e-01 2.544974789212476e-03 5.811743195913216e-04 5.009780749640368e-01 5.403518342717553e-01 3.987534943194606e-01 4.827873906516589e-01 4.192516103568470e-01 3.140820438923070e-01 7.360814035108122e-02 1.974135765413066e-01 8.623258790593603e-02 4.130742419400651e-02 1.869281824280148e-02 2.434032657365089e-01 2.785000824857740e-01 4.496950499090142e-01 1.371564110046918e-01 6.423181109703609e-03 8.026033453830503e-04 3.552714310292225e-02 1.878727972281027e-03 5.351517725369308e-02 7.672295483812025e-02 5.035883637306743e-03 2.170341300598026e-01 2.658258404563508e-03 1.713689012951700e-01 2.283128358341186e-03 4.615786122781988e-05 4.357187822283219e-03 4.150277244184196e-02 6.359037566319772e-02 8.316824036222624e-02 1.156203618314278e-04 2.756769311276899e-04 4.502947080394493e-01 2.696184800075483e-01 3.295311372770731e-01 1.035720218225002e-01 7.073882428076284e-02 1.832180515091090e-01 8.664185942770145e-02 1.433417430235795e-01 5.937148823104673e-01 5.642216414336469e-01 9.497684800522838e-01 2.047433621375640e-01 3.410935316276070e-01 2.674228094077993e-01 2.719555525016714e-01 2.598541634693355e-01 4.523510666147007e-01 3.832479143831375e-01 1.916795151981086e-01 6.584200391746979e-01 7.215915702700197e-01 7.417201510886682e-01 7.373862178668029e-01 5.272393854248958e-01 2.072718010721956e-01 1.619072923314628e-01 3.366776926482493e-01 6.404820244951850e-01 5.377677307733577e-01 4.410697903856604e-01 8.766580401164970e-01 8.503320652771080e-01 8.270484638823283e-01 9.245614304408236e-01 8.954434831346992e-01 3.504961783417306e-01 6.268264610112345e-01 3.989313907388358e-01 2.224372065873995e-01 6.099619865461940e-01 4.602632207403818e-01 3.431652115009315e-01 7.798895708890556e-01 7.008290073125726e-01 8.996004373313484e-01 8.777444518645132e-01 9.911863105387495e-01 9.883016998369663e-01 3.810333658688499e-01 6.445656891836181e-01 5.791035528935899e-01 1.680864760930137e-01 3.702459557746846e-01 2.373238391461255e-01 9.811652694936449e-02 6.495268762804011e-02 3.608906173284055e-01 2.339302883457541e-01 4.070752020802902e-02 8.476670381049596e-02 1.449625759920020e-01 8.147976867655748e-02 2.636573748453398e-01 1.484455341902890e-01 5.816971811859786e-01 4.490545762392156e-01 9.163087197357521e-01 7.597665017587850e-01 9.662470478172045e-01 9.826785520721020e-01 9.361191227198606e-01 7.339613726203837e-01 9.971556473960466e-01 9.956996014384382e-01 9.984870912699970e-01 9.889252747870381e-01 9.880111561620109e-01 9.837006438238389e-01 9.650201678140899e-01 9.558014981214986e-01 9.944351772486311e-01 9.901606794146960e-01 9.931828712412609e-01 9.971528729876569e-01 9.787913789166419e-01 9.851744511648337e-01 9.708072291417800e-01 9.633700452842129e-01 9.921820224154589e-01 9.872537157559356e-01 9.760616709463431e-01 9.809427592782657e-01 9.634138456421163e-01 9.864469153874362e-01 9.903124735198952e-01 9.918904881463384e-01 9.977470317532344e-01 9.947447625405328e-01 9.942120092630409e-01 9.979545226750206e-01 9.933902066196876e-01 9.914359434009494e-01 9.967265872245918e-01 9.947604907364992e-01 1.279392763434754e-01 1.993993641053642e-01 2.777529568731749e-01 9.765565654162027e-01 9.331897569129259e-01 4.885935480811731e-01 9.459501534060506e-01 9.636451765772437e-01 3.720718991475888e-01 4.692397676272472e-01 9.577325501973863e-01 9.150856268595762e-01 6.334041664553973e-01 8.489186096588603e-01 8.760850928558509e-01 9.103151774775183e-01 7.734130518081885e-01 6.102127705235951e-01 7.361149017027495e-01 7.789274871482255e-01 9.143544285256442e-01 9.872954922742843e-01 9.980052654363607e-01 9.974856694722450e-01 9.929632317424721e-01 9.875069797914375e-01 9.899955023188410e-01 9.853018549525869e-01 9.972438621107550e-01 9.898718372518838e-01 9.951853050491091e-01 9.929487623816640e-01 9.934992502423272e-01 9.837311279441665e-01 9.963643753988805e-01 9.919204178846187e-01 6.946007019251355e-01 6.307205312914499e-01 5.737596853660021e-01 2.433658567953453e-01 3.623223159033490e-01 7.285810751348251e-01 7.517492767153588e-01 1.477021877692971e-01 7.405992907060572e-01 1.730735449634175e-01 3.090032075824426e-01 4.915639271829305e-02 6.821383669087768e-01 5.837015102870471e-01 7.167036530933224e-01 6.492281847938998e-01 4.783736321779442e-01 4.987285827518741e-01 5.719064234829422e-01 4.508210390580354e-01 2.510155171664042e-01 3.761878108118983e-01 2.285324658601448e-01 8.949186590375416e-02 1.974432937921118e-01 3.041264202238164e-01 9.336366654408672e-01 5.016889246299568e-01 6.852571455890377e-01 5.721798931189510e-01 6.000175739470837e-01 6.692472880802696e-01 6.256790749793504e-01 6.342159652552828e-01 7.469195336596780e-01 9.266769923659961e-01 8.900315205417900e-01 9.105632160768242e-01 8.481829343971226e-01 7.844697057188257e-01 8.257234058238133e-01 7.958133551714310e-01 1.673573915252596e-01 2.053540872805349e-01 9.949400742810002e-01 8.557330538811942e-01 7.895153134396291e-01 9.255192078966401e-01 5.273318746111140e-01 3.680130656993697e-01 4.488970686519169e-01 7.518901370563351e-01 7.334068798383688e-01 6.638146932991253e-01 5.853227560636467e-01 6.860275434865013e-01 5.896812699562102e-01 9.925860449126649e-01 9.894379484082884e-01 7.996120896437695e-01 5.300289182316662e-01 4.668324607050686e-01 8.381781238841937e-01 6.776716393687000e-01 6.022496452118964e-01 2.944192349750568e-01 7.939309973428765e-01 8.293664370924057e-01 2.708807996626145e-01 2.765584379313823e-01 8.758492089084753e-01 3.250497318317170e-01 1.651650270530263e-01 9.140762722699937e-01 9.343865651146143e-01 2.222042942071974e-01 2.199115057702097e-01 9.461623319957746e-01 7.584163702741058e-01 6.808133929947828e-01 7.907370946725879e-01 6.478133314108636e-01 8.264756565455019e-01 8.044208248548428e-01 7.646681852797734e-01 7.379816237847459e-01 8.932925687628880e-01 8.368412194815886e-01 9.040663721285146e-01 9.697173664232257e-01 9.397605616829012e-01 9.536634619354232e-01 9.817415479558682e-01 9.863613341558263e-01 9.755641539547477e-01 9.467908788504715e-01 
</DataArray>
<DataArray type="Float64" Name="B_conc" format="ascii">