<?xml version="1.0"?>
<VTKFile type="UnstructuredGrid" version="0.1" byte_order="LittleEndian">
<UnstructuredGrid>
<Piece NumberOfPoints="300" NumberOfCells="677">
<Points>
<DataArray type="Float64" NumberOfComponents="3" format="ascii">
0.000000000000000e+00 3.750000000000000e+00 0.000000000000000e+00 1.750000000000000e+00 5.000000000000000e+00 0.000000000000000e+00 2.250000000000000e+00 4.750000000000000e+00 0.000000000000000e+00 2.750000000000000e+00 4.000000000000000e+00 0.000000000000000e+00 3.500000000000000e+00 5.000000000000000e+00 0.000000000000000e+00 3.250000000000000e+00 6.250000000000000e+00 0.000000000000000e+00 4.000000000000000e+00 5.750000000000000e+00 0.000000000000000e+00 5.000000000000000e+00 6.250000000000000e+00 0.000000000000000e+00 4.750000000000000e+00 7.250000000000000e+00 0.000000000000000e+00 4.250000000000000e+00 4.750000000000000e+00 0.000000000000000e+00 3.500000000000000e+00 4.000000000000000e+00 0.000000000000000e+00 4.250000000000000e+00 3.500000000000000e+00 0.000000000000000e+00 4.750000000000000e+00 2.750000000000000e+00 0.000000000000000e+00 4.250000000000000e+00 1.500000000000000e+00 0.000000000000000e+00 5.250000000000000e+00 5.000000000000000e+00 0.000000000000000e+00 4.750000000000000e+00 4.750000000000000e+00 0.000000000000000e+00 5.250000000000000e+00 4.000000000000000e+00 0.000000000000000e+00 5.000000000000000e+00 2.250000000000000e+00 0.000000000000000e+00 5.750000000000000e+00 7.500000000000000e-01 0.000000000000000e+00 5.750000000000000e+00 2.500000000000000e+00 0.000000000000000e+00 5.500000000000000e+00 2.750000000000000e+00 0.000000000000000e+00 6.000000000000000e+00 3.750000000000000e+00 0.000000000000000e+00 6.500000000000000e+00 5.250000000000000e+00 0.000000000000000e+00 7.250000000000000e+00 6.000000000000000e+00 0.000000000000000e+00 6.750000000000000e+00 4.000000000000000e+00 0.000000000000000e+00 7.000000000000000e+00 2.250000000000000e+00 0.000000000000000e+00 7.500000000000000e+00 2.000000000000000e+00 0.000000000000000e+00 7.500000000000000e+00 3.750000000000000e+00 0.000000000000000e+00 7.500000000000000e+00 4.750000000000000e+00 0.000000000000000e+00 7.750000000000000e+00 6.250000000000000e+00 0.000000000000000e+00 7.750000000000000e+00 5.500000000000000e+00 0.000000000000000e+00 8.250000000000000e+00 5.000000000000000e+00 0.000000000000000e+00 8.250000000000000e+00 3.750000000000000e+00 0.000000000000000e+00 8.000000000000000e+00 2.500000000000000e+00 0.000000000000000e+00 8.500000000000000e+00 7.500000000000000e-01 0.000000000000000e+00 9.000000000000000e+00 8.000000000000000e+00 0.000000000000000e+00 9.000000000000000e+00 5.500000000000000e+00 0.000000000000000e+00 9.750000000000000e+00 4.000000000000000e+00 0.000000000000000e+00 9.000000000000000e+00 2.750000000000000e+00 0.000000000000000e+00 9.750000000000000e+00 5.500000000000000e+00 0.000000000000000e+00 1.050000000000000e+01 4.750000000000000e+00 0.000000000000000e+00 1.125000000000000e+01 4.250000000000000e+00 0.000000000000000e+00 1.200000000000000e+01 3.750000000000000e+00 0.000000000000000e+00 1.275000000000000e+01 4.500000000000000e+00 0.000000000000000e+00 4.750000000000000e+00 4.000000000000000e+00 0.000000000000000e+00 2.000000000000000e+00 3.000000000000000e+00 0.000000000000000e+00 6.000000000000000e+00 6.400000000000000e+00 0.000000000000000e+00 1.000000000000000e+00 6.200000000000000e+00 0.000000000000000e+00 1.040000000000000e+01 2.300000000000000e+00 0.000000000000000e+00 1.150000000000000e+01 1.100000000000000e+00 0.000000000000000e+00 6.000000000000000e-01 7.500000000000000e-01 0.000000000000000e+00 1.190000000000000e+01 7.000000000000000e+00 0.000000000000000e+00 0.000000000000000e+00 7.500000000000000e-01 0.000000000000000e+00 0.000000000000000e+00 8.000000000000000e+00 0.000000000000000e+00 1.275000000000000e+01 7.500000000000000e-01 0.000000000000000e+00 1.275000000000000e+01 8.000000000000000e+00 0.000000000000000e+00 5.624999999964863e-01 3.999999999998438e+00 0.000000000000000e+00 1.124999999995812e+00 4.249999999998138e+00 0.000000000000000e+00 1.687499999998485e+00 4.499999999999327e+00 0.000000000000000e+00 2.875000000000000e+00 4.375000000000000e+00 0.000000000000000e+00 2.687500000002093e+00 5.000000000001196e+00 0.000000000000000e+00 3.125000000002093e+00 5.250000000001196e+00 0.000000000000000e+00 3.562500000002093e+00 5.500000000001196e+00 0.000000000000000e+00 4.500000000000000e+00 6.000000000000000e+00 0.000000000000000e+00 4.500000000005181e+00 6.750000000010362e+00 0.000000000000000e+00 4.250000000005181e+00 6.250000000010362e+00 0.000000000000000e+00 4.625000000000000e+00 5.375000000000000e+00 0.000000000000000e+00 4.750000000000000e+00 4.375000000000000e+00 0.000000000000000e+00 4.624999999997918e+00 1.874999999997918e+00 0.000000000000000e+00 5.250000000000000e+00 1.750000000000000e+00 0.000000000000000e+00 5.500000000000000e+00 1.250000000000000e+00 0.000000000000000e+00 4.125000000008327e+00 4.000000000000000e+00 0.000000000000000e+00 5.125000000000000e+00 3.375000000000000e+00 0.000000000000000e+00 5.749999999991033e+00 4.666666666672645e+00 0.000000000000000e+00 6.249999999991033e+00 4.333333333339311e+00 0.000000000000000e+00 5.916666666666667e+00 3.166666666666667e+00 0.000000000000000e+00 6.333333333333333e+00 3.583333333333333e+00 0.000000000000000e+00 5.750000000000000e+00 5.250000000000000e+00 0.000000000000000e+00 6.250000000000000e+00 5.500000000000000e+00 0.000000000000000e+00 6.750000000000000e+00 5.750000000000000e+00 0.000000000000000e+00 6.875000000000000e+00 5.625000000000000e+00 0.000000000000000e+00 7.600000000000000e+00 6.400000000000000e+00 0.000000000000000e+00 7.950000000000000e+00 6.800000000000000e+00 0.000000000000000e+00 8.300000000000001e+00 7.200000000000000e+00 0.000000000000000e+00 8.650000000000000e+00 7.600000000000000e+00 0.000000000000000e+00 7.249999999991033e+00 4.333333333327355e+00 0.000000000000000e+00 7.749999999991033e+00 4.666666666660689e+00 0.000000000000000e+00 8.750000000000000e+00 5.166666666666667e+00 0.000000000000000e+00 9.250000000000000e+00 5.333333333333333e+00 0.000000000000000e+00 8.750000000000000e+00 4.666666666666667e+00 0.000000000000000e+00 9.250000000000000e+00 4.333333333333333e+00 0.000000000000000e+00 8.750000000000000e+00 3.833333333333334e+00 0.000000000000000e+00 9.250000000000000e+00 3.916666666666667e+00 0.000000000000000e+00 1.025000000000000e+01 4.083333333333333e+00 0.000000000000000e+00 1.075000000000000e+01 4.166666666666667e+00 0.000000000000000e+00 1.175000000000000e+01 4.333333333333333e+00 0.000000000000000e+00 1.225000000000000e+01 4.416666666666667e+00 0.000000000000000e+00 8.437500000000000e+00 2.875000000000000e+00 0.000000000000000e+00 8.875000000000000e+00 3.250000000000000e+00 0.000000000000000e+00 9.312500000000000e+00 3.625000000000000e+00 0.000000000000000e+00 7.750000000000000e+00 3.125000000000000e+00 0.000000000000000e+00 7.500000000000000e+00 2.375000000000000e+00 0.000000000000000e+00 8.500000000000000e+00 2.625000000000000e+00 0.000000000000000e+00 8.166666666666545e+00 1.916666666667094e+00 0.000000000000000e+00 8.333333333333211e+00 1.333333333333761e+00 0.000000000000000e+00 2.166666666666796e+00 4.166666666667574e+00 0.000000000000000e+00 2.083333333333204e+00 3.583333333332427e+00 0.000000000000000e+00 2.499999999996517e+00 2.875000000000871e+00 0.000000000000000e+00 2.999999999994993e+00 2.750000000001252e+00 0.000000000000000e+00 3.499999999995429e+00 2.625000000001143e+00 0.000000000000000e+00 3.999999999996735e+00 2.500000000000816e+00 0.000000000000000e+00 4.499999999998258e+00 2.375000000000435e+00 0.000000000000000e+00 1.720000000001057e+00 2.550000000001699e+00 0.000000000000000e+00 1.440000000001740e+00 2.100000000002797e+00 0.000000000000000e+00 1.160000000001491e+00 1.650000000002397e+00 0.000000000000000e+00 8.800000000005590e-01 1.200000000000898e+00 0.000000000000000e+00 3.500000000003257e+00 5.824999999999512e+00 0.000000000000000e+00 3.000000000004434e+00 5.899999999999335e+00 0.000000000000000e+00 2.500000000003529e+00 5.974999999999471e+00 0.000000000000000e+00 2.000000000002081e+00 6.049999999999688e+00 0.000000000000000e+00 1.500000000000905e+00 6.124999999999864e+00 0.000000000000000e+00 9.699999999999999e+00 2.525000000000000e+00 0.000000000000000e+00 1.061250000000038e+01 2.787500000000867e+00 0.000000000000000e+00 1.082499999999898e+01 3.274999999997668e+00 0.000000000000000e+00 1.103749999999759e+01 3.762499999994468e+00 0.000000000000000e+00 1.076666666666475e+01 1.900000000002095e+00 0.000000000000000e+00 1.113333333333433e+01 1.499999999998911e+00 0.000000000000000e+00 1.177000000000000e+01 6.450000000000000e+00 0.000000000000000e+00 1.164000000000035e+01 5.900000000001491e+00 0.000000000000000e+00 1.151000000000059e+01 5.350000000002485e+00 0.000000000000000e+00 1.138000000000047e+01 4.800000000001989e+00 0.000000000000000e+00 5.500000000000000e+00 6.325000000000000e+00 0.000000000000000e+00 6.625000000000000e+00 6.200000000000000e+00 0.000000000000000e+00 6.375000000000000e+00 2.375000000000000e+00 0.000000000000000e+00 1.114999999998196e+00 7.500000000000000e-01 0.000000000000000e+00 1.629999999996392e+00 7.500000000000000e-01 0.000000000000000e+00 2.144999999994866e+00 7.500000000000000e-01 0.000000000000000e+00 2.659999999993617e+00 7.500000000000000e-01 0.000000000000000e+00 3.174999999992368e+00 7.500000000000000e-01 0.000000000000000e+00 3.689999999993339e+00 7.500000000000000e-01 0.000000000000000e+00 4.204999999994310e+00 7.500000000000000e-01 0.000000000000000e+00 4.719999999995837e+00 7.500000000000000e-01 0.000000000000000e+00 5.234999999997918e+00 7.500000000000000e-01 0.000000000000000e+00 6.300000000000000e+00 7.500000000000000e-01 0.000000000000000e+00 6.850000000000000e+00 7.500000000000000e-01 0.000000000000000e+00 7.400000000000000e+00 7.500000000000000e-01 0.000000000000000e+00 7.950000000000000e+00 7.500000000000000e-01 0.000000000000000e+00 9.131968328037775e+00 7.500000000000000e-01 0.00000000000000
[...]
<CellData Scalars="A_conc,B_conc," Vectors="" Tensors="">
<DataArray type="Float64" Name="A_conc" format="ascii">
9.341204045650603e-01 9.351968776428438e-01 9.362092663334141e-01 9.369624968273900e-01 9.222557069966619e-01 9.568520020867751e-01 9.614477300924695e-01 9.114612989553997e-01 9.225426035915991e-01 9.251222977904732e-01 9.290135745576437e-01 9.371038756596040e-01 6.105155081119241e-01 9.046873120939931e-01 9.051491635390757e-01 9.145080310332476e-01 3.376812316169923e-01 6.096990243799474e-01 8.269370272502540e-01 9.627629229363287e-01 9.687256844268255e-01 6.805017424357617e-01 8.675963553825720e-01 9.495464904270434e-01 9.660135497384996e-01 8.943637688323851e-01 9.261489068050208e-01 7.247317530355092e-01 7.085322099251981e-01 6.886998129780147e-01 8.690291056398796e-01 9.694696569806446e-01 9.781642807530397e-01 9.677929325654591e-01 9.687153773579484e-01 9.721956769937775e-01 9.718629585280241e-01 9.674833788773474e-01 9.806987183202115e-01 9.777845935123646e-01 9.798878395409627e-01 9.813465680551321e-01 9.368059624800706e-01 9.429844665317083e-01 9.537090137762894e-01 9.148554507014800e-01 9.205806347282971e-01 9.248201289260616e-01 9.323588149991986e-01 9.328856989713247e-01 9.467024101754657e-01 9.557938318314971e-01 9.585272667812010e-01 9.628197532656324e-01 9.666491116048338e-01 9.696935317974889e-01 9.165395450942262e-01 9.826891157999886e-01 9.846534314465023e-01 9.864581272088961e-01 9.769310125318282e-01 9.764176015206956e-01 8.621193304698764e-01 9.530544251154836e-01 9.558252545526551e-01 9.585205042883611e-01 9.925073636787078e-01 9.937349804517144e-01 9.946947685104881e-01 9.754053221472765e-01 9.852656741002113e-01 9.910031562247932e-01 9.955507426594503e-01 9.960652182629490e-01 9.964332414208686e-01 9.883194204928992e-01 9.839699366551674e-01 9.989070412914960e-01 9.993572923570974e-01 9.996984782188274e-01 9.841452653936529e-01 9.866263105129112e-01 9.894920814308441e-01 9.926055037270110e-01 9.547327888374866e-01 9.694378250169789e-01 9.806016794429435e-01 9.811210409950473e-01 9.659625302672794e-01 9.823771592831765e-01 9.840874481786597e-01 8.865580732356763e-01 9.034349551169161e-01 9.169548480451178e-01 9.769546224831598e-01 9.002833154521519e-01 9.108086467911493e-01 9.235142455444789e-01 9.327040202504131e-01 9.360702689779252e-01 9.379826048561311e-01 9.393571089078654e-01 9.406932313866303e-01 9.420049103173547e-01 9.234728786463200e-01 9.055397786994990e-01 8.692436332688867e-01 8.075929971328742e-01 7.018973733411221e-01 9.375769968790997e-01 9.355034878030023e-01 9.332417458116056e-01 9.306245829693741e-01 9.272518801774928e-01 9.214637059226560e-01 9.852507752853811e-01 9.864748613994407e-01 9.901175045431084e-01 9.917635056723815e-01 9.934961693258593e-01 9.952840797685347e-01 9.788049937918659e-01 9.813567411021826e-01 9.832912610055550e-01 9.861112642140235e-01 9.828650650407831e-01 9.819924914429381e-01 9.804773479758356e-01 9.791656070268722e-01 9.261616081716346e-01 9.331657156387491e-01 9.377535759854936e-01 9.407398697739021e-01 9.790894658366551e-01 9.799492965423529e-01 9.115580385199034e-01 9.244659558152750e-01 7.185825694729855e-01 8.701810138680807e-01 7.929135851825528e-01 6.815968105445136e-01 5.375725995790532e-01 9.574517832134880e-01 9.112928748143762e-01 3.108127765729561e-01 9.046057243951551e-01 8.993233325718764e-01 9.151639879784728e-01 9.159997330692473e-01 9.121017043675668e-01 3.758159561925652e-01 5.648410027551407e-01 9.178866399416136e-01 9.184523381226056e-01 9.154502221852513e-01 9.119669003690546e-01 9.008649849297170e-01 9.034293809428509e-01 8.963245690759141e-01 9.000583070392774e-01 8.611530545101456e-01 3.932707585924867e-01 4.103968615087896e-01 3.836211598360496e-01 3.633330333882490e-01 5.940458820797205e-01 7.314537649063890e-01 5.995529326836970e-01 7.402244392682020e-01 6.318244677166860e-01 8.666876437063212e-01 9.186424809880283e-01 8.670901034925429e-01 8.893328590060317e-01 8.577971836687438e-01 8.427862803815780e-01 7.943776776785285e-01 2.793571464395718e-01 3.783090630276458e-01 8.808948054083465e-01 6.794901533203366e-01 7.741457378599372e-01 8.429061061121026e-01 4.923136668803897e-01 3.148648682129656e-01 7.688168271777143e-01 3.304630774955962e-01 4.248498872190262e-01 9.400083022074377e-01 9.260533402510217e-01 4.853179085066924e-01 4.167013905959662e-01 6.287444475322259e-01 4.683495525787924e-01 6.412167192725493e-01 8.293013050061566e-01 8.600076231120504e-01 8.914144046622943e-01 9.068313286407667e-01 7.792223217331717e-01 7.116106049942245e-01 5.978795905654819e-01 9.291639190747921e-01 9.175240805818876e-01 7.784005064189395e-01 8.829241082192991e-01 8.126532056575300e-01 8.544025400736079e-01 8.225063040681253e-01 8.347892194991846e-01 7.817496051634756e-01 9.320198965759088e-01 9.416996512983841e-01 9.106449563800516e-01 9.101252807842057e-01 8.884314312900289e-01 9.465854632775814e-01 9.448788565672470e-01 9.342087898508311e-01 9.288861874949305e-01 9.570598386264175e-01 9.473825077066307e-01 9.004410584544651e-01 9.053771595476591e-01 8.999300953537968e-01 9.190590341289872e-01 9.172221632507648e-01 9.280710381140931e-01 9.256452680389935e-01 9.263865808263585e-01 9.219062351941694e-01 7.860621551124584e-01 8.558301525968203e-01 5.302421491344316e-01 5.394138272802300e-01 2.995006936968687e-01 9.265361961651076e-01 9.241284225079780e-01 9.314854036650205e-01 9.191576114700095e-01 9.072699424310904e-01 9.184840500161982e-01 9.071459690156015e-01 9.137812053850999e-01 9.076813509948684e-01 9.198324650083736e-01 9.137791430758295e-01 9.153502749276619e-01 9.182629532042748e-01 9.202325934122018e-01 9.147470242499822e-01 7.404952764986010e-01 9.107673624072802e-01 8.255008785153501e-01 8.966932044179423e-01 8.754537477837094e-01 7.581840148535501e-01 7.570100935067302e-01 6.925091554888602e-01 8.762767021163161e-01 7.245453580702683e-01 8.091777406771903e-01 8.677550775896083e-01 8.970619892811816e-01 8.782852755253124e-01 6.451269429529558e-01 7.847423751465281e-01 8.437240595580886e-01 8.272660147129440e-01 7.966130559466044e-01 5.921811341171930e-01 9.588070785897137e-01 9.492285502920639e-01 9.445003948880151e-01 9.627503227614673e-01 9.114478871693324e-01 9.030858016530354e-01 8.941493624926836e-01 8.856385644853746e-01 5.133926334024745e-01 8.428294296403298e-01 5.675365952362150e-01 9.716343836779933e-01 9.636066028648413e-01 9.514699443728359e-01 9.350636534245436e-01 9.314920705121332e-01 9.356389853743385e-01 9.433448050970372e-01 9.147202624240416e-01 9.264555690534146e-01 8.242489719936521e-01 8.258241729517566e-01 8.130022171963877e-01 8.976597133615056e-01 8.596097278195660e-01 8.431674502420993e-01 9.014495600403789e-01 8.911250782678706e-01 8.884611059089246e-01 8.648479631952393e-01 8.513968456264005e-01 8.937968258442370e-01 8.928406889233165e-01 8.979367419550954e-01 9.053275112324830e-01 9.049747141842772e-01 9.202832346115363e-01 9.054551270449709e-01 9.100852828660670e-01 9.203215023724254e-01 9.169488724226489e-01 9.088062510513335e-01 8.921617366142651e-01 8.975892961113411e-01 9.055118098297986e-01 9.006523644154397e-01 8.404869304650238e-01 8.364973661595676e-01 8.044176331492315e-01 6.982403519997609e-01 8.843850020287970e-01 8.998563409361373e-01 8.806033003809559e-01 8.966098563875411e-01 8.849680763313503e-01 7.287244163322816e-01 7.438252935333789e-01 8.795973682109258e-01 8.367843839304472e-01 8.795794181563599e-01 8.413637700846153e-01 8.516260531706291e-01 8.539675723660937e-01 8.622950256061124e-01 8.654374703466006e-01 8.764603897057963e-01 8.873913470798248e-01 9.042782324869649e-01 9.104674213587662e-01 8.969188351879114e-01 9.166450789686675e-01 2.154651247974013e-01 5.085245383037582e-01 4.108396081563555e-01 4.182323119403155e-01 9.231555290731330e-01 6.849904019192684e-01 9.134075713009179e-01 9.103651431531845e-01 2.458498928785760e-01 2.725731025768693e-01 8.866888495504495e-01 3.358373243666882e-01 6.861071766116609e-01 5.014041712868420e-01 5.402623666286288e-01 3.812249790988242e-01 4.088667824932546e-01 3.003856390347701e-01 8.752380343558619e-01 8.619322344906406e-01 6.672963027190323e-01 3.190958171933228e-01 3.667672850711592e-01 3.450713092458568e-01 5.528401351814045e-01 4.342882159355382e-01 5.725769054783811e-01 7.386440162089817e-01 8.263504170971639e-01 8.421445516205806e-01 7.158499248901622e-01 8.274033657079349e-01 7.808046016496583e-01 5.938628829190697e-01 8.972888313090943e-01 9.016171248228606e-01 8.703212168151930e-01 8.589919906951813e-01 8.415009581337676e-01 8.533051813910260e-01 5.729559375164625e-01 8.727716677255875e-01 8.377729797652691e-01 8.804192757156801e-01 8.886197810754296e-01 5.031938363017801e-01 5.916390636070392e-01 4.644177167192717e-01 4.899649849064928e-01 5.381429832789464e-01 5.588194895006277e-01 4.357994643935582e-01 4.836493013792864e-01 4.152990155823358e-01 3.919575447771507e-01 4.403921181522195e-01 5.000319074821348e-01 5.771233027087765e-01 5.298282353895105e-01 5.502904535827966e-01 6.056766770725275e-01 6.564737066138414e-01 7.341483696785538e-01 7.554548557676619e-01 6.281685257745611e-01 5.134584290703064e-01 9.468215589449867e-01 9.544949152342359e-01 9.455737123603176e-01 9.529469270603026e-01 9.491049836147321e-01 9.422555511572398e-01 8.871029477542751e-01 9.285536828214817e-01 8.920838733502328e-01 8.632952546893780e-01 8.320621278583722e-01 9.299776750988331e-01 9.208062293022803e-01 9.498228666277997e-01 8.942141163893783e-01 9.063571889335141e-01 8.750424211295305e-01 8.321237426396153e-01 8.857025406521668e-01 8.472138865988347e-01 8.608885521997672e-01 7.873696347926649e-01 9.178812744107445e-01 8.006481312132669e-01 9.028262735765527e-01 8.841200256996402e-01 8.328973776284961e-01 8.174748584929978e-01 8.530760239403522e-01 8.672138786230763e-01 8.762021062398822e-01 8.466137716870276e-01 8.587681574405461e-01 9.501852284693584e-01 9.244004165513091e-01 9.305973067903834e-01 8.838183128677584e-01 8.729827776439474e-01 9.135295456849207e-01 8.939370420858336e-01 9.075636943699279e-01 9.650499680935816e-01 9.634157072830678e-01 9.877280173566645e-01 9.424515963576539e-01 9.483539821390453e-01 9.441921809902439e-01 9.538048524996550e-01 9.460079551496059e-01 9.537895924464176e-01 9.499634738694052e-01 9.393116174041900e-01 9.661564085241390e-01 9.699050354637491e-01 9.734238434856445e-01 9.726152079791828e-01 9.652506679485353e-01 9.429003051399540e-01 9.398478779313018e-01 9.512200623917663e-01 9.657739242410287e-01 9.606758463436096e-01 9.562248402275364e-01 9.799198875440560e-01 9.782657121582926e-01 9.767168009729488e-01 9.841728862808250e-01 9.816495649792401e-01 9.572306201629581e-01 9.686526520361847e-01 9.592327789247856e-01 9.093021046567384e-01 9.687475029640479e-01 9.627219072999026e-01 9.569219073282811e-01 9.757613641088564e-01 9.719470174976033e-01 9.837318258570693e-01 9.809164765821770e-01 9.924873598816480e-01 9.902987641923079e-01 9.606980356035564e-01 9.694405412684304e-01 9.674234451510031e-01 9.476856163061458e-01 9.597815261470708e-01 9.526490888077190e-01 9.405609954650059e-01 9.358681379618945e-01 9.597319385167262e-01 9.540873565697798e-01 9.378098576026934e-01 9.442011662774388e-01 9.491431385578464e-01 9.447146961894795e-01 9.562266573716522e-01 9.501803126235200e-01 9.686944977269083e-01 9.636308384254024e-01 9.794825365750239e-01 9.730546220068244e-01 9.837142382700361e-01 9.873598821941334e-01 9.816477662912049e-01 9.726810164450392e-01 9.975209261312247e-01 9.962518919672319e-01 9.986813008233095e-01 9.906800001438254e-01 9.900430359970307e-01 9.878261052229040e-01 9.828663947923633e-01 9.820433583542306e-01 9.951548483887201e-01 9.916676297602517e-01 9.941123306099124e-01 9.975185155254538e-01 9.855689230227782e-01 9.881965392395335e-01 9.844685066403094e-01 9.832593840148036e-01 9.932090162406972e-01 9.897566010212744e-01 9.859620884870781e-01 9.867728273515290e-01 9.832860005561016e-01 9.893000065869082e-01 9.917738865924797e-01 9.929725495174144e-01 9.980360469873267e-01 9.954229703208315e-01 9.949940008080567e-01 9.982169639406038e-01 9.942388440762147e-01 9.925395341530912e-01 9.971464073666793e-01 9.954318153439292e-01 9.476863557387822e-01 9.519892531991714e-01 9.556709716944822e-01 9.927115597400389e-01 9.858531096118784e-01 9.639309458887839e-01 9.862241290386489e-01 9.894449699529699e-01 9.595351095733462e-01 9.634221821779398e-01 9.886484793079353e-01 9.836657921213376e-01 9.695412432920101e-01 9.788140665264209e-01 9.792814786196478e-01 9.822326171569009e-01 9.740835015409257e-01 9.684016298159730e-01 9.732994766326369e-01 9.759425775523574e-01 9.838096451331116e-01 9.892576934912429e-01 9.982612084981137e-01 9.978087011433707e-01 9.938718757778799e-01 9.904649752455973e-01 9.913655854704584e-01 9.886051762337453e-01 9.975976251746533e-01 9.914437683672439e-01 9.958039005670616e-01 9.939140323843167e-01 9.943941234747542e-01 9.895839946649539e-01 9.968447508057654e-01 9.934556617513153e-01 9.711618864338469e-01 9.671705597958842e-01 9.640942561147205e-01 9.195276802819817e-01 9.364648521561384e-01 9.737503981386629e-01 9.759792952864773e-01 9.416427787037021e-01 9.746073262860767e-01 9.443284478206296e-01 9.522233347237967e-01 9.202465914285485e-01 9.712664672223940e-01 9.653409816430516e-01 9.730934451908977e-01 9.683949536709027e-01 9.598520213335866e-01 9.606339469602885e-01 9.641719773435783e-01 9.585065685172640e-01 9.486942187869098e-01 9.551011761407220e-01 9.467146617346147e-01 9.462753996239297e-01 9.543197947066214e-01 9.587871843421890e-01 9.874188105527111e-01 9.641144826118954e-01 9.707592946136885e-01 9.667776296937221e-01 9.675173706479876e-01 9.714781732818074e-01 9.695766853544417e-01 9.692486916241093e-01 9.735544291055696e-01 9.864439671593367e-01 9.823660270792904e-01 9.843765659105547e-01 9.790076626210216e-01 9.755894222999484e-01 9.790237531185355e-01 9.770021664304668e-01 9.517733611917949e-01 9.535122197442256e-01 9.955913639994348e-01 9.780247407759139e-01 9.758701967280132e-01 9.824972443293586e-01 9.659653002685712e-01 9.609331090454558e-01 9.635139661865967e-01 9.738538028290480e-01 9.710771482798319e-01 9.699551174919017e-01 9.674813152313820e-01 9.708939862411556e-01 9.682952870548995e-01 9.935488119075464e-01 9.909408952656917e-01 9.744203860677449e-01 9.651049670854666e-01 9.632496290023314e-01 9.766232915563239e-01 9.700902304140067e-01 9.674075393756064e-01 9.575161663538785e-01 9.733004315321347e-01 9.749751107917175e-01 9.231295103916444e-01 9.577163648793060e-01 9.760254081063096e-01 9.232800144851849e-01 9.041752437071551e-01 9.779586554517631e-01 9.796376610053685e-01 9.542215195369717e-01 9.543838376769520e-01 9.853882123272888e-01 9.732918797827959e-01 9.705897273062937e-01 9.776135224884852e-01 9.703874396837719e-01 9.798922133263976e-01 9.755434417329388e-01 9.737324092163782e-01 9.729470776109610e-01 9.800952428571231e-01 9.767318195623169e-01 9.816171882089211e-01 9.887144964236649e-01 9.817896135532849e-01 9.839191454121754e-01 9.862761779502245e-01 9.886937018047992e-01 9.841657798723962e-01 9.810527631850826e-01 
</DataArray>
<DataArray type="Float64" Name="B_conc" format="ascii">