<?xml version="1.0"?>
<VTKFile type="UnstructuredGrid" version="0.1" byte_order="LittleEndian">
<UnstructuredGrid>
<Piece NumberOfPoints="300" NumberOfCells="677">
<Points>
<DataArray type="Float64" NumberOfComponents="3" format="ascii">
0.000000000000000e+00 3.750000000000000e+00 0.000000000000000e+00 1.750000000000000e+00 5.000000000000000e+00 0.000000000000000e+00 2.250000000000000e+00 4.750000000000000e+00 0.000000000000000e+00 2.750000000000000e+00 4.000000000000000e+00 0.000000000000000e+00 3.500000000000000e+00 5.000000000000000e+00 0.000000000000000e+00 3.250000000000000e+00 6.250000000000000e+00 0.000000000000000e+00 4.000000000000000e+00 5.750000000000000e+00 0.000000000000000e+00 5.000000000000000e+00 6.250000000000000e+00 0.000000000000000e+00 4.750000000000000e+00 7.250000000000000e+00 0.000000000000000e+00 4.250000000000000e+00 4.750000000000000e+00 0.000000000000000e+00 3.500000000000000e+00 4.000000000000000e+00 0.000000000000000e+00 4.250000000000000e+00 3.500000000000000e+00 0.000000000000000e+00 4.750000000000000e+00 2.750000000000000e+00 0.000000000000000e+00 4.250000000000000e+00 1.500000000000000e+00 0.000000000000000e+00 5.250000000000000e+00 5.000000000000000e+00 0.000000000000000e+00 4.750000000000000e+00 4.750000000000000e+00 0.000000000000000e+00 5.250000000000000e+00 4.000000000000000e+00 0.000000000000000e+00 5.000000000000000e+00 2.250000000000000e+00 0.000000000000000e+00 5.750000000000000e+00 7.500000000000000e-01 0.000000000000000e+00 5.750000000000000e+00 2.500000000000000e+00 0.000000000000000e+00 5.500000000000000e+00 2.750000000000000e+00 0.000000000000000e+00 6.000000000000000e+00 3.750000000000000e+00 0.000000000000000e+00 6.500000000000000e+00 5.250000000000000e+00 0.000000000000000e+00 7.250000000000000e+00 6.000000000000000e+00 0.000000000000000e+00 6.750000000000000e+00 4.000000000000000e+00 0.000000000000000e+00 7.000000000000000e+00 2.250000000000000e+00 0.000000000000000e+00 7.500000000000000e+00 2.000000000000000e+00 0.000000000000000e+00 7.500000000000000e+00 3.750000000000000e+00 0.000000000000000e+00 7.500000000000000e+00 4.750000000000000e+00 0.000000000000000e+00 7.750000000000000e+00 6.250000000000000e+00 0.000000000000000e+00 7.750000000000000e+00 5.500000000000000e+00 0.000000000000000e+00 8.250000000000000e+00 5.000000000000000e+00 0.000000000000000e+00 8.250000000000000e+00 3.750000000000000e+00 0.000000000000000e+00 8.000000000000000e+00 2.500000000000000e+00 0.000000000000000e+00 8.500000000000000e+00 7.500000000000000e-01 0.000000000000000e+00 9.000000000000000e+00 8.000000000000000e+00 0.000000000000000e+00 9.000000000000000e+00 5.500000000000000e+00 0.000000000000000e+00 9.750000000000000e+00 4.000000000000000e+00 0.000000000000000e+00 9.000000000000000e+00 2.750000000000000e+00 0.000000000000000e+00 9.750000000000000e+00 5.500000000000000e+00 0.000000000000000e+00 1.050000000000000e+01 4.750000000000000e+00 0.000000000000000e+00 1.125000000000000e+01 4.250000000000000e+00 0.000000000000000e+00 1.200000000000000e+01 3.750000000000000e+00 0.000000000000000e+00 1.275000000000000e+01 4.500000000000000e+00 0.000000000000000e+00 4.750000000000000e+00 4.000000000000000e+00 0.000000000000000e+00 2.000000000000000e+00 3.000000000000000e+00 0.000000000000000e+00 6.000000000000000e+00 6.400000000000000e+00 0.000000000000000e+00 1.000000000000000e+00 6.200000000000000e+00 0.000000000000000e+00 1.040000000000000e+01 2.300000000000000e+00 0.000000000000000e+00 1.150000000000000e+01 1.100000000000000e+00 0.000000000000000e+00 6.000000000000000e-01 7.500000000000000e-01 0.000000000000000e+00 1.190000000000000e+01 7.000000000000000e+00 0.000000000000000e+00 0.000000000000000e+00 7.500000000000000e-01 0.000000000000000e+00 0.000000000000000e+00 8.000000000000000e+00 0.000000000000000e+00 1.275000000000000e+01 7.500000000000000e-01 0.000000000000000e+00 1.275000000000000e+01 8.000000000000000e+00 0.000000000000000e+00 5.624999999964863e-01 3.999999999998438e+00 0.000000000000000e+00 1.124999999995812e+00 4.249999999998138e+00 0.000000000000000e+00 1.687499999998485e+00 4.499999999999327e+00 0.000000000000000e+00 2.875000000000000e+00 4.375000000000000e+00 0.000000000000000e+00 2.687500000002093e+00 5.000000000001196e+00 0.000000000000000e+00 3.125000000002093e+00 5.250000000001196e+00 0.000000000000000e+00 3.562500000002093e+00 5.500000000001196e+00 0.000000000000000e+00 4.500000000000000e+00 6.000000000000000e+00 0.000000000000000e+00 4.500000000005181e+00 6.750000000010362e+00 0.000000000000000e+00 4.250000000005181e+00 6.250000000010362e+00 0.000000000000000e+00 4.625000000000000e+00 5.375000000000000e+00 0.000000000000000e+00 4.750000000000000e+00 4.375000000000000e+00 0.000000000000000e+00 4.624999999997918e+00 1.874999999997918e+00 0.000000000000000e+00 5.250000000000000e+00 1.750000000000000e+00 0.000000000000000e+00 5.500000000000000e+00 1.250000000000000e+00 0.000000000000000e+00 4.125000000008327e+00 4.000000000000000e+00 0.000000000000000e+00 5.125000000000000e+00 3.375000000000000e+00 0.000000000000000e+00 5.749999999991033e+00 4.666666666672645e+00 0.000000000000000e+00 6.249999999991033e+00 4.333333333339311e+00 0.000000000000000e+00 5.916666666666667e+00 3.166666666666667e+00 0.000000000000000e+00 6.333333333333333e+00 3.583333333333333e+00 0.000000000000000e+00 5.750000000000000e+00 5.250000000000000e+00 0.000000000000000e+00 6.250000000000000e+00 5.500000000000000e+00 0.000000000000000e+00 6.750000000000000e+00 5.750000000000000e+00 0.000000000000000e+00 6.875000000000000e+00 5.625000000000000e+00 0.000000000000000e+00 7.600000000000000e+00 6.400000000000000e+00 0.000000000000000e+00 7.950000000000000e+00 6.800000000000000e+00 0.000000000000000e+00 8.300000000000001e+00 7.200000000000000e+00 0.000000000000000e+00 8.650000000000000e+00 7.600000000000000e+00 0.000000000000000e+00 7.249999999991033e+00 4.333333333327355e+00 0.000000000000000e+00 7.749999999991033e+00 4.666666666660689e+00 0.000000000000000e+00 8.750000000000000e+00 5.166666666666667e+00 0.000000000000000e+00 9.250000000000000e+00 5.333333333333333e+00 0.000000000000000e+00 8.750000000000000e+00 4.666666666666667e+00 0.000000000000000e+00 9.250000000000000e+00 4.333333333333333e+00 0.000000000000000e+00 8.750000000000000e+00 3.833333333333334e+00 0.000000000000000e+00 9.250000000000000e+00 3.916666666666667e+00 0.000000000000000e+00 1.025000000000000e+01 4.083333333333333e+00 0.000000000000000e+00 1.075000000000000e+01 4.166666666666667e+00 0.000000000000000e+00 1.175000000000000e+01 4.333333333333333e+00 0.000000000000000e+00 1.225000000000000e+01 4.416666666666667e+00 0.000000000000000e+00 8.437500000000000e+00 2.875000000000000e+00 0.000000000000000e+00 8.875000000000000e+00 3.250000000000000e+00 0.000000000000000e+00 9.312500000000000e+00 3.625000000000000e+00 0.000000000000000e+00 7.750000000000000e+00 3.125000000000000e+00 0.000000000000000e+00 7.500000000000000e+00 2.375000000000000e+00 0.000000000000000e+00 8.500000000000000e+00 2.625000000000000e+00 0.000000000000000e+00 8.166666666666545e+00 1.916666666667094e+00 0.000000000000000e+00 8.333333333333211e+00 1.333333333333761e+00 0.000000000000000e+00 2.166666666666796e+00 4.166666666667574e+00 0.000000000000000e+00 2.083333333333204e+00 3.583333333332427e+00 0.000000000000000e+00 2.499999999996517e+00 2.875000000000871e+00 0.000000000000000e+00 2.999999999994993e+00 2.750000000001252e+00 0.000000000000000e+00 3.499999999995429e+00 2.625000000001143e+00 0.000000000000000e+00 3.999999999996735e+00 2.500000000000816e+00 0.000000000000000e+00 4.499999999998258e+00 2.375000000000435e+00 0.000000000000000e+00 1.720000000001057e+00 2.550000000001699e+00 0.000000000000000e+00 1.440000000001740e+00 2.100000000002797e+00 0.000000000000000e+00 1.160000000001491e+00 1.650000000002397e+00 0.000000000000000e+00 8.800000000005590e-01 1.200000000000898e+00 0.000000000000000e+00 3.500000000003257e+00 5.824999999999512e+00 0.000000000000000e+00 3.000000000004434e+00 5.899999999999335e+00 0.000000000000000e+00 2.500000000003529e+00 5.974999999999471e+00 0.000000000000000e+00 2.000000000002081e+00 6.049999999999688e+00 0.000000000000000e+00 1.500000000000905e+00 6.124999999999864e+00 0.000000000000000e+00 9.699999999999999e+00 2.525000000000000e+00 0.000000000000000e+00 1.061250000000038e+01 2.787500000000867e+00 0.000000000000000e+00 1.082499999999898e+01 3.274999999997668e+00 0.000000000000000e+00 1.103749999999759e+01 3.762499999994468e+00 0.000000000000000e+00 1.076666666666475e+01 1.900000000002095e+00 0.000000000000000e+00 1.113333333333433e+01 1.499999999998911e+00 0.000000000000000e+00 1.177000000000000e+01 6.450000000000000e+00 0.000000000000000e+00 1.164000000000035e+01 5.900000000001491e+00 0.000000000000000e+00 1.151000000000059e+01 5.350000000002485e+00 0.000000000000000e+00 1.138000000000047e+01 4.800000000001989e+00 0.000000000000000e+00 5.500000000000000e+00 6.325000000000000e+00 0.000000000000000e+00 6.625000000000000e+00 6.200000000000000e+00 0.000000000000000e+00 6.375000000000000e+00 2.375000000000000e+00 0.000000000000000e+00 1.114999999998196e+00 7.500000000000000e-01 0.000000000000000e+00 1.629999999996392e+00 7.500000000000000e-01 0.000000000000000e+00 2.144999999994866e+00 7.500000000000000e-01 0.000000000000000e+00 2.659999999993617e+00 7.500000000000000e-01 0.000000000000000e+00 3.174999999992368e+00 7.500000000000000e-01 0.000000000000000e+00 3.689999999993339e+00 7.500000000000000e-01 0.000000000000000e+00 4.204999999994310e+00 7.500000000000000e-01 0.000000000000000e+00 4.719999999995837e+00 7.500000000000000e-01 0.000000000000000e+00 5.234999999997918e+00 7.500000000000000e-01 0.000000000000000e+00 6.300000000000000e+00 7.500000000000000e-01 0.000000000000000e+00 6.850000000000000e+00 7.500000000000000e-01 0.000000000000000e+00 7.400000000000000e+00 7.500000000000000e-01 0.000000000000000e+00 7.950000000000000e+00 7.500000000000000e-01 0.000000000000000e+00 9.131968328037775e+00 7.500000000000000e-01 0.00000000000000
[...]
<CellData Scalars="A_conc,B_conc,region_ids," Vectors="" Tensors="">
<DataArray type="Float64" Name="A_conc" format="ascii">
9.341077589957976e-01 9.351843840051092e-01 9.361969188328925e-01 9.369502727829999e-01 9.222410334707556e-01 9.568419413216005e-01 9.614383806389881e-01 9.114449464874879e-01 9.225285536762500e-01 9.251087125115829e-01 9.290004660225000e-01 9.370911220131823e-01 6.104942950098977e-01 9.046699437521928e-01 9.051306176907843e-01 9.144901775428151e-01 3.376667744712740e-01 6.096784934067581e-01 8.269179626269028e-01 9.627536885800981e-01 9.687171167936317e-01 6.804801059196885e-01 8.675751339370035e-01 9.495329181635346e-01 9.660041466231639e-01 8.943476435913666e-01 9.261366876797881e-01 7.247076534037435e-01 7.085063677094225e-01 6.886717662076086e-01 8.690124841739701e-01 9.694616305465453e-01 9.781581755463853e-01 9.677845447794193e-01 9.687072283319141e-01 9.721884714904914e-01 9.718552493764748e-01 9.674748800293119e-01 9.806931696789237e-01 9.777782104542634e-01 9.798820482150987e-01 9.813411976339214e-01 9.367895574868775e-01 9.429695509263889e-01 9.536966144995627e-01 9.148340624503711e-01 9.205605336247062e-01 9.248011911275766e-01 9.323417434031720e-01 9.328694178208409e-01 9.466874220824453e-01 9.557809696407995e-01 9.585152241877765e-01 9.628089958331603e-01 9.666394929495488e-01 9.696848132217155e-01 9.165222806042337e-01 9.826841322154897e-01 9.846490160334593e-01 9.864542323199172e-01 9.769243635844991e-01 9.764108051048754e-01 8.621013234169883e-01 9.530407230925027e-01 9.558123834554462e-01 9.585084392685569e-01 9.925052365054872e-01 9.937332049972190e-01 9.946932661993695e-01 9.753982553706333e-01 9.852614785885101e-01 9.910006055559593e-01 9.955494827395529e-01 9.960641038788058e-01 9.964322305279640e-01 9.883160945341017e-01 9.839653753610851e-01 9.989067352237236e-01 9.993571126898696e-01 9.996983939950551e-01 9.841407184947794e-01 9.866224842794917e-01 9.894890848962610e-01 9.926034035595367e-01 9.547210996039168e-01 9.694298426650312e-01 9.805962346478880e-01 9.811157429740568e-01 9.659530318908811e-01 9.823721185214644e-01 9.840829092624312e-01 8.865329942032838e-01 9.034109295731728e-01 9.169328889218065e-01 9.769482451252316e-01 9.002681221526644e-01 9.107947118239252e-01 9.235017805548391e-01 9.326927339119094e-01 9.360594245540836e-01 9.379720418538651e-01 9.393467555624739e-01 9.406830832164426e-01 9.419949651521711e-01 9.234606613475046e-01 9.055264387141359e-01 8.692293590024092e-01 8.075782335468652e-01 7.018828150886218e-01 9.375641291222916e-01 9.354902178440629e-01 9.332280428340129e-01 9.306103866659405e-01 9.272370612439926e-01 9.214478587093097e-01 9.852465745736210e-01 9.864710129257248e-01 9.901147009521876e-01 9.917611708406922e-01 9.934943267113359e-01 9.952827440262898e-01 9.787989420049708e-01 9.813514274377073e-01 9.832865051885944e-01 9.861073154376252e-01 9.828601833966247e-01 9.819873567843067e-01 9.804717755205554e-01 9.791596529429712e-01 9.261445296378390e-01 9.331493129529391e-01 9.377378201918709e-01 9.407247901727556e-01 9.790835986259048e-01 9.799436672974594e-01 9.115416876576963e-01 9.244516397064176e-01 7.185589083990742e-01 8.701622410382356e-01 7.928912811684774e-01 6.815727488021897e-01 5.375485015862869e-01 9.574394229610537e-01 9.112691508962023e-01 3.107980736479662e-01 9.045878077062326e-01 8.993049252132108e-01 9.151481166021619e-01 9.159830116076526e-01 9.120843373499592e-01 3.758026171742817e-01 5.648254984497982e-01 9.178711784734315e-01 9.184369917440632e-01 9.154344285269203e-01 9.119505657086178e-01 9.008465122047633e-01 9.034109316504321e-01 8.963055343559165e-01 9.000398013799211e-01 8.611346512197907e-01 3.932569811998687e-01 4.103826558817950e-01 3.836058105483180e-01 3.633161364066754e-01 5.940200313825559e-01 7.314245924763543e-01 5.995266796374248e-01 7.401950737709864e-01 6.317974953206875e-01 8.666676915597284e-01 9.186263048313305e-01 8.670723423020470e-01 8.893143517031121e-01 8.577764641192831e-01 8.427575274591641e-01 7.943481773456595e-01 2.793448277720657e-01 3.782951813135609e-01 8.808679450072872e-01 6.794618117452746e-01 7.741161908865293e-01 8.428853815722458e-01 4.922971712166422e-01 3.148511043685289e-01 7.687969831543839e-01 3.304478118723300e-01 4.248332837567268e-01 9.399909189766777e-01 9.260333330315758e-01 4.852956244185181e-01 4.166817470156928e-01 6.287258705175115e-01 4.683334840348318e-01 6.411982742950315e-01 8.292786241393297e-01 8.599803791543288e-01 8.913893444233050e-01 9.068077049860628e-01 7.791983839484445e-01 7.115821604352418e-01 5.978554550662787e-01 9.291439858106014e-01 9.175079306971853e-01 7.783811553337563e-01 8.829048732363238e-01 8.126239701140161e-01 8.543744350631829e-01 8.224827320486240e-01 8.347608495146772e-01 7.817205703755912e-01 9.320005606236990e-01 9.416828957709573e-01 9.106217201787892e-01 9.101018204369347e-01 8.884054720497827e-01 9.465699335760485e-01 9.448627730369630e-01 9.341898227031628e-01 9.288658712985230e-01 9.570473582821403e-01 9.473671625942632e-01 9.004231262443482e-01 9.053598379308871e-01 8.999120406520653e-01 9.190433196456256e-01 9.172060576995861e-01 9.280563679282166e-01 9.256301546155721e-01 9.263716030049634e-01 9.218904653677842e-01 7.860413773514172e-01 8.558103919887434e-01 5.302232915517648e-01 5.393950747389249e-01 2.994875958174558e-01 9.265217632123821e-01 9.241134027744495e-01 9.314714749393154e-01 9.191414018688506e-01 9.072524341455657e-01 9.184678658087237e-01 9.071287782511909e-01 9.137651752832900e-01 9.076641909336556e-01 9.198164149132797e-01 9.137621736134773e-01 9.153342528478856e-01 9.182469220188952e-01 9.202167766184761e-01 9.147302847869150e-01 7.404708342187551e-01 9.107464625383268e-01 8.254738330785538e-01 8.966700734790845e-01 8.754289929131986e-01 7.581562801083102e-01 7.569826038822692e-01 6.924821252085365e-01 8.762540680841120e-01 7.245177008625339e-01 8.091497966143469e-01 8.677289787626377e-01 8.970385543463024e-01 8.782600425267582e-01 6.451005692916421e-01 7.847181429606058e-01 8.437053655049349e-01 8.272460842274350e-01 7.965914454935876e-01 5.921601868950978e-01 9.587960034835259e-01 9.492149748561969e-01 9.444856832295132e-01 9.627402052773415e-01 9.114304793865207e-01 9.030670882750622e-01 8.941293816255211e-01 8.856174895599784e-01 5.133727505541816e-01 8.428081599311650e-01 5.675157907092478e-01 9.716262014563591e-01 9.635960976616120e-01 9.514562234448226e-01 9.350466943674962e-01 9.314736680488779e-01 9.356216843327930e-01 9.433290179973173e-01 9.146990246697820e-01 9.264364481069907e-01 8.242243127137674e-01 8.258000460359285e-01 8.129773444795834e-01 8.976416460862596e-01 8.595884442764388e-01 8.431450189092665e-01 9.014342117828559e-01 8.911093300288826e-01 8.884444831079207e-01 8.648332436403705e-01 8.513811073396034e-01 8.937816454462443e-01 8.928245366316032e-01 8.979220260423920e-01 9.053128461355422e-01 9.049600536922606e-01 9.202703343872138e-01 9.054405576277296e-01 9.100711919299880e-01 9.203087971934412e-01 9.169357217250884e-01 9.087920583413890e-01 8.921454433757929e-01 8.975735996276655e-01 9.054981647646829e-01 9.006381538830883e-01 8.404718178701306e-01 8.364819444081990e-01 8.044026604957076e-01 6.982256566643505e-01 8.843679530101365e-01 8.998410782441548e-01 8.805858657280230e-01 8.965942164955578e-01 8.849511458007517e-01 7.287094670974803e-01 7.438100786392572e-01 8.795816247594216e-01 8.367605633665591e-01 8.795596312954824e-01 8.413406377336927e-01 8.516033889120878e-01 8.539454406591436e-01 8.622734812911057e-01 8.654160796044008e-01 8.764401718134287e-01 8.873724126408424e-01 9.042615589888852e-01 9.104516189033176e-01 8.969011353172045e-01 9.166301889246101e-01 2.154552404012855e-01 5.085018728787988e-01 4.108206904264761e-01 4.182140668629252e-01 9.231428890722642e-01 6.849664262232662e-01 9.133935976564321e-01 9.103507830439571e-01 2.458389220438129e-01 2.725612613261695e-01 8.866718030279450e-01 3.358230210199656e-01 6.860867241577505e-01 5.013845472402276e-01 5.402421688792785e-01 3.812093605991375e-01 4.088506136705587e-01 3.003729736866473e-01 8.752197142150369e-01 8.619121176105791e-01 6.672753374982823e-01 3.190827049655329e-01 3.667530523303578e-01 3.450575588944487e-01 5.528204833419759e-01 4.342716500268747e-01 5.725573305505047e-01 7.386212947519788e-01 8.263276398515720e-01 8.421228071426665e-01 7.158264904570156e-01 8.273804665711217e-01 7.807802775084349e-01 5.938450239878315e-01 8.972728027918231e-01 9.016016189432174e-01 8.703023548286084e-01 8.589719886322238e-01 8.414793754739067e-01 8.532846355755328e-01 5.729385301600000e-01 8.727527209105692e-01 8.377510740153655e-01 8.804012098802014e-01 8.886026741969084e-01 5.031770004513664e-01 5.916215838864005e-01 4.644016244252753e-01 4.899484456692286e-01 5.381253060331438e-01 5.588018140972527e-01 4.357831921288895e-01 4.836321262252135e-01 4.152838130100680e-01 3.919427916635694e-01 4.403764540021332e-01 5.000146433632260e-01 5.771051558062690e-01 5.298109126533286e-01 5.502727673861217e-01 6.056507716075183e-01 6.564541538731075e-01 7.341297746956023e-01 7.554351996691197e-01 6.281438466120849e-01 5.134372226285147e-01 9.468097729405297e-01 9.544838443038368e-01 9.455605701012416e-01 9.529349667632422e-01 9.490921235009501e-01 9.422411351617268e-01 8.870808859193899e-01 9.285359297877208e-01 8.920619546711737e-01 8.632710597443873e-01 8.320364177683844e-01 9.299604994162426e-01 9.207882316580052e-01 9.498101332652564e-01 8.941920340439371e-01 9.063333649138614e-01 8.750151442333203e-01 8.320988683950948e-01 8.856763165146209e-01 8.471895247438699e-01 8.608648064352833e-01 7.873401165408516e-01 9.178639368525036e-01 8.006182715814640e-01 9.028051268129595e-01 8.840937554282762e-01 8.328676406630484e-01 8.174453122196229e-01 8.530505173320179e-01 8.671891363427947e-01 8.761779919938911e-01 8.465846236935438e-01 8.587397026223196e-01 9.501726177737337e-01 9.243839061510011e-01 9.305817372072336e-01 8.837979111047376e-01 8.729616160855396e-01 9.135116373960086e-01 8.939170774369534e-01 9.075450619211402e-01 9.650402173558952e-01 9.634055059278954e-01 9.877245300027171e-01 9.424363795758854e-01 9.483405755810866e-01 9.441777591123045e-01 9.537914863191442e-01 9.459935994326696e-01 9.537776177393413e-01 9.499505478968127e-01 9.392960365049972e-01 9.661473960560054e-01 9.698970295087445e-01 9.734162015440841e-01 9.726073378661924e-01 9.652406199999775e-01 9.428852696117151e-01 9.398320931109154e-01 9.512070224289350e-01 9.657647363889588e-01 9.606652943214108e-01 9.562131054444922e-01 9.799141488791873e-01 9.782594923473156e-01 9.767101309689112e-01 9.841683778085835e-01 9.816443265640881e-01 9.572182659139619e-01 9.686436066828532e-01 9.592210150430078e-01 9.092847674848809e-01 9.687384768070897e-01 9.627110952008318e-01 9.569095200653186e-01 9.757544041025900e-01 9.719389397081094e-01 9.837271818039730e-01 9.809110226047891e-01 9.924852424647075e-01 9.902960246747667e-01 9.606866354361743e-01 9.694317412677289e-01 9.674140468252534e-01 9.476702841250910e-01 9.597698284735063e-01 9.526352535454254e-01 9.405435163236358e-01 9.358492533662337e-01 9.597202443018369e-01 9.540739684407007e-01 9.377915476711156e-01 9.441847907575933e-01 9.491282598614745e-01 9.446984781628948e-01 9.562139184431608e-01 9.501657506300212e-01 9.686854598881860e-01 9.636202997606766e-01 9.794766834726990e-01 9.730468890653986e-01 9.837096108786526e-01 9.873563029668395e-01 9.816425391732368e-01 9.726731684796173e-01 9.975202308109314e-01 9.962508398685644e-01 9.986809317811384e-01 9.906773693075792e-01 9.900402236274344e-01 9.878226593826018e-01 9.828615240970738e-01 9.820382492315247e-01 9.951534864652257e-01 9.916652793878160e-01 9.941106734205075e-01 9.975178195258561e-01 9.855648307217770e-01 9.881932000473526e-01 9.844640967329885e-01 9.832546254274289e-01 9.932071041280677e-01 9.897537066271148e-01 9.859581073024429e-01 9.867690796914539e-01 9.832812496230456e-01 9.892969817375192e-01 9.917715664777309e-01 9.929705702320710e-01 9.980354966867806e-01 9.954216841975299e-01 9.949925930801518e-01 9.982164644964966e-01 9.942372241942401e-01 9.925374331895169e-01 9.971456075108682e-01 9.954305326724915e-01 9.476710383816522e-01 9.519752342490369e-01 9.556580594070428e-01 9.927094959639956e-01 9.858490820855130e-01 9.639204988188474e-01 9.862202132103903e-01 9.894419764113553e-01 9.595233540507224e-01 9.634115901246281e-01 9.886452556650321e-01 9.836611360814007e-01 9.695324579864328e-01 9.788080046395150e-01 9.792755574621617e-01 9.822275505530045e-01 9.740760622253363e-01 9.683925141724241e-01 9.732918029876432e-01 9.759356721972496e-01 9.838050295299005e-01 9.892546580750301e-01 9.982607214990232e-01 9.978080868554642e-01 9.938701516914337e-01 9.904622814523876e-01 9.913631503365026e-01 9.886019530002771e-01 9.975969514648328e-01 9.914413544034173e-01 9.958027221013181e-01 9.939123191361472e-01 9.943925459748018e-01 9.895810482773930e-01 9.968438647020879e-01 9.934538174607670e-01 9.711535649968999e-01 9.671610775784489e-01 9.640838790358766e-01 9.195121593736246e-01 9.364509785742590e-01 9.737428282383566e-01 9.759723703394787e-01 9.416261018633099e-01 9.746000042738807e-01 9.443124842472818e-01 9.522095383711640e-01 9.202259952326888e-01 9.712581725003284e-01 9.653309643402257e-01 9.730856831262129e-01 9.683858262949947e-01 9.598404126243321e-01 9.606225637183502e-01 9.641616213058863e-01 9.584945682679248e-01 9.486794405762290e-01 9.550882004038369e-01 9.466993893231327e-01 9.462596595185031e-01 9.543064879328986e-01 9.587752185142076e-01 9.874152270655636e-01 9.641040971415242e-01 9.707508731068422e-01 9.667680313064059e-01 9.675079929971813e-01 9.714699572090666e-01 9.695679105007367e-01 9.692398223622537e-01 9.735468275765773e-01 9.864401043285380e-01 9.823609902940298e-01 9.843721095533604e-01 9.790016531174658e-01 9.755824152409708e-01 9.790177419936623e-01 9.769955679450906e-01 9.517592838180247e-01 9.534986658639036e-01 9.955901255220092e-01 9.780184548471398e-01 9.758632755440213e-01 9.824922579446422e-01 9.659554701178747e-01 9.609217836534123e-01 9.635034088013443e-01 9.738462928027074e-01 9.710688356599286e-01 9.699464698011790e-01 9.674719380900694e-01 9.708856079667303e-01 9.682861399677047e-01 9.935469962523955e-01 9.909383391661690e-01 9.744130486589149e-01 9.650948828847632e-01 9.632389944571752e-01 9.766165969673296e-01 9.700816179269329e-01 9.673981358414181e-01 9.575038151888384e-01 9.732927710581605e-01 9.749679398845785e-01 9.231146365298940e-01 9.577040781236967e-01 9.760185507338415e-01 9.232658748323526e-01 9.041587873857273e-01 9.779523625872864e-01 9.796318554689327e-01 9.542081787415716e-01 9.543705464944752e-01 9.853840587114189e-01 9.732842128351860e-01 9.705812651309021e-01 9.776070977518221e-01 9.703789086535384e-01 9.798864499699416e-01 9.755364310093342e-01 9.737248694541885e-01 9.729393049126513e-01 9.800895595277415e-01 9.767251581823594e-01 9.816119430757133e-01 9.887112985996258e-01 9.817844276228546e-01 9.839145736857805e-01 9.862722892051670e-01 9.886905051167127e-01 9.841612848043241e-01 9.810473672650408e-01 
</DataArray>
<DataArray type="Float64" Name="B_conc" format="ascii">