<?xml version="1.0"?>
<VTKFile type="UnstructuredGrid" version="0.1" byte_order="LittleEndian">
<UnstructuredGrid>
<Piece NumberOfPoints="6" NumberOfCells="3">
<Points>
<DataArray type="Float64" NumberOfComponents="3" format="ascii">
0.000000000000000e+00 0.000000000000000e+00 0.000000000000000e+00 3.000000000000000e+00 0.000000000000000e+00 0.000000000000000e+00 0.000000000000000e+00 3.000000000000000e+00 0.000000000000000e+00 0.000000000000000e+00 0.000000000000000e+00 3.000000000000000e+00 3.000000000000000e+00 0.000000000000000e+00 3.000000000000000e+00 0.000000000000000e+00 3.000000000000000e+00 3.000000000000000e+00 
</DataArray>
</Points>
<Cells>
<DataArray type="Int32" Name="connectivity" format="ascii">
0 1 2 4 0 2 3 4 2 3 4 5 
</DataArray>
<DataArray type="Int32" Name="offsets" format="ascii">
4 8 12 
</DataArray>
<DataArray type="UInt8" Name="types" format="ascii">
10 10 10 
</DataArray>
</Cells>
<CellData Scalars="A_conc,B_conc,C_conc,D_conc,E_conc,F_conc,G_conc,H_conc," Vectors="">
<DataArray type="Float64" Name="A_conc" format="ascii">
8.244604920325211e-03 8.244604920325152e-03 8.244604920325180e-03 
</DataArray>
<DataArray type="Float64" Name="B_conc" format="ascii">
4.621964300382340e-02 4.621964300382307e-02 4.621964300382322e-02 
</DataArray>
<DataArray type="Float64" Name="C_conc" format="ascii">
1.417479778673774e-01 1.417479778673764e-01 1.417479778673768e-01 
</DataArray>
<DataArray type="Float64" Name="D_conc" format="ascii">
2.374997726790825e-02 2.374997726790808e-02 2.374997726790816e-02 
</DataArray>
<DataArray type="Float64" Name="E_conc" format="ascii">
6.275310748268768e-03 6.275310748268724e-03 6.275310748268745e-03 
</DataArray>
<DataArray type="Float64" Name="F_conc" format="ascii">
4.129215504148877e-02 4.129215504148848e-02 4.129215504148861e-02 
</DataArray>
<DataArray type="Float64" Name="G_conc" format="ascii">
6.148651638983348e-02 6.148651638983303e-02 6.148651638983324e-02 
</DataArray>
<DataArray type="Float64" Name="H_conc" format="ascii">
3.098381476097565e-02 3.098381476097543e-02 3.098381476097553e-02 
</DataArray>
</CellData>
</Piece>
</UnstructuredGrid>
</VTKFile>
