<?xml version="1.0"?>
<VTKFile type="UnstructuredGrid" version="0.1" byte_order="LittleEndian">
<UnstructuredGrid>
<Piece NumberOfPoints="3142" NumberOfCells="1054">
<Points>
<DataArray type="Float64" NumberOfComponents="3" format="ascii">
0 0 0 0.049999999999899652 0 0 0.02576622439977887 0.024532886826226379 0 0 0 0 0.02576622439977887 0.024532886826226379 0 0 0.050000000000207989 0 0.049999999999899652 0 0 0.053064897599215843 0.048131547304697528 0 0.02576622439977887 0.024532886826226379 0 0 0.050000000000207989 0 0.02576622439977887 0.024532886826226379 0 0.053064897599215843 0.048131547304697528 0 0 0.10000000000041601 0 0 0.050000000000207989 0 0.044310582753132287 0.101412518374475 0 0 0.15000000000062411 0 0 0.10000000000041601 0 0.044310582753132287 0.101412518374475 0 0.083411279318303222 0.089699755330707398 0 0.044310582753132287 0.101412518374475 0 0.053064897599215843 0.048131547304697528 0 0 0.050000000000207989 0 0.053064897599215843 0.048131547304697528 0 0.044310582753132287 0.101412518374475 0 0.083411279318303222 0.089699755330707398 0 0.065374659239632718 0.1448908038746782 0 0.044310582753132287 0.101412518374475 0 0.083411279318303222 0.089699755330707398 0 0.1053400320299198 0.12877248826361379 0 0.065374659239632718 0.1448908038746782 0 0.083411279318303222 0.089699755330707398 0 0.12372429750337779 0.095814237875728972 0 0.1053400320299198 0.12877248826361379 0 0.14332333627550789 0.14578431753966009 0 0.1053400320299198 0.12877248826361379 0 0.12372429750337779 0.095814237875728972 0 0.14618258501891079 0.062070108745602003 0 0.12372429750337779 0.095814237875728972 0 0.10266856499169109 0.044518360900210059 0 0.083411279318303222 0.089699755330707398 0 0.10266856499169109 0.044518360900210059 0 0.12372429750337779 0.095814237875728972 0 0.099999999999814668 0 0 0.14999999999970359 0 0 0.10266856499169109 0.044518360900210059 0 0.049999999999899652 0 0 0.099999999999814668 0 0 0.053064897599215843 0.048131547304697528 0 0.099999999999814668 0 0 0.10266856499169109 0.044518360900210059 0 0.053064897599215843 0.048131547304697528 0 0.083411279318303222 0.089699755330707398 0 0.053064897599215843 0.048131547304697528 0 0.10266856499169109 0.044518360900210059 0 0 0.25000000000104028 0 0 0.20000000000083221 0 0.044081577119474857 0.2271058242433576 0 0 0.20000000000083221 0 0.038512288486115001 0.1844147282893184 0 0.044081577119474857 0.2271058242433576 0 0.083105206071467416 0.20007701332709979 0 0.044081577119474857 0.2271058242433576 0 0.038512288486115001 0.1844147282893184 0 0 0.15000000000062411 0 0.065374659239632718 0.1448908038746782 0 0.038512288486115001 0.1844147282893184 0 0 0.15000000000062411 0 0.044310582753132287 0.101412518374475 0 0.065374659239632718 0.1448908038746782 0 0.083105206071467416 0.20007701332709979 0 0.038512288486115001 0.1844147282893184 0 0.065374659239632718 0.1448908038746782 0 0 0.20000000000083221 0 0 0.15000000000062411 0 0.038512288486115001 0.1844147282893184 0 0.065374659239632718 0.1448908038746782 0 0.1053400320299198 0.12877248826361379 0 0.106902708054812 0.16453234188234539 0 0.14332333627550789 0.14578431753966009 0 0.106902708054812 0.16453234188234539 0 0.1053400320299198 0.12877248826361379 0 0.083105206071467416 0.20007701332709979 0 0.065374659239632718 0.1448908038746782 0 0.106902708054812 0.16453234188234539 0 0.083105206071467416 0.20007701332709979 0 0.13737030665753211 0.20313708640667491 0 0.095326043202144745 0.24554465089224409 0 0.083105206071467416 0.20007701332709979 0 0.106902708054812 0.16453234188234539 0 0.13737030665753211 0.20313708640667491 0 0.083105206071467416 0.20007701332709979 0 0.095326043202144745 0.24554465089224409 0 0.044081577119474857 0.2271058242433576 0 0.049706944316556423 0.27522722923869108 0 0.044081577119474857 0.2271058242433576 0 0.095326043202144745 0.24554465089224409 0 0.13737030665753211 0.20313708640667491 0 0.14377654328998779 0.2442024734791064 0 0.095326043202144745 0.24554465089224409 0 0.17933913398461551 0.2350063570234002 0 0.14377654328998779 0.2442024734791064 0 0.13737030665753211 0.20313708640667491 0 0.17933913398461551 0.2350063570234002 0 0.13737030665753211 0.20313708640667491 0 0.18124454140915969 0.18790916706335251 0 0.14332333627550789 0.14578431753966009 0 0.18652628422869419 0.14162325200928061 0 0.18124454140915969 0.18790916706335251 0 0.14332333627550789 0.14578431753966009 0 0.13737030665753211 0.20313708640667491 0 0.106902708054812 0.16453234188234539 0 0.14332333627550789 0.14578431753966009 0 0.18124454140915969 0.18790916706335251 0 0.13737030665753211 0.20313708640667491 0 0.14332333627550789 0.14578431753966009 0 0.16141998738593399 0.10404039647458049 0 0.18652628422869419 0.14162325200928061 0 0.2185883431182947 0.18019736283949719 0 0.18652628422869419 0.14162325200928061 0 0.22985637510995899 0.1298347970200906 0 0.2185883431182947 0.18019736283949719 0 0.22985637510995899 0.1298347970200906 0 0.25557216766470708 0.15874861286892261 0 0.2185883431182947 0.18019736283949719 0 0.25557216766470708 0.15874861286892261 0 0.26429849586623999 0.19346700179430079 0 0.2185883431182947 0.18019736283949719 0 0.18124454140915969 0.18790916706335251 0 0.18652628422869419 0.14162325200928061 0 0.17933913398461551 0.2350063570234002 0 0.18124454140915969 0.18790916706335251 0 0.224700362040408 0.22206622194729711 0 0.2185883431182947 0.18019736283949719 0 0.224700362040408 0.22206622194729711 0 0.18124454140915969 0.18790916706335251 0 0.2185883431182947 0.18019736283949719 0 0.26429849586623999 0.19346700179430079 0 0.224700362040408 0.22206622194729711 0 0.25195515620380449 0.25883339815888678 0 0.21049769590865089 0.26857363548218488 0 0.224700362040408 0.22206622194729711 0 0.17933913398461551 0.2350063570234002 0 0.224700362040408 0.22206622194729711 0 0.21049769590865089 0.26857363548218488 0 0.14999999999970359 0 0 0.184418230509967 0.038773194583122873 0 0.14618258501891079 0.062070108745602003 0 0.19922788606653311 0.085920220746880993 0 0.14618258501891079 0.062070108745602003 0 0.184418230509967 0.038773194583122873 0 0.14999999999970359 0 0 0.19999999999955789 0 0 0.184418230509967 0.038773194583122873 0 0.14999999999970359 0 0 0.14618258501891079 0.062070108745602003 0 0.10266856499169109 0.044518360900210059 0 0.14618258501891079 0.062070108745602003 0 0.16141998738593399 0.10404039647458049 0 0.12372429750337779 0.095814237875728972 0 0.14332333627550789 0.14578431753966009 0 0.12372429750337779 0.095814237875728972 0 0.16141998738593399 0.10404039647458049 0 0.19922788606653311 0.085920220746880993 0 0.18652628422869419 0.14162325200928061 0 0.16141998738593399 0.10404039647458049 0 0.19922788606653311 0.085920220746880993 0 0.16141998738593399 0.10404039647458049 0 0.14618258501891079 0.062070108745602003 0 0.19922788606653311 0.085920220746880993 0 0.22985637510995899 0.1298347970200906 0 0.18652628422869419 0.14162325200928061 0 0.19922788606653311 0.085920220746880993 0 0.24218496799700481 0.089025544070598317 0 0.22985637510995899 0.1298347970200906 0 0.27474541102162192 0.11822029332053539 0 0.22985637510995899 0.1298347970200906 0 0.24218496799700481 0.089025544070598317 0 0.19922788606653311 0.085920220746880993 0 0.22668068146512929 0.045875643423131329 0 0.24218496799700481 0.089025544070598317 0 0.27499999999933927 0.060310814194988557 0 0.24218496799700481 0.089025544070598317 0 0.22668068146512929 0.045875643423131329 0 0.19922788606653311 0.085920220746880993 0 0.184418230509967 0.038773194583122873 0 0.22668068146512929 0.045875643423131329 0 0.19999999999955789 0 0 0.22668068146512929 0.045875643423131329 0 0.184418230509967 0.038773194583122873 0 0.19999999999955789 0 0 0.24999999999941211 0 0 0.22668068146512929 0.045875643423131329 0 0.24999999999941211 0 0 0.29999999999926641 0 0 0.27499999999933927 0.060310814194988557 0 0.24999999999941211 0 0 0.27499999999933927 0.060310814194988557 0 0.22668068146512929 0.045875643423131329 0 0.29999999999926641 0 0 0.32541448401678508 0.046215317981507749 0 0.27499999999933927 0.060310814194988557 0 0.29999999999926641 0 0 0.34999999999912063 0 0 0.32541448401678508 0.046215317981507749 0 0.35312867752657662 0.084946736076730367 0 0.32541448401678508 0.046215317981507749 0 0.3615861437013822 0.03582617922508851 0 0.35312867752657662 0.084946736076730367 0 0.3615861437013822 0.03582617922508851 0 0.39591832466117061 0.056982757562006353 0 0.34999999999912063 0 0 0.3615861437013822 0.03582617922508851 0 0.32541448401678508 0.046215317981507749 0 0.34999999999912063 0 0 0.3999999999989749 0 0 0.3615861437013822 0.03582617922508851 0 0.35312867752657662 0.084946736076730367 0 0.39823268594401579 0.1116623613130045 0 0.36246644853392812 0.1399454205365751 0 0.35312867752657662 0.084946736076730367 0 0.36246644853392812 0.1399454205365751 0 0.32215584939770009 0.1218492143506909 0 0.35312867752657662 0.084946736076730367 0 0.3096713403101819 0.085471541595262421 0 0.32541448401678508 0.046215317981507749 0 0.35312867752657662 0.084946736076730367 0 0.32215584939770009 0.1218492143506909 0 0.3096713403101819 0.085471541595262421 0 0.27474541102162192 0.11822029332053539 0 0.3096713403101819 0.085471541595262421 0 0.32215584939770009 0.1218492143506909 0 0.27499999999933927 0.060310814194988557 0 0.32541448401678508 0.046215317981507749 0 0.3096713403101819 0.085471541595262421 0 0.3096713403101819 0.085471541595262421 0 0.27474541102162192 0.11822029332053539 0 0.27499999999933927 0.060310814194988557 0 0.27499999999933927 0.060310814194988557 0 0.27474541102162192 0.11822029332053539 0 0.24218496799700481 0.089025544070598317 0 0.27474541102162192 0.11822029332053539 0 0.25557216766470708 0.15874861286892261 0 0.22985637510995899 0.1298347970200906 0 0.27474541102162192 0.11822029332053539 0 0.29336099386129338 0.15892013001050981 0 0.25557216766470708 0.15874861286892261 0 0.26429849586623999 0.19346700179430079 0 0.25557216766470708 0.15874861286892261 0 0.29336099386129338 0.15892013001050981 
[...]
<PointData Scalars="" Vectors="displacement," Tensors="">
<DataArray type="Float64" Name="displacement" NumberOfComponents="3" format="ascii">
-2.5107956964427283e-09 -1.0702956498304679e-09 0 -2.2379259733897447e-06 -1.0102241817592541e-06 0 -9.5558100900355907e-07 -2.9878568586064991e-07 0 -2.5107956964427283e-09 -1.0702956498304679e-09 0 -9.5558100900355928e-07 -2.9878568586064996e-07 0 -1.4650430309449351e-09 1.7388403515862342e-10 0 -2.2379259733897447e-06 -1.0102241817592541e-06 0 -1.9407888763369552e-06 -3.6818270290017443e-07 0 -9.5558100900355907e-07 -2.9878568586064991e-07 0 -1.4650430309449351e-09 1.7388403515862342e-10 0 -9.5558100900355907e-07 -2.9878568586064986e-07 0 -1.9407888763369552e-06 -3.6818270290017443e-07 0 -1.6241446277100724e-09 -8.0816366319419123e-11 0 -1.4650430309449351e-09 1.7388403515862342e-10 0 -1.3507284735276525e-06 6.0720854461473653e-08 0 -1.1736914887899565e-09 2.8854801953691914e-10 0 -1.6241446277100724e-09 -8.0816366319419123e-11 0 -1.3507284735276525e-06 6.0720854461473653e-08 0 -2.7890406386395778e-06 -1.1850223702224429e-07 0 -1.3507284735276525e-06 6.0720854461473653e-08 0 -1.9407888763369552e-06 -3.6818270290017443e-07 0 -1.4650430309449351e-09 1.7388403515862342e-10 0 -1.9407888763369552e-06 -3.6818270290017443e-07 0 -1.3507284735276525e-06 6.0720854461473653e-08 0 -2.7890406386395778e-06 -1.1850223702224429e-07 0 -1.8125593838222585e-06 3.0316901357295617e-07 0 -1.3507284735276525e-06 6.0720854461473653e-08 0 -2.7890406386395778e-06 -1.1850223702224429e-07 0 -3.1896263189764019e-06 1.5696597803423226e-07 0 -1.8125593838222585e-06 3.0316901357295617e-07 0 -2.7890406386395778e-06 -1.1850223702224429e-07 0 -4.2511917855370022e-06 -2.4106547168279353e-07 0 -3.1896263189764019e-06 1.5696597803423226e-07 0 -4.1665004782428512e-06 1.4775412574382684e-07 0 -3.1896263189764019e-06 1.5696597803423226e-07 0 -4.2511917855370022e-06 -2.4106547168279343e-07 0 -5.6161144376677949e-06 -7.9836794962461612e-07 0 -4.2511917855370022e-06 -2.4106547168279343e-07 0 -4.0187394089237148e-06 -7.5608637056552997e-07 0 -2.7890406386395778e-06 -1.1850223702224429e-07 0 -4.0187394089237148e-06 -7.5608637056552997e-07 0 -4.2511917855370022e-06 -2.4106547168279343e-07 0 -4.3529122534861026e-06 -1.3649456704127557e-06 0 -6.5969073532348308e-06 -1.7108379325714967e-06 0 -4.0187394089237148e-06 -7.5608637056552997e-07 0 -2.2379259733897447e-06 -1.0102241817592541e-06 0 -4.3529122534861026e-06 -1.3649456704127557e-06 0 -1.9407888763369552e-06 -3.6818270290017443e-07 0 -4.3529122534861026e-06 -1.3649456704127557e-06 0 -4.0187394089237148e-06 -7.5608637056552997e-07 0 -1.9407888763369552e-06 -3.6818270290017443e-07 0 -2.7890406386395778e-06 -1.1850223702224429e-07 0 -1.9407888763369552e-06 -3.6818270290017443e-07 0 -4.0187394089237148e-06 -7.5608637056552997e-07 0 -8.5844478945371061e-10 2.5633642395586228e-10 0 -1.0856333847218229e-09 1.6273604753319455e-10 0 -8.571213257790201e-07 4.5175879925282573e-07 0 -1.0856333847218229e-09 1.6273604753319455e-10 0 -8.9604060726118504e-07 3.1973233185592044e-07 0 -8.571213257790201e-07 4.5175879925282573e-07 0 -1.8787306257784156e-06 5.6456206169731752e-07 0 -8.571213257790201e-07 4.5175879925282573e-07 0 -8.9604060726118504e-07 3.1973233185592044e-07 0 -1.1736914887899565e-09 2.8854801953691914e-10 0 -1.8125593838222585e-06 3.0316901357295617e-07 0 -8.9604060726118504e-07 3.1973233185592044e-07 0 -1.1736914887899565e-09 2.8854801953691914e-10 0 -1.3507284735276525e-06 6.0720854461473653e-08 0 -1.8125593838222585e-06 3.0316901357295617e-07 0 -1.8787306257784156e-06 5.6456206169731752e-07 0 -8.9604060726118504e-07 3.1973233185592044e-07 0 -1.8125593838222585e-06 3.0316901357295617e-07 0 -1.0856333847218229e-09 1.6273604753319455e-10 0 -1.1736914887899565e-09 2.8854801953691914e-10 0 -8.9604060726118504e-07 3.1973233185592044e-07 0 -1.8125593838222585e-06 3.0316901357295617e-07 0 -3.1896263189764023e-06 1.569659780342322e-07 0 -2.8274578762861507e-06 4.0746466532896447e-07 0 -4.1665004782428512e-06 1.4775412574382684e-07 0 -2.8274578762861507e-06 4.0746466532896447e-07 0 -3.1896263189764019e-06 1.5696597803423226e-07 0 -1.8787306257784156e-06 5.6456206169731752e-07 0 -1.8125593838222585e-06 3.0316901357295617e-07 0 -2.8274578762861507e-06 4.0746466532896447e-07 0 -1.8787306257784156e-06 5.6456206169731752e-07 0 -3.1055960205795339e-06 5.634137300230769e-07 0 -1.7269686638739791e-06 7.3510934586162412e-07 0 -1.8787306257784156e-06 5.6456206169731752e-07 0 -2.8274578762861507e-06 4.0746466532896447e-07 0 -3.1055960205795339e-06 5.634137300230769e-07 0 -1.8787306257784156e-06 5.6456206169731752e-07 0 -1.7269686638739791e-06 7.3510934586162412e-07 0 -8.571213257790201e-07 4.5175879925282573e-07 0 -7.6433037493330463e-07 5.4503220302030105e-07 0 -8.571213257790201e-07 4.5175879925282573e-07 0 -1.7269686638739791e-06 7.3510934586162412e-07 0 -3.1055960205795339e-06 5.634137300230769e-07 0 -2.690327454295782e-06 6.9811729428791697e-07 0 -1.7269686638739791e-06 7.3510934586162412e-07 0 -3.5294651888048661e-06 5.14405068109557e-07 0 -2.6903274542957815e-06 6.9811729428791697e-07 0 -3.1055960205795339e-06 5.634137300230769e-07 0 -3.5294651888048661e-06 5.14405068109557e-07 0 -3.1055960205795339e-06 5.634137300230769e-07 0 -4.4794896950254157e-06 2.2465028754505665e-07 0 -4.1665004782428512e-06 1.4775412574382684e-07 0 -5.6094286047486653e-06 -2.1210245584780664e-07 0 -4.4794896950254157e-06 2.2465028754505665e-07 0 -4.1665004782428512e-06 1.4775412574382684e-07 0 -3.1055960205795335e-06 5.634137300230769e-07 0 -2.8274578762861507e-06 4.0746466532896447e-07 0 -4.1665004782428512e-06 1.4775412574382684e-07 0 -4.4794896950254157e-06 2.2465028754505665e-07 0 -3.1055960205795339e-06 5.634137300230769e-07 0 -4.1665004782428512e-06 1.4775412574382684e-07 0 -5.5070680058462529e-06 -3.9605845377764588e-07 0 -5.6094286047486662e-06 -2.1210245584780654e-07 0 -5.647124887653501e-06 -2.074233513755851e-07 0 -5.6094286047486662e-06 -2.1210245584780662e-07 0 -7.3496271686987109e-06 -8.2998688927704105e-07 0 -5.647124887653501e-06 -2.074233513755851e-07 0 -7.3496271686987109e-06 -8.2998688927704105e-07 0 -7.3118866442008938e-06 -9.4960010715725288e-07 0 -5.647124887653501e-06 -2.074233513755851e-07 0 -7.3118866442008938e-06 -9.4960010715725288e-07 0 -6.4652541396436802e-06 -7.7847769433234483e-07 0 -5.647124887653501e-06 -2.074233513755851e-07 0 -4.4794896950254157e-06 2.2465028754505665e-07 0 -5.6094286047486662e-06 -2.1210245584780654e-07 0 -3.5294651888048661e-06 5.14405068109557e-07 0 -4.4794896950254157e-06 2.2465028754505665e-07 0 -4.7626917360234618e-06 3.7863692658612806e-08 0 -5.647124887653501e-06 -2.074233513755851e-07 0 -4.7626917360234618e-06 3.7863692658612806e-08 0 -4.4794896950254157e-06 2.2465028754505665e-07 0 -5.647124887653501e-06 -2.074233513755851e-07 0 -6.4652541396436802e-06 -7.7847769433234483e-07 0 -4.7626917360234618e-06 3.7863692658612806e-08 0 -4.4221458239917209e-06 -1.20914331734398e-07 0 -3.4750652303372998e-06 4.3353831726180882e-07 0 -4.7626917360234618e-06 3.7863692658612806e-08 0 -3.5294651888048661e-06 5.14405068109557e-07 0 -4.7626917360234618e-06 3.7863692658612806e-08 0 -3.4750652303372998e-06 4.3353831726180882e-07 0 -6.5969073532348308e-06 -1.7108379325714967e-06 0 -7.6380643049090695e-06 -1.4554344062437136e-06 0 -5.6161144376677949e-06 -7.9836794962461612e-07 0 -7.319512787777156e-06 -9.538985395594123e-07 0 -5.6161144376677941e-06 -7.9836794962461601e-07 0 -7.6380643049090695e-06 -1.4554344062437138e-06 0 -6.5969073532348308e-06 -1.7108379325714967e-06 0 -9.0459340689501122e-06 -2.2465012440580644e-06 0 -7.6380643049090695e-06 -1.4554344062437138e-06 0 -6.5969073532348308e-06 -1.7108379325714967e-06 0 -5.6161144376677949e-06 -7.9836794962461612e-07 0 -4.0187394089237148e-06 -7.5608637056552997e-07 0 -5.6161144376677949e-06 -7.9836794962461612e-07 0 -5.5070680058462529e-06 -3.9605845377764588e-07 0 -4.2511917855370022e-06 -2.4106547168279343e-07 0 -4.1665004782428512e-06 1.4775412574382684e-07 0 -4.2511917855370022e-06 -2.4106547168279343e-07 0 -5.5070680058462529e-06 -3.9605845377764588e-07 0 -7.319512787777156e-06 -9.538985395594123e-07 0 -5.6094286047486662e-06 -2.1210245584780654e-07 0 -5.5070680058462529e-06 -3.9605845377764588e-07 0 -7.319512787777156e-06 -9.538985395594123e-07 0 -5.5070680058462529e-06 -3.9605845377764588e-07 0 -5.6161144376677949e-06 -7.9836794962461612e-07 0 -7.319512787777156e-06 -9.538985395594123e-07 0 -7.3496271686987109e-06 -8.2998688927704105e-07 0 -5.6094286047486662e-06 -2.1210245584780654e-07 0 -7.319512787777156e-06 -9.538985395594123e-07 0 -8.9695775480520806e-06 -1.5160853614180511e-06 0 -7.3496271686987109e-06 -8.2998688927704105e-07 0 -9.2994770019523466e-06 -1.7476976211539308e-06 0 -7.3496271686987109e-06 -8.2998688927704105e-07 0 -8.9695775480520806e-06 -1.5160853614180513e-06 0 -7.319512787777156e-06 -9.538985395594123e-07 0 -9.4212388348806531e-06 -1.886676505097641e-06 0 -8.9695775480520806e-06 -1.5160853614180513e-06 0 -1.1301712868724445e-05 -2.5585544290312755e-06 0 -8.9695775480520806e-06 -1.5160853614180513e-06 0 -9.4212388348806531e-06 -1.886676505097641e-06 0 -7.319512787777156e-06 -9.538985395594123e-07 0 -7.6380643049090695e-06 -1.4554344062437138e-06 0 -9.4212388348806531e-06 -1.886676505097641e-06 0 -9.0459340689501122e-06 -2.246501244058064e-06 0 -9.4212388348806531e-06 -1.886676505097641e-06 0 -7.6380643049090695e-06 -1.4554344062437138e-06 0 -9.0459340689501122e-06 -2.246501244058064e-06 0 -1.1698847871178061e-05 -3.0649313375379546e-06 0 -9.4212388348806531e-06 -1.886676505097641e-06 0 -1.1698847871178061e-05 -3.0649313375379542e-06 0 -1.4477733153283716e-05 -4.2555879984167506e-06 0 -1.1301712868724445e-05 -2.5585544290312755e-06 0 -1.1698847871178061e-05 -3.0649313375379542e-06 0 -1.1301712868724445e-05 -2.5585544290312755e-06 0 -9.4212388348806531e-06 -1.886676505097641e-06 0 -1.4477733153283716e-05 -4.2555879984167506e-06 0 -1.4296190314034638e-05 -4.1314662455136988e-06 0 -1.1301712868724445e-05 -2.5585544290312755e-06 0 -1.4477733153283716e-05 -4.2555879984167506e-06 0 -1.7563265263014226e-05 -5.9347627217868319e-06 0 -1.4296190314034638e-05 -4.1314662455136988e-06 0 -1.384230508952424e-05 -4.4664429701331146e-06 0 -1.4296190314034638e-05 -4.1314662455136988e-06 0 -1.6688162124854056e-05 -5.6778788660308461e-06 0 -1.384230508952424e-05 -4.4664429701331146e-06 0 -1.6688162124854056e-05 -5.6778788660308461e-06 0 -1.7404455474023845e-05 -6.8974648545698874e-06 0 -1.7563265263014226e-05 -5.9347627217868319e-06 0 -1.6688162124854056e-05 -5.6778788660308461e-06 0 -1.4296190314034638e-05 -4.1314662455136988e-06 0 -1.7563265263014226e-05 -5.9347627217868319e-06 0 -2.0900775832704809e-05 -8.2088719416497489e-06 0 -1.6688162124854056e-05 -5.6778788660308461e-06 0 -1.384230508952424e-05 -4.4664429701331146e-06 0 -1.4274547145724726e-05 -6.0815857806065713e-06 0 -1.1427579075015768e-05 -4.0649435572459811e-06 0 -1.384230508952424e-05 -4.4664429701331146e-06 0 -1.1427579075015768e-05 -4.0649435572459811e-06 0 -1.0867883028426065e-05 -2.9007923556182647e-06 0 -1.384230508952424e-05 -4.4664429701331146e-06 0 -1.1917200601274235e-05 -3.050566193163087e-06 0 -1.4296190314034638e-05 -4.1314662455136988e-06 0 -1.384230508952424e-05 -4.4664429701331146e-06 0 -1.0867883028426065e-05 -2.9007923556182647e-06 0 -1.1917200601274235e-05 -3.050566193163087e-06 0 -9.2994770019523466e-06 -1.7476976211539308e-06 0 -1.1917200601274237e-05 -3.0505661931630874e-06 0 -1.0867883028426065e-05 -2.9007923556182647e-06 0 -1.1301712868724445e-05 -2.5585544290312755e-06 0 -1.4296190314034638e-05 -4.1314662455136988e-06 0 -1.1917200601274235e-05 -3.050566193163087e-06 0 -1.1917200601274235e-05 -3.050566193163087e-06 0 -9.2994770019523466e-06 -1.7476976211539308e-06 0 -1.1301712868724445e-05 -2.5585544290312755e-06 0 -1.1301712868724445e-05 -2.5585544290312755e-06 0 -9.2994770019523466e-06 -1.7476976211539308e-06 0 -8.9695775480520806e-06 -1.5160853614180513e-06 0 -9.2994770019523466e-06 -1.7476976211539308e-06 0 -7.3118866442008938e-06 -9.4960010715725288e-07 0 -7.3496271686987109e-06 -8.2998688927704105e-07 0 -9.2994770019523466e-06 -1.7476976211539308e-06 0 -8.4358516550844522e-06 -1.7142061599317088e-06 0 -7.3118866442008938e-06 -9.4960010715725288e-07 0 -6.4652541396436802e-06 -7.7847769433234483e-07 0 -7.3118866442008938e-06 -9.4960010715725288e-07 0 -8.4358516550844522e-06 -1.7142061599317088e-06 0 -9.3877067685178953e-06 -2.6957356956289011e-06 0 -7.481045552911776e-06 -1.8049541805432551e-06 0 -8.4358516550844522e-06 -1.7142061599317088e-06 0 -6.4652541396436802e-06 -7.7847769433234483e-07 0 -8.4358516550844522e-06 -1.7142061599317088e-06 0 -7.481045552911776e-06 -1.8049541805432551e-06 0 -9.2994770019523466e-06 -1.7476976211539308e-06 0 -1.0867883028426065e-05 -2.9007923556182647e-06 0 -8.4358516550844522e-06 -1.7142061599317088e-06 0 -5.713065645698118e-06 -7.8624853725940858e-07 0 -4.4221458239917209e-06 -1.20914331734398e-07 0 -4.7626917360234618e-06 3.7863692658612806e-08 0 -6.4652541396436802e-06 -7.7847769433234483e-07 0 -5.713065645698118e-06 -7.8624853725940858e-07 0 -4.7626917360234618e-06 3.7863692658612806e-08 0 -6.4652541396436802e-06 -7.7847769433234483e-07 0 -7.481045552911776e-06 -1.8049541805432551e-06 0 -5.713065645698118e-06 -7.8624853725940858e-07 0 -6.5325506768222388e-06 -2.1215859909120486e-06 0 -4.7449511761214393e-06 -7.0414935842720696e-07 0 -5.713065645698118e-06 -7.8624853725940858e-07 0 -6.5325506768222388e-06 -2.1215859909120486e-06 0 -5.713065645698118e-06 -7.8624853725940869e-07 0 -7.481045552911776e-06 -1.8049541805432551e-06 0 -6.5325506768222388e-06 -2.1215859909120486e-06 0 -7.481045552911776e-06 -1.8049541805432551e-06 0 -8.9792607452541403e-06 -3.2862389891729428e-06 0 -6.5325506768222388e-06 -2.1215859909120486e-06 0 -8.9792607452541403e-06 -3.2862389891729428e-06 0 -8.2064278678391906e-06 -4.1244181351306041e-06 0 -6.5325506768222388e-06 -2.1215859909120486e-06 0 -8.2064278678391906e-06 -4.1244181351306041e-06 0 -6.090872452249358e-06 -3.1687167994559526e-06 0 -9.3877067685178953e-06 -2.6957356956289011e-06 0 -8.4358516550844522e-06 -1.7142061599317088e-06 0 -1.0867883028426065e-05 -2.9007923556182647e-06 0 -9.3877067685178953e-06 -2.6957356956289011e-06 0 -1.0867883028426063e-05 -2.9007923556182647e-06 0 -1.1427579075015768e-05 -4.0649435572459811e-06 0 -9.3877067685178953e-06 -2.6957356956289011e-06 0 -8.9792607452541403e-06 -3.2862389891729428e-06 0 -7.481045552911776e-06 -1.8049541805432551e-06 0 -1.1098371030113835e-05 -5.248056654330737e-06 0 -8.9792607452541403e-06 -3.2862389891729428e-06 0 -1.1427579075015768e-05 -4.0649435572459811e-06 0 -9.3877067685178953e-06 -2.6957356956289011e-06 0 -1.1427579075015768e-05 -4.0649435572459811e-06 0 -8.9792607452541403e-06 -3.2862389891729428e-06 0 -1.1098371030113835e-05 -5.248056654330737e-06 0 -1.1427579075015768e-05 -4.0649435572459811e-06 0 -1.4274547145724726e-05 -6.0815857806065713e-06 0 -1.1098371030113835e-05 -5.248056654330737e-06 0 -1.4039608091099055e-05 -8.1861271054799372e-06 0 -9.9944585970787057e-06 -6.3597256837442755e-06 0 -1.1098371030113835e-05 -5.248056654330737e-06 0 -1.4274547145724726e-05 -6.0815857806065713e-06 0 -1.4039608091099055e-05 -8.1861271054799372e-06 0 -7.355311023760564e-06 -5.2729171705054603e-06 0 -6.0908724522493572e-06 -3.1687167994559526e-06 0 -8.2064278678391906e-06 -4.1244181351306041e-06 0 -1.1098371030113835e-05 -5.248056654330737e-06 0 -8.2064278678391906e-06 -4.1244181351306041e-06 0 -8.9792607452541403e-06 -3.2862389891729428e-06 0 -1.1098371030113835e-05 -5.248056654330737e-06 0 -9.9944585970787057e-06 -6.3597256837442755e-06 0 -8.2064278678391906e-06 -4.1244181351306041e-06 0 -7.355311023760564e-06 -5.2729171705054603e-06 0 -8.2064278678391906e-06 -4.1244181351306041e-06 0 -9.9944585970787057e-06 -6.3597256837442755e-06 0 -7.355311023760564e-06 -5.2729171705054603e-06 0 -9.9944585970787057e-06 -6.3597256837442755e-06 0 -9.0326389067691746e-06 -7.9697741843838752e-06 0 -1.1860410553743756e-05 -9.535884739021348e-06 0 -9.0326389067691746e-06 -7.9697741843838752e-06 0 -9.9944585970787057e-06 -6.3597256837442755e-06 0 -1.1860410553743756e-05 -9.535884739021348e-06 0 -1.4370049132473062e-05 -1.3808202818655949e-05 0 -1.1286881390109042e-05 -1.2024044220257507e-05 0 -1.1860410553743756e-05 -9.535884739021348e-06 0 -1.1286881390109042e-05 -1.2024044220257507e-05 0 -9.0326389067691746e-06 -7.9697741843838752e-06 0 -8.2443752880478772e-06 -9.9071057540984649e-06 0 -9.0326389067691746e-06 -7.9697741843838752e-06 0 -1.1286881390109042e-05 -1.2024044220257507e-05 0 -1.1860410553743756e-05 -9.535884739021348e-06 0 -1.4039608091099055e-05 -8.1861271054799372e-06 0 -1.5399151004100923e-05 -1.134187032916515e-05 0 -1.1860410553743756e-05 -9.535884739021348e-06 0 -9.9944585970787057e-06 -6.3597256837442755e-06 0 -1.4039608091099055e-05 -8.1861271054799372e-06 0 -1.1860410553743756e-05 -9.535884739021348e-06 0 -1.5399151004100923e-05 -1.134187032916515e-05 0 -1.4370049132473062e-05 -1.3808202818655949e-05 0 -1.4039608091099055e-05 -8.1861271054799372e-06 0 -1.8823842017508729e-05 -1.1696358818667774e-05 0 -1.5399151004100923e-05 -1.134187032916515e-05 0 -1.7991579656606383e-05 -1.4064708744630731e-05 0 -1.5399151004100923e-05 -1.134187032916515e-05 0 -1.8823842017508729e-05 -1.1696358818667774e-05 0 -1.7920231520580218e-05 -8.8599339193430911e-06 0 -1.8823842017508729e-05 -1.1696358818667774e-05 0 -1.4039608091099055e-05 -8.1861271054799372e-06 0 -1.7920231520580218e-05 -8.8599339193430911e-06 0 -2.2272256134969855e-05 -1.1939419906558311e-05 0 -1.8823842017508729e-05 -1.1696358818667774e-05 0 -2.3807961925778158e-05 -1.6439638298313652e-05 0 -1.8823842017508729e-05 -1.1696358818667774e-05 0 -2.2272256134969855e-05 -1.1939419906558311e-05 0 -2.7890795836149455e-05 -1.5427524708928565e-05 0 -2.3807961925778158e-05 -1.6439638298313652e-05 0 -2.2272256134969855e-05 -1.1939419906558311e-05 0 -2.4386151280301593e-05 -1.1366981564810102e-05 0 -2.7890795836149455e-05 -1.5427524708928565e-05 0 -2.2272256134969855e-05 -1.1939419906558311e-05 0 -2.4386151280301593e-05 -1.1366981564810102e-05 0 -2.2272256134969855e-05 -1.1939419906558311e-05 0 -2.0596829266677642e-05 -9.3521329947096627e-06 0 -1.7920231520580218e-05 -8.8599339193430911e-06 0 -2.0596829266677642e-05 -9.3521329947096627e-06 0 -2.2272256134969855e-05 -1.1939419906558311e-05 0 -2.0900775832704809e-05 -8.2088719416497489e-06 0 -2.0596829266677642e-05 -9.3521329947096627e-06 0 -1.7404455474023845e-05 -6.8974648545698874e-06 0 -1.7920231520580218e-05 -8.8599339193430911e-06 0 -1.7404455474023845e-05 -6.8974648545698874e-06 0 -2.0596829266677642e-05 -9.3521329947096627e-06 0 -2.0900775832704809e-05 -8.2088719416497489e-06 0 -2.4386151280301593e-05 -1.1366981564810102e-05 0 -2.0596829266677642e-05 -9.3521329947096627e-06 0 -2.0900775832704809e-05 -8.2088719416497489e-06 0 -1.7404455474023841e-05 -6.8974648545698874e-06 0 -1.6688162124854056e-05 -5.6778788660308461e-06 0 -1.384230508952424e-05 -4.4664429701331146e-06 0 -1.7404455474023845e-05 -6.8974648545698874e-06 0 -1.4274547145724726e-05 -6.0815857806065713e-06 0 -1.7920231520580218e-05 -8.8599339193430911e-06 0 -1.4039608091099055e-05 -8.1861271054799355e-06 0 -1.4274547145724726e-05 -6.0815857806065713e-06 0 -1.7920231520580218e-05 -8.8599339193430911e-06 0 -1.4274547145724726e-05 -6.0815857806065713e-06 0 -1.7404455474023845e-05 -6.8974648545698874e-06 0 -4.485388853569542e-06 -9.1304404527558544e-07 0 -3.5899750625003749e-06 -5.1461748949043889e-07 0 -4.8194999311896482e-06 -2.080170273696323e-06 0 -4.0321644327820171e-06 -1.3488300786063809e-06 0 -4.8194999311896482e-06 -2.080170273696323e-06 0 -3.5899750625003749e-06 -5.1461748949043889e-07 0 -4.0321644327820171e-06 -1.3488300786063809e-06 0 -4.9086246436491911e-06 -2.736233984836228e-06 0 -4.8194999311896482e-06 -2.080170273696323e-06 0 -4.485388853569542e-06 -9.1304404527558544e-07 0 -2.8571929748428783e-06 7.2772926799708378e-07 0 -3.5899