<?xml version="1.0"?>
<VTKFile type="UnstructuredGrid" version="0.1" byte_order="LittleEndian">
<UnstructuredGrid>
<Piece NumberOfPoints="3142" NumberOfCells="1054">
<Points>
<DataArray type="Float64" NumberOfComponents="3" format="ascii">
0 0 0 0.049999999999899652 0 0 0.02576622439977887 0.024532886826226379 0 0 0 0 0.02576622439977887 0.024532886826226379 0 0 0.050000000000207989 0 0.049999999999899652 0 0 0.053064897599215843 0.048131547304697528 0 0.02576622439977887 0.024532886826226379 0 0 0.050000000000207989 0 0.02576622439977887 0.024532886826226379 0 0.053064897599215843 0.048131547304697528 0 0 0.10000000000041601 0 0 0.050000000000207989 0 0.044310582753132287 0.101412518374475 0 0 0.15000000000062411 0 0 0.10000000000041601 0 0.044310582753132287 0.101412518374475 0 0.083411279318303222 0.089699755330707398 0 0.044310582753132287 0.101412518374475 0 0.053064897599215843 0.048131547304697528 0 0 0.050000000000207989 0 0.053064897599215843 0.048131547304697528 0 0.044310582753132287 0.101412518374475 0 0.083411279318303222 0.089699755330707398 0 0.065374659239632718 0.1448908038746782 0 0.044310582753132287 0.101412518374475 0 0.083411279318303222 0.089699755330707398 0 0.1053400320299198 0.12877248826361379 0 0.065374659239632718 0.1448908038746782 0 0.083411279318303222 0.089699755330707398 0 0.12372429750337779 0.095814237875728972 0 0.1053400320299198 0.12877248826361379 0 0.14332333627550789 0.14578431753966009 0 0.1053400320299198 0.12877248826361379 0 0.12372429750337779 0.095814237875728972 0 0.14618258501891079 0.062070108745602003 0 0.12372429750337779 0.095814237875728972 0 0.10266856499169109 0.044518360900210059 0 0.083411279318303222 0.089699755330707398 0 0.10266856499169109 0.044518360900210059 0 0.12372429750337779 0.095814237875728972 0 0.099999999999814668 0 0 0.14999999999970359 0 0 0.10266856499169109 0.044518360900210059 0 0.049999999999899652 0 0 0.099999999999814668 0 0 0.053064897599215843 0.048131547304697528 0 0.099999999999814668 0 0 0.10266856499169109 0.044518360900210059 0 0.053064897599215843 0.048131547304697528 0 0.083411279318303222 0.089699755330707398 0 0.053064897599215843 0.048131547304697528 0 0.10266856499169109 0.044518360900210059 0 0 0.25000000000104028 0 0 0.20000000000083221 0 0.044081577119474857 0.2271058242433576 0 0 0.20000000000083221 0 0.038512288486115001 0.1844147282893184 0 0.044081577119474857 0.2271058242433576 0 0.083105206071467416 0.20007701332709979 0 0.044081577119474857 0.2271058242433576 0 0.038512288486115001 0.1844147282893184 0 0 0.15000000000062411 0 0.065374659239632718 0.1448908038746782 0 0.038512288486115001 0.1844147282893184 0 0 0.15000000000062411 0 0.044310582753132287 0.101412518374475 0 0.065374659239632718 0.1448908038746782 0 0.083105206071467416 0.20007701332709979 0 0.038512288486115001 0.1844147282893184 0 0.065374659239632718 0.1448908038746782 0 0 0.20000000000083221 0 0 0.15000000000062411 0 0.038512288486115001 0.1844147282893184 0 0.065374659239632718 0.1448908038746782 0 0.1053400320299198 0.12877248826361379 0 0.106902708054812 0.16453234188234539 0 0.14332333627550789 0.14578431753966009 0 0.106902708054812 0.16453234188234539 0 0.1053400320299198 0.12877248826361379 0 0.083105206071467416 0.20007701332709979 0 0.065374659239632718 0.1448908038746782 0 0.106902708054812 0.16453234188234539 0 0.083105206071467416 0.20007701332709979 0 0.13737030665753211 0.20313708640667491 0 0.095326043202144745 0.24554465089224409 0 0.083105206071467416 0.20007701332709979 0 0.106902708054812 0.16453234188234539 0 0.13737030665753211 0.20313708640667491 0 0.083105206071467416 0.20007701332709979 0 0.095326043202144745 0.24554465089224409 0 0.044081577119474857 0.2271058242433576 0 0.049706944316556423 0.27522722923869108 0 0.044081577119474857 0.2271058242433576 0 0.095326043202144745 0.24554465089224409 0 0.13737030665753211 0.20313708640667491 0 0.14377654328998779 0.2442024734791064 0 0.095326043202144745 0.24554465089224409 0 0.17933913398461551 0.2350063570234002 0 0.14377654328998779 0.2442024734791064 0 0.13737030665753211 0.20313708640667491 0 0.17933913398461551 0.2350063570234002 0 0.13737030665753211 0.20313708640667491 0 0.18124454140915969 0.18790916706335251 0 0.14332333627550789 0.14578431753966009 0 0.18652628422869419 0.14162325200928061 0 0.18124454140915969 0.18790916706335251 0 0.14332333627550789 0.14578431753966009 0 0.13737030665753211 0.20313708640667491 0 0.106902708054812 0.16453234188234539 0 0.14332333627550789 0.14578431753966009 0 0.18124454140915969 0.18790916706335251 0 0.13737030665753211 0.20313708640667491 0 0.14332333627550789 0.14578431753966009 0 0.16141998738593399 0.10404039647458049 0 0.18652628422869419 0.14162325200928061 0 0.2185883431182947 0.18019736283949719 0 0.18652628422869419 0.14162325200928061 0 0.22985637510995899 0.1298347970200906 0 0.2185883431182947 0.18019736283949719 0 0.22985637510995899 0.1298347970200906 0 0.25557216766470708 0.15874861286892261 0 0.2185883431182947 0.18019736283949719 0 0.25557216766470708 0.15874861286892261 0 0.26429849586623999 0.19346700179430079 0 0.2185883431182947 0.18019736283949719 0 0.18124454140915969 0.18790916706335251 0 0.18652628422869419 0.14162325200928061 0 0.17933913398461551 0.2350063570234002 0 0.18124454140915969 0.18790916706335251 0 0.224700362040408 0.22206622194729711 0 0.2185883431182947 0.18019736283949719 0 0.224700362040408 0.22206622194729711 0 0.18124454140915969 0.18790916706335251 0 0.2185883431182947 0.18019736283949719 0 0.26429849586623999 0.19346700179430079 0 0.224700362040408 0.22206622194729711 0 0.25195515620380449 0.25883339815888678 0 0.21049769590865089 0.26857363548218488 0 0.224700362040408 0.22206622194729711 0 0.17933913398461551 0.2350063570234002 0 0.224700362040408 0.22206622194729711 0 0.21049769590865089 0.26857363548218488 0 0.14999999999970359 0 0 0.184418230509967 0.038773194583122873 0 0.14618258501891079 0.062070108745602003 0 0.19922788606653311 0.085920220746880993 0 0.14618258501891079 0.062070108745602003 0 0.184418230509967 0.038773194583122873 0 0.14999999999970359 0 0 0.19999999999955789 0 0 0.184418230509967 0.038773194583122873 0 0.14999999999970359 0 0 0.14618258501891079 0.062070108745602003 0 0.10266856499169109 0.044518360900210059 0 0.14618258501891079 0.062070108745602003 0 0.16141998738593399 0.10404039647458049 0 0.12372429750337779 0.095814237875728972 0 0.14332333627550789 0.14578431753966009 0 0.12372429750337779 0.095814237875728972 0 0.16141998738593399 0.10404039647458049 0 0.19922788606653311 0.085920220746880993 0 0.18652628422869419 0.14162325200928061 0 0.16141998738593399 0.10404039647458049 0 0.19922788606653311 0.085920220746880993 0 0.16141998738593399 0.10404039647458049 0 0.14618258501891079 0.062070108745602003 0 0.19922788606653311 0.085920220746880993 0 0.22985637510995899 0.1298347970200906 0 0.18652628422869419 0.14162325200928061 0 0.19922788606653311 0.085920220746880993 0 0.24218496799700481 0.089025544070598317 0 0.22985637510995899 0.1298347970200906 0 0.27474541102162192 0.11822029332053539 0 0.22985637510995899 0.1298347970200906 0 0.24218496799700481 0.089025544070598317 0 0.19922788606653311 0.085920220746880993 0 0.22668068146512929 0.045875643423131329 0 0.24218496799700481 0.089025544070598317 0 0.27499999999933927 0.060310814194988557 0 0.24218496799700481 0.089025544070598317 0 0.22668068146512929 0.045875643423131329 0 0.19922788606653311 0.085920220746880993 0 0.184418230509967 0.038773194583122873 0 0.22668068146512929 0.045875643423131329 0 0.19999999999955789 0 0 0.22668068146512929 0.045875643423131329 0 0.184418230509967 0.038773194583122873 0 0.19999999999955789 0 0 0.24999999999941211 0 0 0.22668068146512929 0.045875643423131329 0 0.24999999999941211 0 0 0.29999999999926641 0 0 0.27499999999933927 0.060310814194988557 0 0.24999999999941211 0 0 0.27499999999933927 0.060310814194988557 0 0.22668068146512929 0.045875643423131329 0 0.29999999999926641 0 0 0.32541448401678508 0.046215317981507749 0 0.27499999999933927 0.060310814194988557 0 0.29999999999926641 0 0 0.34999999999912063 0 0 0.32541448401678508 0.046215317981507749 0 0.35312867752657662 0.084946736076730367 0 0.32541448401678508 0.046215317981507749 0 0.3615861437013822 0.03582617922508851 0 0.35312867752657662 0.084946736076730367 0 0.3615861437013822 0.03582617922508851 0 0.39591832466117061 0.056982757562006353 0 0.34999999999912063 0 0 0.3615861437013822 0.03582617922508851 0 0.32541448401678508 0.046215317981507749 0 0.34999999999912063 0 0 0.3999999999989749 0 0 0.3615861437013822 0.03582617922508851 0 0.35312867752657662 0.084946736076730367 0 0.39823268594401579 0.1116623613130045 0 0.36246644853392812 0.1399454205365751 0 0.35312867752657662 0.084946736076730367 0 0.36246644853392812 0.1399454205365751 0 0.32215584939770009 0.1218492143506909 0 0.35312867752657662 0.084946736076730367 0 0.3096713403101819 0.085471541595262421 0 0.32541448401678508 0.046215317981507749 0 0.35312867752657662 0.084946736076730367 0 0.32215584939770009 0.1218492143506909 0 0.3096713403101819 0.085471541595262421 0 0.27474541102162192 0.11822029332053539 0 0.3096713403101819 0.085471541595262421 0 0.32215584939770009 0.1218492143506909 0 0.27499999999933927 0.060310814194988557 0 0.32541448401678508 0.046215317981507749 0 0.3096713403101819 0.085471541595262421 0 0.3096713403101819 0.085471541595262421 0 0.27474541102162192 0.11822029332053539 0 0.27499999999933927 0.060310814194988557 0 0.27499999999933927 0.060310814194988557 0 0.27474541102162192 0.11822029332053539 0 0.24218496799700481 0.089025544070598317 0 0.27474541102162192 0.11822029332053539 0 0.25557216766470708 0.15874861286892261 0 0.22985637510995899 0.1298347970200906 0 0.27474541102162192 0.11822029332053539 0 0.29336099386129338 0.15892013001050981 0 0.25557216766470708 0.15874861286892261 0 0.26429849586623999 0.19346700179430079 0 0.25557216766470708 0.15874861286892261 0 0.29336099386129338 0.15892013001050981 
[...]
<PointData Scalars="" Vectors="displacement," Tensors="">
<DataArray type="Float64" Name="displacement" NumberOfComponents="3" format="ascii">
-1.8216119132066466e-09 -7.4930352595638868e-10 0 -2.0927701181552971e-06 1.4392951133711178e-09 0 -9.4785141057437843e-07 2.183855809554103e-07 0 -1.8216119132066466e-09 -7.4930352595638868e-10 0 -9.4785141057437864e-07 2.1838558095541036e-07 0 -1.6724563054687198e-09 5.3502674166742594e-10 0 -2.0927701181552971e-06 1.4392951133711178e-09 0 -2.1271896067457802e-06 8.5656945049896171e-07 0 -9.4785141057437843e-07 2.183855809554103e-07 0 -1.6724563054687198e-09 5.3502674166742594e-10 0 -9.4785141057437853e-07 2.1838558095541038e-07 0 -2.1271896067457802e-06 8.5656945049896171e-07 0 -1.656166916450373e-09 3.252551257333024e-10 0 -1.6724563054687198e-09 5.3502674166742594e-10 0 -1.3555368621214081e-06 1.2443709476450157e-06 0 -8.6922134691633182e-10 9.7458288593427909e-10 0 -1.656166916450373e-09 3.252551257333024e-10 0 -1.3555368621214081e-06 1.2443709476450157e-06 0 -2.9625572103321985e-06 1.8617185043890595e-06 0 -1.3555368621214081e-06 1.2443709476450157e-06 0 -2.1271896067457802e-06 8.5656945049896171e-07 0 -1.6724563054687198e-09 5.3502674166742594e-10 0 -2.1271896067457802e-06 8.5656945049896171e-07 0 -1.3555368621214081e-06 1.2443709476450157e-06 0 -2.9625572103321985e-06 1.8617185043890595e-06 0 -1.5672590864549516e-06 2.0703587664198262e-06 0 -1.3555368621214081e-06 1.2443709476450157e-06 0 -2.9625572103321985e-06 1.8617185043890595e-06 0 -3.0202441357973422e-06 2.6173475457926313e-06 0 -1.5672590864549516e-06 2.0703587664198262e-06 0 -2.9625572103321985e-06 1.8617185043890595e-06 0 -4.5710496477727771e-06 2.3831912467299291e-06 0 -3.0202441357973422e-06 2.6173475457926313e-06 0 -3.6557010696006154e-06 3.0610046911507699e-06 0 -3.0202441357973422e-06 2.6173475457926313e-06 0 -4.5710496477727771e-06 2.3831912467299291e-06 0 -6.5297438422712402e-06 1.8922413365948472e-06 0 -4.5710496477727771e-06 2.3831912467299291e-06 0 -4.5685416573479529e-06 1.3997408072468229e-06 0 -2.9625572103321985e-06 1.8617185043890595e-06 0 -4.5685416573479529e-06 1.3997408072468229e-06 0 -4.5710496477727771e-06 2.3831912467299291e-06 0 -4.6936498502906581e-06 5.2768214217931059e-07 0 -7.8790373997807434e-06 7.0753946693669362e-07 0 -4.5685416573479529e-06 1.3997408072468229e-06 0 -2.0927701181552971e-06 1.4392951133711178e-09 0 -4.6936498502906581e-06 5.2768214217931059e-07 0 -2.1271896067457802e-06 8.5656945049896171e-07 0 -4.6936498502906581e-06 5.2768214217931059e-07 0 -4.5685416573479529e-06 1.3997408072468229e-06 0 -2.1271896067457802e-06 8.5656945049896171e-07 0 -2.9625572103321985e-06 1.8617185043890595e-06 0 -2.1271896067457802e-06 8.5656945049896171e-07 0 -4.5685416573479529e-06 1.3997408072468229e-06 0 -2.4746717325653524e-11 8.534386200738615e-10 0 -5.4375578088074202e-10 6.9084577294672725e-10 0 -2.1829446659912094e-07 1.7390797203985209e-06 0 -5.4375578088074202e-10 6.9084577294672725e-10 0 -5.4955494618284089e-07 1.4523228652529298e-06 0 -2.1829446659912094e-07 1.7390797203985209e-06 0 -9.7126576878006064e-07 2.6981005475302808e-06 0 -2.1829446659912094e-07 1.7390797203985209e-06 0 -5.4955494618284089e-07 1.4523228652529298e-06 0 -8.6922134691633182e-10 9.7458288593427909e-10 0 -1.5672590864549516e-06 2.0703587664198262e-06 0 -5.4955494618284089e-07 1.4523228652529298e-06 0 -8.6922134691633182e-10 9.7458288593427909e-10 0 -1.3555368621214081e-06 1.2443709476450157e-06 0 -1.5672590864549516e-06 2.0703587664198262e-06 0 -9.7126576878006064e-07 2.6981005475302808e-06 0 -5.4955494618284089e-07 1.4523228652529298e-06 0 -1.5672590864549516e-06 2.0703587664198262e-06 0 -5.4375578088074202e-10 6.9084577294672725e-10 0 -8.6922134691633182e-10 9.7458288593427909e-10 0 -5.4955494618284089e-07 1.4523228652529298e-06 0 -1.5672590864549516e-06 2.0703587664198262e-06 0 -3.0202441357973426e-06 2.6173475457926313e-06 0 -2.1605333603350716e-06 2.9350403361420047e-06 0 -3.6557010696006154e-06 3.0610046911507699e-06 0 -2.1605333603350716e-06 2.9350403361420047e-06 0 -3.0202441357973422e-06 2.6173475457926313e-06 0 -9.7126576878006064e-07 2.6981005475302808e-06 0 -1.5672590864549516e-06 2.0703587664198262e-06 0 -2.1605333603350716e-06 2.9350403361420047e-06 0 -9.7126576878006064e-07 2.6981005475302808e-06 0 -1.4771901422255124e-06 3.4157191340024618e-06 0 -6.5742332968807678e-08 3.0077811643294849e-06 0 -9.7126576878006064e-07 2.6981005475302808e-06 0 -2.1605333603350716e-06 2.9350403361420047e-06 0 -1.4771901422255124e-06 3.4157191340024618e-06 0 -9.7126576878006064e-07 2.6981005475302808e-06 0 -6.5742332968807678e-08 3.0077811643294849e-06 0 -2.1829446659912094e-07 1.7390797203985209e-06 0 2.5856799969320929e-07 1.8994122305499657e-06 0 -2.1829446659912094e-07 1.7390797203985209e-06 0 -6.5742332968807678e-08 3.0077811643294849e-06 0 -1.4771901422255124e-06 3.4157191340024618e-06 0 -1.6752587182417224e-07 3.4549661339509485e-06 0 -6.5742332968807678e-08 3.0077811643294849e-06 0 -5.3942632786848731e-07 3.4246871663978516e-06 0 -1.6752587182417203e-07 3.4549661339509485e-06 0 -1.4771901422255124e-06 3.4157191340024618e-06 0 -5.3942632786848731e-07 3.4246871663978516e-06 0 -1.4771901422255124e-06 3.4157191340024618e-06 0 -2.7175339051806212e-06 3.2488381346434661e-06 0 -3.6557010696006154e-06 3.0610046911507699e-06 0 -5.0768684851179734e-06 2.8028596234166589e-06 0 -2.7175339051806212e-06 3.2488381346434661e-06 0 -3.6557010696006154e-06 3.0610046911507699e-06 0 -1.4771901422255124e-06 3.4157191340024614e-06 0 -2.1605333603350716e-06 2.9350403361420047e-06 0 -3.6557010696006154e-06 3.0610046911507699e-06 0 -2.7175339051806212e-06 3.2488381346434661e-06 0 -1.4771901422255124e-06 3.4157191340024618e-06 0 -3.6557010696006154e-06 3.0610046911507699e-06 0 -5.8433327185750726e-06 2.5167812225602217e-06 0 -5.0768684851179734e-06 2.8028596234166594e-06 0 -3.7509236123889618e-06 2.632206027508503e-06 0 -5.0768684851179734e-06 2.8028596234166594e-06 0 -7.1754174433040321e-06 1.8863879798549569e-06 0 -3.7509236123889618e-06 2.632206027508503e-06 0 -7.1754174433040321e-06 1.8863879798549569e-06 0 -5.9625181194328655e-06 1.3766863460791748e-06 0 -3.7509236123889618e-06 2.632206027508503e-06 0 -5.9625181194328655e-06 1.3766863460791746e-06 0 -3.5714265728457663e-06 1.3793737988900609e-06 0 -3.7509236123889618e-06 2.632206027508503e-06 0 -2.7175339051806212e-06 3.2488381346434661e-06 0 -5.0768684851179734e-06 2.8028596234166594e-06 0 -5.3942632786848731e-07 3.4246871663978516e-06 0 -2.7175339051806212e-06 3.2488381346434661e-06 0 -1.3637816143398406e-06 2.7618846621547642e-06 0 -3.7509236123889618e-06 2.632206027508503e-06 0 -1.3637816143398406e-06 2.7618846621547642e-06 0 -2.7175339051806212e-06 3.2488381346434661e-06 0 -3.7509236123889618e-06 2.632206027508503e-06 0 -3.5714265728457663e-06 1.3793737988900609e-06 0 -1.3637816143398406e-06 2.7618846621547642e-06 0 8.0701259844700726e-07 2.0687989872367125e-06 0 1.0990026469004198e-06 3.0876938048135134e-06 0 -1.3637816143398406e-06 2.7618846621547642e-06 0 -5.3942632786848731e-07 3.4246871663978516e-06 0 -1.3637816143398406e-06 2.7618846621547642e-06 0 1.0990026469004198e-06 3.0876938048135134e-06 0 -7.8790373997807434e-06 7.0753946693669362e-07 0 -9.3457739923107739e-06 1.2234093233451298e-06 0 -6.5297438422712402e-06 1.8922413365948472e-06 0 -8.3200400904283932e-06 1.915708253078505e-06 0 -6.5297438422712394e-06 1.8922413365948472e-06 0 -9.3457739923107756e-06 1.2234093233451296e-06 0 -7.8790373997807434e-06 7.0753946693669362e-07 0 -1.1650225346580246e-05 5.6153159499841151e-08 0 -9.3457739923107756e-06 1.2234093233451296e-06 0 -7.8790373997807434e-06 7.0753946693669362e-07 0 -6.5297438422712411e-06 1.8922413365948474e-06 0 -4.5685416573479529e-06 1.3997408072468229e-06 0 -6.5297438422712402e-06 1.8922413365948472e-06 0 -5.8433327185750726e-06 2.5167812225602217e-06 0 -4.5710496477727771e-06 2.3831912467299291e-06 0 -3.6557010696006154e-06 3.0610046911507699e-06 0 -4.5710496477727771e-06 2.3831912467299291e-06 0 -5.8433327185750726e-06 2.5167812225602217e-06 0 -8.3200400904283932e-06 1.915708253078505e-06 0 -5.0768684851179734e-06 2.8028596234166594e-06 0 -5.8433327185750726e-06 2.5167812225602217e-06 0 -8.3200400904283932e-06 1.915708253078505e-06 0 -5.8433327185750726e-06 2.5167812225602217e-06 0 -6.5297438422712402e-06 1.8922413365948472e-06 0 -8.3200400904283932e-06 1.915708253078505e-06 0 -7.1754174433040321e-06 1.8863879798549569e-06 0 -5.0768684851179734e-06 2.8028596234166594e-06 0 -8.3200400904283932e-06 1.915708253078505e-06 0 -1.0304794750210598e-05 8.9832318457534731e-07 0 -7.1754174433040321e-06 1.8863879798549569e-06 0 -9.7315505744671723e-06 1.2276765978191968e-07 0 -7.1754174433040321e-06 1.8863879798549569e-06 0 -1.0304794750210598e-05 8.983231845753472e-07 0 -8.3200400904283932e-06 1.915708253078505e-06 0 -1.1800456655916161e-05 5.1677751372233723e-07 0 -1.0304794750210598e-05 8.983231845753472e-07 0 -1.4254351326002549e-05 -9.9454418750375003e-07 0 -1.0304794750210598e-05 8.983231845753472e-07 0 -1.1800456655916161e-05 5.1677751372233723e-07 0 -8.3200400904283932e-06 1.915708253078505e-06 0 -9.3457739923107756e-06 1.2234093233451296e-06 0 -1.1800456655916161e-05 5.1677751372233723e-07 0 -1.1650225346580245e-05 5.6153159499841369e-08 0 -1.1800456655916161e-05 5.1677751372233723e-07 0 -9.3457739923107756e-06 1.2234093233451296e-06 0 -1.1650225346580245e-05 5.6153159499841369e-08 0 -1.5929765822194897e-05 -1.4928656635730976e-06 0 -1.1800456655916161e-05 5.1677751372233723e-07 0 -1.5929765822194897e-05 -1.4928656635730976e-06 0 -2.0472392857714126e-05 -4.1077621427782259e-06 0 -1.4254351326002549e-05 -9.9454418750375003e-07 0 -1.5929765822194897e-05 -1.4928656635730976e-06 0 -1.4254351326002549e-05 -9.9454418750375003e-07 0 -1.1800456655916161e-05 5.1677751372233723e-07 0 -2.0472392857714126e-05 -4.1077621427782259e-06 0 -1.9126592005538544e-05 -4.4006734638492505e-06 0 -1.4254351326002549e-05 -9.9454418750375003e-07 0 -2.0472392857714126e-05 -4.1077621427782259e-06 0 -2.5722284868677996e-05 -8.0158856489911753e-06 0 -1.9126592005538544e-05 -4.4006734638492505e-06 0 -1.6939735721239924e-05 -5.7249284198540192e-06 0 -1.9126592005538544e-05 -4.4006734638492505e-06 0 -2.3214208485969016e-05 -7.9108659370434896e-06 0 -1.6939735721239924e-05 -5.7249284198540192e-06 0 -2.3214208485969016e-05 -7.9108659370434896e-06 0 -2.3450470201036748e-05 -1.1127460988745885e-05 0 -2.5722284868677996e-05 -8.0158856489911753e-06 0 -2.3214208485969016e-05 -7.9108659370434896e-06 0 -1.9126592005538544e-05 -4.4006734638492505e-06 0 -2.5722284868677996e-05 -8.0158856489911753e-06 0 -3.1500874331176592e-05 -1.3427683643857657e-05 0 -2.3214208485969016e-05 -7.9108659370434896e-06 0 -1.6939735721239924e-05 -5.7249284198540192e-06 0 -1.6025743590769914e-05 -9.9668796265996178e-06 0 -1.0883117121259782e-05 -5.5330714273392208e-06 0 -1.6939735721239924e-05 -5.7249284198540192e-06 0 -1.0883117121259782e-05 -5.5330714273392208e-06 0 -1.1329605626651086e-05 -2.538581290271224e-06 0 -1.6939735721239924e-05 -5.7249284198540192e-06 0 -1.4283095707518081e-05 -2.413605295685881e-06 0 -1.9126592005538544e-05 -4.4006734638492505e-06 0 -1.6939735721239924e-05 -5.7249284198540192e-06 0 -1.1329605626651086e-05 -2.538581290271224e-06 0 -1.4283095707518081e-05 -2.413605295685881e-06 0 -9.7315505744671723e-06 1.2276765978191968e-07 0 -1.4283095707518083e-05 -2.413605295685881e-06 0 -1.1329605626651086e-05 -2.538581290271224e-06 0 -1.4254351326002549e-05 -9.9454418750375003e-07 0 -1.9126592005538544e-05 -4.4006734638492505e-06 0 -1.4283095707518081e-05 -2.413605295685881e-06 0 -1.4283095707518081e-05 -2.413605295685881e-06 0 -9.7315505744671723e-06 1.2276765978191963e-07 0 -1.4254351326002549e-05 -9.9454418750375003e-07 0 -1.4254351326002549e-05 -9.9454418750375003e-07 0 -9.7315505744671723e-06 1.2276765978191968e-07 0 -1.0304794750210598e-05 8.983231845753472e-07 0 -9.7315505744671723e-06 1.2276765978191968e-07 0 -5.9625181194328655e-06 1.3766863460791748e-06 0 -7.1754174433040321e-06 1.8863879798549569e-06 0 -9.7315505744671723e-06 1.2276765978191968e-07 0 -6.9008878540272114e-06 -2.8434054501175336e-07 0 -5.9625181194328655e-06 1.3766863460791748e-06 0 -3.5714265728457663e-06 1.3793737988900609e-06 0 -5.9625181194328646e-06 1.376686346079175e-06 0 -6.9008878540272114e-06 -2.8434054501175336e-07 0 -7.4582963469513462e-06 -2.5926162680123134e-06 0 -3.7402516226546888e-06 -9.6844476651018709e-07 0 -6.9008878540272114e-06 -2.8434054501175336e-07 0 -3.5714265728457663e-06 1.3793737988900609e-06 0 -6.9008878540272114e-06 -2.8434054501175336e-07 0 -3.7402516226546888e-06 -9.6844476651018709e-07 0 -9.7315505744671723e-06 1.2276765978191968e-07 0 -1.1329605626651086e-05 -2.538581290271224e-06 0 -6.9008878540272114e-06 -2.8434054501175336e-07 0 -9.8152049821632975e-07 9.5144281876170127e-07 0 8.0701259844700726e-07 2.0687989872367125e-06 0 -1.3637816143398406e-06 2.7618846621547642e-06 0 -3.5714265728457663e-06 1.3793737988900609e-06 0 -9.8152049821632975e-07 9.5144281876170127e-07 0 -1.3637816143398406e-06 2.7618846621547642e-06 0 -3.5714265728457663e-06 1.3793737988900609e-06 0 -3.7402516226546883e-06 -9.6844476651018731e-07 0 -9.8152049821632975e-07 9.5144281876170127e-07 0 -1.9895693341866818e-07 -2.2090118918594792e-06 0 1.9836060283383526e-06 6.3186945788595029e-07 0 -9.8152049821632975e-07 9.5144281876170127e-07 0 -1.9895693341866818e-07 -2.2090118918594792e-06 0 -9.8152049821633017e-07 9.5144281876170105e-07 0 -3.7402516226546888e-06 -9.6844476651018709e-07 0 -1.9895693341866818e-07 -2.2090118918594792e-06 0 -3.7402516226546888e-06 -9.6844476651018709e-07 0 -5.2725195338057549e-06 -4.3075206332151307e-06 0 -1.9895693341866818e-07 -2.2090118918594792e-06 0 -5.2725195338057549e-06 -4.3075206332151307e-06 0 -1.9114888494015317e-06 -6.7242916155823088e-06 0 -1.9895693341866818e-07 -2.2090118918594792e-06 0 -1.9114888494015317e-06 -6.7242916155823088e-06 0 3.0278075071037893e-06 -5.1296949140787734e-06 0 -7.4582963469513462e-06 -2.5926162680123134e-06 0 -6.9008878540272114e-06 -2.8434054501175336e-07 0 -1.1329605626651086e-05 -2.538581290271224e-06 0 -7.4582963469513462e-06 -2.5926162680123134e-06 0 -1.1329605626651084e-05 -2.538581290271224e-06 0 -1.0883117121259782e-05 -5.5330714273392208e-06 0 -7.4582963469513462e-06 -2.5926162680123134e-06 0 -5.2725195338057549e-06 -4.3075206332151307e-06 0 -3.7402516226546888e-06 -9.6844476651018709e-07 0 -8.5126381070136862e-06 -8.7359040028005736e-06 0 -5.2725195338057549e-06 -4.3075206332151307e-06 0 -1.0883117121259782e-05 -5.5330714273392208e-06 0 -7.4582963469513462e-06 -2.5926162680123134e-06 0 -1.0883117121259782e-05 -5.5330714273392208e-06 0 -5.2725195338057549e-06 -4.3075206332151307e-06 0 -8.5126381070136862e-06 -8.7359040028005736e-06 0 -1.0883117121259782e-05 -5.5330714273392208e-06 0 -1.6025743590769914e-05 -9.9668796265996178e-06 0 -8.5126381070136862e-06 -8.7359040028005736e-06 0 -1.3514117091623591e-05 -1.5456375450320047e-05 0 -4.423709736102808e-06 -1.1886314612678504e-05 0 -8.5126381070136862e-06 -8.7359040028005736e-06 0 -1.6025743590769914e-05 -9.9668796265996178e-06 0 -1.3514117091623591e-05 -1.5456375450320047e-05 0 2.003463708631458e-06 -9.9204486168342107e-06 0 3.0278075071037893e-06 -5.1296949140787742e-06 0 -1.9114888494015317e-06 -6.7242916155823088e-06 0 -8.5126381070136862e-06 -8.7359040028005736e-06 0 -1.9114888494015317e-06 -6.724291615582308e-06 0 -5.2725195338057549e-06 -4.3075206332151307e-06 0 -8.5126381070136862e-06 -8.7359040028005736e-06 0 -4.423709736102808e-06 -1.1886314612678504e-05 0 -1.9114888494015317e-06 -6.7242916155823088e-06 0 2.003463708631458e-06 -9.9204486168342107e-06 0 -1.9114888494015317e-06 -6.7242916155823088e-06 0 -4.423709736102808e-06 -1.1886314612678504e-05 0 2.003463708631458e-06 -9.9204486168342107e-06 0 -4.423709736102808e-06 -1.1886314612678504e-05 0 -3.649522818783889e-07 -1.6195908046403376e-05 0 -6.8978848180974184e-06 -1.9400564004239495e-05 0 -3.6495228187838869e-07 -1.6195908046403376e-05 0 -4.423709736102808e-06 -1.1886314612678504e-05 0 -6.8978848180974184e-06 -1.9400564004239495e-05 0 -1.0874922555301842e-05 -2.9321785379195088e-05 0 -3.8922624356349488e-06 -2.5726345881580268e-05 0 -6.8978848180974184e-06 -1.9400564004239495e-05 0 -3.8922624356349488e-06 -2.5726345881580268e-05 0 -3.649522818783889e-07 -1.6195908046403376e-05 0 3.2294785359038459e-06 -2.121621743591222e-05 0 -3.649522818783889e-07 -1.6195908046403376e-05 0 -3.8922624356349488e-06 -2.5726345881580268e-05 0 -6.8978848180974184e-06 -1.9400564004239495e-05 0 -1.3514117091623591e-05 -1.5456375450320047e-05 0 -1.4848772191823283e-05 -2.3020838572346192e-05 0 -6.8978848180974184e-06 -1.9400564004239495e-05 0 -4.423709736102808e-06 -1.1886314612678504e-05 0 -1.3514117091623591e-05 -1.5456375450320047e-05 0 -6.8978848180974184e-06 -1.9400564004239495e-05 0 -1.4848772191823283e-05 -2.3020838572346192e-05 0 -1.0874922555301842e-05 -2.9321785379195088e-05 0 -1.3514117091623591e-05 -1.5456375450320047e-05 0 -2.3206633628271377e-05 -2.3119098883269896e-05 0 -1.4848772191823283e-05 -2.3020838572346192e-05 0 -1.9807066887776553e-05 -2.9124951325408468e-05 0 -1.4848772191823283e-05 -2.3020838572346192e-05 0 -2.3206633628271377e-05 -2.3119098883269896e-05 0 -2.2906336046052087e-05 -1.6167206876376333e-05 0 -2.3206633628271377e-05 -2.3119098883269896e-05 0 -1.3514117091623591e-05 -1.5456375450320047e-05 0 -2.2906336046052087e-05 -1.6167206876376333e-05 0 -3.1674331721353194e-05 -2.2965452422773281e-05 0 -2.3206633628271377e-05 -2.3119098883269896e-05 0 -3.2951437333732423e-05 -3.377781008959031e-05 0 -2.3206633628271377e-05 -2.3119098883269896e-05 0 -3.1674331721353194e-05 -2.2965452422773281e-05 0 -4.3564791845678544e-05 -3.055457417559904e-05 0 -3.2951437333732423e-05 -3.377781008959031e-05 0 -3.1674331721353194e-05 -2.2965452422773281e-05 0 -3.754850773566509e-05 -2.09581331343025e-05 0 -4.3564791845678544e-05 -3.055457417559904e-05 0 -3.1674331721353194e-05 -2.2965452422773281e-05 0 -3.754850773566509e-05 -2.09581331343025e-05 0 -3.1674331721353194e-05 -2.2965452422773281e-05 0 -2.9402583490049698e-05 -1.6708141569135239e-05 0 -2.2906336046052087e-05 -1.6167206876376333e-05 0 -2.9402583490049698e-05 -1.6708141569135239e-05 0 -3.1674331721353194e-05 -2.2965452422773281e-05 0 -3.1500874331176592e-05 -1.3427683643857657e-05 0 -2.9402583490049698e-05 -1.6708141569135239e-05 0 -2.3450470201036748e-05 -1.1127460988745885e-05 0 -2.2906336046052087e-05 -1.6167206876376333e-05 0 -2.3450470201036748e-05 -1.1127460988745885e-05 0 -2.9402583490049698e-05 -1.6708141569135239e-05 0 -3.1500874331176592e-05 -1.3427683643857657e-05 0 -3.754850773566509e-05 -2.09581331343025e-05 0 -2.9402583490049698e-05 -1.6708141569135239e-05 0 -3.1500874331176592e-05 -1.3427683643857657e-05 0 -2.3450470201036744e-05 -1.1127460988745885e-05 0 -2.3214208485969016e-05 -7.9108659370434896e-06 0 -1.6939735721239924e-05 -5.7249284198540192e-06 0 -2.3450470201036748e-05 -1.1127460988745885e-05 0 -1.6025743590769914e-05 -9.9668796265996178e-06 0 -2.2906336046052087e-05 -1.6167206876376333e-05 0 -1.3514117091623589e-05 -1.5456375450320043e-05 0 -1.6025743590769914e-05 -9.9668796265996178e-06 0 -2.2906336046052087e-05 -1.6167206876376333e-05 0 -1.6025743590769914e-05 -9.9668796265996178e-06 0 -2.3450470201036748e-05 -1.1127460988745885e-05 0 1.1837533028329891e-05 -3.1335972282126227e-06 0 1.0991563911671726e-05 -1.5668877144209102e-06 0 9.9076739332348833e-06 -4.8189956036052323e-06 0 9.2510334682499525e-06 -2.7345327018251322e-06 0 9.9076739332348833e-06 -4.8189956036052323e-06 0 1.0991563911671726e-05 -1.5668877144209102e-06 0 9.2510334682499525e-06 -2.7345327018251322e-06 0 7.8617242172673208e-06 -5.3255599454173782e-06 0 9.9076739332348833e-06 -4.8189956036052323e-06 0 1.1837533028329891e-05 -3.1335972282126227e-06 0 1.3247527355336253e-05 3.1346979624603016e-07 0 1.0991563911671726e-05 -1.5668877144209102e-06 0 1.5584861573814285e-05 2.7666075185638633e-06 0 1.32475273