<?xml version="1.0"?>
<VTKFile type="UnstructuredGrid" version="0.1" byte_order="LittleEndian">
<UnstructuredGrid>
<Piece NumberOfPoints="3142" NumberOfCells="1054">
<Points>
<DataArray type="Float64" NumberOfComponents="3" format="ascii">
0 0 0 0.049999999999899652 0 0 0.02576622439977887 0.024532886826226379 0 0 0 0 0.02576622439977887 0.024532886826226379 0 0 0.050000000000207989 0 0.049999999999899652 0 0 0.053064897599215843 0.048131547304697528 0 0.02576622439977887 0.024532886826226379 0 0 0.050000000000207989 0 0.02576622439977887 0.024532886826226379 0 0.053064897599215843 0.048131547304697528 0 0 0.10000000000041601 0 0 0.050000000000207989 0 0.044310582753132287 0.101412518374475 0 0 0.15000000000062411 0 0 0.10000000000041601 0 0.044310582753132287 0.101412518374475 0 0.083411279318303222 0.089699755330707398 0 0.044310582753132287 0.101412518374475 0 0.053064897599215843 0.048131547304697528 0 0 0.050000000000207989 0 0.053064897599215843 0.048131547304697528 0 0.044310582753132287 0.101412518374475 0 0.083411279318303222 0.089699755330707398 0 0.065374659239632718 0.1448908038746782 0 0.044310582753132287 0.101412518374475 0 0.083411279318303222 0.089699755330707398 0 0.1053400320299198 0.12877248826361379 0 0.065374659239632718 0.1448908038746782 0 0.083411279318303222 0.089699755330707398 0 0.12372429750337779 0.095814237875728972 0 0.1053400320299198 0.12877248826361379 0 0.14332333627550789 0.14578431753966009 0 0.1053400320299198 0.12877248826361379 0 0.12372429750337779 0.095814237875728972 0 0.14618258501891079 0.062070108745602003 0 0.12372429750337779 0.095814237875728972 0 0.10266856499169109 0.044518360900210059 0 0.083411279318303222 0.089699755330707398 0 0.10266856499169109 0.044518360900210059 0 0.12372429750337779 0.095814237875728972 0 0.099999999999814668 0 0 0.14999999999970359 0 0 0.10266856499169109 0.044518360900210059 0 0.049999999999899652 0 0 0.099999999999814668 0 0 0.053064897599215843 0.048131547304697528 0 0.099999999999814668 0 0 0.10266856499169109 0.044518360900210059 0 0.053064897599215843 0.048131547304697528 0 0.083411279318303222 0.089699755330707398 0 0.053064897599215843 0.048131547304697528 0 0.10266856499169109 0.044518360900210059 0 0 0.25000000000104028 0 0 0.20000000000083221 0 0.044081577119474857 0.2271058242433576 0 0 0.20000000000083221 0 0.038512288486115001 0.1844147282893184 0 0.044081577119474857 0.2271058242433576 0 0.083105206071467416 0.20007701332709979 0 0.044081577119474857 0.2271058242433576 0 0.038512288486115001 0.1844147282893184 0 0 0.15000000000062411 0 0.065374659239632718 0.1448908038746782 0 0.038512288486115001 0.1844147282893184 0 0 0.15000000000062411 0 0.044310582753132287 0.101412518374475 0 0.065374659239632718 0.1448908038746782 0 0.083105206071467416 0.20007701332709979 0 0.038512288486115001 0.1844147282893184 0 0.065374659239632718 0.1448908038746782 0 0 0.20000000000083221 0 0 0.15000000000062411 0 0.038512288486115001 0.1844147282893184 0 0.065374659239632718 0.1448908038746782 0 0.1053400320299198 0.12877248826361379 0 0.106902708054812 0.16453234188234539 0 0.14332333627550789 0.14578431753966009 0 0.106902708054812 0.16453234188234539 0 0.1053400320299198 0.12877248826361379 0 0.083105206071467416 0.20007701332709979 0 0.065374659239632718 0.1448908038746782 0 0.106902708054812 0.16453234188234539 0 0.083105206071467416 0.20007701332709979 0 0.13737030665753211 0.20313708640667491 0 0.095326043202144745 0.24554465089224409 0 0.083105206071467416 0.20007701332709979 0 0.106902708054812 0.16453234188234539 0 0.13737030665753211 0.20313708640667491 0 0.083105206071467416 0.20007701332709979 0 0.095326043202144745 0.24554465089224409 0 0.044081577119474857 0.2271058242433576 0 0.049706944316556423 0.27522722923869108 0 0.044081577119474857 0.2271058242433576 0 0.095326043202144745 0.24554465089224409 0 0.13737030665753211 0.20313708640667491 0 0.14377654328998779 0.2442024734791064 0 0.095326043202144745 0.24554465089224409 0 0.17933913398461551 0.2350063570234002 0 0.14377654328998779 0.2442024734791064 0 0.13737030665753211 0.20313708640667491 0 0.17933913398461551 0.2350063570234002 0 0.13737030665753211 0.20313708640667491 0 0.18124454140915969 0.18790916706335251 0 0.14332333627550789 0.14578431753966009 0 0.18652628422869419 0.14162325200928061 0 0.18124454140915969 0.18790916706335251 0 0.14332333627550789 0.14578431753966009 0 0.13737030665753211 0.20313708640667491 0 0.106902708054812 0.16453234188234539 0 0.14332333627550789 0.14578431753966009 0 0.18124454140915969 0.18790916706335251 0 0.13737030665753211 0.20313708640667491 0 0.14332333627550789 0.14578431753966009 0 0.16141998738593399 0.10404039647458049 0 0.18652628422869419 0.14162325200928061 0 0.2185883431182947 0.18019736283949719 0 0.18652628422869419 0.14162325200928061 0 0.22985637510995899 0.1298347970200906 0 0.2185883431182947 0.18019736283949719 0 0.22985637510995899 0.1298347970200906 0 0.25557216766470708 0.15874861286892261 0 0.2185883431182947 0.18019736283949719 0 0.25557216766470708 0.15874861286892261 0 0.26429849586623999 0.19346700179430079 0 0.2185883431182947 0.18019736283949719 0 0.18124454140915969 0.18790916706335251 0 0.18652628422869419 0.14162325200928061 0 0.17933913398461551 0.2350063570234002 0 0.18124454140915969 0.18790916706335251 0 0.224700362040408 0.22206622194729711 0 0.2185883431182947 0.18019736283949719 0 0.224700362040408 0.22206622194729711 0 0.18124454140915969 0.18790916706335251 0 0.2185883431182947 0.18019736283949719 0 0.26429849586623999 0.19346700179430079 0 0.224700362040408 0.22206622194729711 0 0.25195515620380449 0.25883339815888678 0 0.21049769590865089 0.26857363548218488 0 0.224700362040408 0.22206622194729711 0 0.17933913398461551 0.2350063570234002 0 0.224700362040408 0.22206622194729711 0 0.21049769590865089 0.26857363548218488 0 0.14999999999970359 0 0 0.184418230509967 0.038773194583122873 0 0.14618258501891079 0.062070108745602003 0 0.19922788606653311 0.085920220746880993 0 0.14618258501891079 0.062070108745602003 0 0.184418230509967 0.038773194583122873 0 0.14999999999970359 0 0 0.19999999999955789 0 0 0.184418230509967 0.038773194583122873 0 0.14999999999970359 0 0 0.14618258501891079 0.062070108745602003 0 0.10266856499169109 0.044518360900210059 0 0.14618258501891079 0.062070108745602003 0 0.16141998738593399 0.10404039647458049 0 0.12372429750337779 0.095814237875728972 0 0.14332333627550789 0.14578431753966009 0 0.12372429750337779 0.095814237875728972 0 0.16141998738593399 0.10404039647458049 0 0.19922788606653311 0.085920220746880993 0 0.18652628422869419 0.14162325200928061 0 0.16141998738593399 0.10404039647458049 0 0.19922788606653311 0.085920220746880993 0 0.16141998738593399 0.10404039647458049 0 0.14618258501891079 0.062070108745602003 0 0.19922788606653311 0.085920220746880993 0 0.22985637510995899 0.1298347970200906 0 0.18652628422869419 0.14162325200928061 0 0.19922788606653311 0.085920220746880993 0 0.24218496799700481 0.089025544070598317 0 0.22985637510995899 0.1298347970200906 0 0.27474541102162192 0.11822029332053539 0 0.22985637510995899 0.1298347970200906 0 0.24218496799700481 0.089025544070598317 0 0.19922788606653311 0.085920220746880993 0 0.22668068146512929 0.045875643423131329 0 0.24218496799700481 0.089025544070598317 0 0.27499999999933927 0.060310814194988557 0 0.24218496799700481 0.089025544070598317 0 0.22668068146512929 0.045875643423131329 0 0.19922788606653311 0.085920220746880993 0 0.184418230509967 0.038773194583122873 0 0.22668068146512929 0.045875643423131329 0 0.19999999999955789 0 0 0.22668068146512929 0.045875643423131329 0 0.184418230509967 0.038773194583122873 0 0.19999999999955789 0 0 0.24999999999941211 0 0 0.22668068146512929 0.045875643423131329 0 0.24999999999941211 0 0 0.29999999999926641 0 0 0.27499999999933927 0.060310814194988557 0 0.24999999999941211 0 0 0.27499999999933927 0.060310814194988557 0 0.22668068146512929 0.045875643423131329 0 0.29999999999926641 0 0 0.32541448401678508 0.046215317981507749 0 0.27499999999933927 0.060310814194988557 0 0.29999999999926641 0 0 0.34999999999912063 0 0 0.32541448401678508 0.046215317981507749 0 0.35312867752657662 0.084946736076730367 0 0.32541448401678508 0.046215317981507749 0 0.3615861437013822 0.03582617922508851 0 0.35312867752657662 0.084946736076730367 0 0.3615861437013822 0.03582617922508851 0 0.39591832466117061 0.056982757562006353 0 0.34999999999912063 0 0 0.3615861437013822 0.03582617922508851 0 0.32541448401678508 0.046215317981507749 0 0.34999999999912063 0 0 0.3999999999989749 0 0 0.3615861437013822 0.03582617922508851 0 0.35312867752657662 0.084946736076730367 0 0.39823268594401579 0.1116623613130045 0 0.36246644853392812 0.1399454205365751 0 0.35312867752657662 0.084946736076730367 0 0.36246644853392812 0.1399454205365751 0 0.32215584939770009 0.1218492143506909 0 0.35312867752657662 0.084946736076730367 0 0.3096713403101819 0.085471541595262421 0 0.32541448401678508 0.046215317981507749 0 0.35312867752657662 0.084946736076730367 0 0.32215584939770009 0.1218492143506909 0 0.3096713403101819 0.085471541595262421 0 0.27474541102162192 0.11822029332053539 0 0.3096713403101819 0.085471541595262421 0 0.32215584939770009 0.1218492143506909 0 0.27499999999933927 0.060310814194988557 0 0.32541448401678508 0.046215317981507749 0 0.3096713403101819 0.085471541595262421 0 0.3096713403101819 0.085471541595262421 0 0.27474541102162192 0.11822029332053539 0 0.27499999999933927 0.060310814194988557 0 0.27499999999933927 0.060310814194988557 0 0.27474541102162192 0.11822029332053539 0 0.24218496799700481 0.089025544070598317 0 0.27474541102162192 0.11822029332053539 0 0.25557216766470708 0.15874861286892261 0 0.22985637510995899 0.1298347970200906 0 0.27474541102162192 0.11822029332053539 0 0.29336099386129338 0.15892013001050981 0 0.25557216766470708 0.15874861286892261 0 0.26429849586623999 0.19346700179430079 0 0.25557216766470708 0.15874861286892261 0 0.29336099386129338 0.15892013001050981 
[...]
<PointData Scalars="" Vectors="displacement," Tensors="">
<DataArray type="Float64" Name="displacement" NumberOfComponents="3" format="ascii">
-7.8530706420248021e-09 -3.3594292505887036e-09 0 -6.6649437746546007e-06 -3.7593893329804243e-06 0 -2.7685139259066648e-06 -1.2694928154751247e-06 0 -7.8530706420248021e-09 -3.3594292505887036e-09 0 -2.7685139259066652e-06 -1.2694928154751249e-06 0 -4.0394721243497618e-09 2.9511160340863793e-10 0 -6.6649437746546007e-06 -3.7593893329804243e-06 0 -5.3949234546660571e-06 -2.0542903349037544e-06 0 -2.7685139259066648e-06 -1.2694928154751247e-06 0 -4.0394721243497618e-09 2.9511160340863793e-10 0 -2.7685139259066648e-06 -1.2694928154751247e-06 0 -5.3949234546660571e-06 -2.0542903349037544e-06 0 -4.4949574462649275e-09 -5.9894074998502217e-10 0 -4.0394721243497618e-09 2.9511160340863793e-10 0 -3.7564409069606096e-06 -7.7816041442251231e-07 0 -3.3845809333300696e-09 3.5135721329565263e-10 0 -4.4949574462649275e-09 -5.9894074998502217e-10 0 -3.7564409069606096e-06 -7.7816041442251231e-07 0 -7.6773299128694669e-06 -2.0464235386934735e-06 0 -3.7564409069606096e-06 -7.7816041442251231e-07 0 -5.3949234546660571e-06 -2.0542903349037544e-06 0 -4.0394721243497618e-09 2.9511160340863793e-10 0 -5.3949234546660571e-06 -2.0542903349037544e-06 0 -3.7564409069606096e-06 -7.7816041442251231e-07 0 -7.6773299128694669e-06 -2.0464235386934735e-06 0 -5.1041018476444256e-06 -6.1844765688248144e-07 0 -3.7564409069606096e-06 -7.7816041442251231e-07 0 -7.6773299128694669e-06 -2.0464235386934735e-06 0 -8.8715581491156221e-06 -1.7822401213342369e-06 0 -5.1041018476444256e-06 -6.1844765688248144e-07 0 -7.6773299128694669e-06 -2.0464235386934735e-06 0 -1.1626857822460224e-05 -3.1625058092606215e-06 0 -8.8715581491156221e-06 -1.7822401213342369e-06 0 -1.167406227144378e-05 -2.4709066206164759e-06 0 -8.8715581491156221e-06 -1.7822401213342369e-06 0 -1.1626857822460223e-05 -3.162505809260621e-06 0 -1.5236650240591449e-05 -4.9817262964557941e-06 0 -1.1626857822460223e-05 -3.162505809260621e-06 0 -1.1090020033837733e-05 -4.1139854095666234e-06 0 -7.6773299128694669e-06 -2.0464235386934735e-06 0 -1.1090020033837733e-05 -4.1139854095666234e-06 0 -1.1626857822460223e-05 -3.162505809260621e-06 0 -1.2457361523274619e-05 -5.6604222624080121e-06 0 -1.8261104993860679e-05 -7.4160605666999977e-06 0 -1.1090020033837733e-05 -4.1139854095666234e-06 0 -6.6649437746546007e-06 -3.7593893329804243e-06 0 -1.2457361523274619e-05 -5.6604222624080121e-06 0 -5.3949234546660571e-06 -2.0542903349037544e-06 0 -1.2457361523274619e-05 -5.6604222624080121e-06 0 -1.1090020033837733e-05 -4.1139854095666234e-06 0 -5.3949234546660571e-06 -2.0542903349037544e-06 0 -7.6773299128694669e-06 -2.0464235386934735e-06 0 -5.3949234546660571e-06 -2.0542903349037544e-06 0 -1.1090020033837733e-05 -4.1139854095666234e-06 0 -2.7493790294093665e-09 2.5685979238441866e-10 0 -3.2372764562643082e-09 3.0466462592815774e-11 0 -2.6527603131139435e-06 2.0282671621317797e-07 0 -3.2372764562643082e-09 3.0466462592815774e-11 0 -2.6258912282072267e-06 -2.4387783173094826e-08 0 -2.6527603131139435e-06 2.0282671621317797e-07 0 -5.5759573102989569e-06 -2.8129399785935378e-07 0 -2.6527603131139435e-06 2.0282671621317797e-07 0 -2.6258912282072267e-06 -2.4387783173094826e-08 0 -3.3845809333300696e-09 3.5135721329565263e-10 0 -5.1041018476444256e-06 -6.1844765688248144e-07 0 -2.6258912282072267e-06 -2.4387783173094826e-08 0 -3.3845809333300696e-09 3.5135721329565263e-10 0 -3.7564409069606096e-06 -7.7816041442251231e-07 0 -5.1041018476444256e-06 -6.1844765688248144e-07 0 -5.5759573102989569e-06 -2.8129399785935378e-07 0 -2.6258912282072267e-06 -2.4387783173094826e-08 0 -5.1041018476444256e-06 -6.1844765688248144e-07 0 -3.2372764562643082e-09 3.0466462592815774e-11 0 -3.3845809333300696e-09 3.5135721329565263e-10 0 -2.6258912282072267e-06 -2.4387783173094826e-08 0 -5.1041018476444256e-06 -6.1844765688248144e-07 0 -8.8715581491156221e-06 -1.7822401213342371e-06 0 -8.0725206076240643e-06 -1.1550328895325609e-06 0 -1.167406227144378e-05 -2.4709066206164759e-06 0 -8.0725206076240643e-06 -1.1550328895325609e-06 0 -8.8715581491156221e-06 -1.7822401213342369e-06 0 -5.5759573102989569e-06 -2.8129399785935378e-07 0 -5.1041018476444256e-06 -6.1844765688248144e-07 0 -8.0725206076240643e-06 -1.1550328895325609e-06 0 -5.5759573102989569e-06 -2.8129399785935378e-07 0 -9.2744753951473588e-06 -1.221557167538047e-06 0 -5.5262716890446954e-06 -2.7038261702334947e-09 0 -5.5759573102989569e-06 -2.8129399785935378e-07 0 -8.0725206076240643e-06 -1.1550328895325609e-06 0 -9.2744753951473588e-06 -1.221557167538047e-06 0 -5.5759573102989569e-06 -2.8129399785935378e-07 0 -5.5262716890446954e-06 -2.7038261702334947e-09 0 -2.6527603131139435e-06 2.0282671621317797e-07 0 -2.5874162636951466e-06 3.7559316809172376e-07 0 -2.6527603131139435e-06 2.0282671621317797e-07 0 -5.5262716890446954e-06 -2.7038261702334947e-09 0 -9.2744753951473588e-06 -1.221557167538047e-06 0 -8.5857927152669771e-06 -8.5226229135193381e-07 0 -5.5262716890446954e-06 -2.7038261702334947e-09 0 -1.1110084479711972e-05 -1.8391163624950259e-06 0 -8.5857927152669754e-06 -8.522622913519337e-07 0 -9.2744753951473588e-06 -1.221557167538047e-06 0 -1.1110084479711972e-05 -1.8391163624950259e-06 0 -9.2744753951473588e-06 -1.221557167538047e-06 0 -1.3093883242242861e-05 -2.7550234821230973e-06 0 -1.167406227144378e-05 -2.4709066206164759e-06 0 -1.56220425576322e-05 -4.0302650757316897e-06 0 -1.3093883242242861e-05 -2.7550234821230973e-06 0 -1.167406227144378e-05 -2.4709066206164759e-06 0 -9.2744753951473572e-06 -1.2215571675380468e-06 0 -8.0725206076240643e-06 -1.1550328895325609e-06 0 -1.167406227144378e-05 -2.4709066206164759e-06 0 -1.3093883242242861e-05 -2.7550234821230973e-06 0 -9.2744753951473588e-06 -1.221557167538047e-06 0 -1.167406227144378e-05 -2.4709066206164759e-06 0 -1.5033334143474756e-05 -4.1799055729624428e-06 0 -1.5622042557632196e-05 -4.0302650757316889e-06 0 -1.6339027941721545e-05 -4.3158251901660679e-06 0 -1.5622042557632196e-05 -4.0302650757316889e-06 0 -2.0191715309653107e-05 -6.1437067311458126e-06 0 -1.6339027941721545e-05 -4.3158251901660679e-06 0 -2.0191715309653107e-05 -6.1437067311458126e-06 0 -2.060307703945907e-05 -6.6033866159579938e-06 0 -1.6339027941721545e-05 -4.3158251901660679e-06 0 -2.060307703945907e-05 -6.6033866159579938e-06 0 -1.90481012789401e-05 -6.1204486600527013e-06 0 -1.6339027941721545e-05 -4.3158251901660679e-06 0 -1.3093883242242861e-05 -2.7550234821230973e-06 0 -1.5622042557632196e-05 -4.0302650757316889e-06 0 -1.1110084479711972e-05 -1.8391163624950259e-06 0 -1.3093883242242861e-05 -2.7550234821230973e-06 0 -1.4676939008920407e-05 -3.6114675931195652e-06 0 -1.6339027941721545e-05 -4.3158251901660679e-06 0 -1.4676939008920407e-05 -3.6114675931195652e-06 0 -1.3093883242242861e-05 -2.7550234821230973e-06 0 -1.6339027941721545e-05 -4.3158251901660679e-06 0 -1.90481012789401e-05 -6.1204486600527013e-06 0 -1.4676939008920407e-05 -3.6114675931195652e-06 0 -1.4709626322937821e-05 -4.0375593721366998e-06 0 -1.1789219447353428e-05 -2.2392801643342285e-06 0 -1.4676939008920407e-05 -3.6114675931195652e-06 0 -1.1110084479711972e-05 -1.8391163624950259e-06 0 -1.4676939008920407e-05 -3.6114675931195652e-06 0 -1.1789219447353428e-05 -2.2392801643342285e-06 0 -1.8261104993860679e-05 -7.4160605666999977e-06 0 -2.0570019607932754e-05 -7.2485620758647699e-06 0 -1.5236650240591449e-05 -4.9817262964557941e-06 0 -1.9719919225789547e-05 -6.153933138356413e-06 0 -1.5236650240591448e-05 -4.9817262964557941e-06 0 -2.0570019607932758e-05 -7.2485620758647708e-06 0 -1.8261104993860679e-05 -7.4160605666999977e-06 0 -2.4357423039708032e-05 -9.4207865281274631e-06 0 -2.0570019607932758e-05 -7.2485620758647708e-06 0 -1.8261104993860679e-05 -7.4160605666999977e-06 0 -1.5236650240591451e-05 -4.9817262964557941e-06 0 -1.1090020033837733e-05 -4.1139854095666234e-06 0 -1.5236650240591449e-05 -4.9817262964557941e-06 0 -1.5033334143474756e-05 -4.1799055729624428e-06 0 -1.1626857822460223e-05 -3.162505809260621e-06 0 -1.167406227144378e-05 -2.4709066206164759e-06 0 -1.1626857822460223e-05 -3.162505809260621e-06 0 -1.5033334143474756e-05 -4.1799055729624428e-06 0 -1.9719919225789547e-05 -6.153933138356413e-06 0 -1.5622042557632196e-05 -4.0302650757316889e-06 0 -1.5033334143474756e-05 -4.1799055729624428e-06 0 -1.9719919225789547e-05 -6.153933138356413e-06 0 -1.5033334143474756e-05 -4.1799055729624428e-06 0 -1.5236650240591449e-05 -4.9817262964557941e-06 0 -1.9719919225789547e-05 -6.153933138356413e-06 0 -2.0191715309653107e-05 -6.1437067311458126e-06 0 -1.5622042557632196e-05 -4.0302650757316889e-06 0 -1.9719919225789547e-05 -6.153933138356413e-06 0 -2.3998661659355069e-05 -8.0465317552124325e-06 0 -2.0191715309653107e-05 -6.1437067311458126e-06 0 -2.5171807438148084e-05 -8.857687959425335e-06 0 -2.0191715309653107e-05 -6.1437067311458126e-06 0 -2.3998661659355069e-05 -8.0465317552124342e-06 0 -1.9719919225789547e-05 -6.153933138356413e-06 0 -2.5020124789564696e-05 -8.8266907833356163e-06 0 -2.3998661659355069e-05 -8.0465317552124342e-06 0 -2.963404284578133e-05 -1.091610999184003e-05 0 -2.3998661659355069e-05 -8.0465317552124342e-06 0 -2.5020124789564696e-05 -8.8266907833356163e-06 0 -1.9719919225789547e-05 -6.153933138356413e-06 0 -2.0570019607932758e-05 -7.2485620758647708e-06 0 -2.5020124789564696e-05 -8.8266907833356163e-06 0 -2.4357423039708028e-05 -9.4207865281274631e-06 0 -2.5020124789564696e-05 -8.8266907833356163e-06 0 -2.0570019607932758e-05 -7.2485620758647708e-06 0 -2.4357423039708028e-05 -9.4207865281274631e-06 0 -3.0745636879244449e-05 -1.1924018863665378e-05 0 -2.5020124789564696e-05 -8.8266907833356163e-06 0 -3.0745636879244449e-05 -1.1924018863665378e-05 0 -3.7294095051442729e-05 -1.5128066163719216e-05 0 -2.963404284578133e-05 -1.091610999184003e-05 0 -3.0745636879244449e-05 -1.1924018863665378e-05 0 -2.963404284578133e-05 -1.091610999184003e-05 0 -2.5020124789564696e-05 -8.8266907833356163e-06 0 -3.7294095051442729e-05 -1.5128066163719216e-05 0 -3.6778412737374686e-05 -1.5021186923559057e-05 0 -2.963404284578133e-05 -1.091610999184003e-05 0 -3.7294095051442729e-05 -1.5128066163719216e-05 0 -4.4328204003782949e-05 -1.9280410118708273e-05 0 -3.6778412737374686e-05 -1.5021186923559057e-05 0 -3.6056852616259992e-05 -1.5904305870997247e-05 0 -3.6778412737374686e-05 -1.5021186923559057e-05 0 -4.2296903575436528e-05 -1.8768379811763875e-05 0 -3.6056852616259992e-05 -1.5904305870997247e-05 0 -4.2296903575436528e-05 -1.8768379811763875e-05 0 -4.4059812463210918e-05 -2.1658490501907745e-05 0 -4.4328204003782949e-05 -1.9280410118708273e-05 0 -4.2296903575436528e-05 -1.8768379811763875e-05 0 -3.6778412737374686e-05 -1.5021186923559057e-05 0 -4.4328204003782949e-05 -1.9280410118708273e-05 0 -5.1704811790263596e-05 -2.4626397899686017e-05 0 -4.2296903575436528e-05 -1.8768379811763875e-05 0 -3.6056852616259992e-05 -1.5904305870997247e-05 0 -3.7663060580791755e-05 -1.9700875859989463e-05 0 -3.1234052846413158e-05 -1.481755711408065e-05 0 -3.6056852616259992e-05 -1.5904305870997247e-05 0 -3.1234052846413158e-05 -1.481755711408065e-05 0 -2.9327891183068837e-05 -1.1950380323728913e-05 0 -3.6056852616259992e-05 -1.5904305870997247e-05 0 -3.136874349919319e-05 -1.2312891140216832e-05 0 -3.6778412737374686e-05 -1.5021186923559057e-05 0 -3.6056852616259992e-05 -1.5904305870997247e-05 0 -2.9327891183068837e-05 -1.1950380323728913e-05 0 -3.136874349919319e-05 -1.2312891140216832e-05 0 -2.5171807438148084e-05 -8.857687959425335e-06 0 -3.136874349919319e-05 -1.2312891140216834e-05 0 -2.9327891183068837e-05 -1.1950380323728913e-05 0 -2.963404284578133e-05 -1.091610999184003e-05 0 -3.6778412737374686e-05 -1.5021186923559057e-05 0 -3.136874349919319e-05 -1.2312891140216832e-05 0 -3.136874349919319e-05 -1.2312891140216832e-05 0 -2.5171807438148084e-05 -8.857687959425335e-06 0 -2.963404284578133e-05 -1.091610999184003e-05 0 -2.963404284578133e-05 -1.091610999184003e-05 0 -2.5171807438148084e-05 -8.857687959425335e-06 0 -2.3998661659355069e-05 -8.0465317552124342e-06 0 -2.5171807438148084e-05 -8.857687959425335e-06 0 -2.060307703945907e-05 -6.6033866159579938e-06 0 -2.0191715309653107e-05 -6.1437067311458126e-06 0 -2.5171807438148084e-05 -8.857687959425335e-06 0 -2.3715329005436429e-05 -8.7770561615401528e-06 0 -2.060307703945907e-05 -6.6033866159579938e-06 0 -1.90481012789401e-05 -6.1204486600527013e-06 0 -2.0603077039459067e-05 -6.6033866159579938e-06 0 -2.3715329005436429e-05 -8.7770561615401528e-06 0 -2.6455602389964946e-05 -1.1335819668430769e-05 0 -2.2219432426095093e-05 -8.9144965790520785e-06 0 -2.3715329005436429e-05 -8.7770561615401528e-06 0 -1.90481012789401e-05 -6.1204486600527013e-06 0 -2.3715329005436429e-05 -8.7770561615401528e-06 0 -2.2219432426095093e-05 -8.9144965790520785e-06 0 -2.5171807438148084e-05 -8.857687959425335e-06 0 -2.9327891183068837e-05 -1.1950380323728913e-05 0 -2.3715329005436429e-05 -8.7770561615401528e-06 0 -1.7950229301967838e-05 -6.0608438485809573e-06 0 -1.4709626322937821e-05 -4.0375593721366998e-06 0 -1.4676939008920407e-05 -3.6114675931195652e-06 0 -1.90481012789401e-05 -6.1204486600527013e-06 0 -1.7950229301967838e-05 -6.0608438485809573e-06 0 -1.4676939008920407e-05 -3.6114675931195652e-06 0 -1.90481012789401e-05 -6.1204486600527013e-06 0 -2.2219432426095093e-05 -8.9144965790520785e-06 0 -1.7950229301967838e-05 -6.0608438485809573e-06 0 -2.1017517558968134e-05 -9.5138763600037391e-06 0 -1.6390872810489601e-05 -5.640277918273998e-06 0 -1.7950229301967838e-05 -6.0608438485809573e-06 0 -2.1017517558968134e-05 -9.5138763600037391e-06 0 -1.7950229301967838e-05 -6.0608438485809573e-06 0 -2.2219432426095093e-05 -8.9144965790520785e-06 0 -2.1017517558968134e-05 -9.5138763600037391e-06 0 -2.2219432426095093e-05 -8.9144965790520785e-06 0 -2.6240864243647245e-05 -1.2704250501863495e-05 0 -2.1017517558968134e-05 -9.5138763600037391e-06 0 -2.6240864243647245e-05 -1.2704250501863495e-05 0 -2.5519571117872742e-05 -1.450173968994949e-05 0 -2.1017517558968134e-05 -9.5138763600037391e-06 0 -2.5519571117872742e-05 -1.450173968994949e-05 0 -2.1316063804138412e-05 -1.1783944697248568e-05 0 -2.6455602389964946e-05 -1.1335819668430769e-05 0 -2.3715329005436429e-05 -8.7770561615401528e-06 0 -2.9327891183068837e-05 -1.1950380323728913e-05 0 -2.6455602389964946e-05 -1.1335819668430769e-05 0 -2.9327891183068837e-05 -1.1950380323728913e-05 0 -3.1234052846413158e-05 -1.481755711408065e-05 0 -2.6455602389964946e-05 -1.1335819668430769e-05 0 -2.6240864243647245e-05 -1.2704250501863495e-05 0 -2.2219432426095093e-05 -8.9144965790520785e-06 0 -3.1339100778396105e-05 -1.7525240925897568e-05 0 -2.6240864243647245e-05 -1.2704250501863495e-05 0 -3.1234052846413158e-05 -1.481755711408065e-05 0 -2.6455602389964946e-05 -1.1335819668430769e-05 0 -3.1234052846413158e-05 -1.481755711408065e-05 0 -2.6240864243647245e-05 -1.2704250501863495e-05 0 -3.1339100778396105e-05 -1.7525240925897568e-05 0 -3.1234052846413158e-05 -1.481755711408065e-05 0 -3.7663060580791755e-05 -1.9700875859989463e-05 0 -3.1339100778396105e-05 -1.7525240925897568e-05 0 -3.8044109928014916e-05 -2.4442869487866049e-05 0 -2.9962016491772024e-05 -1.9867072900827002e-05 0 -3.1339100778396105e-05 -1.7525240925897568e-05 0 -3.7663060580791755e-05 -1.9700875859989463e-05 0 -3.8044109928014916e-05 -2.4442869487866049e-05 0 -2.4833136829312608e-05 -1.6866369092293127e-05 0 -2.1316063804138412e-05 -1.178394469724857e-05 0 -2.5519571117872742e-05 -1.450173968994949e-05 0 -3.1339100778396105e-05 -1.7525240925897568e-05 0 -2.5519571117872742e-05 -1.4501739689949488e-05 0 -2.6240864243647245e-05 -1.2704250501863495e-05 0 -3.1339100778396105e-05 -1.7525240925897568e-05 0 -2.9962016491772024e-05 -1.9867072900827002e-05 0 -2.5519571117872742e-05 -1.450173968994949e-05 0 -2.4833136829312608e-05 -1.6866369092293127e-05 0 -2.5519571117872742e-05 -1.450173968994949e-05 0 -2.9962016491772024e-05 -1.9867072900827002e-05 0 -2.4833136829312608e-05 -1.6866369092293127e-05 0 -2.9962016491772024e-05 -1.9867072900827002e-05 0 -2.9029067264187885e-05 -2.3242937038286579e-05 0 -3.4587133639996367e-05 -2.7169308895495977e-05 0 -2.9029067264187885e-05 -2.3242937038286576e-05 0 -2.9962016491772024e-05 -1.9867072900827002e-05 0 -3.4587133639996367e-05 -2.7169308895495977e-05 0 -4.0233831023974108e-05 -3.6715740487848031e-05 0 -3.4344342116303299e-05 -3.2526523250579523e-05 0 -3.4587133639996367e-05 -2.7169308895495977e-05 0 -3.4344342116303299e-05 -3.2526523250579523e-05 0 -2.9029067264187885e-05 -2.3242937038286579e-05 0 -2.8377712980758003e-05 -2.727531201639728e-05 0 -2.9029067264187885e-05 -2.3242937038286579e-05 0 -3.4344342116303299e-05 -3.2526523250579523e-05 0 -3.4587133639996367e-05 -2.7169308895495977e-05 0 -3.8044109928014916e-05 -2.4442869487866049e-05 0 -4.1500303736411699e-05 -3.1439303669551644e-05 0 -3.4587133639996367e-05 -2.7169308895495977e-05 0 -2.9962016491772024e-05 -1.9867072900827002e-05 0 -3.8044109928014916e-05 -2.4442869487866049e-05 0 -3.4587133639996367e-05 -2.7169308895495977e-05 0 -4.1500303736411699e-05 -3.1439303669551644e-05 0 -4.0233831023974108e-05 -3.6715740487848031e-05 0 -3.8044109928014916e-05 -2.4442869487866049e-05 0 -4.8008689071481622e-05 -3.2421843680180026e-05 0 -4.1500303736411699e-05 -3.1439303669551644e-05 0 -4.6892860563839011e-05 -3.7467221453542643e-05 0 -4.1500303736411699e-05 -3.1439303669551644e-05 0 -4.8008689071481622e-05 -3.2421843680180026e-05 0 -4.5615931567192028e-05 -2.6131462869485437e-05 0 -4.8008689071481622e-05 -3.2421843680180026e-05 0 -3.8044109928014916e-05 -2.4442869487866049e-05 0 -4.5615931567192028e-05 -2.6131462869485437e-05 0 -5.4807660893825362e-05 -3.2989198123759503e-05 0 -4.8008689071481622e-05 -3.2421843680180026e-05 0 -5.8268938929866255e-05 -4.265433901702279e-05 0 -4.8008689071481622e-05 -3.2421843680180026e-05 0 -5.4807660893825362e-05 -3.2989198123759503e-05 0 -6.6496959892404164e-05 -4.046507461507892e-05 0 -5.8268938929866255e-05 -4.265433901702279e-05 0 -5.4807660893825362e-05 -3.2989198123759503e-05 0 -5.9208025478669636e-05 -3.1688233117505062e-05 0 -6.6496959892404164e-05 -4.046507461507892e-05 0 -5.4807660893825362e-05 -3.2989198123759503e-05 0 -5.9208025478669636e-05 -3.1688233117505062e-05 0 -5.4807660893825362e-05 -3.2989198123759503e-05 0 -5.1087115999556085e-05 -2.7251479766022958e-05 0 -4.5615931567192028e-05 -2.6131462869485437e-05 0 -5.1087115999556085e-05 -2.7251479766022961e-05 0 -5.4807660893825362e-05 -3.2989198123759503e-05 0 -5.1704811790263596e-05 -2.4626397899686017e-05 0 -5.1087115999556085e-05 -2.7251479766022958e-05 0 -4.4059812463210918e-05 -2.1658490501907745e-05 0 -4.5615931567192028e-05 -2.6131462869485437e-05 0 -4.4059812463210918e-05 -2.1658490501907745e-05 0 -5.1087115999556085e-05 -2.7251479766022958e-05 0 -5.1704811790263596e-05 -2.4626397899686017e-05 0 -5.9208025478669636e-05 -3.1688233117505062e-05 0 -5.1087115999556085e-05 -2.7251479766022958e-05 0 -5.1704811790263596e-05 -2.4626397899686017e-05 0 -4.4059812463210912e-05 -2.1658490501907742e-05 0 -4.2296903575436528e-05 -1.8768379811763875e-05 0 -3.6056852616259992e-05 -1.5904305870997247e-05 0 -4.4059812463210918e-05 -2.1658490501907745e-05 0 -3.7663060580791755e-05 -1.9700875859989463e-05 0 -4.5615931567192028e-05 -2.6131462869485437e-05 0 -3.8044109928014916e-05 -2.4442869487866049e-05 0 -3.7663060580791755e-05 -1.9700875859989463e-05 0 -4.5615931567192028e-05 -2.6131462869485437e-05 0 -3.7663060580791755e-05 -1.9700875859989463e-05 0 -4.4059812463210918e-05 -2.1658490501907745e-05 0 -2.1183618726497656e-05 -5.1155474642117521e-06 0 -1.780232552446012e-05 -4.2586024208125715e-06 0 -2.1093752887038838e-05 -8.1070026888982531e-06 0 -1.8184114678607143e-05 -6.4820406514736864e-06 0 -2.1093752887038838e-05 -8.1070026888982531e-06 0 -1.780232552446012e-05 -4.2586024208125715e-06 0 -1.8184114678607143e-05 -6.4820406514736864e-06 0 -2.0179092745702629e-05 -1.0063534392416332e-05 0 -2.1093752887038838e-05 -8.1070026888982531e-06 0 -2.118361872649