<?xml version="1.0"?>
<VTKFile type="UnstructuredGrid" version="0.1" byte_order="LittleEndian">
<UnstructuredGrid>
<Piece NumberOfPoints="3142" NumberOfCells="1054">
<Points>
<DataArray type="Float64" NumberOfComponents="3" format="ascii">
0 0 0 0.049999999999899652 0 0 0.02576622439977887 0.024532886826226379 0 0 0 0 0.02576622439977887 0.024532886826226379 0 0 0.050000000000207989 0 0.049999999999899652 0 0 0.053064897599215843 0.048131547304697528 0 0.02576622439977887 0.024532886826226379 0 0 0.050000000000207989 0 0.02576622439977887 0.024532886826226379 0 0.053064897599215843 0.048131547304697528 0 0 0.10000000000041601 0 0 0.050000000000207989 0 0.044310582753132287 0.101412518374475 0 0 0.15000000000062411 0 0 0.10000000000041601 0 0.044310582753132287 0.101412518374475 0 0.083411279318303222 0.089699755330707398 0 0.044310582753132287 0.101412518374475 0 0.053064897599215843 0.048131547304697528 0 0 0.050000000000207989 0 0.053064897599215843 0.048131547304697528 0 0.044310582753132287 0.101412518374475 0 0.083411279318303222 0.089699755330707398 0 0.065374659239632718 0.1448908038746782 0 0.044310582753132287 0.101412518374475 0 0.083411279318303222 0.089699755330707398 0 0.1053400320299198 0.12877248826361379 0 0.065374659239632718 0.1448908038746782 0 0.083411279318303222 0.089699755330707398 0 0.12372429750337779 0.095814237875728972 0 0.1053400320299198 0.12877248826361379 0 0.14332333627550789 0.14578431753966009 0 0.1053400320299198 0.12877248826361379 0 0.12372429750337779 0.095814237875728972 0 0.14618258501891079 0.062070108745602003 0 0.12372429750337779 0.095814237875728972 0 0.10266856499169109 0.044518360900210059 0 0.083411279318303222 0.089699755330707398 0 0.10266856499169109 0.044518360900210059 0 0.12372429750337779 0.095814237875728972 0 0.099999999999814668 0 0 0.14999999999970359 0 0 0.10266856499169109 0.044518360900210059 0 0.049999999999899652 0 0 0.099999999999814668 0 0 0.053064897599215843 0.048131547304697528 0 0.099999999999814668 0 0 0.10266856499169109 0.044518360900210059 0 0.053064897599215843 0.048131547304697528 0 0.083411279318303222 0.089699755330707398 0 0.053064897599215843 0.048131547304697528 0 0.10266856499169109 0.044518360900210059 0 0 0.25000000000104028 0 0 0.20000000000083221 0 0.044081577119474857 0.2271058242433576 0 0 0.20000000000083221 0 0.038512288486115001 0.1844147282893184 0 0.044081577119474857 0.2271058242433576 0 0.083105206071467416 0.20007701332709979 0 0.044081577119474857 0.2271058242433576 0 0.038512288486115001 0.1844147282893184 0 0 0.15000000000062411 0 0.065374659239632718 0.1448908038746782 0 0.038512288486115001 0.1844147282893184 0 0 0.15000000000062411 0 0.044310582753132287 0.101412518374475 0 0.065374659239632718 0.1448908038746782 0 0.083105206071467416 0.20007701332709979 0 0.038512288486115001 0.1844147282893184 0 0.065374659239632718 0.1448908038746782 0 0 0.20000000000083221 0 0 0.15000000000062411 0 0.038512288486115001 0.1844147282893184 0 0.065374659239632718 0.1448908038746782 0 0.1053400320299198 0.12877248826361379 0 0.106902708054812 0.16453234188234539 0 0.14332333627550789 0.14578431753966009 0 0.106902708054812 0.16453234188234539 0 0.1053400320299198 0.12877248826361379 0 0.083105206071467416 0.20007701332709979 0 0.065374659239632718 0.1448908038746782 0 0.106902708054812 0.16453234188234539 0 0.083105206071467416 0.20007701332709979 0 0.13737030665753211 0.20313708640667491 0 0.095326043202144745 0.24554465089224409 0 0.083105206071467416 0.20007701332709979 0 0.106902708054812 0.16453234188234539 0 0.13737030665753211 0.20313708640667491 0 0.083105206071467416 0.20007701332709979 0 0.095326043202144745 0.24554465089224409 0 0.044081577119474857 0.2271058242433576 0 0.049706944316556423 0.27522722923869108 0 0.044081577119474857 0.2271058242433576 0 0.095326043202144745 0.24554465089224409 0 0.13737030665753211 0.20313708640667491 0 0.14377654328998779 0.2442024734791064 0 0.095326043202144745 0.24554465089224409 0 0.17933913398461551 0.2350063570234002 0 0.14377654328998779 0.2442024734791064 0 0.13737030665753211 0.20313708640667491 0 0.17933913398461551 0.2350063570234002 0 0.13737030665753211 0.20313708640667491 0 0.18124454140915969 0.18790916706335251 0 0.14332333627550789 0.14578431753966009 0 0.18652628422869419 0.14162325200928061 0 0.18124454140915969 0.18790916706335251 0 0.14332333627550789 0.14578431753966009 0 0.13737030665753211 0.20313708640667491 0 0.106902708054812 0.16453234188234539 0 0.14332333627550789 0.14578431753966009 0 0.18124454140915969 0.18790916706335251 0 0.13737030665753211 0.20313708640667491 0 0.14332333627550789 0.14578431753966009 0 0.16141998738593399 0.10404039647458049 0 0.18652628422869419 0.14162325200928061 0 0.2185883431182947 0.18019736283949719 0 0.18652628422869419 0.14162325200928061 0 0.22985637510995899 0.1298347970200906 0 0.2185883431182947 0.18019736283949719 0 0.22985637510995899 0.1298347970200906 0 0.25557216766470708 0.15874861286892261 0 0.2185883431182947 0.18019736283949719 0 0.25557216766470708 0.15874861286892261 0 0.26429849586623999 0.19346700179430079 0 0.2185883431182947 0.18019736283949719 0 0.18124454140915969 0.18790916706335251 0 0.18652628422869419 0.14162325200928061 0 0.17933913398461551 0.2350063570234002 0 0.18124454140915969 0.18790916706335251 0 0.224700362040408 0.22206622194729711 0 0.2185883431182947 0.18019736283949719 0 0.224700362040408 0.22206622194729711 0 0.18124454140915969 0.18790916706335251 0 0.2185883431182947 0.18019736283949719 0 0.26429849586623999 0.19346700179430079 0 0.224700362040408 0.22206622194729711 0 0.25195515620380449 0.25883339815888678 0 0.21049769590865089 0.26857363548218488 0 0.224700362040408 0.22206622194729711 0 0.17933913398461551 0.2350063570234002 0 0.224700362040408 0.22206622194729711 0 0.21049769590865089 0.26857363548218488 0 0.14999999999970359 0 0 0.184418230509967 0.038773194583122873 0 0.14618258501891079 0.062070108745602003 0 0.19922788606653311 0.085920220746880993 0 0.14618258501891079 0.062070108745602003 0 0.184418230509967 0.038773194583122873 0 0.14999999999970359 0 0 0.19999999999955789 0 0 0.184418230509967 0.038773194583122873 0 0.14999999999970359 0 0 0.14618258501891079 0.062070108745602003 0 0.10266856499169109 0.044518360900210059 0 0.14618258501891079 0.062070108745602003 0 0.16141998738593399 0.10404039647458049 0 0.12372429750337779 0.095814237875728972 0 0.14332333627550789 0.14578431753966009 0 0.12372429750337779 0.095814237875728972 0 0.16141998738593399 0.10404039647458049 0 0.19922788606653311 0.085920220746880993 0 0.18652628422869419 0.14162325200928061 0 0.16141998738593399 0.10404039647458049 0 0.19922788606653311 0.085920220746880993 0 0.16141998738593399 0.10404039647458049 0 0.14618258501891079 0.062070108745602003 0 0.19922788606653311 0.085920220746880993 0 0.22985637510995899 0.1298347970200906 0 0.18652628422869419 0.14162325200928061 0 0.19922788606653311 0.085920220746880993 0 0.24218496799700481 0.089025544070598317 0 0.22985637510995899 0.1298347970200906 0 0.27474541102162192 0.11822029332053539 0 0.22985637510995899 0.1298347970200906 0 0.24218496799700481 0.089025544070598317 0 0.19922788606653311 0.085920220746880993 0 0.22668068146512929 0.045875643423131329 0 0.24218496799700481 0.089025544070598317 0 0.27499999999933927 0.060310814194988557 0 0.24218496799700481 0.089025544070598317 0 0.22668068146512929 0.045875643423131329 0 0.19922788606653311 0.085920220746880993 0 0.184418230509967 0.038773194583122873 0 0.22668068146512929 0.045875643423131329 0 0.19999999999955789 0 0 0.22668068146512929 0.045875643423131329 0 0.184418230509967 0.038773194583122873 0 0.19999999999955789 0 0 0.24999999999941211 0 0 0.22668068146512929 0.045875643423131329 0 0.24999999999941211 0 0 0.29999999999926641 0 0 0.27499999999933927 0.060310814194988557 0 0.24999999999941211 0 0 0.27499999999933927 0.060310814194988557 0 0.22668068146512929 0.045875643423131329 0 0.29999999999926641 0 0 0.32541448401678508 0.046215317981507749 0 0.27499999999933927 0.060310814194988557 0 0.29999999999926641 0 0 0.34999999999912063 0 0 0.32541448401678508 0.046215317981507749 0 0.35312867752657662 0.084946736076730367 0 0.32541448401678508 0.046215317981507749 0 0.3615861437013822 0.03582617922508851 0 0.35312867752657662 0.084946736076730367 0 0.3615861437013822 0.03582617922508851 0 0.39591832466117061 0.056982757562006353 0 0.34999999999912063 0 0 0.3615861437013822 0.03582617922508851 0 0.32541448401678508 0.046215317981507749 0 0.34999999999912063 0 0 0.3999999999989749 0 0 0.3615861437013822 0.03582617922508851 0 0.35312867752657662 0.084946736076730367 0 0.39823268594401579 0.1116623613130045 0 0.36246644853392812 0.1399454205365751 0 0.35312867752657662 0.084946736076730367 0 0.36246644853392812 0.1399454205365751 0 0.32215584939770009 0.1218492143506909 0 0.35312867752657662 0.084946736076730367 0 0.3096713403101819 0.085471541595262421 0 0.32541448401678508 0.046215317981507749 0 0.35312867752657662 0.084946736076730367 0 0.32215584939770009 0.1218492143506909 0 0.3096713403101819 0.085471541595262421 0 0.27474541102162192 0.11822029332053539 0 0.3096713403101819 0.085471541595262421 0 0.32215584939770009 0.1218492143506909 0 0.27499999999933927 0.060310814194988557 0 0.32541448401678508 0.046215317981507749 0 0.3096713403101819 0.085471541595262421 0 0.3096713403101819 0.085471541595262421 0 0.27474541102162192 0.11822029332053539 0 0.27499999999933927 0.060310814194988557 0 0.27499999999933927 0.060310814194988557 0 0.27474541102162192 0.11822029332053539 0 0.24218496799700481 0.089025544070598317 0 0.27474541102162192 0.11822029332053539 0 0.25557216766470708 0.15874861286892261 0 0.22985637510995899 0.1298347970200906 0 0.27474541102162192 0.11822029332053539 0 0.29336099386129338 0.15892013001050981 0 0.25557216766470708 0.15874861286892261 0 0.26429849586623999 0.19346700179430079 0 0.25557216766470708 0.15874861286892261 0 0.29336099386129338 0.15892013001050981 
[...]
<PointData Scalars="" Vectors="displacement," Tensors="">
<DataArray type="Float64" Name="displacement" NumberOfComponents="3" format="ascii">
-1.1552193839119472e-09 -4.7463173829583923e-10 0 -1.3667728389856439e-06 7.7452936082575751e-08 0 -6.3009670274923464e-07 1.7992997343274374e-07 0 -1.1552193839119472e-09 -4.7463173829583923e-10 0 -6.3009670274923475e-07 1.7992997343274379e-07 0 -1.1329394163136257e-09 3.6568370464297916e-10 0 -1.3667728389856439e-06 7.7452936082575751e-08 0 -1.4413418966061192e-06 6.5768290604361754e-07 0 -6.3009670274923464e-07 1.7992997343274374e-07 0 -1.1329394163136257e-09 3.6568370464297916e-10 0 -6.3009670274923464e-07 1.7992997343274379e-07 0 -1.4413418966061192e-06 6.5768290604361754e-07 0 -1.1378482587609466e-09 2.5255709809748972e-10 0 -1.1329394163136257e-09 3.6568370464297916e-10 0 -9.3000038992420794e-07 9.1233968389347533e-07 0 -6.046277349387982e-10 6.8446572603064347e-10 0 -1.1378482587609466e-09 2.5255709809748972e-10 0 -9.3000038992420794e-07 9.1233968389347533e-07 0 -2.0309171325480606e-06 1.4007100251514176e-06 0 -9.3000038992420794e-07 9.1233968389347533e-07 0 -1.4413418966061192e-06 6.5768290604361754e-07 0 -1.1329394163136257e-09 3.6568370464297916e-10 0 -1.4413418966061192e-06 6.5768290604361754e-07 0 -9.3000038992420794e-07 9.1233968389347533e-07 0 -2.0309171325480606e-06 1.4007100251514176e-06 0 -1.0885860769512118e-06 1.5167956315806897e-06 0 -9.3000038992420794e-07 9.1233968389347533e-07 0 -2.0309171325480606e-06 1.4007100251514176e-06 0 -2.0899151050480744e-06 1.965260573068373e-06 0 -1.0885860769512118e-06 1.5167956315806897e-06 0 -2.0309171325480606e-06 1.4007100251514176e-06 0 -3.1424873540592161e-06 1.8407905343850529e-06 0 -2.0899151050480744e-06 1.965260573068373e-06 0 -2.5437676799384522e-06 2.3494046087826979e-06 0 -2.0899151050480744e-06 1.965260573068373e-06 0 -3.1424873540592157e-06 1.8407905343850529e-06 0 -4.4612480955177745e-06 1.549643052222911e-06 0 -3.1424873540592157e-06 1.8407905343850529e-06 0 -3.0954606938418964e-06 1.1219699862314028e-06 0 -2.0309171325480606e-06 1.4007100251514176e-06 0 -3.0954606938418964e-06 1.1219699862314028e-06 0 -3.1424873540592157e-06 1.8407905343850529e-06 0 -3.1182135756931655e-06 5.2258775046488007e-07 0 -5.2899238335206105e-06 7.4507241554536837e-07 0 -3.0954606938418964e-06 1.1219699862314028e-06 0 -1.3667728389856439e-06 7.7452936082575751e-08 0 -3.1182135756931655e-06 5.2258775046488007e-07 0 -1.4413418966061192e-06 6.5768290604361754e-07 0 -3.1182135756931655e-06 5.2258775046488007e-07 0 -3.0954606938418964e-06 1.1219699862314028e-06 0 -1.4413418966061192e-06 6.5768290604361754e-07 0 -2.0309171325480606e-06 1.4007100251514176e-06 0 -1.4413418966061192e-06 6.5768290604361754e-07 0 -3.0954606938418964e-06 1.1219699862314028e-06 0 -3.0979733698485236e-11 6.112321535973747e-10 0 -3.8597823309959363e-10 5.0016728880139944e-10 0 -1.6204797616673803e-07 1.2601242818409196e-06 0 -3.8597823309959363e-10 5.0016728880139944e-10 0 -3.8640713515397668e-07 1.0535979978360874e-06 0 -1.6204797616673803e-07 1.2601242818409196e-06 0 -6.9008996781107078e-07 1.981940449585025e-06 0 -1.6204797616673803e-07 1.2601242818409196e-06 0 -3.8640713515397668e-07 1.0535979978360874e-06 0 -6.046277349387982e-10 6.8446572603064347e-10 0 -1.0885860769512118e-06 1.5167956315806897e-06 0 -3.8640713515397668e-07 1.0535979978360874e-06 0 -6.046277349387982e-10 6.8446572603064347e-10 0 -9.3000038992420794e-07 9.1233968389347533e-07 0 -1.0885860769512118e-06 1.5167956315806897e-06 0 -6.9008996781107078e-07 1.981940449585025e-06 0 -3.8640713515397668e-07 1.0535979978360874e-06 0 -1.0885860769512118e-06 1.5167956315806897e-06 0 -3.8597823309959363e-10 5.0016728880139944e-10 0 -6.046277349387982e-10 6.8446572603064347e-10 0 -3.8640713515397668e-07 1.0535979978360874e-06 0 -1.0885860769512118e-06 1.5167956315806897e-06 0 -2.0899151050480744e-06 1.965260573068373e-06 0 -1.5098488454123866e-06 2.1884077909053518e-06 0 -2.5437676799384522e-06 2.3494046087826979e-06 0 -1.5098488454123866e-06 2.1884077909053518e-06 0 -2.0899151050480744e-06 1.965260573068373e-06 0 -6.9008996781107078e-07 1.981940449585025e-06 0 -1.0885860769512118e-06 1.5167956315806897e-06 0 -1.5098488454123866e-06 2.1884077909053518e-06 0 -6.9008996781107078e-07 1.981940449585025e-06 0 -1.053016040225156e-06 2.5761059093016504e-06 0 -7.066218498717842e-08 2.2133002130304592e-06 0 -6.9008996781107078e-07 1.981940449585025e-06 0 -1.5098488454123866e-06 2.1884077909053518e-06 0 -1.053016040225156e-06 2.5761059093016504e-06 0 -6.9008996781107078e-07 1.981940449585025e-06 0 -7.066218498717842e-08 2.2133002130304592e-06 0 -1.6204797616673803e-07 1.2601242818409196e-06 0 1.6489930829346749e-07 1.3773795424664406e-06 0 -1.6204797616673803e-07 1.2601242818409196e-06 0 -7.066218498717842e-08 2.2133002130304592e-06 0 -1.053016040225156e-06 2.5761059093016504e-06 0 -1.508119017518738e-07 2.607382540103684e-06 0 -7.066218498717842e-08 2.2133002130304592e-06 0 -4.1405370895825545e-07 2.6601280870878937e-06 0 -1.5081190175187367e-07 2.6073825401036836e-06 0 -1.053016040225156e-06 2.5761059093016504e-06 0 -4.1405370895825545e-07 2.6601280870878937e-06 0 -1.053016040225156e-06 2.5761059093016504e-06 0 -1.9168187904660864e-06 2.5577502770401483e-06 0 -2.5437676799384522e-06 2.3494046087826979e-06 0 -3.5331954934893572e-06 2.2700630062243218e-06 0 -1.9168187904660864e-06 2.5577502770401483e-06 0 -2.5437676799384522e-06 2.3494046087826979e-06 0 -1.0530160402251558e-06 2.5761059093016504e-06 0 -1.5098488454123866e-06 2.1884077909053518e-06 0 -2.5437676799384522e-06 2.3494046087826979e-06 0 -1.9168187904660864e-06 2.5577502770401483e-06 0 -1.053016040225156e-06 2.5761059093016504e-06 0 -2.5437676799384522e-06 2.3494046087826979e-06 0 -4.0306425462413722e-06 2.0162461296660315e-06 0 -3.5331954934893567e-06 2.2700630062243222e-06 0 -2.6384632209502729e-06 2.2244460805885834e-06 0 -3.5331954934893572e-06 2.2700630062243222e-06 0 -4.9892957500993314e-06 1.75360219401126e-06 0 -2.6384632209502729e-06 2.2244460805885834e-06 0 -4.9892957500993314e-06 1.75360219401126e-06 0 -4.1723245811457261e-06 1.4673658969438097e-06 0 -2.6384632209502729e-06 2.2244460805885834e-06 0 -4.1723245811457261e-06 1.4673658969438095e-06 0 -2.5263700673240104e-06 1.4764948418355207e-06 0 -2.6384632209502729e-06 2.2244460805885834e-06 0 -1.9168187904660864e-06 2.5577502770401483e-06 0 -3.5331954934893567e-06 2.2700630062243222e-06 0 -4.1405370895825545e-07 2.6601280870878937e-06 0 -1.9168187904660864e-06 2.5577502770401483e-06 0 -9.9141228176048177e-07 2.3107734382528507e-06 0 -2.6384632209502729e-06 2.2244460805885834e-06 0 -9.9141228176048177e-07 2.3107734382528507e-06 0 -1.9168187904660864e-06 2.5577502770401483e-06 0 -2.6384632209502729e-06 2.2244460805885834e-06 0 -2.5263700673240104e-06 1.4764948418355207e-06 0 -9.9141228176048177e-07 2.3107734382528507e-06 0 5.1477817845758188e-07 1.8718451569819108e-06 0 7.2035350915951784e-07 2.4758934957119292e-06 0 -9.9141228176048177e-07 2.3107734382528507e-06 0 -4.1405370895825545e-07 2.6601280870878937e-06 0 -9.9141228176048177e-07 2.3107734382528507e-06 0 7.2035350915951794e-07 2.4758934957119292e-06 0 -5.2899238335206105e-06 7.4507241554536837e-07 0 -6.3674526654586304e-06 1.1791062023517079e-06 0 -4.4612480955177745e-06 1.549643052222911e-06 0 -5.7310353874479369e-06 1.6929478487421576e-06 0 -4.4612480955177745e-06 1.549643052222911e-06 0 -6.3674526654586312e-06 1.1791062023517077e-06 0 -5.2899238335206105e-06 7.4507241554536837e-07 0 -7.8771598644938327e-06 4.1370829224703961e-07 0 -6.3674526654586312e-06 1.1791062023517077e-06 0 -5.2899238335206105e-06 7.4507241554536837e-07 0 -4.4612480955177745e-06 1.5496430522229112e-06 0 -3.0954606938418964e-06 1.1219699862314028e-06 0 -4.4612480955177745e-06 1.549643052222911e-06 0 -4.0306425462413722e-06 2.0162461296660315e-06 0 -3.1424873540592157e-06 1.8407905343850529e-06 0 -2.5437676799384522e-06 2.3494046087826979e-06 0 -3.1424873540592157e-06 1.8407905343850529e-06 0 -4.0306425462413722e-06 2.0162461296660315e-06 0 -5.7310353874479369e-06 1.6929478487421576e-06 0 -3.5331954934893567e-06 2.2700630062243222e-06 0 -4.0306425462413722e-06 2.0162461296660315e-06 0 -5.7310353874479369e-06 1.6929478487421576e-06 0 -4.0306425462413722e-06 2.0162461296660315e-06 0 -4.4612480955177745e-06 1.549643052222911e-06 0 -5.7310353874479369e-06 1.6929478487421576e-06 0 -4.9892957500993314e-06 1.75360219401126e-06 0 -3.5331954934893567e-06 2.2700630062243222e-06 0 -5.7310353874479369e-06 1.6929478487421576e-06 0 -7.1196609788521121e-06 1.112452240358171e-06 0 -4.9892957500993314e-06 1.75360219401126e-06 0 -6.7684410616282444e-06 6.7330700451873766e-07 0 -4.9892957500993314e-06 1.75360219401126e-06 0 -7.1196609788521121e-06 1.112452240358171e-06 0 -5.7310353874479369e-06 1.6929478487421576e-06 0 -8.0824442379379121e-06 8.014036215984729e-07 0 -7.1196609788521121e-06 1.112452240358171e-06 0 -9.8313539618363457e-06 -9.4017348374394815e-08 0 -7.1196609788521121e-06 1.112452240358171e-06 0 -8.0824442379379121e-06 8.014036215984729e-07 0 -5.7310353874479369e-06 1.6929478487421576e-06 0 -6.3674526654586312e-06 1.1791062023517077e-06 0 -8.0824442379379121e-06 8.014036215984729e-07 0 -7.8771598644938327e-06 4.1370829224703971e-07 0 -8.0824442379379121e-06 8.014036215984729e-07 0 -6.3674526654586312e-06 1.1791062023517077e-06 0 -7.8771598644938327e-06 4.1370829224703971e-07 0 -1.0836334043578901e-05 -5.20415855679438e-07 0 -8.0824442379379121e-06 8.014036215984729e-07 0 -1.0836334043578901e-05 -5.2041585567943789e-07 0 -1.4002664099996936e-05 -2.1722940524884936e-06 0 -9.8313539618363457e-06 -9.4017348374394815e-08 0 -1.0836334043578901e-05 -5.2041585567943789e-07 0 -9.8313539618363457e-06 -9.4017348374394815e-08 0 -8.0824442379379121e-06 8.014036215984729e-07 0 -1.4002664099996936e-05 -2.1722940524884936e-06 0 -1.3216667381796298e-05 -2.2716097622362528e-06 0 -9.8313539618363457e-06 -9.4017348374394815e-08 0 -1.4002664099996936e-05 -2.1722940524884936e-06 0 -1.7691690477346994e-05 -4.7006878994660883e-06 0 -1.3216667381796298e-05 -2.2716097622362528e-06 0 -1.1793466752769549e-05 -3.0743205631059927e-06 0 -1.3216667381796298e-05 -2.2716097622362528e-06 0 -1.6076148090318322e-05 -4.5644649184158882e-06 0 -1.1793466752769549e-05 -3.0743205631059927e-06 0 -1.6076148090318322e-05 -4.5644649184158882e-06 0 -1.6348816003709793e-05 -6.6388666193734384e-06 0 -1.7691690477346994e-05 -4.7006878994660883e-06 0 -1.6076148090318322e-05 -4.5644649184158882e-06 0 -1.3216667381796298e-05 -2.2716097622362528e-06 0 -1.7691690477346994e-05 -4.7006878994660883e-06 0 -2.1799024314909924e-05 -8.2473175485774659e-06 0 -1.6076148090318322e-05 -4.5644649184158882e-06 0 -1.1793466752769549e-05 -3.0743205631059927e-06 0 -1.122338729644004e-05 -5.8250787539397693e-06 0 -7.6246489484572707e-06 -2.9257237001355179e-06 0 -1.1793466752769549e-05 -3.0743205631059927e-06 0 -7.6246489484572707e-06 -2.9257237001355179e-06 0 -7.9013511826587227e-06 -1.0023581596666404e-06 0 -1.1793466752769549e-05 -3.0743205631059927e-06 0 -9.9092012715899652e-06 -9.5449397504796259e-07 0 -1.3216667381796298e-05 -2.2716097622362528e-06 0 -1.1793466752769549e-05 -3.0743205631059927e-06 0 -7.9013511826587227e-06 -1.0023581596666404e-06 0 -9.9092012715899652e-06 -9.5449397504796259e-07 0 -6.7684410616282444e-06 6.7330700451873766e-07 0 -9.9092012715899652e-06 -9.5449397504796259e-07 0 -7.9013511826587227e-06 -1.0023581596666404e-06 0 -9.8313539618363457e-06 -9.4017348374394815e-08 0 -1.3216667381796298e-05 -2.2716097622362528e-06 0 -9.9092012715899652e-06 -9.5449397504796259e-07 0 -9.9092012715899652e-06 -9.5449397504796259e-07 0 -6.7684410616282444e-06 6.7330700451873766e-07 0 -9.8313539618363457e-06 -9.4017348374394815e-08 0 -9.8313539618363457e-06 -9.4017348374394815e-08 0 -6.7684410616282444e-06 6.7330700451873766e-07 0 -7.1196609788521121e-06 1.112452240358171e-06 0 -6.7684410616282444e-06 6.7330700451873766e-07 0 -4.1723245811457261e-06 1.4673658969438097e-06 0 -4.9892957500993314e-06 1.75360219401126e-06 0 -6.7684410616282444e-06 6.7330700451873766e-07 0 -4.8358464636771554e-06 4.3745335855240894e-07 0 -4.1723245811457261e-06 1.4673658969438097e-06 0 -2.5263700673240104e-06 1.4764948418355207e-06 0 -4.1723245811457261e-06 1.4673658969438099e-06 0 -4.8358464636771554e-06 4.3745335855240894e-07 0 -5.2360416376404862e-06 -1.032174729778473e-06 0 -2.6533640784197131e-06 -5.699493625456684e-09 0 -4.8358464636771554e-06 4.3745335855240894e-07 0 -2.5263700673240104e-06 1.4764948418355207e-06 0 -4.8358464636771554e-06 4.3745335855240894e-07 0 -2.6533640784197131e-06 -5.699493625456684e-09 0 -6.7684410616282444e-06 6.7330700451873766e-07 0 -7.9013511826587227e-06 -1.0023581596666404e-06 0 -4.8358464636771554e-06 4.3745335855240894e-07 0 -7.311121601411477e-07 1.196177151620349e-06 0 5.1477817845758188e-07 1.8718451569819108e-06 0 -9.9141228176048177e-07 2.3107734382528507e-06 0 -2.5263700673240104e-06 1.4764948418355207e-06 0 -7.311121601411477e-07 1.196177151620349e-06 0 -9.9141228176048177e-07 2.3107734382528507e-06 0 -2.5263700673240104e-06 1.4764948418355207e-06 0 -2.6533640784197127e-06 -5.6994936254567088e-09 0 -7.311121601411477e-07 1.196177151620349e-06 0 -1.8809776848433164e-07 -8.3845566288089816e-07 0 1.3346401572073147e-06 9.575872645567066e-07 0 -7.311121601411477e-07 1.196177151620349e-06 0 -1.8809776848433164e-07 -8.3845566288089816e-07 0 -7.3111216014114802e-07 1.1961771516203488e-06 0 -2.6533640784197131e-06 -5.699493625456684e-09 0 -1.8809776848433164e-07 -8.3845566288089816e-07 0 -2.6533640784197131e-06 -5.699493625456684e-09 0 -3.7245628618869851e-06 -2.1507953253142968e-06 0 -1.8809776848433164e-07 -8.3845566288089816e-07 0 -3.7245628618869851e-06 -2.1507953253142968e-06 0 -1.3809872217895454e-06 -3.7670919919503572e-06 0 -1.8809776848433164e-07 -8.3845566288089816e-07 0 -1.3809872217895454e-06 -3.7670919919503572e-06 0 2.0628232266021533e-06 -2.8029172703185149e-06 0 -5.2360416376404862e-06 -1.032174729778473e-06 0 -4.8358464636771554e-06 4.3745335855240894e-07 0 -7.9013511826587227e-06 -1.0023581596666404e-06 0 -5.2360416376404862e-06 -1.032174729778473e-06 0 -7.9013511826587227e-06 -1.0023581596666402e-06 0 -7.6246489484572707e-06 -2.9257237001355179e-06 0 -5.2360416376404862e-06 -1.032174729778473e-06 0 -3.7245628618869851e-06 -2.1507953253142968e-06 0 -2.6533640784197131e-06 -5.699493625456684e-09 0 -5.9908761344483343e-06 -5.0237386471663886e-06 0 -3.7245628618869851e-06 -2.1507953253142968e-06 0 -7.6246489484572707e-06 -2.9257237001355179e-06 0 -5.2360416376404862e-06 -1.032174729778473e-06 0 -7.6246489484572707e-06 -2.9257237001355179e-06 0 -3.7245628618869851e-06 -2.1507953253142968e-06 0 -5.9908761344483343e-06 -5.0237386471663886e-06 0 -7.6246489484572707e-06 -2.9257237001355179e-06 0 -1.122338729644004e-05 -5.8250787539397693e-06 0 -5.9908761344483343e-06 -5.0237386471663886e-06 0 -9.5154419356990408e-06 -9.4369132166686155e-06 0 -3.1276743688745851e-06 -7.1343900264759993e-06 0 -5.9908761344483343e-06 -5.0237386471663886e-06 0 -1.1223387296440038e-05 -5.8250787539397693e-06 0 -9.5154419356990408e-06 -9.4369132166686155e-06 0 1.3437639662916251e-06 -5.9413887426664104e-06 0 2.0628232266021533e-06 -2.8029172703185149e-06 0 -1.3809872217895454e-06 -3.7670919919503572e-06 0 -5.9908761344483343e-06 -5.0237386471663886e-06 0 -1.3809872217895454e-06 -3.7670919919503567e-06 0 -3.7245628618869851e-06 -2.1507953253142968e-06 0 -5.9908761344483343e-06 -5.0237386471663886e-06 0 -3.1276743688745851e-06 -7.1343900264759993e-06 0 -1.3809872217895454e-06 -3.7670919919503572e-06 0 1.3437639662916251e-06 -5.9413887426664104e-06 0 -1.3809872217895454e-06 -3.7670919919503572e-06 0 -3.1276743688745851e-06 -7.1343900264759993e-06 0 1.3437639662916251e-06 -5.9413887426664104e-06 0 -3.1276743688745851e-06 -7.1343900264760002e-06 0 -2.8655541176892388e-07 -1.0048490544093341e-05 0 -4.8692429897044975e-06 -1.2094966063437456e-05 0 -2.8655541176892377e-07 -1.0048490544093341e-05 0 -3.1276743688745851e-06 -7.1343900264759993e-06 0 -4.8692429897044975e-06 -1.2094966063437456e-05 0 -7.7289812240406378e-06 -1.8720657467442512e-05 0 -2.7551661011647001e-06 -1.6342718285659172e-05 0 -4.8692429897044975e-06 -1.2094966063437456e-05 0 -2.7551661011647001e-06 -1.6342718285659172e-05 0 -2.8655541176892388e-07 -1.0048490544093341e-05 0 2.2239474820903107e-06 -1.3461771319512919e-05 0 -2.8655541176892388e-07 -1.0048490544093341e-05 0 -2.7551661011647001e-06 -1.6342718285659172e-05 0 -4.8692429897044975e-06 -1.2094966063437456e-05 0 -9.5154419356990408e-06 -9.4369132166686155e-06 0 -1.0501030195083648e-05 -1.4488883740924169e-05 0 -4.8692429897044975e-06 -1.2094966063437456e-05 0 -3.1276743688745851e-06 -7.1343900264759993e-06 0 -9.5154419356990408e-06 -9.4369132166686155e-06 0 -4.8692429897044975e-06 -1.2094966063437456e-05 0 -1.0501030195083648e-05 -1.4488883740924169e-05 0 -7.7289812240406378e-06 -1.8720657467442512e-05 0 -9.5154419356990408e-06 -9.4369132166686155e-06 0 -1.6374939060393041e-05 -1.45635132276436e-05 0 -1.0501030195083648e-05 -1.4488883740924169e-05 0 -1.4056779052174426e-05 -1.8597362806852566e-05 0 -1.0501030195083648e-05 -1.4488883740924169e-05 0 -1.6374939060393041e-05 -1.45635132276436e-05 0 -1.6070834207112547e-05 -9.9404411644804011e-06 0 -1.6374939060393041e-05 -1.45635132276436e-05 0 -9.5154419356990408e-06 -9.4369132166686155e-06 0 -1.6070834207112547e-05 -9.9404411644804011e-06 0 -2.2244432361785903e-05 -1.452515529393142e-05 0 -1.6374939060393041e-05 -1.45635132276436e-05 0 -2.3358591788700501e-05 -2.181332033195571e-05 0 -1.6374939060393041e-05 -1.45635132276436e-05 0 -2.2244432361785903e-05 -1.452515529393142e-05 0 -3.0568393024272608e-05 -1.9730588912789082e-05 0 -2.3358591788700501e-05 -2.181332033195571e-05 0 -2.2244432361785903e-05 -1.452515529393142e-05 0 -2.6151458446616333e-05 -1.3260874240236044e-05 0 -3.0568393024272608e-05 -1.9730588912789082e-05 0 -2.2244432361785903e-05 -1.452515529393142e-05 0 -2.6151458446616333e-05 -1.3260874240236044e-05 0 -2.2244432361785903e-05 -1.452515529393142e-05 0 -2.0531620707708858e-05 -1.0357806078935841e-05 0 -1.6070834207112547e-05 -9.9404411644804011e-06 0 -2.0531620707708858e-05 -1.0357806078935841e-05 0 -2.2244432361785903e-05 -1.452515529393142e-05 0 -2.1799024314909924e-05 -8.2473175485774659e-06 0 -2.0531620707708858e-05 -1.0357806078935841e-05 0 -1.6348816003709793e-05 -6.6388666193734384e-06 0 -1.6070834207112547e-05 -9.9404411644804011e-06 0 -1.6348816003709793e-05 -6.6388666193734384e-06 0 -2.0531620707708858e-05 -1.0357806078935841e-05 0 -2.1799024314909924e-05 -8.2473175485774659e-06 0 -2.6151458446616333e-05 -1.3260874240236044e-05 0 -2.0531620707708858e-05 -1.0357806078935841e-05 0 -2.1799024314909924e-05 -8.2473175485774659e-06 0 -1.6348816003709793e-05 -6.6388666193734376e-06 0 -1.6076148090318322e-05 -4.5644649184158882e-06 0 -1.1793466752769549e-05 -3.0743205631059927e-06 0 -1.6348816003709793e-05 -6.6388666193734384e-06 0 -1.122338729644004e-05 -5.8250787539397693e-06 0 -1.6070834207112547e-05 -9.9404411644804011e-06 0 -9.5154419356990408e-06 -9.4369132166686138e-06 0 -1.122338729644004e-05 -5.8250787539397693e-06 0 -1.6070834207112547e-05 -9.9404411644804011e-06 0 -1.122338729644004e-05 -5.8250787539397693e-06 0 -1.6348816003709793e-05 -6.6388666193734384e-06 0 8.320228463594463e-06 -1.693569763968365e-06 0 7.7170974931752192e-06 -6.3446309714424134e-07 0 6.9233366342863801e-06 -2.788038770039465e-06 0 6.4637441551350897e-06 -1.3790671538119601e-06 0 6.9233366342863801e-06 -2.788038770039465e-06 0 7.7170974931752192e-06 -6.3446309714424134e-07 0 6.4637441551350897e-06 -1.3790671538119601e-06 0 5.4602884168509712e-06 -3.0588643475132901e-06 0 6.9233366342863801e-06 -2.788038770039465e-06 0 8.320228463594463e-06 -1.693569763968365e-06 0 9.3534700236135023e-06 5.8251463890730472e-07 0 7.7170974931752192e-06 -6.3446309714424134e-07 0 1.104127091041812e-05 2.1660248145042829e-06 0 9.3534700236135023e-06 5.8251463890730483e-07 0 1.05464473000