<?xml version="1.0"?>
<VTKFile type="UnstructuredGrid" version="0.1" byte_order="LittleEndian">
<UnstructuredGrid>
<Piece NumberOfPoints="3142" NumberOfCells="1054">
<Points>
<DataArray type="Float64" NumberOfComponents="3" format="ascii">
0.5 0.29999999999999999 0 0.54999999999999993 0.29999999999999999 0 0.54999999999999993 0.29999999999999999 0 0.59999999999999976 0.29999999999999999 0 0.59999999999999976 0.29999999999999999 0 0.6499999999999998 0.29999999999999999 0 0.6499999999999998 0.29999999999999999 0 0.69999999999999984 0.29999999999999999 0 0.69999999999999984 0.29999999999999999 0 0.74999999999999989 0.29999999999999999 0 0.74999999999999989 0.29999999999999999 0 0.79999999999999982 0.29999999999999999 0 0.79999999999999982 0.29999999999999999 0 0.84999999999999987 0.29999999999999999 0 0.84999999999999987 0.29999999999999999 0 0.89999999999999991 0.29999999999999999 0 0.89999999999999991 0.29999999999999999 0 0.94999999999999996 0.29999999999999999 0 0.94999999999999996 0.29999999999999999 0 1 0.29999999999999999 0 0.5 0.69999999999999996 0 0.54999999999999993 0.69999999999999996 0 0.54999999999999993 0.69999999999999996 0 0.59999999999999976 0.69999999999999996 0 0.59999999999999976 0.69999999999999996 0 0.6499999999999998 0.69999999999999996 0 0.6499999999999998 0.69999999999999996 0 0.69999999999999984 0.69999999999999996 0 0.69999999999999984 0.69999999999999996 0 0.74999999999999989 0.69999999999999996 0 0.74999999999999989 0.69999999999999996 0 0.79999999999999982 0.69999999999999996 0 0.79999999999999982 0.69999999999999996 0 0.84999999999999987 0.69999999999999996 0 0.84999999999999987 0.69999999999999996 0 0.89999999999999991 0.69999999999999996 0 0.89999999999999991 0.69999999999999996 0 0.94999999999999996 0.69999999999999996 0 0.94999999999999996 0.69999999999999996 0 1 0.69999999999999996 0 0.40076539126862748 0.34589349467022118 0 0.33277555741076909 0.36432196682010132 0 0.36575549820117997 0.31677992835137742 0 0.38083244760691543 0.38531983672244652 0 0.33277555741076909 0.36432196682010132 0 0.40076539126862748 0.34589349467022118 0 0.56836770495988642 0.3523062350852913 0 0.52289427570932567 0.3932284363388488 0 0.52752007115234678 0.33170632466418198 0 0.52752007115234678 0.33170632466418198 0 0.52289427570932567 0.3932284363388488 0 0.49077833859261139 0.35229981449445641 0 0.10000000000041601 1 0 0.053064897599294662 0.95186845269532028 0 0.10266856499240549 0.95548163909968886 0 0.099999999999814668 0 0 0.10266856499169109 0.044518360900210059 0 0.053064897599215843 0.048131547304697528 0 0.050000000000207989 1 0 0.053064897599294662 0.95186845269532028 0 0.10000000000041601 1 0 0.049999999999899652 0 0 0.099999999999814668 0 0 0.053064897599215843 0.048131547304697528 0 0.24999999999941211 0 0 0.29999999999926641 0 0 0.27499999999933927 0.060310814194988557 0 0.30000000000124832 1 0 0.25000000000104028 1 0 0.27609987656793722 0.94991445621608572 0 0.15720202157091859 0.60665697304410315 0 0.19914261668318661 0.62286739485272158 0 0.16500388252850301 0.66612077714085194 0 0.2236846579037573 0.67380363126050236 0 0.16500388252850301 0.66612077714085194 0 0.19914261668318661 0.62286739485272158 0 0.1247745017231483 0.27198077544791172 0 0.168349569971391 0.28054490850913671 0 0.14223753364722069 0.3341983344262433 0 0 0.75000000000034661 0 0 0.7000000000006934 0 0.049706944316475897 0.72477277076253799 0 0 0.30000000000124832 0 0 0.25000000000104028 0 0.049706944316556423 0.27522722923869108 0 0.59999999999999976 0.29999999999999999 0 0.61959173890754571 0.33832250091341232 0 0.56836770495988642 0.3523062350852913 0 0.5 0.69999999999999996 0 0.43323420005758778 0.6913544522562407 0 0.47913475093885149 0.66010775372412711 0 1 0.14999999999961891 0 0.95391631417672862 0.19584263333809451 0 0.93677536231883773 0.14999999999999089 0 1 0.84999999999982645 0 0.95391631417670719 0.89584263333814784 0 0.93677536231884972 0.85000000000000286 0 1 0.84999999999982645 0 0.93677536231884972 0.85000000000000286 0 0.95386563387742829 0.80414874155775029 0 1 0.14999999999961891 0 0.93677536231883773 0.14999999999999089 0 0.95386563387744361 0.1041487415577465 0 0.90416666666660628 0.9041666666666166 0 0.88088768115933802 0.84674609810493673 0 0.93677536231884972 0.85000000000000286 0 0.90416666666668166 0.20416666666667119 0 0.88088768115941807 0.14674609810479519 0 0.93677536231883773 0.14999999999999089 0 0.1247745017231483 0.27198077544791172 0 0.14223753364722069 0.3341983344262433 0 0.093851963071650835 0.30582068233324772 0 0.5 0.69999999999999996 0 0.45582236402875981 0.73896743678908217 0 0.43323420005758778 0.6913544522562407 0 0.55000000000173355 1 0 0.50000000000205869 1 0 0.52122150208832174 0.94089974453840242 0 0.49999999999869432 0 0 0.5499999999988151 0 0 0.52375890611712683 0.059318771819432882 0 0.54999999999999993 0.29999999999999999 0 0.59999999999999976 0.29999999999999999 0 0.56836770495988642 0.3523062350852913 0 0.50202631463681879 0.87892870825713787 0 0.44003836461056539 0.88093474584252718 0 0.45677673713123867 0.84253684404072415 0 0.33403534827021109 0.84402799729020661 0 0.35864759629805099 0.87963482415279515 0 0.30864387279288652 0.89906554525974958 0 0.53245488764484505 0.55078124999999989 0 0.47793794143994173 0.52940715638744962 0 0.53330375813596242 0.50827942741749099 0 0.82709327591102189 0.14937141670914489 0 0.81283102246527783 0.1881007222486438 0 0.77144070960558853 0.14311854477243749 0 0.82709327591091286 0.84937141670920724 0 0.81159157511211755 0.88795995483179491 0 0.76901770135486491 0.84293557325473656 0 0.77144070960558853 0.14311854477243749 0 0.81283102246527783 0.1881007222486438 0 0.76587607630038135 0.18880039518954719 0 0.76901770135486491 0.84293557325473656 0 0.81159157511211755 0.88795995483179491 0 0.76891166905518427 0.88835469571185499 0 0.33403534827021109 0.84402799729020661 0 0.30864387279288652 0.89906554525974958 0 0.29209212897034281 0.84715728365233667 0 0.57412547362576272 0.58273804879550706 0 0.5166924242153631 0.59825134841919447 0 0.53245488764484505 0.55078124999999989 0 0.50202631463681879 0.87892870825713787 0 0.47401147028110507 0.91529957330468115 0 0.44003836461056539 0.88093474584252718 0 0.5 0.69999999999999996 0 0.54999999999999993 0.69999999999999996 0 0.55363780716230748 0.74348740161571747 0 1 0.34999999999993492 0 0.95871855522754235 0.40006508612975411 0 0.95780851984364423 0.34215720972155339 0 1 0.64999999999986979 0 0.9578014258160763 0.65787212321113708 0 0.95867599106212187 0.60011091146651041 0 0.46666084890304671 0.57634471035397938 0 0.47793794143994173 0.52940715638744962 0 0.53245488764484505 0.55078124999999989 0 0.94999999999999996 0.29999999999999999 0 0.89898474358614167 0.25391965591104898 0 0.94399509803921056 0.24399509803922639 0 0.94999999999979179 1 0 0.89898474358632463 0.95391965591118966 0 0.94399509803919068 0.9439950980391687 0 0 0.65000000000104008 0 0.050069554451969707 0.61308520079857043 0 0.046634677244967337 0.671418230738282 0 0 0.35000000000145642 0 0.046389130980076937 0.32668781832131749 0 0.050583896093752537 0.38543522283434112 0 0.50202631463681879 0.87892870825713787 0 0.50627822638148745 0.8263979829520941 0 0.55899371797446828 0.85003102233514438 0 0.54782696902220018 0.79245182748204157 0 0.55899371797446828 0.85003102233514438 0 0.50627822638148745 0.8263979829520941 0 0.50945740445113552 0.75476055527778108 0 0.5 0.69999999999999996 0 0.55363780716230748 0.74348740161571747 0 0.84999999999965292 1 0 0.85170973911348691 0.93569607295217616 0 0.89898474358632463 0.95391965591118966 0 0.84999999999999987 0.29999999999999999 0 0.8517097391133297 0.2356960729520409 0 0.89898474358614167 0.25391965591104898 0 0.86956835336234861 0.571283299838105 0 0.82862096804812391 0.55037090955459045 0 0.86907294890112186 0.52008116128001669 0 0.49102375406324739 0.49123754822244059 0 0.53330375813596242 0.50827942741749099 0 0.47793794143994173 0.52940715638744962 0 0.57611405284611883 0.50165903596042916 0 0.61547661924074692 0.48539576058873962 0 0.62042975506801734 0.54295974692364424 0 0.71406021706547751 0.63292083137662503 0 0.67529834988829951 0.61613270668143583 0 0.71809016091162536 0.58185040402320831 0 0.65000000000104008 1 0 0.62065498684670595 0.95224934003983619 0 0.68015064798562208 0.95924320340003011 0 0.84999999999960507 0 0 0.899991664607802 0.045289349238254978 0 0.85491058998398861 0.060047533455626502 0 0.84999999999999987 0.69999999999999996 0 0.89999166460796554 0.74528934923809909 0 0.85491058998424563 0.76004753345552634 0 0.89999999999999991 0.29999999999999999 0 0.89898474358614167 0.25391965591104898 0 0.94999999999999996 0.29999999999999999 0 0.94999999999979179 1 0 0.89999999999958358 1 0 0.89898474358632463 0.95391965591118966 0 0.86411095495256451 0.42388805655111889 0 0.81308179852519835 0.39754945808726527 0 0.86844634540301924 0.38530937474099819 0 0.5 0.29999999999999999 0 0.49695729691142171 0.25014895411178018 0 0.54248833945060504 0.2520322959927106 0 0.86411095495256451 0.42388805655111889 0 0.81973119833356312 0.43505687159469048 0 0.81308179852519835 0.39754945808726527 0 0.67323294229744413 0.57556450033612505 0 0.71809016091162536 0.58185040402320831 0 0.67529834988829951 0.61613270668143583 0 0.6236733212988993 0.14864538214901801 0 0.68391457121233579 0.14440470121196541 0 0.64011864159029941 0.18789607982138171 0 0 0.050000000000207989 0 0.053064897599215843 0.048131547304697528 0 0.044310582753132287 0.101412518374475 0 0 0.94999999999979179 0 0.0443105827531413 0.89858748162559932 0 0.053064897599294662 0.95186845269532028 0 1 0.34999999999993492 0 1 0.39999999999978308 0 0.95871855522754235 0.40006508612975411 0 1 0.59999999999973963 0 1 0.64999999999986979 0 0.95867599106212187 0.60011091146651041 0 0 0.84999999999965292 0 0.065374659239661639 0.8551091961254178 0 0.0443105827531413 0.89858748162559932 0 0 0.15000000000062411 0 0.044310582753132287 0.101412518374475 0 0.065374659239632718 0.1448908038746782 0 0.16500388252850301
[...]
<PointData Scalars="" Vectors="displacement," Tensors="">
<DataArray type="Float64" Name="displacement" NumberOfComponents="3" format="ascii">
2.8504564688654806e-06 -5.8330289142273906e-06 0 3.9950259542049868e-06 -8.2633973904126046e-06 0 3.9950259542049868e-06 -8.2633973904126046e-06 0 4.4118357111989268e-06 -1.167837704547786e-05 0 4.4118357111989268e-06 -1.167837704547786e-05 0 4.9415531533295018e-06 -1.6057760511561033e-05 0 4.9415531533295018e-06 -1.6057760511561033e-05 0 5.5068064859672609e-06 -2.0938816101447094e-05 0 5.5068064859672609e-06 -2.0938816101447094e-05 0 6.2007452479238471e-06 -2.5441624728793968e-05 0 6.2007452479238471e-06 -2.5441624728793968e-05 0 7.1162972256187867e-06 -3.0785440137361823e-05 0 7.1162972256187867e-06 -3.0785440137361823e-05 0 8.0372007488279913e-06 -3.575642832697434e-05 0 8.0372007488279913e-06 -3.575642832697434e-05 0 9.9680405520717122e-06 -4.2023312764196771e-05 0 9.9680405520717122e-06 -4.2023312764196771e-05 0 1.0144394219708433e-05 -4.6250869848382877e-05 0 1.0144394219708433e-05 -4.6250869848382877e-05 0 2.0095649354455098e-05 -4.740396836381535e-05 0 8.4581018672388003e-06 8.5764905362958978e-06 0 2.0181289742712664e-05 1.2419932786238579e-05 0 2.0181289742712664e-05 1.2419932786238579e-05 0 1.9810754885468928e-05 1.6553111733149892e-05 0 1.9810754885468928e-05 1.6553111733149892e-05 0 2.2154944556852325e-05 1.9588968430421761e-05 0 2.2154944556852325e-05 1.9588968430421761e-05 0 2.3731575386037691e-05 2.6371189178691015e-05 0 2.3731575386037691e-05 2.6371189178691015e-05 0 2.5394055885258519e-05 3.192337082675848e-05 0 2.5394055885258519e-05 3.192337082675848e-05 0 2.7321844526410228e-05 3.7883253903477422e-05 0 2.7321844526410228e-05 3.7883253903477422e-05 0 2.852796257572319e-05 4.3699235276165015e-05 0 2.852796257572319e-05 4.3699235276165015e-05 0 3.3538952195167295e-05 5.3423617593412141e-05 0 3.3538952195167295e-05 5.3423617593412141e-05 0 2.6508417813277914e-05 5.7526654013485862e-05 0 2.6508417813277914e-05 5.7526654013485862e-05 0 6.9063832174663258e-05 5.4058401450892606e-05 0 2.8532050780109281e-06 -1.3460831529176081e-06 0 2.8189482383572108e-06 2.6262855690006628e-07 0 2.1427733320051723e-06 -6.8955660504633499e-07 0 3.4021593645077973e-06 -5.1837344698702495e-07 0 2.8189482383572108e-06 2.6262855690006628e-07 0 2.8532050780109281e-06 -1.3460831529176081e-06 0 2.4754930381303569e-06 -5.0534682501982987e-06 0 3.2841475638600153e-06 -3.5283052004560912e-06 0 2.3267454656197475e-06 -4.4161606146405185e-06 0 2.3267454656197475e-06 -4.4161606146405185e-06 0 3.2841475638600157e-06 -3.5283052004560912e-06 0 2.7729765148522753e-06 -3.6992264200914141e-06 0 -2.1014001750348213e-06 -6.6685238810249723e-07 0 -9.6197234734928528e-07 -6.318499270716865e-07 0 -2.1037798570253654e-06 -1.105234523827019e-06 0 -1.5694974608427544e-06 3.2503689660669224e-07 0 -1.5798624726352954e-06 6.339816026019904e-07 0 -7.3565534665581549e-07 3.6301249826784572e-07 0 -8.6965669867938348e-07 -2.1984322342022674e-07 0 -9.6197234734928528e-07 -6.318499270716865e-07 0 -2.1014001750348213e-06 -6.6685238810249723e-07 0 -6.7945200419102052e-07 6.6556371057833318e-08 0 -1.5694974608427544e-06 3.2503689660669224e-07 0 -7.3565534665581549e-07 3.6301249826784572e-07 0 -5.5444524828534046e-06 -9.2125855639159115e-08 0 -7.1905189681724366e-06 -8.9220813118520891e-07 0 -5.0782386740195362e-06 1.5722128772256028e-07 0 -1.097845212926252e-05 1.2195518118680673e-06 0 -8.1375605513656552e-06 -1.3032430133021979e-07 0 -7.6494284722618796e-06 -3.5934502690506054e-07 0 2.5854065105372111e-06 -1.7240244497627589e-07 0 3.4017684316723351e-06 -1.0721563475916582e-07 0 2.3760604189637187e-06 -7.5695508254419487e-07 0 3.5171188482117705e-06 -4.6923835261482071e-07 0 2.3760604189637187e-06 -7.5695508254419487e-07 0 3.4017684316723351e-06 -1.0721563475916582e-07 0 2.0140317904573489e-07 1.3453397565240613e-06 0 4.3039480700199587e-07 1.4564803602402372e-06 0 9.0245445942273489e-07 1.328611884565192e-06 0 1.488229922083416e-10 -3.9499599740994008e-10 0 3.5517682004821802e-10 -2.6865711625767968e-10 0 3.1938575320583017e-07 -7.6106058591840984e-07 0 1.5914524334711395e-10 2.8612255044911655e-10 0 -2.073742193091126e-11 3.2387941595962872e-10 0 8.0726860068266767e-08 7.3548855586682417e-07 0 1.0145109829221663e-06 -6.8155897781564762e-06 0 1.9494081702138895e-06 -7.2292333766774029e-06 0 2.4754930381303569e-06 -5.0534682501982987e-06 0 1.4446021291301703e-05 8.0673437253854033e-06 0 1.0157444180194146e-05 4.6499392746413438e-06 0 1.1083720109889823e-05 5.2957946182393028e-06 0 -5.9141365164744119e-06 -7.7509138256349626e-05 0 8.1451878771772507e-07 -7.0391995304080538e-05 0 -6.2635940024548293e-06 -6.7213596033112428e-05 0 -3.6441414063739011e-06 0.00015424406402894772 0 -1.7587712984188731e-05 0.00013923855686956947 0 -4.1859279696407831e-06 0.00013412018148736035 0 -3.6441414063739011e-06 0.00015424406402894772 0 -4.1859279696407831e-06 0.00013412018148736035 0 9.972079665103582e-06 0.00014004183912820348 0 -5.9141365164744119e-06 -7.7509138256349626e-05 0 -6.2635940024548293e-06 -6.7213596033112428e-05 0 -1.2929681072157904e-05 -6.9762665647532551e-05 0 -2.0076026306944598e-05 0.00012343665356356881 0 -3.6840996717059433e-06 0.00011617204635332301 0 -4.1859279696407831e-06 0.00013412018148736035 0 1.4354264631678972e-06 -6.1887999803066277e-05 0 -6.947009953190555e-06 -5.7871865807271664e-05 0 -6.2635940024548293e-06 -6.7213596033112428e-05 0 2.0140317904573489e-07 1.3453397565240613e-06 0 9.0245445942273489e-07 1.328611884565192e-06 0 3.7888243608677801e-07 1.1273745146068626e-06 0 1.4446021291301703e-05 8.0673437253854033e-06 0 8.8591352568045437e-06 6.4196882916392123e-06 0 1.0157444180194146e-05 4.6499392746413438e-06 0 -3.1530447447158472e-05 2.7502939505055962e-05 0 -2.7351791456885028e-05 1.8852017757828552e-05 0 -1.9376786718927785e-05 2.0740632276707687e-05 0 -1.5970859735655549e-05 -9.7118522306655077e-06 0 -1.8215058056189783e-05 -1.3831214056166149e-05 0 -1.2279033446251028e-05 -1.0729888193843388e-05 0 1.7752982419008098e-06 -5.0226965849878205e-06 0 1.0145109829221663e-06 -6.8155897781564762e-06 0 2.4754930381303569e-06 -5.0534682501982987e-06 0 -9.1697526788515251e-06 1.62230624400767e-05 0 -7.6957350221393124e-06 8.1579610519280024e-06 0 -3.3488609793801698e-06 9.2855428446794774e-06 0 -2.2843537449530332e-06 5.389377328786311e-07 0 -5.5407956044673014e-06 1.9303705499689574e-06 0 -5.8693414459600028e-06 -4.8538529853023827e-08 0 7.3093444590962323e-06 -1.6398427433387582e-06 0 6.4897263627528518e-06 1.1252310944072201e-07 0 6.1338663518797075e-06 -2.3452300924091998e-06 0 -6.6626155706579505e-06 -4.9052479274864557e-05 0 -1.6433358014309701e-06 -4.6723287969045331e-05 0 -7.4696470754184997e-06 -4.0285232947120176e-05 0 -4.8247353716900356e-06 9.9213133571580053e-05 0 -1.5201691845733049e-05 9.4414089928873099e-05 0 -3.4789206000718441e-06 8.1494059018859328e-05 0 -7.4696470754184997e-06 -4.0285232947120176e-05 0 -1.6433358014309701e-06 -4.6723287969045331e-05 0 -1.7924728844314914e-06 -3.935881366924215e-05 0 -3.4789206000718441e-06 8.1494059018859328e-05 0 -1.5201691845733049e-05 9.4414089928873099e-05 0 -1.5114245346601852e-05 8.148676387195786e-05 0 -2.2843537449530332e-06 5.389377328786311e-07 0 -5.8693414459600028e-06 -4.8538529853023827e-08 0 -2.1391317486178016e-06 -7.2188196284938794e-07 0 8.7736886239297435e-06 -3.7181428244423824e-06 0 8.5769379519490252e-06 1.6740382614245827e-07 0 7.3093444590962323e-06 -1.6398427433387582e-06 0 -9.1697526788515251e-06 1.62230624400767e-05 0 -1.3316971212098492e-05 1.3048248915436471e-05 0 -7.6957350221393124e-06 8.1579610519280024e-06 0 1.4446021291301703e-05 8.0673437253854033e-06 0 2.0758239455588269e-05 2.3896947523673912e-05 0 1.1842590812834832e-05 2.4340972813681235e-05 0 7.7037918357931921e-06 -2.1477320642595548e-05 0 6.3853710719239949e-06 -2.2295789692248946e-05 0 6.1784804884134247e-06 -2.1510542640908118e-05 0 2.4667430489560922e-05 -3.314966897240528e-05 0 2.3396949588645611e-05 -2.8033876435172901e-05 0 1.6996577460077007e-05 -2.7600706217594874e-05 0 7.772849415099294e-06 1.6821893061238923e-06 0 6.4897263627528518e-06 1.1252310944072201e-07 0 7.3093444590962323e-06 -1.6398427433387582e-06 0 1.781635515854219e-05 -6.8862592258914755e-05 0 8.7836522523521102e-06 -6.0971252448572669e-05 0 8.4225030900985974e-06 -6.8840215139490395e-05 0 -4.8702648312837994e-05 0.00013785537695503442 0 -3.4528133727745822e-05 0.00012187544118843245 0 -3.1792304748303019e-05 0.00013593959224974798 0 4.8641374010257638e-10 -2.1355527853953198e-10 0 6.4984035710644978e-07 -2.5601823722451836e-07 0 5.0075408946325009e-07 -4.8648216008183016e-07 0 2.7733788059831815e-10 2.8782922826263059e-10 0 2.3837336024147699e-07 6.3716524477114095e-07 0 4.2096860039684213e-07 5.9832933490089954e-07 0 -9.1697526788515251e-06 1.62230624400767e-05 0 -1.72523993568332e-06 1.5780190601400068e-05 0 -5.7670939984061564e-06 2.6314495037969942e-05 0 3.4804954872630662e-06 2.3227940969221117e-05 0 -5.7670939984061564e-06 2.6314495037969942e-05 0 -1.7252399356833198e-06 1.5780190601400072e-05 0 8.204389644369363e-06 1.3701620271186311e-05 0 1.4446021291301703e-05 8.0673437253854033e-06 0 1.1842590812834832e-05 2.4340972813681235e-05 0 -4.7655203090677309e-05 0.0001067495754330883 0 -2.8731193025342224e-05 0.0001069822690514001 0 -3.4528133727745822e-05 0.00012187544118843245 0 1.4485467079572705e-05 -5.1839402228331422e-05 0 5.1864893487978281e-06 -5.301371352636467e-05 0 8.7836522523521102e-06 -6.0971252448572669e-05 0 1.3111503442022463e-05 -2.0532723015827821e-05 0 1.1331947250826567e-05 -1.7992961220919564e-05 0 9.9634833496330953e-06 -2.0144615508363382e-05 0 5.5563669539433115e-06 -1.0749809267330172e-06 0 6.1338663518797075e-06 -2.3452300924091998e-06 0 6.4897263627528518e-06 1.1252310944072201e-07 0 6.2252718294168551e-06 -4.3883012266656154e-06 0 6.1166860103086233e-06 -6.4358931752181677e-06 0 8.0767317223452165e-06 -6.5840883991171304e-06 0 1.4109060024746431e-05 -1.1874599328969889e-05 0 1.2452895013035288e-05 -9.8761260463037757e-06 0 1.1481012794759265e-05 -1.2044515681630442e-05 0 -3.9261156864155301e-05 4.9762616017529537e-05 0 -2.6607709637853191e-05 4.1660051867970189e-05 0 -3.0875932633500699e-05 5.6842042366002778e-05 0 -2.7956943144859352e-05 -5.3101566184609408e-05 0 -2.1505882837545718e-05 -6.1009361781801787e-05 0 -1.9017792422443423e-05 -5.3700587724811775e-05 0 3.8052323276724964e-05 0.00010475450549230914 0 2.6671342157949752e-05 0.00012223963905856332 0 2.0587683866006404e-05 0.00010794881265053049 0 1.5929807464434579e-05 -6.0039677659177917e-05 0 8.7836522523521102e-06 -6.0971252448572669e-05 0 1.781635515854219e-05 -6.8862592258914755e-05 0 -4.8702648312837994e-05 0.00013785537695503442 0 -4.8374294946064569e-05 0.00012235059158901857 0 -3.4528133727745822e-05 0.00012187544118843245 0 5.8688383556044884e-06 -1.9259282428854002e-05 0 4.5905512674861767e-06 -1.6821162187345084e-05 0 4.7585256716551452e-06 -1.9341070579735551e-05 0 3.21958800528467e-06 -5.5479903695430262e-06 0 1.1661410464369913e-06 -6.5245960292686645e-06 0 1.8483325830923116e-06 -1.0607400551213454e-05 0 5.8688383556044884e-06 -1.9259282428854002e-05 0 5.9400964216741905e-06 -1.7155169309859926e-05 0 4.5905512674861758e-06 -1.6821162187345084e-05 0 1.0416172182362755e-05 -9.6400363192485434e-06 0 1.1481012794759265e-05 -1.2044515681630442e-05 0 1.2452895013035288e-05 -9.8761260463037757e-06 0 -6.3063203206890394e-06 -2.0028731405480166e-05 0 -7.0000446430854717e-06 -2.765841848686339e-05 0 -2.4703344940702464e-06 -2.188801849908294e-05 0 -5.7811432481041963e-10 1.8774032757357694e-10 0 -7.3565534665581549e-07 3.6301249826784572e-07 0 -4.7876824286755652e-07 4.9018687289663107e-07 0 -7.855816391043353e-10 -3.083029966473758e-10 0 -5.8584785232745575e-07 -7.6898172232695593e-07 0 -9.6197234734928528e-07 -6.318499270716865e-07 0 7.7037918357931921e-06 -2.1477320642595548e-05 0 7.4274087978246034e-06 -2.2833956879897942e-05 0 6.3853710719239949e-06 -2.2295789692248946e-05 0 1.8349752208757962e-05 -3.1834703609285297e-05 0 2.4667430489560922e-05 -3.314966897240528e-05 0 1.6996577460077007e-05 -2.7600706217594874e-05 0 -3.1923616258468209e-10 -5.3536738577538382e-10 0 -5.8588302796482646e-07 -1.1866149604782215e-06 0 -5.8584785232745564e-07 -7.6898172232695593e-07 0 -3.141830091611135e-10 3.5794482696951016e-10 0 -4.7876824286755652e-07 4.9018687289663107e-07 0 -5.6516421278365677e-07 8.1471485683126279e-07 0 2.3760604189637187e-06 -7.5695508254419487e-07 0 1.0811278074503324e-06 -9.9602546115703525e-07 0 1.7683344798479921e-06 -5.7286133035483593e-07 0 -2.6824956741606761e-06 4.7406753759487047e-07 0 -2.2900454748612907e-06 8.854586301506321e-07 0 -1.5798624726352954e-06 6.339816026019904e-07 0 -3.7172344166517606e-06 -9.2771711712853955e-07 0 -2.1037798570253659e-06 -1.1052345238270193e-06 0 -3.0482909179821178e-06 -1.5054802513102454e-06 0 8.698358038261823e-06 -1.1741569487079411e-05 0 8.6466277753726064e-06 -9.6338660286265776e-06 0 6.8430579247621577e-06 -1.0519543533775261e-05 0 7.0165698996591602e-06 -8.4009540257022124e-06 0 8.0767317223452165e-06 -6.5840883991171304e-06 0 6.1166860103086233e-06 -6.4358931752181677e-06 0 4.3949788297712089e-05 0.00013684028253752446 0 2.5224215166946151e-05 0.00013682943543699003 0 2.6671342157949752e-05 0.00012223963905856332 0 -2.8617404403306141e-05 -6.9034811565974732e-05 0 -2.0048950880772974e-05 -6.8047494053174816e-05 0 -2.1505882837545718e-05 -6.1009361781801787e-05 0 7.0165698996591602e-06 -8.4009540257022124e-06 0 6.8430579247621577e-06 -1.0519543533775261e-05 0 8.6466277753726064e-06 -9.6338660286265776e-06 0 1.1331947250826567e-05 -1.7992961220919564e-05 0 1.3768787440195598e-05 -1.744904883297591e-05 0 1.0338918576924028e-05 -1.4797940588182867e-05 0 -1.608614685606217e-05 6.8695097517161886e-05 0 -1.2319757966981972e-05 5.1860876890287123e-05 0 -4.4815456863745479e-06 5.7946107508488396e-05 0 -7.855816391043353e-10 -3.083029966473758e-10 0 -7.1428252069167529e-10 -2.2320180183435358e-10 0 -5.8584785232745564e-07 -7.6898172232695593e-07 0 -5.8636382704443262e-10 1.4030670787813571e-10 0 -5.7811432481041963e-10 1.8774032757357694e-10 0 -4.7876824286755652e-07 4.9018687289663107e-07 0 2.3760604189637187e-06 -7.5695508254419487e-07 0 1.6346199548685984e-06 -1.1961880691670799e-06 0 1.0811278074503324e-06 -9.9602546115703525e-07 0 1.1512508735205701e-05 0.00012339510803185182 0 -4.1859279696407831e-06 0.00013412018148736035 0 -3.6840996717059433e-06 0.00011617204635332301 0 -1.4196362860832584e-05 -6.1451202796045532e-05 0 -6.2635940024548293e-06 -6.7213596033112428e-05 0 -6.947009953190555e-06 -5.7871865807271664e-05 0 -7.0000446430854717e-06 -2.765841848686339e-05 0 -2.1553338808250609e-06 -2.7932187568538385e-05 0 -2.4703344940702464e-06 -2.188801849908294e-05 0 1.2398067312408294e-06 2.0618611220527452e-07 0 1.8039043584121452e-06 5.0914438373330563e-07 0 1.8053641360093007e-06 5.4794631530583787e-08 0 -5.9898515017284324e-07 -1.7311336203000365e-06 0 9.5753971551038977e-07 -1.5179354634868787e-06 0 -3.0224806867200135e-07 -1.2617920326673872e-06 0 1.3768787440195598e-05 -1.744904883297591e-05 0 1.3070296385579689e-05 -1.502354275013596e-05 0 1.0338918576924028e-05 -1.4797940588182867e-05 0 1.8053641360093007e-06 5.4794631530583787e-08 0 1.8039043584121452e-06 5.0914438373330563e-07 0 2.4208947510801129e-06 2.8698426947029294e-07 0 1.8039043584121452e-06 5.0914438373330563e-07 0 9.1550777357638272e-07 3.8108021798217548e-07 0 1.4816869581907265e-06 7.1621928169865276e-07 0 8.8674227750005825e-07 6.6143121773557663e-07 0 1.4816869581907265e-06 7.1621928169865276e-07 0 9.1550777357638272e-07 3.8108021798217548e-07 0 3.8163487686838284e-06 -1.7949443708288516e-05 0 4.5905512674861758e-06 -1.6821162187345084e-05 0 2.6954935925433724e-06 -1.5491081544718919e-05 0 6.2252718294168551e-06 -4.3883012266656154e-06 0 8.0767317223452165e-06 -6.5840883991171296e-06 0 7.4861100953841871e-06 -4.0149853417689718e-06 0 1.3111503442022463e-05 -2.0532723015827821e-05 0 1.3768787440195598e-05 -1.744904883297591e-05 0 1.1331947250826567e-05 -1.7992961220919564e-05 0 7.772849415099294e-06 1.6821893061238923e-06 0 7.3093444590962323e-06 -1.639842743338758e-06 0 8.5769379519490252e-06 1.6740382614245827e-07 0 4.0692762572979666e-05 0.00012021486520529543 0 4.3949788297712089e-05 0.00013684028253752446 0 2.6671342157949752e-05 0.00012223963905856332 0 -2.8413133306796727e-05 -6.1107857045780424e-05 0 -2.8617404403306141e-05 -6.9034811565974732e-05 0 -2.1505882837545718e-05 -6.1009361781801787e-05 0 -2.7956943144859352e-05 -5.3101566184609408e-05 0 -2.8413133306796727e-05 -6.1107857045780424e-05 0 -2.1505882837545718e-05 -6.1009361781801787e-05 0 3.8052323276724964e-05 0.00010475450549230914 0 4.0692762572979666e-05 0.00012021486520529543 0 2.6671342157949752e-05 0.00012223963905856332 0 8.6095646971210764e-06 2.9014324465003907e-06 0 7.6737490390790981e-06 2.3678690460921766e-06 0 7.772849415099294e-06 1.6821893061238923e-06 0 1.6179282130795459e-06 1.2241598646495243e-06 0 1.0618038568041046e-06 1.0323741878868737e-06 0 9.0245445942273489e-07 1.328611884565192e-06 0 6.067256981695312e-07 9.8406131435822854e-07 0 9.0245445942273489e-07 1.328611884565192e-06 0 1.0618038568041046e-06 1.0323741878868737e-06 0 1.668720556074404e-05 5.9597424687606031e-05 0 2.1302455272405188e-05 6.8845480723006075e-05 0 7.7025228330391123e-06 6.8736505161245043e-05 0 2.1302455272405188e-05 6.8845480723006075e-05 0 1.9061571450209305e-05 7.8472044351901184e-05 0 7.7025228330391123e-06 6.8736505161245043e-05 0 8.7736886239297435e-06 -3.7181428244423824e-06 0 7.3093444590962323e-06 -1.6398427433387584e-06 0 7.4861100953841871e-06 -4.0149853417689718e-06 0 1.34764248857453e-05 -2.9559143369313389e-05 0 1.6996577460077007e-05 -2.7600706217594874e-05 0 1.3205726091467775e-05 -2.4977417705882942e-05 0 8.1617265622275848e-06 -2.4910557772405988e-05 0 7.1798458009094783e-06 -2.2622639005278553e-05 0 6.3853710719239949e-06 -2.2295789692248946e-05 0 7.6737490390790981e-06 2.3678690460921766e-06 0 6.8099452344664155e-06 1.4373168637896614e-06 0 7.772849415099294e-06 1.6821893061238923e-06 0 -4.8374294946064569e-05 0.00012235059158901857 0 -4.7655203090677309e-05 0.0001067495754330883 0 -3.4528133727745822e-05 0.00012187544118843245 0 1.4485467079572705e-05 -5.1839402228331422e-05 0 8.7836522523521102e-06 -6.0971252448572669e-05 0 1.5929807464434579e-05 -6.0039677659177917e-05 0 -7.1905189681724366e-06 -8.9220813118520891e-07 0 -6.8343348452730953e-06 -9.0699245919652469e-07 0 -5.0782386740195362e-06 1.5722128772256028e-07 0 -1.097845212926252e-05 1.2195518118680673e-06 0 -7.6494284722618796e-06 -3.5934502690506054e-07 0 -1.0134056954516503e-05 1.3490662407229647e-06 0 8.7736886239297435e-06 -3.7181428244423824e-06 0 8.0767317223452165e-06 -6.5840883991171304e-06 0 1.0563662570134154e-05 -7.3424851821517386e-06 0 3.21958800528467e-06 -5.5479903695430262e-06 0 1.8483325830923116e-06 -1.0607400551213454e-05 0 5.9113610654646716e-06 -1.1682482741218384e-05 0 1.0416172182362755e-05 -9.6400363192485434e-06 0 8.0767317223452165e-06 -6.5840883991171304e-06 0 8.6466277753726064e-06 -9.6338660286265776e-06 0 7.0165698996591602e-06 -8.4009540257022124e-06 0 8.6466277753726064e-06 -9.6338660286265776e-06 0 8.0767317223452165e-06 -6.5840883991171304e-06 0 -5.9141365164744119e-06 -7.7509138256349626e-05 0 2.0944896545884278e-06 -7.8267556837794192e-05 0 8.1451878771772507e-07 -7.0391995304080538e-05 0 -3.6441414063739011e-06 0.00015424406402894772 0 -1.8576634389830306e-05 0.00015352583414541716 0 -1.7587712984188727e-05 0.00013923855686956947 0 1.222342934243961e-05 0.00015533746217613175 0 -3.6441414063739011e-06 0.00015424406402894772 0 9.972079665103582e-06 0.00014004183912820348 0 -1.3391769981489217e-05 -7.7033592710632425e-05 0 -5.9141365164744119e-06 -7.7509138256349626e-05 0 -1.2929681072157904e-05 -6.9762665647532551e-05 0 3.8287874210139528e-06 8.9556276365607487e-06 0 -1.7252399356833198e-