<?xml version="1.0"?>
<VTKFile type="UnstructuredGrid" version="0.1" byte_order="LittleEndian">
<UnstructuredGrid>
<Piece NumberOfPoints="3142" NumberOfCells="1054">
<Points>
<DataArray type="Float64" NumberOfComponents="3" format="ascii">
0.02576622439977887 0.024532886826226379 0 0 0 0 0.049999999999899652 0 0 0.02576622439977887 0.024532886826226379 0 0 0 0 0 0.050000000000207989 0 0.02576622439977887 0.024532886826226379 0 0.049999999999899652 0 0 0.053064897599215843 0.048131547304697528 0 0.02576622439977887 0.024532886826226379 0 0.053064897599215843 0.048131547304697528 0 0 0.050000000000207989 0 0 0.050000000000207989 0 0 0.10000000000041601 0 0.044310582753132287 0.101412518374475 0 0 0.10000000000041601 0 0.044310582753132287 0.101412518374475 0 0 0.15000000000062411 0 0.053064897599215843 0.048131547304697528 0 0.044310582753132287 0.101412518374475 0 0.083411279318303222 0.089699755330707398 0 0.053064897599215843 0.048131547304697528 0 0 0.050000000000207989 0 0.044310582753132287 0.101412518374475 0 0.044310582753132287 0.101412518374475 0 0.083411279318303222 0.089699755330707398 0 0.065374659239632718 0.1448908038746782 0 0.083411279318303222 0.089699755330707398 0 0.065374659239632718 0.1448908038746782 0 0.1053400320299198 0.12877248826361379 0 0.083411279318303222 0.089699755330707398 0 0.12372429750337779 0.095814237875728972 0 0.1053400320299198 0.12877248826361379 0 0.12372429750337779 0.095814237875728972 0 0.1053400320299198 0.12877248826361379 0 0.14332333627550789 0.14578431753966009 0 0.12372429750337779 0.095814237875728972 0 0.10266856499169109 0.044518360900210059 0 0.14618258501891079 0.062070108745602003 0 0.083411279318303222 0.089699755330707398 0 0.12372429750337779 0.095814237875728972 0 0.10266856499169109 0.044518360900210059 0 0.10266856499169109 0.044518360900210059 0 0.099999999999814668 0 0 0.14999999999970359 0 0 0.049999999999899652 0 0 0.053064897599215843 0.048131547304697528 0 0.099999999999814668 0 0 0.053064897599215843 0.048131547304697528 0 0.10266856499169109 0.044518360900210059 0 0.099999999999814668 0 0 0.053064897599215843 0.048131547304697528 0 0.083411279318303222 0.089699755330707398 0 0.10266856499169109 0.044518360900210059 0 0.044081577119474857 0.2271058242433576 0 0 0.20000000000083221 0 0 0.25000000000104028 0 0.044081577119474857 0.2271058242433576 0 0 0.20000000000083221 0 0.038512288486115001 0.1844147282893184 0 0.044081577119474857 0.2271058242433576 0 0.038512288486115001 0.1844147282893184 0 0.083105206071467416 0.20007701332709979 0 0.038512288486115001 0.1844147282893184 0 0 0.15000000000062411 0 0.065374659239632718 0.1448908038746782 0 0.044310582753132287 0.101412518374475 0 0 0.15000000000062411 0 0.065374659239632718 0.1448908038746782 0 0.038512288486115001 0.1844147282893184 0 0.065374659239632718 0.1448908038746782 0 0.083105206071467416 0.20007701332709979 0 0 0.20000000000083221 0 0.038512288486115001 0.1844147282893184 0 0 0.15000000000062411 0 0.065374659239632718 0.1448908038746782 0 0.1053400320299198 0.12877248826361379 0 0.106902708054812 0.16453234188234539 0 0.1053400320299198 0.12877248826361379 0 0.106902708054812 0.16453234188234539 0 0.14332333627550789 0.14578431753966009 0 0.065374659239632718 0.1448908038746782 0 0.106902708054812 0.16453234188234539 0 0.083105206071467416 0.20007701332709979 0 0.083105206071467416 0.20007701332709979 0 0.095326043202144745 0.24554465089224409 0 0.13737030665753211 0.20313708640667491 0 0.106902708054812 0.16453234188234539 0 0.083105206071467416 0.20007701332709979 0 0.13737030665753211 0.20313708640667491 0 0.044081577119474857 0.2271058242433576 0 0.083105206071467416 0.20007701332709979 0 0.095326043202144745 0.24554465089224409 0 0.044081577119474857 0.2271058242433576 0 0.095326043202144745 0.24554465089224409 0 0.049706944316556423 0.27522722923869108 0 0.095326043202144745 0.24554465089224409 0 0.14377654328998779 0.2442024734791064 0 0.13737030665753211 0.20313708640667491 0 0.17933913398461551 0.2350063570234002 0 0.14377654328998779 0.2442024734791064 0 0.13737030665753211 0.20313708640667491 0 0.17933913398461551 0.2350063570234002 0 0.13737030665753211 0.20313708640667491 0 0.18124454140915969 0.18790916706335251 0 0.18124454140915969 0.18790916706335251 0 0.14332333627550789 0.14578431753966009 0 0.18652628422869419 0.14162325200928061 0 0.106902708054812 0.16453234188234539 0 0.13737030665753211 0.20313708640667491 0 0.14332333627550789 0.14578431753966009 0 0.13737030665753211 0.20313708640667491 0 0.18124454140915969 0.18790916706335251 0 0.14332333627550789 0.14578431753966009 0 0.14332333627550789 0.14578431753966009 0 0.18652628422869419 0.14162325200928061 0 0.16141998738593399 0.10404039647458049 0 0.18652628422869419 0.14162325200928061 0 0.22985637510995899 0.1298347970200906 0 0.2185883431182947 0.18019736283949719 0 0.22985637510995899 0.1298347970200906 0 0.2185883431182947 0.18019736283949719 0 0.25557216766470708 0.15874861286892261 0 0.2185883431182947 0.18019736283949719 0 0.25557216766470708 0.15874861286892261 0 0.26429849586623999 0.19346700179430079 0 0.18124454140915969 0.18790916706335251 0 0.18652628422869419 0.14162325200928061 0 0.2185883431182947 0.18019736283949719 0 0.17933913398461551 0.2350063570234002 0 0.18124454140915969 0.18790916706335251 0 0.224700362040408 0.22206622194729711 0 0.18124454140915969 0.18790916706335251 0 0.2185883431182947 0.18019736283949719 0 0.224700362040408 0.22206622194729711 0 0.2185883431182947 0.18019736283949719 0 0.224700362040408 0.22206622194729711 0 0.26429849586623999 0.19346700179430079 0 0.224700362040408 0.22206622194729711 0 0.25195515620380449 0.25883339815888678 0 0.21049769590865089 0.26857363548218488 0 0.17933913398461551 0.2350063570234002 0 0.224700362040408 0.22206622194729711 0 0.21049769590865089 0.26857363548218488 0 0.184418230509967 0.038773194583122873 0 0.14999999999970359 0 0 0.14618258501891079 0.062070108745602003 0 0.184418230509967 0.038773194583122873 0 0.14618258501891079 0.062070108745602003 0 0.19922788606653311 0.085920220746880993 0 0.184418230509967 0.038773194583122873 0 0.14999999999970359 0 0 0.19999999999955789 0 0 0.10266856499169109 0.044518360900210059 0 0.14999999999970359 0 0 0.14618258501891079 0.062070108745602003 0 0.12372429750337779 0.095814237875728972 0 0.14618258501891079 0.062070108745602003 0 0.16141998738593399 0.10404039647458049 0 0.12372429750337779 0.095814237875728972 0 0.14332333627550789 0.14578431753966009 0 0.16141998738593399 0.10404039647458049 0 0.18652628422869419 0.14162325200928061 0 0.16141998738593399 0.10404039647458049 0 0.19922788606653311 0.085920220746880993 0 0.14618258501891079 0.062070108745602003 0 0.16141998738593399 0.10404039647458049 0 0.19922788606653311 0.085920220746880993 0 0.18652628422869419 0.14162325200928061 0 0.22985637510995899 0.1298347970200906 0 0.19922788606653311 0.085920220746880993 0 0.22985637510995899 0.1298347970200906 0 0.19922788606653311 0.085920220746880993 0 0.24218496799700481 0.089025544070598317 0 0.22985637510995899 0.1298347970200906 0 0.24218496799700481 0.089025544070598317 0 0.27474541102162192 0.11822029332053539 0 0.19922788606653311 0.085920220746880993 0 0.24218496799700481 0.089025544070598317 0 0.22668068146512929 0.045875643423131329 0 0.24218496799700481 0.089025544070598317 0 0.22668068146512929 0.045875643423131329 0 0.27499999999933927 0.060310814194988557 0 0.184418230509967 0.038773194583122873 0 0.19922788606653311 0.085920220746880993 0 0.22668068146512929 0.045875643423131329 0 0.184418230509967 0.038773194583122873 0 0.22668068146512929 0.045875643423131329 0 0.19999999999955789 0 0 0.22668068146512929 0.045875643423131329 0 0.19999999999955789 0 0 0.24999999999941211 0 0 0.24999999999941211 0 0 0.27499999999933927 0.060310814194988557 0 0.29999999999926641 0 0 0.22668068146512929 0.045875643423131329 0 0.24999999999941211 0 0 0.27499999999933927 0.060310814194988557 0 0.27499999999933927 0.060310814194988557 0 0.29999999999926641 0 0 0.32541448401678508 0.046215317981507749 0 0.29999999999926641 0 0 0.32541448401678508 0.046215317981507749 0 0.34999999999912063 0 0 0.32541448401678508 0.046215317981507749 0 0.3615861437013822 0.03582617922508851 0 0.35312867752657662 0.084946736076730367 0 0.3615861437013822 0.03582617922508851 0 0.35312867752657662 0.084946736076730367 0 0.39591832466117061 0.056982757562006353 0 0.32541448401678508 0.046215317981507749 0 0.3615861437013822 0.03582617922508851 0 0.34999999999912063 0 0 0.3615861437013822 0.03582617922508851 0 0.34999999999912063 0 0 0.3999999999989749 0 0 0.35312867752657662 0.084946736076730367 0 0.36246644853392812 0.1399454205365751 0 0.39823268594401579 0.1116623613130045 0 0.35312867752657662 0.084946736076730367 0 0.32215584939770009 0.1218492143506909 0 0.36246644853392812 0.1399454205365751 0 0.32541448401678508 0.046215317981507749 0 0.35312867752657662 0.084946736076730367 0 0.3096713403101819 0.085471541595262421 0 0.35312867752657662 0.084946736076730367 0 0.32215584939770009 0.1218492143506909 0 0.3096713403101819 0.085471541595262421 0 0.32215584939770009 0.1218492143506909 0 0.3096713403101819 0.085471541595262421 0 0.27474541102162192 0.11822029332053539 0 0.27499999999933927 0.060310814194988557 0 0.32541448401678508 0.046215317981507749 0 0.3096713403101819 0.085471541595262421 0 0.27499999999933927 0.060310814194988557 0 0.3096713403101819 0.085471541595262421 0 0.27474541102162192 0.11822029332053539 0 0.24218496799700481 0.089025544070598317 0 0.27499999999933927 0.060310814194988557 0 0.27474541102162192 0.11822029332053539 0 0.22985637510995899 0.1298347970200906 0 0.27474541102162192 0.11822029332053539 0 0.25557216766470708 0.15874861286892261 0 0.27474541102162192 0.11822029332053539 0 0.25557216766470708 0.15874861286892261 0 0.29336099386129338 0.15892013001050981 0 0.25557216766470708 0.15874861286892261 0 0.29336099386129338 0.15892013001050981 0 0.26429849586623999 0.19346700179430079 
[...]
<PointData Scalars="" Vectors="displacement," Tensors="">
<DataArray type="Float64" Name="displacement" NumberOfComponents="3" format="ascii">
-9.4785139930320005e-07 2.1838558590028256e-07 0 -1.8216118831808972e-09 -7.4930351359791276e-10 0 -2.0927700930403568e-06 1.439309085390069e-09 0 -9.4785139930320005e-07 2.1838558590028256e-07 0 -1.8216118831808939e-09 -7.4930351359791214e-10 0 -1.6724562886591289e-09 5.3502674334267637e-10 0 -9.4785139930320005e-07 2.1838558590028256e-07 0 -2.0927700930403568e-06 1.439309085390069e-09 0 -2.1271895828423779e-06 8.565694565383764e-07 0 -9.4785139930320005e-07 2.1838558590028256e-07 0 -2.1271895828423779e-06 8.565694565383764e-07 0 -1.6724562886591289e-09 5.3502674334267637e-10 0 -1.6724562886591289e-09 5.3502674334267637e-10 0 -1.656166894069768e-09 3.2525512599376374e-10 0 -1.3555368440861342e-06 1.244370947999345e-06 0 -1.656166894069768e-09 3.2525512599376374e-10 0 -1.3555368440861342e-06 1.244370947999345e-06 0 -8.6922132816534044e-10 9.7458288498090649e-10 0 -2.1271895828423779e-06 8.565694565383764e-07 0 -1.3555368440861342e-06 1.244370947999345e-06 0 -2.9625571736651985e-06 1.8617185060901289e-06 0 -2.1271895828423779e-06 8.565694565383764e-07 0 -1.6724562886591289e-09 5.3502674334267637e-10 0 -1.3555368440861342e-06 1.244370947999345e-06 0 -1.3555368440861342e-06 1.244370947999345e-06 0 -2.9625571736651985e-06 1.8617185060901289e-06 0 -1.5672590596116055e-06 2.0703587626443505e-06 0 -2.9625571736651985e-06 1.8617185060901289e-06 0 -1.5672590596116055e-06 2.0703587626443505e-06 0 -3.0202440897802741e-06 2.6173475419504848e-06 0 -2.9625571736651985e-06 1.8617185060901289e-06 0 -4.5710495912273173e-06 2.383191247127838e-06 0 -3.0202440897802741e-06 2.6173475419504848e-06 0 -4.5710495912273173e-06 2.383191247127838e-06 0 -3.0202440897802741e-06 2.6173475419504848e-06 0 -3.6557010057764875e-06 3.0610046838282612e-06 0 -4.5710495912273173e-06 2.383191247127838e-06 0 -4.5685416088263007e-06 1.3997408157791317e-06 0 -6.5297437723815302e-06 1.892241342298395e-06 0 -2.9625571736651985e-06 1.8617185060901289e-06 0 -4.5710495912273173e-06 2.383191247127838e-06 0 -4.5685416088263007e-06 1.3997408157791317e-06 0 -4.5685416088263007e-06 1.3997408157791317e-06 0 -4.6936498011271693e-06 5.2768215808273661e-07 0 -7.8790373255761866e-06 7.0753948309500615e-07 0 -2.0927700930403568e-06 1.439309085390069e-09 0 -2.1271895828423779e-06 8.565694565383764e-07 0 -4.6936498011271693e-06 5.2768215808273661e-07 0 -2.1271895828423779e-06 8.565694565383764e-07 0 -4.5685416088263007e-06 1.3997408157791317e-06 0 -4.6936498011271693e-06 5.2768215808273661e-07 0 -2.1271895828423779e-06 8.565694565383764e-07 0 -2.9625571736651985e-06 1.8617185060901289e-06 0 -4.5685416088263007e-06 1.3997408157791317e-06 0 -2.1829445100442755e-07 1.7390797128057817e-06 0 -5.4375576199612198e-10 6.9084577098032744e-10 0 -2.4746699392104942e-11 8.5343861686700355e-10 0 -2.1829445100442755e-07 1.7390797128057817e-06 0 -5.4375576199612198e-10 6.9084577098032744e-10 0 -5.4955493156036109e-07 1.4523228607907796e-06 0 -2.1829445100442755e-07 1.7390797128057817e-06 0 -5.495549315603612e-07 1.4523228607907796e-06 0 -9.7126573599403321e-07 2.6981005374842968e-06 0 -5.4955493156036109e-07 1.4523228607907796e-06 0 -8.6922132816534044e-10 9.7458288498090649e-10 0 -1.5672590596116055e-06 2.0703587626443505e-06 0 -1.3555368440861342e-06 1.244370947999345e-06 0 -8.6922132816534044e-10 9.7458288498090649e-10 0 -1.5672590596116055e-06 2.0703587626443505e-06 0 -5.4955493156036109e-07 1.4523228607907796e-06 0 -1.5672590596116055e-06 2.0703587626443505e-06 0 -9.7126573599403321e-07 2.6981005374842968e-06 0 -5.4375576199612198e-10 6.9084577098032744e-10 0 -5.4955493156036109e-07 1.4523228607907796e-06 0 -8.6922132816534044e-10 9.7458288498090649e-10 0 -1.5672590596116055e-06 2.0703587626443505e-06 0 -3.0202440897802745e-06 2.6173475419504848e-06 0 -2.1605333153368838e-06 2.9350403278201919e-06 0 -3.0202440897802741e-06 2.6173475419504848e-06 0 -2.1605333153368838e-06 2.9350403278201919e-06 0 -3.6557010057764875e-06 3.0610046838282612e-06 0 -1.5672590596116055e-06 2.0703587626443505e-06 0 -2.1605333153368838e-06 2.9350403278201919e-06 0 -9.7126573599403321e-07 2.6981005374842968e-06 0 -9.7126573599403321e-07 2.6981005374842968e-06 0 -6.5742298866682341e-08 3.0077811494693633e-06 0 -1.4771900858478719e-06 3.415719119769558e-06 0 -2.1605333153368838e-06 2.9350403278201919e-06 0 -9.7126573599403321e-07 2.6981005374842968e-06 0 -1.4771900858478719e-06 3.415719119769558e-06 0 -2.1829445100442755e-07 1.7390797128057817e-06 0 -9.7126573599403321e-07 2.6981005374842968e-06 0 -6.5742298866682341e-08 3.0077811494693633e-06 0 -2.1829445100442755e-07 1.7390797128057817e-06 0 -6.5742298866682341e-08 3.0077811494693633e-06 0 2.5856801519157902e-07 1.8994122201710492e-06 0 -6.5742298866682341e-08 3.0077811494693633e-06 0 -1.6752581772857561e-07 3.4549661159996932e-06 0 -1.4771900858478719e-06 3.415719119769558e-06 0 -5.3942625868678568e-07 3.4246871492642733e-06 0 -1.675258177285754e-07 3.4549661159996932e-06 0 -1.4771900858478719e-06 3.415719119769558e-06 0 -5.3942625868678568e-07 3.4246871492642733e-06 0 -1.4771900858478719e-06 3.415719119769558e-06 0 -2.717533827251943e-06 3.2488381210714725e-06 0 -2.717533827251943e-06 3.2488381210714725e-06 0 -3.6557010057764875e-06 3.0610046838282612e-06 0 -5.0768684001870268e-06 2.8028596168346501e-06 0 -2.1605333153368838e-06 2.9350403278201919e-06 0 -1.4771900858478717e-06 3.415719119769558e-06 0 -3.6557010057764875e-06 3.0610046838282612e-06 0 -1.4771900858478719e-06 3.415719119769558e-06 0 -2.717533827251943e-06 3.2488381210714725e-06 0 -3.6557010057764875e-06 3.0610046838282612e-06 0 -3.6557010057764875e-06 3.0610046838282612e-06 0 -5.0768684001870268e-06 2.8028596168346501e-06 0 -5.8433326432934168e-06 2.5167812214055066e-06 0 -5.0768684001870268e-06 2.8028596168346501e-06 0 -7.1754173361290067e-06 1.8863879768890795e-06 0 -3.7509235151873775e-06 2.632206016929754e-06 0 -7.1754173361290067e-06 1.8863879768890795e-06 0 -3.7509235151873775e-06 2.632206016929754e-06 0 -5.9625180034247619e-06 1.376686342303939e-06 0 -3.7509235151873775e-06 2.632206016929754e-06 0 -5.9625180034247619e-06 1.3766863423039388e-06 0 -3.571426459741168e-06 1.3793737940396853e-06 0 -2.717533827251943e-06 3.2488381210714725e-06 0 -5.0768684001870268e-06 2.8028596168346501e-06 0 -3.7509235151873775e-06 2.632206016929754e-06 0 -5.3942625868678568e-07 3.4246871492642733e-06 0 -2.717533827251943e-06 3.2488381210714725e-06 0 -1.3637815240759021e-06 2.7618846491822394e-06 0 -2.717533827251943e-06 3.2488381210714725e-06 0 -3.7509235151873775e-06 2.632206016929754e-06 0 -1.3637815240759021e-06 2.7618846491822394e-06 0 -3.7509235151873775e-06 2.632206016929754e-06 0 -1.3637815240759021e-06 2.7618846491822394e-06 0 -3.571426459741168e-06 1.3793737940396853e-06 0 -1.3637815240759021e-06 2.7618846491822394e-06 0 8.0701268957445249e-07 2.0687989770116865e-06 0 1.099002720704604e-06 3.0876937885439722e-06 0 -5.3942625868678568e-07 3.4246871492642733e-06 0 -1.3637815240759021e-06 2.7618846491822394e-06 0 1.099002720704604e-06 3.0876937885439722e-06 0 -9.3457739012956455e-06 1.2234093330142673e-06 0 -7.8790373255761866e-06 7.0753948309500615e-07 0 -6.5297437723815302e-06 1.892241342298395e-06 0 -9.3457739012956455e-06 1.2234093330142673e-06 0 -6.5297437723815302e-06 1.892241342298395e-06 0 -8.3200399945278904e-06 1.9157082547902697e-06 0 -9.3457739012956455e-06 1.2234093330142673e-06 0 -7.8790373255761866e-06 7.0753948309500615e-07 0 -1.1650225245531106e-05 5.6153176287454894e-08 0 -4.5685416088263007e-06 1.3997408157791317e-06 0 -7.8790373255761866e-06 7.0753948309500615e-07 0 -6.5297437723815302e-06 1.892241342298395e-06 0 -4.5710495912273173e-06 2.383191247127838e-06 0 -6.5297437723815302e-06 1.892241342298395e-06 0 -5.8433326432934168e-06 2.5167812214055066e-06 0 -4.5710495912273173e-06 2.383191247127838e-06 0 -3.6557010057764875e-06 3.0610046838282612e-06 0 -5.8433326432934168e-06 2.5167812214055066e-06 0 -5.0768684001870268e-06 2.8028596168346501e-06 0 -5.8433326432934168e-06 2.5167812214055066e-06 0 -8.3200399945278904e-06 1.9157082547902697e-06 0 -6.5297437723815302e-06 1.892241342298395e-06 0 -5.8433326432934168e-06 2.5167812214055066e-06 0 -8.3200399945278904e-06 1.9157082547902697e-06 0 -5.0768684001870268e-06 2.8028596168346501e-06 0 -7.1754173361290067e-06 1.8863879768890795e-06 0 -8.3200399945278904e-06 1.9157082547902697e-06 0 -7.1754173361290067e-06 1.8863879768890795e-06 0 -8.3200399945278904e-06 1.9157082547902697e-06 0 -1.0304794632272872e-05 8.9832318846229288e-07 0 -7.1754173361290067e-06 1.8863879768890795e-06 0 -1.0304794632272872e-05 8.9832318846229288e-07 0 -9.7315504441977809e-06 1.2276766420721624e-07 0 -8.3200399945278904e-06 1.9157082547902697e-06 0 -1.0304794632272872e-05 8.9832318846229288e-07 0 -1.1800456542770833e-05 5.167775236921938e-07 0 -1.0304794632272872e-05 8.9832318846229288e-07 0 -1.1800456542770833e-05 5.167775236921938e-07 0 -1.4254351188995791e-05 -9.9454417461136118e-07 0 -9.3457739012956455e-06 1.2234093330142673e-06 0 -8.3200399945278904e-06 1.9157082547902697e-06 0 -1.1800456542770833e-05 5.167775236921938e-07 0 -9.3457739012956455e-06 1.2234093330142673e-06 0 -1.1800456542770833e-05 5.167775236921938e-07 0 -1.1650225245531106e-05 5.6153176287454894e-08 0 -1.1800456542770833e-05 5.167775236921938e-07 0 -1.1650225245531106e-05 5.6153176287455126e-08 0 -1.592976569320332e-05 -1.4928656441874001e-06 0 -1.592976569320332e-05 -1.4928656441874001e-06 0 -1.4254351188995791e-05 -9.9454417461136118e-07 0 -2.0472392701698247e-05 -4.1077621156666825e-06 0 -1.1800456542770833e-05 5.167775236921938e-07 0 -1.592976569320332e-05 -1.4928656441874001e-06 0 -1.4254351188995791e-05 -9.9454417461136118e-07 0 -1.4254351188995791e-05 -9.9454417461136118e-07 0 -2.0472392701698247e-05 -4.1077621156666825e-06 0 -1.9126591841009919e-05 -4.4006734396933549e-06 0 -2.0472392701698247e-05 -4.1077621156666825e-06 0 -1.9126591841009919e-05 -4.4006734396933549e-06 0 -2.5722284687464058e-05 -8.0158856120976931e-06 0 -1.9126591841009919e-05 -4.4006734396933549e-06 0 -2.3214208303584154e-05 -7.9108659042876328e-06 0 -1.6939735549343667e-05 -5.7249283955840493e-06 0 -2.3214208303584154e-05 -7.9108659042876328e-06 0 -1.6939735549343667e-05 -5.7249283955840493e-06 0 -2.3450470005915156e-05 -1.112746095321571e-05 0 -1.9126591841009919e-05 -4.4006734396933549e-06 0 -2.3214208303584154e-05 -7.9108659042876328e-06 0 -2.5722284687464058e-05 -8.0158856120976931e-06 0 -2.3214208303584154e-05 -7.9108659042876328e-06 0 -2.5722284687464058e-05 -8.0158856120976931e-06 0 -3.1500874128463576e-05 -1.3427683601976294e-05 0 -1.6939735549343667e-05 -5.7249283955840493e-06 0 -1.0883116954403597e-05 -5.5330714076894947e-06 0 -1.6025743402467246e-05 -9.966879596085056e-06 0 -1.6939735549343667e-05 -5.7249283955840493e-06 0 -1.1329605474817018e-05 -2.5385812774304459e-06 0 -1.0883116954403597e-05 -5.5330714076894947e-06 0 -1.9126591841009919e-05 -4.4006734396933549e-06 0 -1.6939735549343667e-05 -5.7249283955840493e-06 0 -1.4283095555613322e-05 -2.4136052806951296e-06 0 -1.6939735549343667e-05 -5.7249283955840493e-06 0 -1.1329605474817018e-05 -2.5385812774304459e-06 0 -1.4283095555613322e-05 -2.4136052806951296e-06 0 -1.1329605474817018e-05 -2.5385812774304459e-06 0 -1.4283095555613322e-05 -2.4136052806951296e-06 0 -9.7315504441977809e-06 1.2276766420721624e-07 0 -1.4254351188995791e-05 -9.9454417461136118e-07 0 -1.9126591841009919e-05 -4.4006734396933549e-06 0 -1.4283095555613322e-05 -2.4136052806951296e-06 0 -1.4254351188995791e-05 -9.9454417461136118e-07 0 -1.4283095555613322e-05 -2.4136052806951292e-06 0 -9.7315504441977809e-06 1.2276766420721624e-07 0 -1.0304794632272872e-05 8.9832318846229288e-07 0 -1.4254351188995791e-05 -9.9454417461136118e-07 0 -9.7315504441977809e-06 1.2276766420721624e-07 0 -7.1754173361290067e-06 1.8863879768890795e-06 0 -9.7315504441977809e-06 1.2276766420721624e-07 0 -5.9625180034247619e-06 1.376686342303939e-06 0 -9.7315504441977809e-06 1.2276766420721624e-07 0 -5.9625180034247619e-06 1.376686342303939e-06 0 -6.9008877211037557e-06 -2.8434054177178028e-07 0 -5.9625180034247619e-06 1.376686342303939e-06 0 -6.9008877211037557e-06 -2.8434054177178028e-07 0 -3.571426459741168e-06 1.3793737940396853e-06 0 -6.9008877211037557e-06 -2.8434054177178028e-07 0 -3.7402514897176619e-06 -9.6844476255164002e-07 0 -7.4582961975983905e-06 -2.5926162578313742e-06 0 -6.9008877211037557e-06 -2.8434054177178028e-07 0 -3.571426459741168e-06 1.3793737940396853e-06 0 -3.7402514897176619e-06 -9.6844476255164002e-07 0 -1.1329605474817018e-05 -2.5385812774304459e-06 0 -9.7315504441977809e-06 1.2276766420721624e-07 0 -6.9008877211037557e-06 -2.8434054177178028e-07 0 -1.3637815240759021e-06 2.7618846491822394e-06 0 -9.8152038687842239e-07 9.5144281429166605e-07 0 8.0701268957445249e-07 2.0687989770116865e-06 0 -1.3637815240759021e-06 2.7618846491822394e-06 0 -9.8152038687842196e-07 9.5144281429166626e-07 0 -3.571426459741168e-06 1.3793737940396853e-06 0 -9.8152038687842196e-07 9.5144281429166626e-07 0 -3.571426459741168e-06 1.3793737940396853e-06 0 -3.7402514897176619e-06 -9.6844476255164002e-07 0 -9.8152038687842196e-07 9.5144281429166626e-07 0 -1.9895680400894623e-07 -2.2090118824162985e-06 0 1.9836061289868283e-06 6.3186945564975864e-07 0 -9.8152038687842196e-07 9.5144281429166626e-07 0 -1.98956804008947e-07 -2.2090118824162981e-06 0 -3.7402514897176619e-06 -9.6844476255164002e-07 0 -1.9895680400894644e-07 -2.2090118824162985e-06 0 -3.7402514897176619e-06 -9.6844476255164002e-07 0 -5.2725193802146088e-06 -4.3075206175510487e-06 0 -1.9895680400894644e-07 -2.2090118824162985e-06 0 -5.2725193802146088e-06 -4.3075206175510487e-06 0 -1.9114886934722287e-06 -6.7242915918682365e-06 0 -1.9895680400894644e-07 -2.2090118824162985e-06 0 -1.9114886934722287e-06 -6.7242915918682365e-06 0 3.0278076388209312e-06 -5.1296948926949633e-06 0 -1.1329605474817018e-05 -2.5385812774304459e-06 0 -6.9008877211037557e-06 -2.8434054177178076e-07 0 -7.4582961975983905e-06 -2.5926162578313742e-06 0 -1.1329605474817018e-05 -2.5385812774304459e-06 0 -7.4582961975983905e-06 -2.5926162578313742e-06 0 -1.0883116954403597e-05 -5.5330714076894947e-06 0 -3.7402514897176619e-06 -9.6844476255164002e-07 0 -7.4582961975983905e-06 -2.5926162578313742e-06 0 -5.2725193802146088e-06 -4.3075206175510487e-06 0 -5.2725193802146088e-06 -4.3075206175510487e-06 0 -1.0883116954403597e-05 -5.5330714076894947e-06 0 -8.5126379313487142e-06 -8.735903976161257e-06 0 -7.4582961975983905e-06 -2.5926162578313742e-06 0 -5.2725193802146088e-06 -4.3075206175510487e-06 0 -1.0883116954403597e-05 -5.5330714076894947e-06 0 -1.0883116954403597e-05 -5.5330714076894947e-06 0 -8.5126379313487142e-06 -8.735903976161257e-06 0 -1.6025743402467246e-05 -9.966879596085056e-06 0 -8.5126379313487142e-06 -8.735903976161257e-06 0 -4.423709558274884e-06 -1.1886314577186234e-05 0 -1.3514116891677705e-05 -1.5456375411592074e-05 0 -8.5126379313487142e-06 -8.735903976161257e-06 0 -1.3514116891677705e-05 -1.5456375411592074e-05 0 -1.6025743402467246e-05 -9.966879596085056e-06 0 -1.9114886934722287e-06 -6.7242915918682365e-06 0 2.0034638649233216e-06 -9.9204485817263738e-06 0 3.0278076388209312e-06 -5.1296948926949633e-06 0 -5.2725193802146088e-06 -4.3075206175510487e-06 0 -8.5126379313487142e-06 -8.735903976161257e-06 0 -1.9114886934722287e-06 -6.7242915918682365e-06 0 -8.5126379313487142e-06 -8.735903976161257e-06 0 -1.9114886934722287e-06 -6.7242915918682365e-06 0 -4.423709558274884e-06 -1.1886314577186234e-05 0 -1.9114886934722287e-06 -6.7242915918682365e-06 0 -4.423709558274884e-06 -1.1886314577186234e-05 0 2.0034638649233211e-06 -9.9204485817263738e-06 0 -4.423709558274884e-06 -1.1886314577186234e-05 0 -3.6495210124450235e-07 -1.6195908000090314e-05 0 2.0034638649233211e-06 -9.9204485817263738e-06 0 -4.423709558274884e-06 -1.1886314577186234e-05 0 -3.6495210124450235e-07 -1.6195908000090314e-05 0 -6.8978846201997975e-06 -1.9400563958093502e-05 0 -6.8978846201997975e-06 -1.9400563958093502e-05 0 -1.0874922336718682e-05 -2.9321785325320158e-05 0 -3.8922622328458719e-06 -2.57263458270899e-05 0 -3.6495210124450235e-07 -1.6195908000090314e-05 0 -6.8978846201997975e-06 -1.9400563958093502e-05 0 -3.8922622328458719e-06 -2.57263458270899e-05 0 -3.6495210124450235e-07 -1.6195908000090314e-05 0 3.2294787190210146e-06 -2.12162173790479e-05 0 -3.8922622328458719e-06 -2.57263458270899e-05 0 -1.3514116891677705e-05 -1.5456375411592074e-05 0 -6.8978846201997975e-06 -1.9400563958093502e-05 0 -1.4848771975843949e-05 -2.3020838525007418e-05 0 -4.423709558274884e-06 -1.1886314577186234e-05 0 -1.3514116891677703e-05 -1.5456375411592071e-05 0 -6.8978846201997975e-06 -1.9400563958093502e-05 0 -6.8978846201997975e-06 -1.9400563958093502e-05 0 -1.4848771975843949e-05 -2.3020838525007418e-05 0 -1.0874922336718682e-05 -2.9321785325320158e-05 0 -1.3514116891677705e-05 -1.5456375411592074e-05 0 -1.4848771975843949e-05 -2.3020838525007418e-05 0 -2.3206633404318024e-05 -2.3119098835982137e-05 0 -1.4848771975843949e-05 -2.3020838525007418e-05 0 -2.3206633404318024e-05 -2.3119098835982137e-05 0 -1.9807066658150511e-05 -2.9124951274868709e-05 0 -1.3514116891677705e-05 -1.5456375411592074e-05 0 -2.3206633404318024e-05 -2.3119098835982137e-05 0 -2.2906335836955339e-05 -1.6167206835295984e-05 0 -2.3206633404318024e-05 -2.3119098835982137e-05 0 -3.1674331494248374e-05 -2.2965452372985006e-05 0 -2.2906335836955339e-05 -1.6167206835295984e-05 0 -2.3206633404318024e-05 -2.3119098835982137e-05 0 -3.1674331494248374e-05 -2.2965452372985006e-05 0 -3.2951437087497947e-05 -3.3777810033968692e-05 0 -3.1674331494248374e-05 -2.2965452372985006e-05 0 -4.3564791601560016e-05 -3.0554574117381944e-05 0 -3.2951437087497947e-05 -3.3777810033968692e-05 0 -3.1674331494248374e-05 -2.2965452372985006e-05 0 -4.3564791601560016e-05 -3.0554574117381944e-05 0 -3.7548507510957088e-05 -2.0958133083265103e-05 0 -3.1674331494248374e-05 -2.2965452372985006e-05 0 -3.7548507510957088e-05 -2.0958133083265103e-05 0 -2.9402583277452705e-05 -1.6708141525487212e-05 0 -3.1674331494248374e-05 -2.2965452372985006e-05 0 -2.9402583277452705e-05 -1.6708141525487212e-05 0 -2.2906335836955339e-05 -1.6167206835295984e-05 0 -2.9402583277452705e-05 -1.6708141525487212e-05 0 -3.1500874128463576e-05 -1.3427683601976294e-05 0 -2.3450470005915156e-05 -1.112746095321571e-05 0 -2.9402583277452705e-05 -1.6708141525487212e-05 0 -2.3450470005915153e-05 -1.112746095321571e-05 0 -2.2906335836955339e-05 -1.6167206835295984e-05 0 -3.7548507510957088e-05 -2.0958133083265103e-05 0 -2.9402583277452702e-05 -1.6708141525487212e-05 0 -3.1500874128463576e-05 -1.3427683601976294e-05 0 -2.3214208303584154e-05 -7.9108659042876328e-06 0 -3.1500874128463576e-05 -1.3427683601976294e-05 0 -2.3450470005915156e-05 -1.112746095321571e-05 0 -1.6939735549343667e-05 -5.7249283955840493e-06 0 -2.3450470005915156e-05 -1.112746095321571e-05 0 -1.6025743402467246e-05 -9.966879596085056e-06 0 -1.3514116891677705e-05 -1.5456375411592074e-05 0 -1.6025743402467246e-05 -9.966879596085056e-06 0 -2.2906335836955339e-05 -1.6167206835295984e-05 0 -2.3450470005915156e-05 -1.112746095321571e-05 0 -1.6025743402467246e-05 -9.966879596085056e-06 0 -2.2906335836955339e-05 -1.6167206835295984e-05 0 9.9076739939863055e-06 -4.8189955520039928e-06 0 1.0991563953989409e-05 -1.5668876706927407e-06 0 1.1837533064497807e-05 -3.1335971646325162e-06 0 9.9076739939863055e-06 -4.8189955520039928e-06 0 9.2510335300643367e-06 -2.7345326663295504e-06 0 1.0991563953989409e-05 -1.5668876706927407e-06 0 9.9076739939863055e-06 -4.8189955520039928e-06 0 9.2510335300643367e-06 -2.7345326663295504e-06 0 7.8617243079776563e-06 -5.3255599096840194e-06 0 1.0991563953989409e-05 -1.5668876706927407e-06 0 1.3247527376702909e-05 3.1346984809711274e-07 0 1.1837533064497807e-05 -3.1335971646325162e-06 0 1.3247527376702909e-05 3.1346984809711274e-07 0 1.4903347138388408e-05 -2.6057600089779946e-08 0 1.55