<?xml version="1.0"?>
<VTKFile type="UnstructuredGrid" version="0.1" byte_order="LittleEndian">
<UnstructuredGrid>
<Piece NumberOfPoints="3142" NumberOfCells="1054">
<Points>
<DataArray type="Float64" NumberOfComponents="3" format="ascii">
0.5 0.29999999999999999 0 0.54999999999999993 0.29999999999999999 0 0.54999999999999993 0.29999999999999999 0 0.59999999999999976 0.29999999999999999 0 0.59999999999999976 0.29999999999999999 0 0.6499999999999998 0.29999999999999999 0 0.6499999999999998 0.29999999999999999 0 0.69999999999999984 0.29999999999999999 0 0.69999999999999984 0.29999999999999999 0 0.74999999999999989 0.29999999999999999 0 0.74999999999999989 0.29999999999999999 0 0.79999999999999982 0.29999999999999999 0 0.79999999999999982 0.29999999999999999 0 0.84999999999999987 0.29999999999999999 0 0.84999999999999987 0.29999999999999999 0 0.89999999999999991 0.29999999999999999 0 0.89999999999999991 0.29999999999999999 0 0.94999999999999996 0.29999999999999999 0 0.94999999999999996 0.29999999999999999 0 1 0.29999999999999999 0 0.5 0.69999999999999996 0 0.54999999999999993 0.69999999999999996 0 0.54999999999999993 0.69999999999999996 0 0.59999999999999976 0.69999999999999996 0 0.59999999999999976 0.69999999999999996 0 0.6499999999999998 0.69999999999999996 0 0.6499999999999998 0.69999999999999996 0 0.69999999999999984 0.69999999999999996 0 0.69999999999999984 0.69999999999999996 0 0.74999999999999989 0.69999999999999996 0 0.74999999999999989 0.69999999999999996 0 0.79999999999999982 0.69999999999999996 0 0.79999999999999982 0.69999999999999996 0 0.84999999999999987 0.69999999999999996 0 0.84999999999999987 0.69999999999999996 0 0.89999999999999991 0.69999999999999996 0 0.89999999999999991 0.69999999999999996 0 0.94999999999999996 0.69999999999999996 0 0.94999999999999996 0.69999999999999996 0 1 0.69999999999999996 0 0.40076539126862748 0.34589349467022118 0 0.33277555741076909 0.36432196682010132 0 0.36575549820117997 0.31677992835137742 0 0.38083244760691543 0.38531983672244652 0 0.33277555741076909 0.36432196682010132 0 0.40076539126862748 0.34589349467022118 0 0.56836770495988642 0.3523062350852913 0 0.52289427570932567 0.3932284363388488 0 0.52752007115234678 0.33170632466418198 0 0.52752007115234678 0.33170632466418198 0 0.52289427570932567 0.3932284363388488 0 0.49077833859261139 0.35229981449445641 0 0.10000000000041601 1 0 0.053064897599294662 0.95186845269532028 0 0.10266856499240549 0.95548163909968886 0 0.099999999999814668 0 0 0.10266856499169109 0.044518360900210059 0 0.053064897599215843 0.048131547304697528 0 0.050000000000207989 1 0 0.053064897599294662 0.95186845269532028 0 0.10000000000041601 1 0 0.049999999999899652 0 0 0.099999999999814668 0 0 0.053064897599215843 0.048131547304697528 0 0.24999999999941211 0 0 0.29999999999926641 0 0 0.27499999999933927 0.060310814194988557 0 0.30000000000124832 1 0 0.25000000000104028 1 0 0.27609987656793722 0.94991445621608572 0 0.15720202157091859 0.60665697304410315 0 0.19914261668318661 0.62286739485272158 0 0.16500388252850301 0.66612077714085194 0 0.2236846579037573 0.67380363126050236 0 0.16500388252850301 0.66612077714085194 0 0.19914261668318661 0.62286739485272158 0 0.1247745017231483 0.27198077544791172 0 0.168349569971391 0.28054490850913671 0 0.14223753364722069 0.3341983344262433 0 0 0.75000000000034661 0 0 0.7000000000006934 0 0.049706944316475897 0.72477277076253799 0 0 0.30000000000124832 0 0 0.25000000000104028 0 0.049706944316556423 0.27522722923869108 0 0.59999999999999976 0.29999999999999999 0 0.61959173890754571 0.33832250091341232 0 0.56836770495988642 0.3523062350852913 0 0.5 0.69999999999999996 0 0.43323420005758778 0.6913544522562407 0 0.47913475093885149 0.66010775372412711 0 1 0.14999999999961891 0 0.95391631417672862 0.19584263333809451 0 0.93677536231883773 0.14999999999999089 0 1 0.84999999999982645 0 0.95391631417670719 0.89584263333814784 0 0.93677536231884972 0.85000000000000286 0 1 0.84999999999982645 0 0.93677536231884972 0.85000000000000286 0 0.95386563387742829 0.80414874155775029 0 1 0.14999999999961891 0 0.93677536231883773 0.14999999999999089 0 0.95386563387744361 0.1041487415577465 0 0.90416666666660628 0.9041666666666166 0 0.88088768115933802 0.84674609810493673 0 0.93677536231884972 0.85000000000000286 0 0.90416666666668166 0.20416666666667119 0 0.88088768115941807 0.14674609810479519 0 0.93677536231883773 0.14999999999999089 0 0.1247745017231483 0.27198077544791172 0 0.14223753364722069 0.3341983344262433 0 0.093851963071650835 0.30582068233324772 0 0.5 0.69999999999999996 0 0.45582236402875981 0.73896743678908217 0 0.43323420005758778 0.6913544522562407 0 0.55000000000173355 1 0 0.50000000000205869 1 0 0.52122150208832174 0.94089974453840242 0 0.49999999999869432 0 0 0.5499999999988151 0 0 0.52375890611712683 0.059318771819432882 0 0.54999999999999993 0.29999999999999999 0 0.59999999999999976 0.29999999999999999 0 0.56836770495988642 0.3523062350852913 0 0.50202631463681879 0.87892870825713787 0 0.44003836461056539 0.88093474584252718 0 0.45677673713123867 0.84253684404072415 0 0.33403534827021109 0.84402799729020661 0 0.35864759629805099 0.87963482415279515 0 0.30864387279288652 0.89906554525974958 0 0.53245488764484505 0.55078124999999989 0 0.47793794143994173 0.52940715638744962 0 0.53330375813596242 0.50827942741749099 0 0.82709327591102189 0.14937141670914489 0 0.81283102246527783 0.1881007222486438 0 0.77144070960558853 0.14311854477243749 0 0.82709327591091286 0.84937141670920724 0 0.81159157511211755 0.88795995483179491 0 0.76901770135486491 0.84293557325473656 0 0.77144070960558853 0.14311854477243749 0 0.81283102246527783 0.1881007222486438 0 0.76587607630038135 0.18880039518954719 0 0.76901770135486491 0.84293557325473656 0 0.81159157511211755 0.88795995483179491 0 0.76891166905518427 0.88835469571185499 0 0.33403534827021109 0.84402799729020661 0 0.30864387279288652 0.89906554525974958 0 0.29209212897034281 0.84715728365233667 0 0.57412547362576272 0.58273804879550706 0 0.5166924242153631 0.59825134841919447 0 0.53245488764484505 0.55078124999999989 0 0.50202631463681879 0.87892870825713787 0 0.47401147028110507 0.91529957330468115 0 0.44003836461056539 0.88093474584252718 0 0.5 0.69999999999999996 0 0.54999999999999993 0.69999999999999996 0 0.55363780716230748 0.74348740161571747 0 1 0.34999999999993492 0 0.95871855522754235 0.40006508612975411 0 0.95780851984364423 0.34215720972155339 0 1 0.64999999999986979 0 0.9578014258160763 0.65787212321113708 0 0.95867599106212187 0.60011091146651041 0 0.46666084890304671 0.57634471035397938 0 0.47793794143994173 0.52940715638744962 0 0.53245488764484505 0.55078124999999989 0 0.94999999999999996 0.29999999999999999 0 0.89898474358614167 0.25391965591104898 0 0.94399509803921056 0.24399509803922639 0 0.94999999999979179 1 0 0.89898474358632463 0.95391965591118966 0 0.94399509803919068 0.9439950980391687 0 0 0.65000000000104008 0 0.050069554451969707 0.61308520079857043 0 0.046634677244967337 0.671418230738282 0 0 0.35000000000145642 0 0.046389130980076937 0.32668781832131749 0 0.050583896093752537 0.38543522283434112 0 0.50202631463681879 0.87892870825713787 0 0.50627822638148745 0.8263979829520941 0 0.55899371797446828 0.85003102233514438 0 0.54782696902220018 0.79245182748204157 0 0.55899371797446828 0.85003102233514438 0 0.50627822638148745 0.8263979829520941 0 0.50945740445113552 0.75476055527778108 0 0.5 0.69999999999999996 0 0.55363780716230748 0.74348740161571747 0 0.84999999999965292 1 0 0.85170973911348691 0.93569607295217616 0 0.89898474358632463 0.95391965591118966 0 0.84999999999999987 0.29999999999999999 0 0.8517097391133297 0.2356960729520409 0 0.89898474358614167 0.25391965591104898 0 0.86956835336234861 0.571283299838105 0 0.82862096804812391 0.55037090955459045 0 0.86907294890112186 0.52008116128001669 0 0.49102375406324739 0.49123754822244059 0 0.53330375813596242 0.50827942741749099 0 0.47793794143994173 0.52940715638744962 0 0.57611405284611883 0.50165903596042916 0 0.61547661924074692 0.48539576058873962 0 0.62042975506801734 0.54295974692364424 0 0.71406021706547751 0.63292083137662503 0 0.67529834988829951 0.61613270668143583 0 0.71809016091162536 0.58185040402320831 0 0.65000000000104008 1 0 0.62065498684670595 0.95224934003983619 0 0.68015064798562208 0.95924320340003011 0 0.84999999999960507 0 0 0.899991664607802 0.045289349238254978 0 0.85491058998398861 0.060047533455626502 0 0.84999999999999987 0.69999999999999996 0 0.89999166460796554 0.74528934923809909 0 0.85491058998424563 0.76004753345552634 0 0.89999999999999991 0.29999999999999999 0 0.89898474358614167 0.25391965591104898 0 0.94999999999999996 0.29999999999999999 0 0.94999999999979179 1 0 0.89999999999958358 1 0 0.89898474358632463 0.95391965591118966 0 0.86411095495256451 0.42388805655111889 0 0.81308179852519835 0.39754945808726527 0 0.86844634540301924 0.38530937474099819 0 0.5 0.29999999999999999 0 0.49695729691142171 0.25014895411178018 0 0.54248833945060504 0.2520322959927106 0 0.86411095495256451 0.42388805655111889 0 0.81973119833356312 0.43505687159469048 0 0.81308179852519835 0.39754945808726527 0 0.67323294229744413 0.57556450033612505 0 0.71809016091162536 0.58185040402320831 0 0.67529834988829951 0.61613270668143583 0 0.6236733212988993 0.14864538214901801 0 0.68391457121233579 0.14440470121196541 0 0.64011864159029941 0.18789607982138171 0 0 0.050000000000207989 0 0.053064897599215843 0.048131547304697528 0 0.044310582753132287 0.101412518374475 0 0 0.94999999999979179 0 0.0443105827531413 0.89858748162559932 0 0.053064897599294662 0.95186845269532028 0 1 0.34999999999993492 0 1 0.39999999999978308 0 0.95871855522754235 0.40006508612975411 0 1 0.59999999999973963 0 1 0.64999999999986979 0 0.95867599106212187 0.60011091146651041 0 0 0.84999999999965292 0 0.065374659239661639 0.8551091961254178 0 0.0443105827531413 0.89858748162559932 0 0 0.15000000000062411 0 0.044310582753132287 0.101412518374475 0 0.065374659239632718 0.1448908038746782 0 0.16500388252850301
[...]
<PointData Scalars="" Vectors="displacement," Tensors="">
<DataArray type="Float64" Name="displacement" NumberOfComponents="3" format="ascii">
-2.4526104227083949e-05 -2.2552906487814747e-05 0 -2.6437677694821709e-05 -2.9998468998804036e-05 0 -2.6437677694821709e-05 -2.9998468998804036e-05 0 -2.8670558703793562e-05 -3.8403920225956543e-05 0 -2.8670558703793562e-05 -3.8403920225956543e-05 0 -3.1162757983642362e-05 -4.8025386451586723e-05 0 -3.1162757983642362e-05 -4.8025386451586723e-05 0 -3.3462222469438744e-05 -5.790682722940135e-05 0 -3.3462222469438744e-05 -5.790682722940135e-05 0 -3.5501719492037534e-05 -6.7701901416846854e-05 0 -3.5501719492037534e-05 -6.7701901416846854e-05 0 -3.7448695581473996e-05 -7.7276005588068525e-05 0 -3.7448695581473996e-05 -7.7276005588068525e-05 0 -3.9431596930125842e-05 -8.6323884840605266e-05 0 -3.9431596930125842e-05 -8.6323884840605266e-05 0 -4.1454217708854803e-05 -9.4967076101023623e-05 0 -4.1454217708854803e-05 -9.4967076101023623e-05 0 -4.2764950782073114e-05 -0.00010227248825869832 0 -4.2764950782073114e-05 -0.00010227248825869832 0 -4.6742438129690325e-05 -0.00010981534328361355 0 -1.8153245101385661e-06 2.7825579009380283e-05 0 2.4191631564979214e-06 4.2577356365323849e-05 0 2.4191631564979214e-06 4.2577356365323849e-05 0 9.2554696343002144e-07 4.9969374718598228e-05 0 9.2554696343002144e-07 4.9969374718598228e-05 0 -8.5778171142028145e-07 6.3704896050478579e-05 0 -8.5778171142028145e-07 6.3704896050478579e-05 0 -3.0258961092344467e-06 7.5976045797565873e-05 0 -3.0258961092344467e-06 7.5976045797565873e-05 0 -5.5115232867705989e-06 8.9386191176620149e-05 0 -5.5115232867705989e-06 8.9386191176620149e-05 0 -8.3044752518802442e-06 0.00010274976464363963 0 -8.3044752518802442e-06 0.00010274976464363963 0 -1.1175818472505427e-05 0.00011522183467248404 0 -1.1175818472505427e-05 0.00011522183467248404 0 -1.5564288359411895e-05 0.00012905237990910241 0 -1.5564288359411895e-05 0.00012905237990910241 0 -1.4617218442470225e-05 0.00013941647963165311 0 -1.4617218442470225e-05 0.00013941647963165311 0 -3.4658720106126095e-05 0.00015295162604132348 0 -2.0245782703823744e-05 -1.0119282745071685e-05 0 -1.5490167679661418e-05 -4.8243921212962519e-06 0 -1.8706231812713424e-05 -9.0691231742966891e-06 0 -1.8243288140829042e-05 -6.522398321988278e-06 0 -1.5490167679661418e-05 -4.8243921212962519e-06 0 -2.0245782703823744e-05 -1.0119282745071685e-05 0 -3.4319291388820382e-05 -1.7331424314038787e-05 0 -3.0379236935220638e-05 -1.3339751561770472e-05 0 -3.1058748880719792e-05 -1.7230651197724914e-05 0 -3.1058748880719792e-05 -1.7230651197724914e-05 0 -3.0379236935220641e-05 -1.3339751561770472e-05 0 -2.7834605852972501e-05 -1.5724509955776524e-05 0 -1.6587974249937529e-05 5.7102625434659371e-06 0 -7.2161817563919729e-06 1.6356680324707838e-06 0 -1.4991443879937139e-05 3.4512900240324017e-06 0 -1.2501188360325167e-05 -5.6832841897110643e-06 0 -1.1127680513859745e-05 -4.1317626866285801e-06 0 -5.4132181552085802e-06 -2.0628585306287601e-06 0 -8.5854608736421467e-06 4.0413877588001241e-06 0 -7.2161817563919729e-06 1.6356680324707838e-06 0 -1.6587974249937529e-05 5.7102625434659371e-06 0 -6.6887619209725431e-06 -3.7737716306793085e-06 0 -1.2501188360325167e-05 -5.6832841897110643e-06 0 -5.4132181552085802e-06 -2.0628585306287601e-06 0 -3.0849437334286612e-05 -1.1976506182972028e-05 0 -3.7418117031960552e-05 -1.5194512088126847e-05 0 -2.9730631774697683e-05 -1.0967461405381308e-05 0 -5.5682823701629067e-05 1.8804938270849228e-05 0 -4.456448624246217e-05 1.344064050318109e-05 0 -4.3646267093100182e-05 1.25500900106249e-05 0 -4.3972592552185586e-06 8.2029241481888818e-07 0 -5.6309723741906264e-06 1.8613095260800983e-06 0 -5.6828353888118388e-06 6.3716079643382423e-07 0 -7.4962584492930904e-06 2.6717819731245186e-06 0 -5.6828353888118388e-06 6.3716079643382423e-07 0 -5.6309723741906264e-06 1.8613095260800983e-06 0 -6.769715465337171e-06 -2.0345433269755162e-07 0 -8.9847917474524128e-06 -9.2488974691844089e-07 0 -6.3640307189530089e-06 1.112254540858357e-07 0 -2.9383125038605863e-09 -6.2647497490883606e-10 0 -2.3446277552967829e-09 -4.3604275000782407e-10 0 -2.5543216422725119e-06 -9.2308380447708169e-07 0 -2.3820267850949611e-09 2.5899246895178948e-10 0 -2.757861661325699e-09 2.5716363477946851e-10 0 -2.5953285416551665e-06 3.7512811363448282e-07 0 -3.8550868835478282e-05 -2.244276905796238e-05 0 -3.8665126787449324e-05 -2.2262528841231374e-05 0 -3.4319291388820382e-05 -1.7331424314038787e-05 0 -3.4780964624088144e-06 3.1209299105863313e-05 0 -8.9361412242938513e-06 2.0710882469820054e-05 0 -1.130593173554963e-05 2.0889517354273143e-05 0 -6.0168129071096175e-05 -0.00017015567119882272 0 -5.108547860152781e-05 -0.00015955675283986005 0 -6.0032293667665337e-05 -0.0001558487063338244 0 -7.4371363281087297e-05 0.00035858101427730776 0 -9.7644599354592746e-05 0.00033479324867788769 0 -7.4046322010701431e-05 0.00032522885641603845 0 -7.4371363281087297e-05 0.00035858101427730776 0 -7.4046322010701431e-05 0.00032522885641603845 0 -5.1638894763640407e-05 0.00033346083322380955 0 -6.0168129071096175e-05 -0.00017015567119882272 0 -6.0032293667665337e-05 -0.0001558487063338244 0 -6.9807126453137869e-05 -0.00015992826358809538 0 -0.0001016517315227284 0.00030697950964043492 0 -7.1564319142520944e-05 0.00029307431165009483 0 -7.4046322010701431e-05 0.00032522885641603845 0 -4.8830365054138372e-05 -0.00014693776729316505 0 -6.0069271768746135e-05 -0.00014116273136018597 0 -6.0032293667665337e-05 -0.0001558487063338244 0 -6.769715465337171e-06 -2.0345433269755162e-07 0 -6.3640307189530089e-06 1.112254540858357e-07 0 -4.5250918827378107e-06 3.5775101107793201e-07 0 -3.4780964624088144e-06 3.1209299105863313e-05 0 -1.4325800201695146e-05 2.8572789292153554e-05 0 -8.9361412242938513e-06 2.0710882469820054e-05 0 -0.0001211304863010763 9.5439590704819808e-05 0 -0.00010916648229357788 7.1971734538670535e-05 0 -8.9009388145114317e-05 7.6831484955762109e-05 0 -6.6702441568500405e-05 -4.0625889626997013e-05 0 -7.3329217150958418e-05 -5.1090075567606995e-05 0 -5.8445297838905266e-05 -4.282486990974091e-05 0 -3.2893631440125764e-05 -1.8814949440170513e-05 0 -3.8550868835478282e-05 -2.244276905796238e-05 0 -3.4319291388820382e-05 -1.7331424314038787e-05 0 -6.2969080051678475e-05 6.305883078250928e-05 0 -5.4859646106294691e-05 3.949137615419213e-05 0 -4.5360712811612029e-05 4.1769635720189821e-05 0 -3.2539472379887188e-05 1.4043521318480339e-05 0 -4.3193135456400035e-05 1.9816454402342042e-05 0 -4.0387423205621993e-05 1.3245438572851422e-05 0 -2.5305034261314081e-05 -4.1130805031808887e-06 0 -2.205591142543811e-05 2.2281233426212299e-07 0 -2.724272828228125e-05 -7.2133766747737715e-06 0 -5.8321841753973212e-05 -0.00012582029112999927 0 -4.97544416689994e-05 -0.00012098109417176939 0 -5.7892194735510372e-05 -0.00010932867639220708 0 -7.1516023929380678e-05 0.00026041672720292225 0 -9.0953470286560394e-05 0.00025121646340643428 0 -6.6177070548779451e-05 0.00022372186860567412 0 -5.7892194735510372e-05 -0.00010932867639220708 0 -4.97544416689994e-05 -0.00012098109417176939 0 -4.7981993788264775e-05 -0.00010674425045334816 0 -6.6177070548779451e-05 0.00022372186860567412 0 -9.0953470286560394e-05 0.00025121646340643428 0 -8.9393035854733139e-05 0.00022426822550301184 0 -3.2539472379887188e-05 1.4043521318480339e-05 0 -4.0387423205621993e-05 1.3245438572851422e-05 0 -2.8788350949465211e-05 9.2890556748576247e-06 0 -2.5887996057169133e-05 -9.1315308743037449e-06 0 -2.1620216126199809e-05 2.65772010172165e-06 0 -2.5305034261314081e-05 -4.1130805031808887e-06 0 -6.2969080051678475e-05 6.305883078250928e-05 0 -7.1315517608485564e-05 5.4661934226227395e-05 0 -5.4859646106294698e-05 3.949137615419213e-05 0 -3.4780964624088144e-06 3.1209299105863313e-05 0 8.3966724906943794e-06 7.8471279188030294e-05 0 -1.6558141882919679e-05 8.1516607124993234e-05 0 -5.2365044625023665e-05 -5.1825276163562897e-05 0 -4.771387366267585e-05 -4.8040069596772309e-05 0 -5.261835012187535e-05 -4.9282062969674756e-05 0 -3.6043873276746991e-05 -4.8878378864133739e-05 0 -3.4790084101452037e-05 -4.6523777009094329e-05 0 -3.6107512604955978e-05 -5.0133918126587197e-05 0 -1.8538221807673578e-05 6.4128334891840091e-06 0 -2.205591142543811e-05 2.2281233426212299e-07 0 -2.5305034261314081e-05 -4.1130805031808887e-06 0 -3.0950985176317241e-05 -0.00015335172488178711 0 -3.8678441294145714e-05 -0.00014360694309737603 0 -4.1895955080357342e-05 -0.00015583697043953485 0 -0.00015436593619643142 0.00033272150361064018 0 -0.00012858767843014016 0.00030405731390083701 0 -0.00012340235498971831 0.00032935274105229693 0 -1.9624266705137181e-09 -3.3747892164962686e-10 0 -1.625101821482044e-06 -3.0003646849203538e-07 0 -1.83755062446154e-06 -6.0564155800039043e-07 0 -2.1114060650685418e-09 2.795492551568757e-10 0 -2.0783286676030298e-06 4.3860188825771691e-07 0 -1.9410136017245247e-06 5.0244795497660754e-07 0 -6.2969080051678475e-05 6.305883078250928e-05 0 -4.5554754805013364e-05 6.025269976400956e-05 0 -5.8935622796179073e-05 9.0613655346372609e-05 0 -3.6704484683253879e-05 8.0335603164681865e-05 0 -5.8935622796179073e-05 9.0613655346372609e-05 0 -4.5554754805013364e-05 6.025269976400956e-05 0 -2.159969480400369e-05 5.0946055721220528e-05 0 -3.4780964624088144e-06 3.1209299105863313e-05 0 -1.6558141882919679e-05 8.1516607124993234e-05 0 -0.00015415764858644782 0.00027548661495111929 0 -0.00011765960811411763 0.00027617937367323747 0 -0.00012858767843014016 0.00030405731390083701 0 -2.6115126559462762e-05 -0.00012637341861056233 0 -4.0991377988620466e-05 -0.00013107016106252579 0 -3.8678441294145707e-05 -0.000143606943097376 0 -3.5768319465179408e-05 -4.3943626422383985e-05 0 -3.5986793961727625e-05 -4.0488527964864701e-05 0 -3.8464622018372088e-05 -4.37358802369178e-05 0 -2.4723157050074077e-05 -4.2852654451231969e-06 0 -2.724272828228125e-05 -7.2133766747737715e-06 0 -2.205591142543811e-05 2.2281233426212299e-07 0 -3.0198632310605694e-05 -1.2681219700968143e-05 0 -3.2761209695618786e-05 -1.7968123060626351e-05 0 -3.0126715905556271e-05 -1.7559736921875168e-05 0 -2.5626478389487876e-05 -2.7419923730681043e-05 0 -2.5645962258673143e-05 -2.3872593260507134e-05 0 -3.0244770697569474e-05 -2.9424532121722528e-05 0 -0.00014037182265752777 0.00015207183281023778 0 -0.00011003543575064202 0.00013214417106631576 0 -0.00012085073696348198 0.00016913947149036087 0 -9.4158993825499667e-05 -0.00013323485939972351 0 -8.3155739917850012e-05 -0.00014647543139589101 0 -7.8971036656361906e-05 -0.00013433565227554539 0 5.84325953833913e-06 0.00026416029113673711 0 -2.1169918798859505e-05 0.00029956386995498747 0 -2.683463705940751e-05 0.00027410113828600652 0 -2.8512345737011426e-05 -0.00013977506738468797 0 -3.8678441294145707e-05 -0.000143606943097376 0 -3.0950985176317241e-05 -0.00015335172488178711 0 -0.00015436593619643142 0.00033272150361064018 0 -0.00015446252023068304 0.00030455069618261552 0 -0.00012858767843014016 0.00030405731390083701 0 -4.4815628732838833e-05 -4.2465619872322506e-05 0 -4.5353517283815376e-05 -3.9125524562750796e-05 0 -4.7718771101376537e-05 -4.3156706317813995e-05 0 -2.4761716380624339e-05 -2.2772206913059113e-05 0 -2.8466941674655636e-05 -2.7398650769093098e-05 0 -2.9745233628044472e-05 -3.88509019620014e-05 0 -4.4815628732838833e-05 -4.2465619872322506e-05 0 -4.2977073545573649e-05 -3.9262720134863015e-05 0 -4.5353517283815376e-05 -3.9125524562750796e-05 0 -2.9229521986174785e-05 -2.4254283079107666e-05 0 -3.0244770697569474e-05 -2.9424532121722528e-05 0 -2.5645962258673143e-05 -2.3872593260507134e-05 0 -5.0111840256185751e-05 -6.5081681751513799e-05 0 -5.3939739817407666e-05 -8.2811753544808126e-05 0 -4.3408764865569679e-05 -6.8884646424366848e-05 0 -4.0531851039443407e-09 2.9614874161573797e-10 0 -5.4132181552085802e-06 -2.0628585306287601e-06 0 -3.7688326324819736e-06 -7.8219326128394621e-07 0 -5.4988929439645378e-09 -6.9743479149421945e-10 0 -4.9090166046085436e-06 5.1354417857953176e-08 0 -7.2161817563919729e-06 1.6356680324707838e-06 0 -5.2365044625023665e-05 -5.1825276163562897e-05 0 -4.7746968138184238e-05 -5.1388198351475527e-05 0 -4.771387366267585e-05 -4.8040069596772309e-05 0 -3.6573712709614162e-05 -5.1172282662956562e-05 0 -3.6043873276746991e-05 -4.8878378864133739e-05 0 -3.6107512604955978e-05 -5.0133918126587197e-05 0 -4.1836479837557261e-09 -9.741934532180866e-10 0 -6.3783222740952536e-06 -5.1988982386968105e-07 0 -4.9090166046085428e-06 5.1354417857952779e-08 0 -3.3954741856083835e-09 3.5218819844526931e-10 0 -3.7688326324819736e-06 -7.8219326128394621e-07 0 -5.120573746094019e-06 -6.2287876171836974e-07 0 -5.6828353888118388e-06 6.3716079643382423e-07 0 -4.296836898752692e-06 -7.1777740070566188e-07 0 -4.0671551457823349e-06 2.7784180968380549e-08 0 -1.832445494614484e-05 -7.4473567411511841e-06 0 -1.528748842528957e-05 -5.0047571800569774e-06 0 -1.1127680513859745e-05 -4.1317626866285801e-06 0 -2.5070088526234661e-05 7.4261011527559209e-06 0 -1.4991443879937141e-05 3.4512900240324017e-06 0 -2.07621934703154e-05 3.992733619802191e-06 0 -3.4294055406137964e-05 -2.9387704873372603e-05 0 -3.2297932773107126e-05 -2.4831308550490638e-05 0 -3.596177321020357e-05 -2.7095582960733513e-05 0 -3.3629355329259471e-05 -2.236499140728189e-05 0 -3.0126715905556271e-05 -1.7559736921875168e-05 0 -3.2761209695618786e-05 -1.7968123060626351e-05 0 -8.7973001101662254e-07 0.0003212449637782827 0 -2.8270665685167944e-05 0.00032534646522641491 0 -2.1169918798859505e-05 0.00029956386995498747 0 -9.4401659112593083e-05 -0.00015898797349348399 0 -8.0815828140227473e-05 -0.00015748595576360681 0 -8.3155739917850012e-05 -0.00014647543139589101 0 -3.3629355329259471e-05 -2.236499140728189e-05 0 -3.596177321020357e-05 -2.7095582960733513e-05 0 -3.2297932773107126e-05 -2.4831308550490638e-05 0 -3.5986793961727625e-05 -4.0488527964864701e-05 0 -3.300129633972683e-05 -3.899198370268257e-05 0 -3.4697959610799734e-05 -3.5294963746543891e-05 0 -8.9864139590492369e-05 0.00019623960100322558 0 -7.9399153404308533e-05 0.00015679788273246145 0 -6.3707959325758878e-05 0.00017075727303845925 0 -5.4988929439645378e-09 -6.9743479149421945e-10 0 -5.878979515530829e-09 4.4461850618929642e-10 0 -4.9090166046085428e-06 5.1354417857952779e-08 0 -4.5097566894810681e-09 -6.01676018761409e-10 0 -4.0531851039443407e-09 2.9614874161573797e-10 0 -3.7688326324819736e-06 -7.8219326128394621e-07 0 -5.6828353888118388e-06 6.3716079643382423e-07 0 -6.8211720588069675e-06 1.4180494315745768e-07 0 -4.296836898752692e-06 -7.1777740070566188e-07 0 -4.6468365047059078e-05 0.00030492183075678632 0 -7.4046322010701431e-05 0.00032522885641603845 0 -7.1564319142520944e-05 0.00029307431165009483 0 -7.1423986270222403e-05 -0.00014724280102193748 0 -6.0032293667665337e-05 -0.0001558487063338244 0 -6.0069271768746135e-05 -0.00014116273136018597 0 -5.3939739817407666e-05 -8.2811753544808126e-05 0 -4.4954195986424711e-05 -8.2714155419618413e-05 0 -4.3408764865569679e-05 -6.8884646424366848e-05 0 -2.430516000585054e-06 3.5025148186198512e-07 0 -3.4499690633054787e-06 7.1036460411564439e-07 0 -3.1799285365963353e-06 4.2421345923004018e-07 0 -1.8474720007060984e-05 3.2421767310379331e-06 0 -1.4687241172385875e-05 2.9097361711079576e-06 0 -2.1150177470229785e-05 5.7637288733282519e-06 0 -3.300129633972683e-05 -3.899198370268257e-05 0 -3.1346390283436822e-05 -3.4698911892355523e-05 0 -3.4697959610799734e-05 -3.5294963746543891e-05 0 -3.1799285365963353e-06 4.2421345923004018e-07 0 -3.4499690633054787e-06 7.1036460411564439e-07 0 -4.0483765167783919e-06 9.0407712655381808e-07 0 -3.4499690633054787e-06 7.1036460411564439e-07 0 -2.0440162214715683e-06 4.2660775108444646e-07 0 -3.5593469353118471e-06 6.8805820736936273e-07 0 -2.6246587665234699e-06 5.8806889072823991e-07 0 -3.5593469353118471e-06 6.8805820736936273e-07 0 -2.0440162214715683e-06 4.2660775108444646e-07 0 -4.8114976143764446e-05 -4.1573125749101226e-05 0 -4.5353517283815376e-05 -3.9125524562750796e-05 0 -4.7272319167836763e-05 -3.8163929754482734e-05 0 -3.0198632310605694e-05 -1.2681219700968143e-05 0 -3.0126715905556271e-05 -1.7559736921875168e-05 0 -2.8059423722125373e-05 -1.0844843158553095e-05 0 -3.5768319465179408e-05 -4.3943626422383985e-05 0 -3.300129633972683e-05 -3.899198370268257e-05 0 -3.5986793961727625e-05 -4.0488527964864701e-05 0 -1.8538221807673578e-05 6.4128334891840091e-06 0 -2.5305034261314081e-05 -4.1130805031808879e-06 0 -2.1620216126199809e-05 2.65772010172165e-06 0 2.5759944538708749e-06 0.00029247680770579435 0 -8.7973001101662254e-07 0.0003212449637782827 0 -2.1169918798859505e-05 0.00029956386995498747 0 -9.4441871962891783e-05 -0.00014643175247199309 0 -9.4401659112593083e-05 -0.00015898797349348399 0 -8.3155739917850012e-05 -0.00014647543139589101 0 -9.4158993825499667e-05 -0.00013323485939972351 0 -9.4441871962891783e-05 -0.00014643175247199309 0 -8.3155739917850012e-05 -0.00014647543139589101 0 5.84325953833913e-06 0.00026416029113673711 0 2.5759944538708749e-06 0.00029247680770579435 0 -2.1169918798859505e-05 0.00029956386995498747 0 -1.3538858931192742e-05 1.1526219289444133e-05 0 -1.3219630552096839e-05 8.9707491431151791e-06 0 -1.8538221807673578e-05 6.4128334891840091e-06 0 -6.3986457699296072e-06 2.8633035249210931e-07 0 -4.2198866217281261e-06 5.9459187447632818e-07 0 -6.3640307189530089e-06 1.112254540858357e-07 0 -3.6848914829901933e-06 5.4131725833555193e-07 0 -6.3640307189530089e-06 1.112254540858357e-07 0 -4.2198866217281261e-06 5.9459187447632818e-07 0 -1.8028545384443991e-05 0.00017175341260367006 0 -1.1433348568945508e-05 0.00019204139491135416 0 -4.0462468066257662e-05 0.00019446461814326356 0 -1.1433348568945508e-05 0.00019204139491135416 0 -1.9817188307333431e-05 0.00021383568452500642 0 -4.0462468066257662e-05 0.00019446461814326356 0 -2.5887996057169133e-05 -9.1315308743037449e-06 0 -2.5305034261314081e-05 -4.1130805031808896e-06 0 -2.8059423722125373e-05 -1.0844843158553095e-05 0 -3.7425662912500862e-05 -5.2283021719877294e-05 0 -3.6107512604955978e-05 -5.0133918126587197e-05 0 -3.7209910351572773e-05 -4.9105648520202063e-05 0 -4.3210569892056839e-05 -5.150331320062298e-05 0 -4.394273265308762e-05 -4.716193241672159e-05 0 -4.771387366267585e-05 -4.8040069596772309e-05 0 -1.3219630552096839e-05 8.9707491431151791e-06 0 -1.669736023894002e-05 4.5856208307107065e-06 0 -1.8538221807673578e-05 6.4128334891840091e-06 0 -0.00015446252023068304 0.00030455069618261552 0 -0.00015415764858644782 0.00027548661495111929 0 -0.00012858767843014016 0.00030405731390083701 0 -2.6115126559462762e-05 -0.00012637341861056233 0 -3.8678441294145707e-05 -0.000143606943097376 0 -2.8512345737011426e-05 -0.00013977506738468797 0 -3.7418117031960552e-05 -1.5194512088126847e-05 0 -3.689748262969311e-05 -1.50897122039482e-05 0 -2.9730631774697683e-05 -1.0967461405381308e-05 0 -5.5682823701629067e-05 1.8804938270849228e-05 0 -4.3646267093100182e-05 1.25500900106249e-05 0 -5.3893742697515752e-05 1.9017628126992125e-05 0 -2.5887996057169133e-05 -9.1315308743037449e-06 0 -3.0126715905556271e-05 -1.7559736921875168e-05 0 -2.6154655718917431e-05 -1.8410456283225631e-05 0 -2.4761716380624339e-05 -2.2772206913059113e-05 0 -2.9745233628044472e-05 -3.88509019620014e-05 0 -2.0222449399349708e-05 -4.0755416292567853e-05 0 -2.9229521986174785e-05 -2.4254283079107666e-05 0 -3.0126715905556271e-05 -1.7559736921875168e-05 0 -3.2297932773107126e-05 -2.4831308550490638e-05 0 -3.3629355329259471e-05 -2.236499140728189e-05 0 -3.2297932773107126e-05 -2.4831308550490638e-05 0 -3.0126715905556271e-05 -1.7559736921875168e-05 0 -6.0168129071096175e-05 -0.00017015567119882272 0 -5.0561111175351598e-05 -0.00016927208672596562 0 -5.108547860152781e-05 -0.00015955675283986005 0 -7.4371363281087297e-05 0.00035858101427730776 0 -0.00010008206332845895 0.00035931752295418945 0 -9.7644599354592733e-05 0.00033479324867788769 0 -5.0224746044837262e-05 0.00035668771964483863 0 -7.4371363281087297e-05 0.00035858101427730776 0 -5.1638894763640407e-05 0.00033346083322380955 0 -7.086769186