<?xml version="1.0"?>
<VTKFile type="UnstructuredGrid" version="0.1" byte_order="LittleEndian">
<UnstructuredGrid>
<Piece NumberOfPoints="3142" NumberOfCells="1054">
<Points>
<DataArray type="Float64" NumberOfComponents="3" format="ascii">
0 0 0 0.049999999999899652 0 0 0.02576622439977887 0.024532886826226379 0 0 0 0 0.02576622439977887 0.024532886826226379 0 0 0.050000000000207989 0 0.049999999999899652 0 0 0.053064897599215843 0.048131547304697528 0 0.02576622439977887 0.024532886826226379 0 0 0.050000000000207989 0 0.02576622439977887 0.024532886826226379 0 0.053064897599215843 0.048131547304697528 0 0 0.10000000000041601 0 0 0.050000000000207989 0 0.044310582753132287 0.101412518374475 0 0 0.15000000000062411 0 0 0.10000000000041601 0 0.044310582753132287 0.101412518374475 0 0.083411279318303222 0.089699755330707398 0 0.044310582753132287 0.101412518374475 0 0.053064897599215843 0.048131547304697528 0 0 0.050000000000207989 0 0.053064897599215843 0.048131547304697528 0 0.044310582753132287 0.101412518374475 0 0.083411279318303222 0.089699755330707398 0 0.065374659239632718 0.1448908038746782 0 0.044310582753132287 0.101412518374475 0 0.083411279318303222 0.089699755330707398 0 0.1053400320299198 0.12877248826361379 0 0.065374659239632718 0.1448908038746782 0 0.083411279318303222 0.089699755330707398 0 0.12372429750337779 0.095814237875728972 0 0.1053400320299198 0.12877248826361379 0 0.14332333627550789 0.14578431753966009 0 0.1053400320299198 0.12877248826361379 0 0.12372429750337779 0.095814237875728972 0 0.14618258501891079 0.062070108745602003 0 0.12372429750337779 0.095814237875728972 0 0.10266856499169109 0.044518360900210059 0 0.083411279318303222 0.089699755330707398 0 0.10266856499169109 0.044518360900210059 0 0.12372429750337779 0.095814237875728972 0 0.099999999999814668 0 0 0.14999999999970359 0 0 0.10266856499169109 0.044518360900210059 0 0.049999999999899652 0 0 0.099999999999814668 0 0 0.053064897599215843 0.048131547304697528 0 0.099999999999814668 0 0 0.10266856499169109 0.044518360900210059 0 0.053064897599215843 0.048131547304697528 0 0.083411279318303222 0.089699755330707398 0 0.053064897599215843 0.048131547304697528 0 0.10266856499169109 0.044518360900210059 0 0 0.25000000000104028 0 0 0.20000000000083221 0 0.044081577119474857 0.2271058242433576 0 0 0.20000000000083221 0 0.038512288486115001 0.1844147282893184 0 0.044081577119474857 0.2271058242433576 0 0.083105206071467416 0.20007701332709979 0 0.044081577119474857 0.2271058242433576 0 0.038512288486115001 0.1844147282893184 0 0 0.15000000000062411 0 0.065374659239632718 0.1448908038746782 0 0.038512288486115001 0.1844147282893184 0 0 0.15000000000062411 0 0.044310582753132287 0.101412518374475 0 0.065374659239632718 0.1448908038746782 0 0.083105206071467416 0.20007701332709979 0 0.038512288486115001 0.1844147282893184 0 0.065374659239632718 0.1448908038746782 0 0 0.20000000000083221 0 0 0.15000000000062411 0 0.038512288486115001 0.1844147282893184 0 0.065374659239632718 0.1448908038746782 0 0.1053400320299198 0.12877248826361379 0 0.106902708054812 0.16453234188234539 0 0.14332333627550789 0.14578431753966009 0 0.106902708054812 0.16453234188234539 0 0.1053400320299198 0.12877248826361379 0 0.083105206071467416 0.20007701332709979 0 0.065374659239632718 0.1448908038746782 0 0.106902708054812 0.16453234188234539 0 0.083105206071467416 0.20007701332709979 0 0.13737030665753211 0.20313708640667491 0 0.095326043202144745 0.24554465089224409 0 0.083105206071467416 0.20007701332709979 0 0.106902708054812 0.16453234188234539 0 0.13737030665753211 0.20313708640667491 0 0.083105206071467416 0.20007701332709979 0 0.095326043202144745 0.24554465089224409 0 0.044081577119474857 0.2271058242433576 0 0.049706944316556423 0.27522722923869108 0 0.044081577119474857 0.2271058242433576 0 0.095326043202144745 0.24554465089224409 0 0.13737030665753211 0.20313708640667491 0 0.14377654328998779 0.2442024734791064 0 0.095326043202144745 0.24554465089224409 0 0.17933913398461551 0.2350063570234002 0 0.14377654328998779 0.2442024734791064 0 0.13737030665753211 0.20313708640667491 0 0.17933913398461551 0.2350063570234002 0 0.13737030665753211 0.20313708640667491 0 0.18124454140915969 0.18790916706335251 0 0.14332333627550789 0.14578431753966009 0 0.18652628422869419 0.14162325200928061 0 0.18124454140915969 0.18790916706335251 0 0.14332333627550789 0.14578431753966009 0 0.13737030665753211 0.20313708640667491 0 0.106902708054812 0.16453234188234539 0 0.14332333627550789 0.14578431753966009 0 0.18124454140915969 0.18790916706335251 0 0.13737030665753211 0.20313708640667491 0 0.14332333627550789 0.14578431753966009 0 0.16141998738593399 0.10404039647458049 0 0.18652628422869419 0.14162325200928061 0 0.2185883431182947 0.18019736283949719 0 0.18652628422869419 0.14162325200928061 0 0.22985637510995899 0.1298347970200906 0 0.2185883431182947 0.18019736283949719 0 0.22985637510995899 0.1298347970200906 0 0.25557216766470708 0.15874861286892261 0 0.2185883431182947 0.18019736283949719 0 0.25557216766470708 0.15874861286892261 0 0.26429849586623999 0.19346700179430079 0 0.2185883431182947 0.18019736283949719 0 0.18124454140915969 0.18790916706335251 0 0.18652628422869419 0.14162325200928061 0 0.17933913398461551 0.2350063570234002 0 0.18124454140915969 0.18790916706335251 0 0.224700362040408 0.22206622194729711 0 0.2185883431182947 0.18019736283949719 0 0.224700362040408 0.22206622194729711 0 0.18124454140915969 0.18790916706335251 0 0.2185883431182947 0.18019736283949719 0 0.26429849586623999 0.19346700179430079 0 0.224700362040408 0.22206622194729711 0 0.25195515620380449 0.25883339815888678 0 0.21049769590865089 0.26857363548218488 0 0.224700362040408 0.22206622194729711 0 0.17933913398461551 0.2350063570234002 0 0.224700362040408 0.22206622194729711 0 0.21049769590865089 0.26857363548218488 0 0.14999999999970359 0 0 0.184418230509967 0.038773194583122873 0 0.14618258501891079 0.062070108745602003 0 0.19922788606653311 0.085920220746880993 0 0.14618258501891079 0.062070108745602003 0 0.184418230509967 0.038773194583122873 0 0.14999999999970359 0 0 0.19999999999955789 0 0 0.184418230509967 0.038773194583122873 0 0.14999999999970359 0 0 0.14618258501891079 0.062070108745602003 0 0.10266856499169109 0.044518360900210059 0 0.14618258501891079 0.062070108745602003 0 0.16141998738593399 0.10404039647458049 0 0.12372429750337779 0.095814237875728972 0 0.14332333627550789 0.14578431753966009 0 0.12372429750337779 0.095814237875728972 0 0.16141998738593399 0.10404039647458049 0 0.19922788606653311 0.085920220746880993 0 0.18652628422869419 0.14162325200928061 0 0.16141998738593399 0.10404039647458049 0 0.19922788606653311 0.085920220746880993 0 0.16141998738593399 0.10404039647458049 0 0.14618258501891079 0.062070108745602003 0 0.19922788606653311 0.085920220746880993 0 0.22985637510995899 0.1298347970200906 0 0.18652628422869419 0.14162325200928061 0 0.19922788606653311 0.085920220746880993 0 0.24218496799700481 0.089025544070598317 0 0.22985637510995899 0.1298347970200906 0 0.27474541102162192 0.11822029332053539 0 0.22985637510995899 0.1298347970200906 0 0.24218496799700481 0.089025544070598317 0 0.19922788606653311 0.085920220746880993 0 0.22668068146512929 0.045875643423131329 0 0.24218496799700481 0.089025544070598317 0 0.27499999999933927 0.060310814194988557 0 0.24218496799700481 0.089025544070598317 0 0.22668068146512929 0.045875643423131329 0 0.19922788606653311 0.085920220746880993 0 0.184418230509967 0.038773194583122873 0 0.22668068146512929 0.045875643423131329 0 0.19999999999955789 0 0 0.22668068146512929 0.045875643423131329 0 0.184418230509967 0.038773194583122873 0 0.19999999999955789 0 0 0.24999999999941211 0 0 0.22668068146512929 0.045875643423131329 0 0.24999999999941211 0 0 0.29999999999926641 0 0 0.27499999999933927 0.060310814194988557 0 0.24999999999941211 0 0 0.27499999999933927 0.060310814194988557 0 0.22668068146512929 0.045875643423131329 0 0.29999999999926641 0 0 0.32541448401678508 0.046215317981507749 0 0.27499999999933927 0.060310814194988557 0 0.29999999999926641 0 0 0.34999999999912063 0 0 0.32541448401678508 0.046215317981507749 0 0.35312867752657662 0.084946736076730367 0 0.32541448401678508 0.046215317981507749 0 0.3615861437013822 0.03582617922508851 0 0.35312867752657662 0.084946736076730367 0 0.3615861437013822 0.03582617922508851 0 0.39591832466117061 0.056982757562006353 0 0.34999999999912063 0 0 0.3615861437013822 0.03582617922508851 0 0.32541448401678508 0.046215317981507749 0 0.34999999999912063 0 0 0.3999999999989749 0 0 0.3615861437013822 0.03582617922508851 0 0.35312867752657662 0.084946736076730367 0 0.39823268594401579 0.1116623613130045 0 0.36246644853392812 0.1399454205365751 0 0.35312867752657662 0.084946736076730367 0 0.36246644853392812 0.1399454205365751 0 0.32215584939770009 0.1218492143506909 0 0.35312867752657662 0.084946736076730367 0 0.3096713403101819 0.085471541595262421 0 0.32541448401678508 0.046215317981507749 0 0.35312867752657662 0.084946736076730367 0 0.32215584939770009 0.1218492143506909 0 0.3096713403101819 0.085471541595262421 0 0.27474541102162192 0.11822029332053539 0 0.3096713403101819 0.085471541595262421 0 0.32215584939770009 0.1218492143506909 0 0.27499999999933927 0.060310814194988557 0 0.32541448401678508 0.046215317981507749 0 0.3096713403101819 0.085471541595262421 0 0.3096713403101819 0.085471541595262421 0 0.27474541102162192 0.11822029332053539 0 0.27499999999933927 0.060310814194988557 0 0.27499999999933927 0.060310814194988557 0 0.27474541102162192 0.11822029332053539 0 0.24218496799700481 0.089025544070598317 0 0.27474541102162192 0.11822029332053539 0 0.25557216766470708 0.15874861286892261 0 0.22985637510995899 0.1298347970200906 0 0.27474541102162192 0.11822029332053539 0 0.29336099386129338 0.15892013001050981 0 0.25557216766470708 0.15874861286892261 0 0.26429849586623999 0.19346700179430079 0 0.25557216766470708 0.15874861286892261 0 0.29336099386129338 0.15892013001050981 
[...]
<PointData Scalars="" Vectors="displacement," Tensors="">
<DataArray type="Float64" Name="displacement" NumberOfComponents="3" format="ascii">
-1.8216167993125508e-09 -7.4930560788714461e-10 0 -2.0927740178597763e-06 1.4364646123596542e-09 0 -9.4785293370433458e-07 2.1838457424561938e-07 0 -1.8216167993125508e-09 -7.4930560788714461e-10 0 -9.4785293370433479e-07 2.1838457424561943e-07 0 -1.6724582879039815e-09 5.3502687530022872e-10 0 -2.0927740178597763e-06 1.4364646123596542e-09 0 -2.1271922568587576e-06 8.5656744666941506e-07 0 -9.4785293370433458e-07 2.1838457424561938e-07 0 -1.6724582879039815e-09 5.3502687530022872e-10 0 -9.4785293370433469e-07 2.1838457424561946e-07 0 -2.1271922568587576e-06 8.5656744666941506e-07 0 -1.6561690518625235e-09 3.2525437095996721e-10 0 -1.6724582879039815e-09 5.3502687530022872e-10 0 -1.3555385616520434e-06 1.2443697137531195e-06 0 -8.6922302835539287e-10 9.745827867173209e-10 0 -1.6561690518625235e-09 3.2525437095996721e-10 0 -1.3555385616520434e-06 1.2443697137531195e-06 0 -2.9625606951598216e-06 1.8617157225985952e-06 0 -1.3555385616520434e-06 1.2443697137531195e-06 0 -2.1271922568587576e-06 8.5656744666941506e-07 0 -1.6724582879039815e-09 5.3502687530022872e-10 0 -2.1271922568587576e-06 8.5656744666941506e-07 0 -1.3555385616520434e-06 1.2443697137531195e-06 0 -2.9625606951598216e-06 1.8617157225985952e-06 0 -1.5672612383082796e-06 2.0703571013231509e-06 0 -1.3555385616520434e-06 1.2443697137531195e-06 0 -2.9625606951598216e-06 1.8617157225985952e-06 0 -3.0202480428782341e-06 2.6173444029460878e-06 0 -1.5672612383082796e-06 2.0703571013231509e-06 0 -2.9625606951598216e-06 1.8617157225985952e-06 0 -4.571054900695096e-06 2.3831869292135686e-06 0 -3.0202480428782341e-06 2.6173444029460878e-06 0 -3.6557062298101379e-06 3.0610003763821504e-06 0 -3.0202480428782341e-06 2.6173444029460878e-06 0 -4.571054900695096e-06 2.3831869292135686e-06 0 -6.5297510689115206e-06 1.8922355440387647e-06 0 -4.571054900695096e-06 2.3831869292135686e-06 0 -4.5685471125581627e-06 1.3997364103285872e-06 0 -2.9625606951598216e-06 1.8617157225985952e-06 0 -4.5685471125581627e-06 1.3997364103285872e-06 0 -4.571054900695096e-06 2.3831869292135686e-06 0 -4.6936566778412917e-06 5.2767706215142414e-07 0 -7.8790466854152216e-06 7.0753219035603652e-07 0 -4.5685471125581627e-06 1.3997364103285872e-06 0 -2.0927740178597763e-06 1.4364646123596542e-09 0 -4.6936566778412917e-06 5.2767706215142414e-07 0 -2.1271922568587576e-06 8.5656744666941506e-07 0 -4.6936566778412917e-06 5.2767706215142414e-07 0 -4.5685471125581627e-06 1.3997364103285872e-06 0 -2.1271922568587576e-06 8.5656744666941506e-07 0 -2.9625606951598216e-06 1.8617157225985952e-06 0 -2.1271922568587576e-06 8.5656744666941506e-07 0 -4.5685471125581627e-06 1.3997364103285872e-06 0 -2.4747869060248591e-11 8.5343837192306679e-10 0 -5.4375665518804729e-10 6.9084545965937322e-10 0 -2.1829552118208693e-07 1.7390789590080799e-06 0 -5.4375665518804729e-10 6.9084545965937322e-10 0 -5.4955601122430331e-07 1.4523220808487879e-06 0 -2.1829552118208693e-07 1.7390789590080799e-06 0 -9.7126801440412316e-07 2.6980987464917763e-06 0 -2.1829552118208693e-07 1.7390789590080799e-06 0 -5.4955601122430331e-07 1.4523220808487879e-06 0 -8.6922302835539287e-10 9.745827867173209e-10 0 -1.5672612383082796e-06 2.0703571013231509e-06 0 -5.4955601122430331e-07 1.4523220808487879e-06 0 -8.6922302835539287e-10 9.745827867173209e-10 0 -1.3555385616520434e-06 1.2443697137531195e-06 0 -1.5672612383082796e-06 2.0703571013231509e-06 0 -9.7126801440412316e-07 2.6980987464917763e-06 0 -5.4955601122430331e-07 1.4523220808487879e-06 0 -1.5672612383082796e-06 2.0703571013231509e-06 0 -5.4375665518804729e-10 6.9084545965937322e-10 0 -8.6922302835539287e-10 9.745827867173209e-10 0 -5.4955601122430331e-07 1.4523220808487879e-06 0 -1.5672612383082796e-06 2.0703571013231509e-06 0 -3.0202480428782346e-06 2.6173444029460878e-06 0 -2.1605367907788851e-06 2.9350375376839291e-06 0 -3.6557062298101379e-06 3.0610003763821504e-06 0 -2.1605367907788851e-06 2.9350375376839291e-06 0 -3.0202480428782341e-06 2.6173444029460878e-06 0 -9.7126801440412316e-07 2.6980987464917763e-06 0 -1.5672612383082796e-06 2.0703571013231509e-06 0 -2.1605367907788851e-06 2.9350375376839291e-06 0 -9.7126801440412316e-07 2.6980987464917763e-06 0 -1.4771940388871679e-06 3.4157158891924477e-06 0 -6.5744556173704568e-08 3.007779344915158e-06 0 -9.7126801440412316e-07 2.6980987464917763e-06 0 -2.1605367907788851e-06 2.9350375376839291e-06 0 -1.4771940388871679e-06 3.4157158891924477e-06 0 -9.7126801440412316e-07 2.6980987464917763e-06 0 -6.5744556173704568e-08 3.007779344915158e-06 0 -2.1829552118208693e-07 1.7390789590080799e-06 0 2.5856699939849516e-07 1.8994115307430229e-06 0 -2.1829552118208693e-07 1.7390789590080799e-06 0 -6.5744556173704568e-08 3.007779344915158e-06 0 -1.4771940388871679e-06 3.4157158891924477e-06 0 -1.6752944814324029e-07 3.4549631531694994e-06 0 -6.5744556173704568e-08 3.007779344915158e-06 0 -5.3943112132614453e-07 3.4246831687647076e-06 0 -1.6752944814324008e-07 3.4549631531694994e-06 0 -1.4771940388871679e-06 3.4157158891924477e-06 0 -5.3943112132614453e-07 3.4246831687647076e-06 0 -1.4771940388871679e-06 3.4157158891924477e-06 0 -2.7175397622264829e-06 3.2488333424000864e-06 0 -3.6557062298101379e-06 3.0610003763821504e-06 0 -5.0768756592108667e-06 2.8028540019974171e-06 0 -2.7175397622264829e-06 3.2488333424000864e-06 0 -3.6557062298101379e-06 3.0610003763821504e-06 0 -1.4771940388871679e-06 3.4157158891924473e-06 0 -2.1605367907788851e-06 2.9350375376839291e-06 0 -3.6557062298101379e-06 3.0610003763821504e-06 0 -2.7175397622264829e-06 3.2488333424000864e-06 0 -1.4771940388871679e-06 3.4157158891924477e-06 0 -3.6557062298101379e-06 3.0610003763821504e-06 0 -5.843339638039202e-06 2.51677568369778e-06 0 -5.0768756592108667e-06 2.8028540019974175e-06 0 -3.75093108662989e-06 2.6322001395628968e-06 0 -5.0768756592108667e-06 2.8028540019974175e-06 0 -7.1754269673952476e-06 1.8863809895866254e-06 0 -3.75093108662989e-06 2.6322001395628968e-06 0 -7.1754269673952476e-06 1.8863809895866254e-06 0 -5.9625278185607383e-06 1.3766791609884067e-06 0 -3.75093108662989e-06 2.6322001395628968e-06 0 -5.9625278185607383e-06 1.3766791609884064e-06 0 -3.5714353074608292e-06 1.3793668758325901e-06 0 -3.75093108662989e-06 2.6322001395628968e-06 0 -2.7175397622264829e-06 3.2488333424000864e-06 0 -5.0768756592108667e-06 2.8028540019974175e-06 0 -5.3943112132614453e-07 3.4246831687647076e-06 0 -2.7175397622264829e-06 3.2488333424000864e-06 0 -1.3637881766220141e-06 2.7618792639368388e-06 0 -3.75093108662989e-06 2.6322001395628968e-06 0 -1.3637881766220141e-06 2.7618792639368388e-06 0 -2.7175397622264829e-06 3.2488333424000864e-06 0 -3.75093108662989e-06 2.6322001395628968e-06 0 -3.5714353074608292e-06 1.3793668758325901e-06 0 -1.3637881766220141e-06 2.7618792639368388e-06 0 8.0700641350371369e-07 2.0687931198533905e-06 0 1.0989977299895034e-06 3.0876893605577458e-06 0 -1.3637881766220141e-06 2.7618792639368388e-06 0 -5.3943112132614453e-07 3.4246831687647076e-06 0 -1.3637881766220141e-06 2.7618792639368388e-06 0 1.0989977299895034e-06 3.0876893605577458e-06 0 -7.8790466854152216e-06 7.0753219035603652e-07 0 -9.3457838308618784e-06 1.2234017439140244e-06 0 -6.5297510689115206e-06 1.8922355440387647e-06 0 -8.3200493703954163e-06 1.9157010923054315e-06 0 -6.5297510689115198e-06 1.8922355440387647e-06 0 -9.3457838308618801e-06 1.2234017439140242e-06 0 -7.8790466854152216e-06 7.0753219035603652e-07 0 -1.1650236759918325e-05 5.6144456830263842e-08 0 -9.3457838308618801e-06 1.2234017439140242e-06 0 -7.8790466854152216e-06 7.0753219035603652e-07 0 -6.5297510689115215e-06 1.8922355440387649e-06 0 -4.5685471125581627e-06 1.3997364103285872e-06 0 -6.5297510689115206e-06 1.8922355440387647e-06 0 -5.843339638039202e-06 2.51677568369778e-06 0 -4.571054900695096e-06 2.3831869292135686e-06 0 -3.6557062298101379e-06 3.0610003763821504e-06 0 -4.571054900695096e-06 2.3831869292135686e-06 0 -5.843339638039202e-06 2.51677568369778e-06 0 -8.3200493703954163e-06 1.9157010923054315e-06 0 -5.0768756592108667e-06 2.8028540019974175e-06 0 -5.843339638039202e-06 2.51677568369778e-06 0 -8.3200493703954163e-06 1.9157010923054315e-06 0 -5.843339638039202e-06 2.51677568369778e-06 0 -6.5297510689115206e-06 1.8922355440387647e-06 0 -8.3200493703954163e-06 1.9157010923054315e-06 0 -7.1754269673952476e-06 1.8863809895866254e-06 0 -5.0768756592108667e-06 2.8028540019974175e-06 0 -8.3200493703954163e-06 1.9157010923054315e-06 0 -1.0304806058688194e-05 8.9831515944693342e-07 0 -7.1754269673952476e-06 1.8863809895866254e-06 0 -9.7315624946418399e-06 1.2275938554512387e-07 0 -7.1754269673952476e-06 1.8863809895866254e-06 0 -1.0304806058688194e-05 8.9831515944693331e-07 0 -8.3200493703954163e-06 1.9157010923054315e-06 0 -1.1800468376561386e-05 5.1676900431911096e-07 0 -1.0304806058688194e-05 8.9831515944693331e-07 0 -1.4254365105990382e-05 -9.9455349219888803e-07 0 -1.0304806058688194e-05 8.9831515944693331e-07 0 -1.1800468376561386e-05 5.1676900431911096e-07 0 -8.3200493703954163e-06 1.9157010923054315e-06 0 -9.3457838308618801e-06 1.2234017439140242e-06 0 -1.1800468376561386e-05 5.1676900431911096e-07 0 -1.1650236759918323e-05 5.614445683026406e-08 0 -1.1800468376561386e-05 5.1676900431911096e-07 0 -9.3457838308618801e-06 1.2234017439140242e-06 0 -1.1650236759918323e-05 5.614445683026406e-08 0 -1.5929779778750508e-05 -1.4928755741749772e-06 0 -1.1800468376561386e-05 5.1676900431911096e-07 0 -1.5929779778750508e-05 -1.4928755741749772e-06 0 -2.047240943817681e-05 -4.1077732307753201e-06 0 -1.4254365105990382e-05 -9.9455349219888803e-07 0 -1.5929779778750508e-05 -1.4928755741749772e-06 0 -1.4254365105990382e-05 -9.9455349219888803e-07 0 -1.1800468376561386e-05 5.1676900431911096e-07 0 -2.047240943817681e-05 -4.1077732307753201e-06 0 -1.9126608790383007e-05 -4.4006841304121466e-06 0 -1.4254365105990382e-05 -9.9455349219888803e-07 0 -2.047240943817681e-05 -4.1077732307753201e-06 0 -2.5722304286470616e-05 -8.015898049790196e-06 0 -1.9126608790383007e-05 -4.4006841304121466e-06 0 -1.6939752340818779e-05 -5.7249393574909822e-06 0 -1.9126608790383007e-05 -4.4006841304121466e-06 0 -2.3214227536409194e-05 -7.9108779344963034e-06 0 -1.6939752340818779e-05 -5.7249393574909822e-06 0 -2.3214227536409194e-05 -7.9108779344963034e-06 0 -2.3450490153055453e-05 -1.1127473795529418e-05 0 -2.5722304286470616e-05 -8.015898049790196e-06 0 -2.3214227536409194e-05 -7.9108779344963034e-06 0 -1.9126608790383007e-05 -4.4006841304121466e-06 0 -2.5722304286470616e-05 -8.015898049790196e-06 0 -3.1500896544164808e-05 -1.3427697359808426e-05 0 -2.3214227536409194e-05 -7.9108779344963034e-06 0 -1.6939752340818779e-05 -5.7249393574909822e-06 0 -1.602576057809782e-05 -9.9668919521487346e-06 0 -1.0883131433480362e-05 -5.5330822309171179e-06 0 -1.6939752340818779e-05 -5.7249393574909822e-06 0 -1.0883131433480362e-05 -5.5330822309171179e-06 0 -1.1329619463890281e-05 -2.5385908126352792e-06 0 -1.6939752340818779e-05 -5.7249393574909822e-06 0 -1.4283110388119837e-05 -2.4136149430444961e-06 0 -1.9126608790383007e-05 -4.4006841304121466e-06 0 -1.6939752340818779e-05 -5.7249393574909822e-06 0 -1.1329619463890281e-05 -2.5385908126352792e-06 0 -1.4283110388119837e-05 -2.4136149430444961e-06 0 -9.7315624946418399e-06 1.2275938554512387e-07 0 -1.4283110388119839e-05 -2.4136149430444961e-06 0 -1.1329619463890281e-05 -2.5385908126352792e-06 0 -1.4254365105990382e-05 -9.9455349219888803e-07 0 -1.9126608790383007e-05 -4.4006841304121466e-06 0 -1.4283110388119837e-05 -2.4136149430444961e-06 0 -1.4283110388119837e-05 -2.4136149430444961e-06 0 -9.7315624946418399e-06 1.2275938554512382e-07 0 -1.4254365105990382e-05 -9.9455349219888803e-07 0 -1.4254365105990382e-05 -9.9455349219888803e-07 0 -9.7315624946418399e-06 1.2275938554512387e-07 0 -1.0304806058688194e-05 8.9831515944693331e-07 0 -9.7315624946418399e-06 1.2275938554512387e-07 0 -5.9625278185607383e-06 1.3766791609884067e-06 0 -7.1754269673952476e-06 1.8863809895866254e-06 0 -9.7315624946418399e-06 1.2275938554512387e-07 0 -6.9008989953958754e-06 -2.8434876653362027e-07 0 -5.9625278185607383e-06 1.3766791609884067e-06 0 -3.5714353074608292e-06 1.3793668758325901e-06 0 -5.9625278185607375e-06 1.3766791609884069e-06 0 -6.9008989953958754e-06 -2.8434876653362027e-07 0 -7.4583086222169907e-06 -2.5926257389979119e-06 0 -3.7402616239594594e-06 -9.6845330149614788e-07 0 -6.9008989953958754e-06 -2.8434876653362027e-07 0 -3.5714353074608292e-06 1.3793668758325901e-06 0 -6.9008989953958754e-06 -2.8434876653362027e-07 0 -3.7402616239594594e-06 -9.6845330149614788e-07 0 -9.7315624946418399e-06 1.2275938554512387e-07 0 -1.1329619463890281e-05 -2.5385908126352792e-06 0 -6.9008989953958754e-06 -2.8434876653362027e-07 0 -9.8152830224506168e-07 9.5143572903613752e-07 0 8.0700641350371369e-07 2.0687931198533905e-06 0 -1.3637881766220141e-06 2.7618792639368388e-06 0 -3.5714353074608292e-06 1.3793668758325901e-06 0 -9.8152830224506168e-07 9.5143572903613752e-07 0 -1.3637881766220141e-06 2.7618792639368388e-06 0 -3.5714353074608292e-06 1.3793668758325901e-06 0 -3.740261623959459e-06 -9.684533014961481e-07 0 -9.8152830224506168e-07 9.5143572903613752e-07 0 -1.9896559711086746e-07 -2.2090212718040478e-06 0 1.9835995183605901e-06 6.3186222304862299e-07 0 -9.8152830224506168e-07 9.5143572903613752e-07 0 -1.9896559711086746e-07 -2.2090212718040478e-06 0 -9.815283022450621e-07 9.514357290361373e-07 0 -3.7402616239594594e-06 -9.6845330149614788e-07 0 -1.9896559711086746e-07 -2.2090212718040478e-06 0 -3.7402616239594594e-06 -9.6845330149614788e-07 0 -5.2725311423784429e-06 -4.3075311046255889e-06 0 -1.9896559711086746e-07 -2.2090212718040478e-06 0 -5.2725311423784429e-06 -4.3075311046255889e-06 0 -1.9114993200597001e-06 -6.7243036710822838e-06 0 -1.9896559711086746e-07 -2.2090212718040478e-06 0 -1.9114993200597001e-06 -6.7243036710822838e-06 0 3.0277998772282041e-06 -5.1297064436986107e-06 0 -7.4583086222169907e-06 -2.5926257389979119e-06 0 -6.9008989953958754e-06 -2.8434876653362027e-07 0 -1.1329619463890281e-05 -2.5385908126352792e-06 0 -7.4583086222169907e-06 -2.5926257389979119e-06 0 -1.132961946389028e-05 -2.5385908126352792e-06 0 -1.0883131433480362e-05 -5.5330822309171179e-06 0 -7.4583086222169907e-06 -2.5926257389979119e-06 0 -5.2725311423784429e-06 -4.3075311046255889e-06 0 -3.7402616239594594e-06 -9.6845330149614788e-07 0 -8.5126517531554742e-06 -8.7359164292981487e-06 0 -5.2725311423784429e-06 -4.3075311046255889e-06 0 -1.0883131433480362e-05 -5.5330822309171179e-06 0 -7.4583086222169907e-06 -2.5926257389979119e-06 0 -1.0883131433480362e-05 -5.5330822309171179e-06 0 -5.2725311423784429e-06 -4.3075311046255889e-06 0 -8.5126517531554742e-06 -8.7359164292981487e-06 0 -1.0883131433480362e-05 -5.5330822309171179e-06 0 -1.602576057809782e-05 -9.9668919521487346e-06 0 -8.5126517531554742e-06 -8.7359164292981487e-06 0 -1.3514133207031647e-05 -1.545639003274424e-05 0 -4.423721780243109e-06 -1.1886328896038416e-05 0 -8.5126517531554742e-06 -8.7359164292981487e-06 0 -1.602576057809782e-05 -9.9668919521487346e-06 0 -1.3514133207031647e-05 -1.545639003274424e-05 0 2.0034546675403125e-06 -9.9204630271128485e-06 0 3.0277998772282041e-06 -5.1297064436986116e-06 0 -1.9114993200597001e-06 -6.7243036710822838e-06 0 -8.5126517531554742e-06 -8.7359164292981487e-06 0 -1.9114993200597001e-06 -6.7243036710822829e-06 0 -5.2725311423784429e-06 -4.3075311046255889e-06 0 -8.5126517531554742e-06 -8.7359164292981487e-06 0 -4.423721780243109e-06 -1.1886328896038416e-05 0 -1.9114993200597001e-06 -6.7243036710822838e-06 0 2.0034546675403125e-06 -9.9204630271128485e-06 0 -1.9114993200597001e-06 -6.7243036710822838e-06 0 -4.423721780243109e-06 -1.1886328896038416e-05 0 2.0034546675403125e-06 -9.9204630271128485e-06 0 -4.423721780243109e-06 -1.1886328896038416e-05 0 -3.6496269398312137e-07 -1.6195924925756268e-05 0 -6.8978979883881744e-06 -1.9400580854745962e-05 0 -3.6496269398312116e-07 -1.6195924925756268e-05 0 -4.423721780243109e-06 -1.1886328896038416e-05 0 -6.8978979883881744e-06 -1.9400580854745962e-05 0 -1.0874937303286844e-05 -2.932180443406702e-05 0 -3.8922740688724739e-06 -2.5726365180023228e-05 0 -6.8978979883881744e-06 -1.9400580854745962e-05 0 -3.8922740688724739e-06 -2.5726365180023228e-05 0 -3.6496269398312137e-07 -1.6195924925756268e-05 0 3.2294696039186734e-06 -2.1216237041003845e-05 0 -3.6496269398312137e-07 -1.6195924925756268e-05 0 -3.8922740688724739e-06 -2.5726365180023228e-05 0 -6.8978979883881744e-06 -1.9400580854745962e-05 0 -1.3514133207031647e-05 -1.545639003274424e-05 0 -1.4848788823927725e-05 -2.3020855554302483e-05 0 -6.8978979883881744e-06 -1.9400580854745962e-05 0 -4.423721780243109e-06 -1.1886328896038416e-05 0 -1.3514133207031647e-05 -1.545639003274424e-05 0 -6.8978979883881744e-06 -1.9400580854745962e-05 0 -1.4848788823927725e-05 -2.3020855554302483e-05 0 -1.0874937303286844e-05 -2.932180443406702e-05 0 -1.3514133207031647e-05 -1.545639003274424e-05 0 -2.3206654205150496e-05 -2.3119115172880818e-05 0 -1.4848788823927725e-05 -2.3020855554302483e-05 0 -1.9807085741889634e-05 -2.9124969428819362e-05 0 -1.4848788823927725e-05 -2.3020855554302483e-05 0 -2.3206654205150496e-05 -2.3119115172880818e-05 0 -2.2906356105317496e-05 -1.616722124806191e-05 0 -2.3206654205150496e-05 -2.3119115172880818e-05 0 -1.3514133207031647e-05 -1.545639003274424e-05 0 -2.2906356105317496e-05 -1.616722124806191e-05 0 -3.1674355057143749e-05 -2.2965468576442721e-05 0 -2.3206654205150496e-05 -2.3119115172880818e-05 0 -3.295146179439247e-05 -3.3777828504711978e-05 0 -2.3206654205150496e-05 -2.3119115172880818e-05 0 -3.1674355057143749e-05 -2.2965468576442721e-05 0 -4.3564818867359186e-05 -3.0554592169783572e-05 0 -3.295146179439247e-05 -3.3777828504711978e-05 0 -3.1674355057143749e-05 -2.2965468576442721e-05 0 -3.7548532629263869e-05 -2.0958148958097513e-05 0 -4.3564818867359186e-05 -3.0554592169783572e-05 0 -3.1674355057143749e-05 -2.2965468576442721e-05 0 -3.7548532629263869e-05 -2.0958148958097513e-05 0 -3.1674355057143749e-05 -2.2965468576442721e-05 0 -2.9402605704970725e-05 -1.6708156003343019e-05 0 -2.2906356105317496e-05 -1.616722124806191e-05 0 -2.9402605704970725e-05 -1.6708156003343019e-05 0 -3.1674355057143749e-05 -2.2965468576442721e-05 0 -3.1500896544164808e-05 -1.3427697359808426e-05 0 -2.9402605704970725e-05 -1.6708156003343019e-05 0 -2.3450490153055453e-05 -1.1127473795529418e-05 0 -2.2906356105317496e-05 -1.616722124806191e-05 0 -2.3450490153055453e-05 -1.1127473795529418e-05 0 -2.9402605704970725e-05 -1.6708156003343019e-05 0 -3.1500896544164808e-05 -1.3427697359808426e-05 0 -3.7548532629263869e-05 -2.0958148958097513e-05 0 -2.9402605704970725e-05 -1.6708156003343019e-05 0 -3.1500896544164808e-05 -1.3427697359808426e-05 0 -2.345049015305545e-05 -1.1127473795529418e-05 0 -2.3214227536409194e-05 -7.9108779344963034e-06 0 -1.6939752340818779e-05 -5.7249393574909822e-06 0 -2.3450490153055453e-05 -1.1127473795529418e-05 0 -1.602576057809782e-05 -9.9668919521487346e-06 0 -2.2906356105317496e-05 -1.616722124806191e-05 0 -1.3514133207031646e-05 -1.5456390032744236e-05 0 -1.602576057809782e-05 -9.9668919521487346e-06 0 -2.2906356105317496e-05 -1.616722124806191e-05 0 -1.602576057809782e-05 -9.9668919521487346e-06 0 -2.3450490153055453e-05 -1.1127473795529418e-05 0 1.1837536090852664e-05 -3.1336138986089491e-06 0 1.0991564417149042e-05 -1.5669003657111893e-06 0 9.9076734840788342e-06 -4.8190105938136545e-06 0 9.2510314582804031e-06 -2.7345443391912196e-06 0 9.9076734840788342e-06 -4.8190105938136545e-06 0 1.0991564417149042e-05 -1.5669003657111893e-06 0 9.2510314582804031e-06 -2.7345443391912196e-06 0 7.8617203571158086e-06 -5.3255729133126794e-06 0 9.9076734840788342e-06 -4.8190105938136545e-06 0 1.1837536090852664e-05 -3.1336138986089491e-06 0 1.3247530843095262e-05 3.1345599717617013e-07 0 1.0991564417149042e-05 -1.5669003657111893e-06 0 1.5584867505035551e-05 2.7665933970828233e-06 0 1.3247530843095262e-05 3.13455