<?xml version="1.0"?>
<VTKFile type="UnstructuredGrid" version="0.1" byte_order="LittleEndian">
<UnstructuredGrid>
<Piece NumberOfPoints="33920" NumberOfCells="8480">
<Points>
<DataArray type="Float64" NumberOfComponents="3" format="ascii">
0.0013916351 6.0590411758 2.0000000000 0.4962766830 5.6829763646 1.5000000000 0.0710096953 6.6198715095 1.4981830856 0.6959631204 5.9100030562 1.5000000000 0.4962766830 5.6829763646 1.5000000000 0.9911617309 5.3069115534 1.0000000000 0.5658947432 6.2438066983 0.9981830856 1.1908481683 5.5339382450 1.0000000000 0.0710096953 6.6198715095 1.4981830856 0.5658947432 6.2438066983 0.9981830856 0.1406277554 7.1807018432 0.9963661712 0.7655811805 6.4708333899 0.9981830856 0.6959631204 5.9100030562 1.5000000000 1.1908481683 5.5339382450 1.0000000000 0.7655811805 6.4708333899 0.9981830856 1.3905346056 5.7609649366 1.0000000000 0.6959631204 5.9100030562 1.5000000000 0.5658947432 6.2438066983 0.9981830856 0.0710096953 6.6198715095 1.4981830856 0.7655811805 6.4708333899 0.9981830856 0.5658947432 6.2438066983 0.9981830856 0.6959631204 5.9100030562 1.5000000000 1.1908481683 5.5339382450 1.0000000000 0.7655811805 6.4708333899 0.9981830856 0.5658947432 6.2438066983 0.9981830856 0.6959631204 5.9100030562 1.5000000000 0.0710096953 6.6198715095 1.4981830856 0.4962766830 5.6829763646 1.5000000000 0.6959631204 5.9100030562 1.5000000000 0.5658947432 6.2438066983 0.9981830856 1.1908481683 5.5339382450 1.0000000000 0.4962766830 5.6829763646 1.5000000000 0.1406277554 7.1807018432 0.9963661712 0.5658947432 6.2438066983 0.9981830856 0.0710096953 6.6198715095 0.4981830856 0.7655811805 6.4708333899 0.9981830856 0.5658947432 6.2438066983 0.9981830856 0.9911617309 5.3069115534 1.0000000000 0.4962766830 5.6829763646 0.5000000000 1.1908481683 5.5339382450 1.0000000000 0.0710096953 6.6198715095 0.4981830856 0.4962766830 5.6829763646 0.5000000000 0.0013916351 6.0590411758 0.0000000000 0.6959631204 5.9100030562 0.5000000000 0.7655811805 6.4708333899 0.9981830856 1.1908481683 5.5339382450 1.0000000000 0.6959631204 5.9100030562 0.5000000000 1.3905346056 5.7609649366 1.0000000000 0.6959631204 5.9100030562 0.5000000000 0.7655811805 6.4708333899 0.9981830856 0.5658947432 6.2438066983 0.9981830856 1.1908481683 5.5339382450 1.0000000000 0.7655811805 6.4708333899 0.9981830856 0.6959631204 5.9100030562 0.5000000000 0.5658947432 6.2438066983 0.9981830856 0.0710096953 6.6198715095 0.4981830856 0.6959631204 5.9100030562 0.5000000000 0.4962766830 5.6829763646 0.5000000000 0.5658947432 6.2438066983 0.9981830856 0.0710096953 6.6198715095 0.4981830856 0.4962766830 5.6829763646 0.5000000000 0.6959631204 5.9100030562 0.5000000000 0.5658947432 6.2438066983 0.9981830856 1.1908481683 5.5339382450 1.0000000000 6.9674452865 2.7312494213 1.0000000000 7.2912556524 3.2399703684 1.5000000000 7.6487226433 3.0306247107 1.0000000000 6.6948411188 3.2082612306 1.0000000000 7.2912556524 3.2399703684 1.5000000000 7.6150660184 3.7486913154 2.0000000000 7.9725330092 3.5393456577 1.5000000000 7.0186514847 3.7169821776 1.5000000000 7.6487226433 3.0306247107 1.0000000000 7.9725330092 3.5393456577 1.5000000000 8.3300000000 3.3300000000 1.0000000000 7.3761184755 3.5076365199 1.0000000000 6.6948411188 3.2082612306 1.0000000000 7.0186514847 3.7169821776 1.5000000000 7.3761184755 3.5076365199 1.0000000000 6.4222369510 3.6852730398 1.0000000000 7.3761184755 3.5076365199 1.0000000000 6.6948411188 3.2082612306 1.0000000000 7.2912556524 3.2399703684 1.5000000000 7.0186514847 3.7169821776 1.5000000000 6.6948411188 3.2082612306 1.0000000000 7.3761184755 3.5076365199 1.0000000000 7.2912556524 3.2399703684 1.5000000000 7.6487226433 3.0306247107 1.0000000000 7.3761184755 3.5076365199 1.0000000000 7.9725330092 3.5393456577 1.5000000000 7.2912556524 3.2399703684 1.5000000000 7.6487226433 3.0306247107 1.0000000000 7.9725330092 3.5393456577 1.5000000000 7.3761184755 3.5076365199 1.0000000000 7.2912556524 3.2399703684 1.5000000000 7.0186514847 3.7169821776 1.5000000000 5.0141087487 2.4138296371 0.0000000000 4.9562773821 2.2563390212 0.4178237609 5.1162202384 2.0491983462 0.0000000000 5.3424863447 1.9153483362 0.5000000000 4.9562773821 2.2563390212 0.4178237609 4.8984460154 2.0988484054 0.8356475219 5.0583888717 1.8917077304 0.4178237609 5.2846549780 1.7578577203 0.9178237609 5.1162202384 2.0491983462 0.0000000000 5.0583888717 1.8917077304 0.4178237609 5.2183317281 1.6845670554 0.0000000000 5.4445978344 1.5507170453 0.5000000000 5.3424863447 1.9153483362 0.5000000000 5.2846549780 1.7578577203 0.9178237609 5.4445978344 1.5507170453 0.5000000000 5.6708639407 1.4168670352 1.0000000000 5.3424863447 1.9153483362 0.5000000000 5.0583888717 1.8917077304 0.4178237609 5.1162202384 2.0491983462 0.0000000000 5.4445978344 1.5507170453 0.5000000000 5.0583888717 1.8917077304 0.4178237609 5.3424863447 1.9153483362 0.5000000000 5.2846549780 1.7578577203 0.9178237609 5.4445978344 1.5507170453 0.5000000000 5.0583888717 1.8917077304 0.4178237609 5.3424863447 1.9153483362 0.5000000000 5.1162202384 2.0491983462 0.0000000000 4.9562773821 2.2563390212 0.4178237609 5.3424863447 1.9153483362 0.5000000000 5.0583888717 1.8917077304 0.4178237609 5.2846549780 1.7578577203 0.9178237609 4.9562773821 2.2563390212 0.4178237609 0.1406277554 7.1807018432 0.9963661712 -0.2049575355 6.8318492067 1.0052273750 0.0710096953 6.6198715095 0.4981830856 0.5658947432 6.2438066983 0.9981830856 -0.2049575355 6.8318492067 1.0052273750 -0.5505428265 6.4829965703 1.0140885788 -0.2745755957 6.2710188730 0.5070442894 0.2203094522 5.8949540618 1.0070442894 0.0710096953 6.6198715095 0.4981830856 -0.2745755957 6.2710188730 0.5070442894 0.0013916351 6.0590411758 0.0000000000 0.4962766830 5.6829763646 0.5000000000 0.5658947432 6.2438066983 0.9981830856 0.2203094522 5.8949540618 1.0070442894 0.4962766830 5.6829763646 0.5000000000 0.9911617309 5.3069115534 1.0000000000 -0.2049575355 6.8318492067 1.0052273750 0.0710096953 6.6198715095 0.4981830856 0.5658947432 6.2438066983 0.9981830856 0.2203094522 5.8949540618 1.0070442894 -0.2049575355 6.8318492067 1.0052273750 0.0710096953 6.6198715095 0.4981830856 -0.2745755957 6.2710188730 0.5070442894 0.2203094522 5.8949540618 1.0070442894 0.0710096953 6.6198715095 0.4981830856 0.5658947432 6.2438066983 0.9981830856 0.2203094522 5.8949540618 1.0070442894 0.4962766830 5.6829763646 0.5000000000 0.0710096953 6.6198715095 0.4981830856 -0.2745755957 6.2710188730 0.5070442894 0.2203094522 5.8949540618 1.0070442894 0.4962766830 5.6829763646 0.5000000000 0.0013916351 6.0590411758 2.0000000000 -0.2745755957 6.2710188730 1.5070442894 0.0710096953 6.6198715095 1.4981830856 0.4962766830 5.6829763646 1.5000000000 -0.2745755957 6.2710188730 1.5070442894 -0.5505428265 6.4829965703 1.0140885788 -0.2049575355 6.8318492067 1.0052273750 0.2203094522 5.8949540618 1.0070442894 0.0710096953 6.6198715095 1.4981830856 -0.2049575355 6.8318492067 1.0052273750 0.1406277554 7.1807018432 0.9963661712 0.5658947432 6.2438066983 0.9981830856 0.4962766830 5.6829763646 1.5000000000 0.2203094522 5.8949540618 1.0070442894 0.5658947432 6.2438066983 0.9981830856 0.9911617309 5.3069115534 1.0000000000 -0.2745755957 6.2710188730 1.5070442894 0.0710096953 6.6198715095 1.4981830856 0.4962766830 5.6829763646 1.5000000000 0.2203094522 5.8949540618 1.0070442894 -0.2745755957 6.2710188730 1.5070442894 0.0710096953 6.6198715095 1.4981830856 -0.2049575355 6.8318492067 1.0052273750 0.2203094522 5.8949540618 1.0070442894 0.0710096953 6.6198715095 1.4981830856 0.4962766830 5.6829763646 1.5000000000 0.2203094522 5.8949540618 1.0070442894 0.5658947432 6.2438066983 0.9981830856 0.0710096953 6.6198715095 1.4981830856 -0.2049575355 6.8318492067 1.0052273750 0.2203094522 5.8949540618 1.0070442894 0.5658947432 6.2438066983 0.9981830856 5.9295290879 4.7168551085 0.0000000000 5.8246974104 5.0777176103 0.0000000000 5.4524810163 4.9675934183 0.0000000000 6.2164862240 4.7795310589 0.5000000000 5.8246974104 5.0777176103 0.0000000000 5.7198657328 5.4385801122 0.0000000000 5.3476493387 5.3284559201 0.0000000000 6.1116545465 5.1403935608 0.5000000000 5.4524810163 4.9675934183 0.0000000000 5.3476493387 5.3284559201 0.0000000000 4.9754329446 5.2183317281 0.0000000000 5.7394381523 5.0302693687 0.5000000000 6.2164862240 4.7795310589 0.5000000000 6.1116545465 5.1403935608 0.5000000000 5.7394381523 5.0302693687 0.5000000000 6.5034433601 4.8422070094 1.0000000000 5.7394381523 5.0302693687 0.5000000000 6.2164862240 4.7795310589 0.5000000000 5.8246974104 5.0777176103 0.0000000000 6.1116545465 5.1403935608 0.5000000000 6.2164862240 4.7795310589 0.5000000000 5.7394381523 5.0302693687 0.5000000000 5.8246974104 5.0777176103 0.0000000000 5.4524810163 4.9675934183 0.0000000000 5.7394381523 5.0302693687 0.5000000000 5.3476493387 5.3284559201 0.0000000000 5.8246974104 5.0777176103 0.0000000000 5.4524810163 4.9675934183 0.0000000000 5.3476493387 5.3284559201 0.0000000000 5.7394381523 5.0302693687 0.5000000000 5.8246974104 5.0777176103 0.0000000000 6.1116545465 5.1403935608 0.5000000000 4.9754329446 5.2183317281 2.0000000000 5.3476493387 5.3284559201 2.0000000000 5.4524810163 4.9675934183 2.0000000000 5.7394381523 5.0302693687 1.5000000000 5.3476493387 5.3284559201 2.0000000000 5.7198657328 5.4385801122 2.0000000000 5.8246974104 5.0777176103 2.0000000000 6.1116545465 5.1403935608 1.5000000000 5.4524810163 4.9675934183 2.0000000000 5.8246974104 5.0777176103 2.0000000000 5.9295290879 4.7168551085 2.0000000000 6.2164862240 4.7795310589 1.5000000000 5.7394381523 5.0302693687 1.5000000000 6.1116545465 5.1403935608 1.5000000000 6.2164862240 4.7795310589 1.5000000000 6.5034433601 4.8422070094 1.0000000000 5.7394381523 5.0302693687 1.5000000000 5.8246974104 5.0777176103 2.0000000000 5.4524810163 4.9675934183 2.0000000000 6.2164862240 4.7795310589 1.5000000000 5.8246974104 5.0777176103 2.0000000000 5.7394381523 5.0302693687 1.5000000000 6.1116545465 5.1403935608 1.5000000000 6.2164862240 4.7795310589 1.5000000000 5.8246974104 5.0777176103 2.0000000000 5.7394381523 5.0302693687 1.50
[...]
<CellData Scalars="pressure_p0,pressure_diff,velocity_diff," Vectors="velocity_p0,velocity_enr,velocity_reg,velocity_exact," Tensors="">
<DataArray type="Float64" Name="pressure_p0" format="ascii">
-38.5634781350 -38.5634781350 -38.5634781350 -38.5634781350 -38.5634781350 -38.5634781350 -38.5634781350 -38.5634781350 -38.1535692837 -38.1535692837 -38.1535692837 -38.1535692837 -38.1535692837 -38.1535692837 -38.1535692837 -38.1535692837 -39.7658107031 -39.7658107031 -39.7658107031 -39.7658107031 -39.7658107031 -39.7658107031 -39.7658107031 -39.7658107031 -23.8119635633 -23.8119635633 -23.8119635633 -23.8119635633 -23.8119635633 -23.8119635633 -23.8119635633 -23.8119635633 -41.6249949501 -41.6249949501 -41.6249949501 -41.6249949501 -41.6249949501 -41.6249949501 -41.6249949501 -41.6249949501 -41.8802993032 -41.8802993032 -41.8802993032 -41.8802993032 -41.8802993032 -41.8802993032 -41.8802993032 -41.8802993032 -30.8013389423 -30.8013389423 -30.8013389423 -30.8013389423 -30.8013389423 -30.8013389423 -30.8013389423 -30.8013389423 -32.1109944874 -32.1109944874 -32.1109944874 -32.1109944874 -32.1109944874 -32.1109944874 -32.1109944874 -32.1109944874 -32.7482878611 -32.7482878611 -32.7482878611 -32.7482878611 -32.7482878611 -32.7482878611 -32.7482878611 -32.7482878611 -33.6277695594 -33.6277695594 -33.6277695594 -33.6277695594 -33.6277695594 -33.6277695594 -33.6277695594 -33.6277695594 -22.0672509505 -22.0672509505 -22.0672509505 -22.0672509505 -22.0672509505 -22.0672509505 -22.0672509505 -22.0672509505 5.4429396628 5.4429396628 5.4429396628 5.4429396628 5.4429396628 5.4429396628 5.4429396628 5.4429396628 25.9728781793 25.9728781793 25.9728781793 25.9728781793 25.9728781793 25.9728781793 25.9728781793 25.9728781793 -27.6210061215 -27.6210061215 -27.6210061215 -27.6210061215 -27.6210061215 -27.6210061215 -27.6210061215 -27.6210061215 -27.1770714635 -27.1770714635 -27.1770714635 -27.1770714635 -27.1770714635 -27.1770714635 -27.1770714635 -27.1770714635 -28.1638143844 -28.1638143844 -28.1638143844 -28.1638143844 -28.1638143844 -28.1638143844 -28.1638143844 -28.1638143844 -40.7028754669 -40.7028754669 -40.7028754669 -40.7028754669 -40.7028754669 -40.7028754669 -40.7028754669 -40.7028754669 -35.4896613970 -35.4896613970 -35.4896613970 -35.4896613970 -35.4896613970 -35.4896613970 -35.4896613970 -35.4896613970 -39.2973705816 -39.2973705816 -39.2973705816 -39.2973705816 -39.2973705816 -39.2973705816 -39.2973705816 -39.2973705816 -26.8303530911 -26.8303530911 -26.8303530911 -26.8303530911 -26.8303530911 -26.8303530911 -26.8303530911 -26.8303530911 -39.6428740875 -39.6428740875 -39.6428740875 -39.6428740875 -39.6428740875 -39.6428740875 -39.6428740875 -39.6428740875 -19.5052941429 -19.5052941429 -19.5052941429 -19.5052941429 -19.5052941429 -19.5052941429 -19.5052941429 -19.5052941429 -28.1539635149 -28.1539635149 -28.1539635149 -28.1539635149 -28.1539635149 -28.1539635149 -28.1539635149 -28.1539635149 -29.3721782644 -29.3721782644 -29.3721782644 -29.3721782644 -29.3721782644 -29.3721782644 -29.3721782644 -29.3721782644 4.2509327678 4.2509327678 4.2509327678 4.2509327678 4.2509327678 4.2509327678 4.2509327678 4.2509327678 3.7425041293 3.7425041293 3.7425041293 3.7425041293 3.7425041293 3.7425041293 3.7425041293 3.7425041293 -39.2105656387 -39.2105656387 -39.2105656387 -39.2105656387 -39.2105656387 -39.2105656387 -39.2105656387 -39.2105656387 -44.9118846452 -44.9118846452 -44.9118846452 -44.9118846452 -44.9118846452 -44.9118846452 -44.9118846452 -44.9118846452 -27.2511471706 -27.2511471706 -27.2511471706 -27.2511471706 -27.2511471706 -27.2511471706 -27.2511471706 -27.2511471706 -31.4250962918 -31.4250962918 -31.4250962918 -31.4250962918 -31.4250962918 -31.4250962918 -31.4250962918 -31.4250962918 -29.9856731514 -29.9856731514 -29.9856731514 -29.9856731514 -29.9856731514 -29.9856731514 -29.9856731514 -29.9856731514 -23.3893853683 -23.3893853683 -23.3893853683 -23.3893853683 -23.3893853683 -23.3893853683 -23.3893853683 -23.3893853683 -20.4297857989 -20.4297857989 -20.4297857989 -20.4297857989 -20.4297857989 -20.4297857989 -20.4297857989 -20.4297857989 -39.3609085026 -39.3609085026 -39.3609085026 -39.3609085026 -39.3609085026 -39.3609085026 -39.3609085026 -39.3609085026 -28.3682348943 -28.3682348943 -28.3682348943 -28.3682348943 -28.3682348943 -28.3682348943 -28.3682348943 -28.3682348943 -40.2588056042 -40.2588056042 -40.2588056042 -40.2588056042 -40.2588056042 -40.2588056042 -40.2588056042 -40.2588056042 -39.5249917741 -39.5249917741 -39.5249917741 -39.5249917741 -39.5249917741 -39.5249917741 -39.5249917741 -39.5249917741 -42.0534443949 -42.0534443949 -42.0534443949 -42.0534443949 -42.0534443949 -42.0534443949 -42.0534443949 -42.0534443949 -23.5250799749 -23.5250799749 -23.5250799749 -23.5250799749 -23.5250799749 -23.5250799749 -23.5250799749 -23.5250799749 -23.3245450103 -23.3245450103 -23.3245450103 -23.3245450103 -23.3245450103 -23.3245450103 -23.3245450103 -23.3245450103 -24.5503820401 -24.5503820401 -24.5503820401 -24.5503820401 -24.5503820401 -24.5503820401 -24.5503820401 -24.5503820401 -21.7892725054 -21.7892725054 -21.7892725054 -21.7892725054 -21.7892725054 -21.7892725054 -21.7892725054 -21.7892725054 -20.5889877616 -20.5889877616 -20.5889877616 -20.5889877616 -20.5889877616 -20.5889877616 -20.5889877616 -20.5889877616 -40.4462054553 -40.4462054553 -40.4462054553 -40.4462054553 -40.4462054553 -40.4462054553 -40.4462054553 -40.4462054553 -34.9800479669 -34.9800479669 -34.9800479669 -34.9800479669 -34.9800479669 -34.9800479669 -34.9800479669 -34.9800479669 -41.1501411053 -41.1501411053 -41.1501411053 -41.1501411053 -41.1501411053 -41.1501411053 -41.1501411053 -41.1501411053 -40.8437648081 -40.8437648081 -40.8437648081 -40.8437648081 -40.8437648081 -40.8437648081 -40.8437648081 -40.8437648081 -1.6599671259 -1.6599671259 -1.6599671259 -1.6599671259 -1.6599671259 -1.6599671259 -1.6599671259 -1.6599671259 -2.1665772217 -2.1665772217 -2.1665772217 -2.1665772217 -2.1665772217 -2.1665772217 -2.1665772217 -2.1665772217 -31.5775589949 -31.5775589949 -31.5775589949 -31.5775589949 -31.5775589949 -31.5775589949 -31.5775589949 -31.5775589949 -19.9057982819 -19.9057982819 -19.9057982819 -19.9057982819 -19.9057982819 -19.9057982819 -19.9057982819 -19.9057982819 -20.4599707393 -20.4599707393 -20.4599707393 -20.4599707393 -20.4599707393 -20.4599707393 -20.4599707393 -20.4599707393 -20.2815141562 -20.2815141562 -20.2815141562 -20.2815141562 -20.2815141562 -20.2815141562 -20.2815141562 -20.2815141562 -39.7285058300 -39.7285058300 -39.7285058300 -39.7285058300 -39.7285058300 -39.7285058300 -39.7285058300 -39.7285058300 -39.3888100956 -39.3888100956 -39.3888100956 -39.3888100956 -39.3888100956 -39.3888100956 -39.3888100956 -39.3888100956 -16.1233006893 -16.1233006893 -16.1233006893 -16.1233006893 -16.1233006893 -16.1233006893 -16.1233006893 -16.1233006893 -15.0794886928 -15.0794886928 -15.0794886928 -15.0794886928 -15.0794886928 -15.0794886928 -15.0794886928 -15.0794886928 -39.7202041173 -39.7202041173 -39.7202041173 -39.7202041173 -39.7202041173 -39.7202041173 -39.7202041173 -39.7202041173 -16.1337952544 -16.1337952544 -16.1337952544 -16.1337952544 -16.1337952544 -16.1337952544 -16.1337952544 -16.1337952544 -38.6688054277 -38.6688054277 -38.6688054277 -38.6688054277 -38.6688054277 -38.6688054277 -38.6688054277 -38.6688054277 -38.9915167521 -38.9915167521 -38.9915167521 -38.9915167521 -38.9915167521 -38.9915167521 -38.9915167521 -38.9915167521 -42.7081220924 -42.7081220924 -42.7081220924 -42.7081220924 -42.7081220924 -42.7081220924 -42.7081220924 -42.7081220924 -39.7185913378 -39.7185913378 -39.7185913378 -39.7185913378 -39.7185913378 -39.7185913378 -39.7185913378 -39.7185913378 -39.3961796285 -39.3961796285 -39.3961796285 -39.3961796285 -39.3961796285 -39.3961796285 -39.3961796285 -39.3961796285 -27.0468874853 -27.0468874853 -27.0468874853 -27.0468874853 -27.0468874853 -27.0468874853 -27.0468874853 -27.0468874853 -19.9246031291 -19.9246031291 -19.9246031291 -19.9246031291 -19.9246031291 -19.9246031291 -19.9246031291 -19.9246031291 -20.4402837727 -20.4402837727 -20.4402837727 -20.4402837727 -20.4402837727 -20.4402837727 -20.4402837727 -20.4402837727 -19.8717819488 -19.8717819488 -19.8717819488 -19.8717819488 -19.8717819488 -19.8717819488 -19.8717819488 -19.8717819488 -30.2579794658 -30.2579794658 -30.2579794658 -30.2579794658 -30.2579794658 -30.2579794658 -30.2579794658 -30.2579794658 -20.2978091798 -20.2978091798 -20.2978091798 -20.2978091798 -20.2978091798 -20.2978091798 -20.2978091798 -20.2978091798 -19.8662710746 -19.8662710746 -19.8662710746 -19.8662710746 -19.8662710746 -19.8662710746 -19.8662710746 -19.8662710746 -15.4979472423 -15.4979472423 -15.4979472423 -15.4979472423 -15.4979472423 -15.4979472423 -15.4979472423 -15.4979472423 -16.0129829940 -16.0129829940 -16.0129829940 -16.0129829940 -16.0129829940 -16.0129829940 -16.0129829940 -16.0129829940 9.6718067715 9.6718067715 9.6718067715 9.6718067715 9.6718067715 9.6718067715 9.6718067715 9.6718067715 10.6769279980 10.6769279980 10.6769279980 10.6769279980 10.6769279980 10.6769279980 10.6769279980 10.6769279980 -39.1228154207 -39.1228154207 -39.1228154207 -39.1228154207 -39.1228154207 -39.1228154207 -39.1228154207 -39.1228154207 -38.7588547352 -38.7588547352 -38.7588547352 -38.7588547352 -38.7588547352 -38.7588547352 -38.7588547352 -38.7588547352 -4.1852119906 -4.1852119906 -4.1852119906 -4.1852119906 -4.1852119906 -4.1852119906 -4.1852119906 -4.1852119906 -5.2637307037 -5.2637307037 -5.2637307037 -5.2637307037 -5.2637307037 -5.2637307037 -5.2637307037 -5.2637307037 -40.4803918758 -40.4803918758 -40.4803918758 -40.4803918758 -40.4803918758 -40.4803918758 -40.4803918758 -40.4803918758 -39.3044671235 -39.3044671235 -39.3044671235 -39.3044671235 -39.3044671235 -39.3044671235 -39.3044671235 -39.3044671235 -30.7585801544 -30.7585801544 -30.7585801544 -30.7585801544 -30.7585801544 -30.7585801544 -30.7585801544 -30.7585801544 -31.2324528823 -31.2324528823 -31.2324528823 -31.2324528823 -31.2324528823 -31.2324528823 -31.2324528823 -31.2324528823 -32.1086327788 -32.1086327788 -32.1086327788 -32.1086327788 -32.1086327788 -32.1086327788 -32.1086327788 -32.1086327788 -41.0690432239 -41.0690432239 -41.0690432239 -41.0690432239 -41.0690432239 -41.0690432239 -41.0690432239 -41.0690432239 -41.3277189564 -41.3277189564 -41.3277189564 -41.3277189564 -41.3277189564 -41.3277189564 -41.3277189564 -41.3277189564 -34.1802442651 -34.1802442651 -34.1802442651 -34.1802442651 -34.1802442651 -34.1802442651 -34.1802442651 -34.1802442651 -33.2592487661 -33.2592487661 -33.2592487661 -33.2592487661 -33.2592487661 -33.2592487661 -33.2592487661 -33.2592487661 -26.1776998907 -26.1776998907 -26.1776998907 -26.1776998907 -26.1776998907 -26.1776998907 -26.1776998907 -26.1776998907 -40.4124170255 -40.4124170255 -40.4124170255 -40.4124170255 -40.4124170255 -40.4124170255 -40.4124170255 -40.4124170255 -39.6798873915 -39.6798873915 -39.6798873915 -39.6798873915 -39.6798873915 -39.6798873915 -39.6798873915 -39.6798873915 -37.2743095604 -37.2743095604 -37.2743095604 -37.2743095604 -37.2743095604 -37.2743095604 -37.2743095604 -37.2743095604 -36.3628821759 -36.3628821759 -36.3628821759 -36.3628821759 -36.3628821759 -36.3628821759 -36.3628821759 -36.3628821759 -24.6039481063 -24.6039481063 -24.6039481063 -24.6039481063 -24.6039481063 -24.6039481063 -24.6039481063 -24.6039481063 -25.6186299579 -25.6186299579 -25.6186299579 -25.6186299579 -25.6186299579 -25.6186299579 -25.6186299579 -25.6186299579 -38.7347154943 -38.7347154943 -38.7347154943 -38.7347154943 -38.7347154943 -38.7347154943 -38.7347154943 -38.7347154943 -36.5219181766 -36.5219181766 -36.5219181766 -36.5219181766 -36.5219181766 -36.5219181766 -36.5219181766 -36.5219181766 -31.2105700128 -31.2105700128 -31.2105700128 -31.2105700128 -31.2105700128 -31.2105700128 -31.2105700128 -31.2105700128 -30.7403338024 -30.7403338024 -30.7403338024 -30.7403338024 -30.7403338024 -30.7403338024 -30.7403338024 -30.7403338024 -41.0225276023 -41.0225276023 -41.0225276023 -41.0225276023 -41.0225276023 -41.0225276023 -41.0225276023 -41.0225276023 -42.1909473972 -42.1909473972 -42.1909473972 -42.1909473972 -42.1909473972 -42.1909473972 -42.1909473972 -42.1909473972 -41.0758250147 -41.0758250147 -41.0758250147 -41.0758250147 -41.0758250147 -41.0758250147 -41.0758250147 -41.0758250147 -32.8150838269 -32.8150838269 -32.8150838269 -32.8150838269 -32.8150838269 -32.8150838269 -32.8150838269 -32.8150838269 -31.8767932129 -31.8767932129 -31.8767932129 -31.8767932129 -31.8767932129 -31.8767932129 -31.8767932129 -31.8767932129 -42.8501259692 -42.8501259692 -42.8501259692 -42.8501259692 -42.8501259692 -42.8501259692 -42.8501259692 -42.8501259692 -32.7652893352 -32.7652893352 -32.7652893352 -32.7652893352 -32.7652893352 -32.7652893352 -32.7652893352 -32.7652893352 4.5446274330 4.5446274330 4.5446274330 4.5446274330 4.5446274330 4.5446274330 4.5446274330 4.5446274330 -38.3625684355 -38.3625684355 -38.3625684355 -38.3625684355 -38.3625684355 -38.3625684355 -38.3625684355 -38.3625684355 -4.9668535434 -4.9668535434 -4.9668535434 -4.9668535434 -4.9668535434 -4.9668535434 -4.9668535434 -4.9668535434 -43.3128522326 -43.3128522326 -43.3128522326 -43.3128522326 -43.3128522326 -43.3128522326 -43.3128522326 -43.3128522326 -40.7775243390 -40.7775243390 -40.7775243390 -40.7775243390 -40.7775243390 -40.7775243390 -40.7775243390 -40.7775243390 -42.4094271848 -42.4094271848 -42.4094271848 -42.4094271848 -42.4094271848 -42.4094271848 -42.4094271848 -42.4094271848 -12.5145593811 -12.5145593811 -12.5145593811 -12.5145593811 -12.5145593811 -12.5145593811 -12.5145593811 -12.5145593811 -13.5732768987 -13.5732768987 -13.5732768987 -13.5732768987 -13.5732768987 -13.5732768987 -13.5732768987 -13.5732768987 -21.6752915118 -21.6752915118 -21.6752915118 -21.6752915118 -21.6752915118 -21.6752915118 -21.6752915118 -21.6752915118 -37.3925191092 -37.3925191092 -37.3925191092 -37.3925191092 -37.3925191092 -37.3925191092 -37.3925191092 -37.3925191092 -25.3976108916 -25.3976108916 -25.3976108916 -25.3976108916 -25.3976108916 -25.3976108916 -25.3976108916 -25.3976108916 -24.4615679357 -24.4615679357 -24.4615679357 -24.4615679357 -24.4615679357 -24.4615679357 -24.4615679357 -24.4615679357 -25.0385342293 -25.0385342293 -25.0385342293 -25.0385342293 -25.0385342293 -25.0385342293 -25.0385342293 -25.0385342293 -31.8702925428 -31.8702925428 -31.8702925428 -31.8702925428 -31.8702925428 -31.8702925428 -31.8702925428 -31.8702925428 -40.6519764703 -40.6519764703 -40.6519764703 -40.6519764703 -40.6519764703 -40.6519764703 -40.6519764703 -40.6519764703 -40.2981832424 -40.2981832424 -40.2981832424 -40.2981832424 -40.2981832424 -40.2981832424 -40.2981832424 -40.2981832424 -37.3541564712 -37.3541564712 -37.3541564712 -37.3541564712 -37.3541564712 -37.3541564712 -37.3541564712 -37.3541564712 -36.4500003003 -36.4500003003 -36.4500003003 -36.4500003003 -36.4500003003 -36.4500003003 -36.4500003003 -36.4500003003 -32.7164133711 -32.7164133711 -32.7164133711 -32.7164133711 -32.7164133711 -32.7164133711 -32.7164133711 -32.7164133711 -33.9210699901 -33.9210699901 -33.9210699901 -33.9210699901 -33.9210699901 -33.9210699901 -33.9210699901 -33.9210699901 -32.9982191472 -32.9982191472 -32.9982191472 -32.9982191472 -32.9982191472 -32.9982191472 -32.9982191472 -32.9982191472 -29.9793765093 -29.9793765093 -29.9793765093 -29.9793765093 -29.9793765093 -29.9793765093 -29.9793765093 -29.9793765093 -30.8682960078 -30.8682960078 -30.8682960078 -30.8682960078 -30.8682960078 -30.8682960078 -30.8682960078 -30.8682960078 -43.3251794277 -43.3251794277 -43.3251794277 -43.3251794277 -43.3251794277 -43.3251794277 -43.3251794277 -43.3251794277 -40.1926708925 -40.1926708925 -40.1926708925 -40.1926708925 -40.1926708925 -40.1926708925 -40.1926708925 -40.1926708925 -37.0144580415 -37.0144580415 -37.0144580415 -37.0144580415 -37.0144580415 -37.0144580415 -37.0144580415 -37.0144580415 -17.8585707836 -17.8585707836 -17.8585707836 -17.8585707836 -17.8585707836 -17.8585707836 -17.8585707836 -17.8585707836 -16.3246435185 -16.3246435185 -16.3246435185 -16.3246435185 -16.3246435185 -16.3246435185 -16.3246435185 -16.3246435185 -39.7829468449 -39.7829468449 -39.7829468449 -39.7829468449 -39.7829468449 -39.7829468449 -39.7829468449 -39.7829468449 -22.5934755722 -22.5934755722 -22.5934755722 -22.5934755722 -22.5934755722 -22.5934755722 -22.5934755722 -22.5934755722 -38.1907123828 -38.1907123828 -38.1907123828 -38.1907123828 -38.1907123828 -38.1907123828 -38.1907123828 -38.1907123828 -39.0133964633 -39.0133964633 -39.0133964633 -39.0133964633 -39.0133964633 -39.0133964633 -39.0133964633 -39.0133964633 -10.7031104908 -10.7031104908 -10.7031104908 -10.7031104908 -10.7031104908 -10.7031104908 -10.7031104908 -10.7031104908 -11.1953393705 -11.1953393705 -11.1953393705 -11.1953393705 -11.1953393705 -11.1953393705 -11.1953393705 -11.1953393705 -39.5377739424 -39.5377739424 -39.5377739424 -39.5377739424 -39.5377739424 -39.5377739424 -39.5377739424 -39.5377739424 -29.3771686770 -29.3771686770 -29.3771686770 -29.3771686770 -29.3771686770 -29.3771686770 -29.3771686770 -29.3771686770 -28.8963958006 -28.8963958006 -28.8963958006 -28.8963958006 -28.8963958006 -28.8963958006 -28.8963958006 -28.8963958006 -22.2736721175 -22.2736721175 -22.2736721175 -22.2736721175 -22.2736721175 -22.2736721175 -22.2736721175 -22.2736721175 -37.3454120910 -37.3454120910 -37.3454120910 -37.3454120910 -37.3454120910 -37.3454120910 -37.3454120910 -37.3454120910 -36.4528304562 -36.4528304562 -36.4528304562 -36.4528304562 -36.4528304562 -36.4528304562 -36.4528304562 -36.4528304562 -8.1121887789 -8.1121887789 -8.1121887789 -8.1121887789 -8.1121887789 -8.1121887789 -8.1121887789 -8.1121887789 -9.1479741367 -9.1479741367 -9.1479741367 -9.1479741367 -9.1479741367 -9.1479741367 -9.1479741367 -9.1479741367 -11.9166261106 -11.9166261106 -11.9166261106 -11.9166261106 -11.9166261106 -11.9166261106 -11.9166261106 -11.9166261106 -10.8869715352 -10.8869715352 -10.8869715352 -10.8869715352 -10.8869715352 -10.8869715352 -10.8869715352 -10.8869715352 -33.3951718809 -33.3951718809 -33.3951718809 -33.3951718809 -33.3951718809 -33.3951718809 -33.3951718809 -33.3951718809 -32.9378643881 -32.9378643881 -32.9378643881 -32.9378643881 -32.9378643881 -32.9378643881 -32.9378643881 -32.9378643881 -40.9633861531 -40.9633861531 -40.9633861531 -40.9633861531 -40.9633861531 -40.9633861531 -40.9633861531 -40.9633861531 -42.2998858032 -42.2998858032 -42.2998858032 -42.2998858032 -42.2998858032 -42.2998858032 -42.2998858032 -42.2998858032 -34.5402068237 -34.5402068237 -34.5402068237 -34.5402068237 -34.5402068237 -34.5402068237 -34.5402068237 -34.5402068237 -8.7763350113 -8.7763350113 -8.7763350113 -8.7763350113 -8.7763350113 -8.7763350113 -8.7763350113 -8.7763350113 -9.6888827012 -9.6888827012 -9.6888827012 -9.6888827012 -9.6888827012 -9.6888827012 -9.6888827012 -9.6888827012 -36.3322729406 -36.3322729406 -36.3322729406 -36.3322729406 -36.3322729406 -36.3322729406 -36.3322729406 -36.3322729406 -35.4124932395 -35.4124932395 -35.4124932395 -35.4124932395 -35.4124932395 -35.4124932395 -35.4124932395 -35.4124932395 25.6686925821 25.6686925821 25.6686925821 25.6686925821 25.6686925821 25.6686925821 25.6686925821 25.6686925821 27.1619526043 27.1619526043 27.1619526043 27.1619526043 27.1619526043 27.1619526043 27.1619526043 27.1619526043 -36.4880833026 -36.4880833026 -36.4880833026 -36.4880833026 -36.4880833026 -36.4880833026 -36.4880833026 -36.4880833026 -37.4056859989 -37.4056859989 -37.4056859989 -37.4056859989 -37.4056859989 -37.4056859989 -37.4056859989 -37.4056859989 -41.6772580625 -41.6772580625 -41.6772580625 -41.6772580625 -41.6772580625 -41.6772580625 -41.6772580625 -41.6772580625 -36.5690685540 -36.5690685540 -36.5690685540 -36.5690685540 -36.5690685540 -36.5690685540 -36.5690685540 -36.5690685540 -30.7669143212 -30.7669143212 -30.7669143212 -30.7669143212 -30.7669143212 -30.7669143212 -30.7669143212 -30.7669143212 -31.2351092617 -31.2351092617 -31.2351092617 -31.2351092617 -31.23