<?xml version="1.0"?>
<VTKFile type="UnstructuredGrid" version="0.1" byte_order="LittleEndian">
<UnstructuredGrid>
<Piece NumberOfPoints="6" NumberOfCells="3">
<Points>
<DataArray type="Float64" NumberOfComponents="3" format="ascii">
0.000000000000000e+00 0.000000000000000e+00 0.000000000000000e+00 3.000000000000000e+00 0.000000000000000e+00 0.000000000000000e+00 0.000000000000000e+00 3.000000000000000e+00 0.000000000000000e+00 0.000000000000000e+00 0.000000000000000e+00 3.000000000000000e+00 3.000000000000000e+00 0.000000000000000e+00 3.000000000000000e+00 0.000000000000000e+00 3.000000000000000e+00 3.000000000000000e+00 
</DataArray>
</Points>
<Cells>
<DataArray type="Int32" Name="connectivity" format="ascii">
0 1 2 4 0 2 3 4 2 3 4 5 
</DataArray>
<DataArray type="Int32" Name="offsets" format="ascii">
4 8 12 
</DataArray>
<DataArray type="UInt8" Name="types" format="ascii">
10 10 10 
</DataArray>
</Cells>
<PointData Scalars="pressure_p1," Vectors="">
<DataArray type="Float64" Name="pressure_p1" format="ascii">
1.000000000000000e+00 9.999999999999999e-01 1.000000000000000e+00 1.000000000000000e+00 9.999999999999999e-01 1.000000000000000e+00 
</DataArray>
</PointData>
<CellData Scalars="pressure_p0," Vectors="velocity_p0,">
<DataArray type="Float64" Name="pressure_p0" format="ascii">
9.999999999999998e-01 1.000000000000000e+00 1.000000000000000e+00 
</DataArray>
<DataArray type="Float64" Name="velocity_p0" NumberOfComponents="3" format="ascii">
4.440892098500626e-16 -3.330669073875470e-16 -1.000000000000000e+00 -3.053113317719180e-16 -1.850371707708595e-17 -1.000000000000000e+00 1.665334536937735e-16 -5.551115123125783e-17 -9.999999999999998e-01 
</DataArray>
</CellData>
</Piece>
</UnstructuredGrid>
</VTKFile>
