<?xml version="1.0"?>
<VTKFile type="UnstructuredGrid" version="0.1" byte_order="LittleEndian">
<UnstructuredGrid>
<Piece NumberOfPoints="29" NumberOfCells="40">
<Points>
<DataArray type="Float64" NumberOfComponents="3" format="ascii">
0 0 0 0.14190641534369189 0.14141650744686629 0 0.24999999999941211 0 0 0.49999999999979922 0.1937830687830607 0 0.49999999999869432 0 0 0.27852182539674991 0.27558237801301472 0 0.49983771800902338 0.49985833874651858 0 0.19232253086417919 0.49821285681657179 0 0 0.25000000000104028 0 0 0.50000000000205869 0 0 1 0 0 0.75000000000034661 0 0.14409722222243571 0.85590277777792068 0 0.25000000000104028 1 0 0.27365336566739651 0.72631034485891277 0 0.72147817460319286 0.72147817460312347 0 0.50000000000205869 1 0 0.50146053791920198 0.80767746913577909 0 0.75000000000034661 1 0 0.85809358465621621 0.85809358465591867 0 1 1 0 1 0.74999999999934164 0 1 0.49999999999869432 0 0.80913800705467065 0.49967339473487049 0 1 0.24999999999941211 0 1 0 0 0.85809358465589014 0.14141650744641879 0 0.74999999999934164 0 0 0.72147817460309072 0.27558237801289098 0 
</DataArray>
</Points>
<Cells>
<DataArray type="UInt32" Name="connectivity" format="ascii">
0 1 8 1 5 8 1 2 5 0 1 2 2 3 5 2 3 4 5 6 7 3 5 6 7 8 9 5 7 8 7 9 11 7 11 14 12 13 14 10 12 13 11 12 14 10 11 12 13 16 17 13 14 17 6 14 17 6 7 14 6 15 17 6 15 23 15 17 18 16 17 18 19 20 21 15 19 21 15 18 19 18 19 20 21 22 23 15 21 23 22 23 24 23 24 28 26 27 28 24 26 28 25 26 27 24 25 26 3 27 28 3 4 27 3 6 28 6 23 28 
</DataArray>
<DataArray type="UInt32" Name="offsets" format="ascii">
3 6 9 12 15 18 21 24 27 30 33 36 39 42 45 48 51 54 57 60 63 66 69 72 75 78 81 84 87 90 93 96 99 102 105 108 111 114 117 120 
</DataArray>
<DataArray type="UInt32" Name="types" format="ascii">
5 5 5 5 5 5 5 5 5 5 5 5 5 5 5 5 5 5 5 5 5 5 5 5 5 5 5 5 5 5 5 5 5 5 5 5 5 5 5 5 
</DataArray>
</Cells>
<CellData Scalars="pressure_p0,cross_section,conductivity,sigma,water_source_density,storativity," Vectors="velocity_p0," Tensors="anisotropy,">
<DataArray type="Float64" Name="pressure_p0" format="ascii">
0.024693975471540303 0.085917221822774059 0.094101737810076663 0.032985355429165641 0.12574569061911706 0.089588692343810006 0.18460466770014883 0.19487051840712627 0.054030393516166099 0.10714616702011424 0.05406887166536066 0.10641800809840772 0.094072213134610921 0.033567214318247642 0.085739398269729025 0.02523430572039433 0.089370747511029983 0.12505472143807611 0.19420639418682217 0.1838930164558002 0.20985819881366483 0.21999834696671827 0.15732173521434004 0.10600100754284682 0.11526783462618434 0.15804464271342031 0.14970752651881333 0.10693310741732034 0.14096763133980705 0.1757081218667243 0.14096591779166881 0.1756013278903048 0.14940916591997777 0.15789291462713928 0.10685873407256173 0.11523460984678764 0.1571801857951263 0.10625580614339543 0.20964579434089708 0.21983241067699488 
</DataArray>
<DataArray type="Float64" Name="velocity_p0" NumberOfComponents="3" format="ascii">
-4.8862454058405502 -2.8891464441390768 0 -3.7644471110653948 -1.792717204948864 0 -2.7590625088197358 -2.7874291496163663 0 -3.879077633992452 -3.8820034178131415 0 -1.5387831284433027 -4.6272578615322804 0 -2.0000536559455369 -6.7738325725026991 0 -3.1063725111159428 -0.90091312572166127 0 -1.8870009528087419 -2.1301222444455856 0 -7.7844950797653079 -1.0045868056658596 0 -5.6265859399103322 -0.55509323898643947 0 -7.7779150491277091 0.99535204987006864 0 -5.6323012717434722 0.52463209220921903 0 -2.7780867379284548 2.7781189106757318 0 -3.8727695969779719 3.8727831066580931 0 -3.7781501263561097 1.7781823168556739 0 -4.8728580238442225 2.872871533517638 0 -1.9956166601103971 6.7790064073744949 0 -1.5255479614391916 4.6322694753044047 0 -1.9046806058386498 2.1393423901581738 0 -3.1416622969041099 0.90191411216435047 0 -0.11342082104967258 2.1125305891223403 0 1.121195145549484 0.8844200181621934 0 -0.44539711516252495 4.6351979756532575 0 0.0043542524801475834 6.7828366151920942 0 2.884114356466251 2.8841542116301082 0 1.7697074494923168 1.7703103612761681 0 0.76948892870142649 2.7700918405070993 0 1.8838196815117771 3.8838595366772828 0 5.7828612051128925 0.9997919068775144 0 3.6497595538118346 0.54920801449319911 0 5.7857449433530883 -1.0002031584361577 0 3.6415900889345307 -0.55040546396537771 0 0.7590337445904386 -2.7876557803071265 0 1.7645122221384504 -1.7930360277421467 0 1.8791522155963065 -3.8820948433778559 0 2.8864449505726166 -2.8893624014194379 0 -0.46124870797221806 -4.6274548083495919 0 -5.3655960583297103e-05 -6.7739710158529931 0 -0.11517528586744323 -2.1306317014490532 0 1.1135579191242582 -0.89915860157131378 0 
</DataArray>
<DataArray type="Float64" Name="anisotropy" NumberOfComponents="9" format="ascii">
10 0 0 0 10 0 0 0 10 10 0 0 0 10 0 0 0 10 10 0 0 0 10 0 0 0 10 10 0 0 0 10 0 0 0 10 10 0 0 0 10 0 0 0 10 10 0 0 0 10 0 0 0 10 10 0 0 0 10 0 0 0 10 10 0 0 0 10 0 0 0 10 10 0 0 0 10 0 0 0 10 10 0 0 0 10 0 0 0 10 10 0 0 0 10 0 0 0 10 10 0 0 0 10 0 0 0 10 10 0 0 0 10 0 0 0 10 10 0 0 0 10 0 0 0 10 10 0 0 0 10 0 0 0 10 10 0 0 0 10 0 0 0 10 10 0 0 0 10 0 0 0 10 10 0 0 0 10 0 0 0 10 10 0 0 0 10 0 0 0 10 10 0 0 0 10 0 0 0 10 10 0 0 0 10 0 0 0 10 10 0 0 0 10 0 0 0 10 10 0 0 0 10 0 0 0 10 10 0 0 0 10 0 0 0 10 10 0 0 0 10 0 0 0 10 10 0 0 0 10 0 0 0 10 10 0 0 0 10 0 0 0 10 10 0 0 0 10 0 0 0 10 10 0 0 0 10 0 0 0 10 10 0 0 0 10 0 0 0 10 10 0 0 0 10 0 0 0 10 10 0 0 0 10 0 0 0 10 10 0 0 0 10 0 0 0 10 10 0 0 0 10 0 0 0 10 10 0 0 0 10 0 0 0 10 10 0 0 0 10 0 0 0 10 10 0 0 0 10 0 0 0 10 10 0 0 0 10 0 0 0 10 10 0 0 0 10 0 0 0 10 10 0 0 0 10 0 0 0 10 
</DataArray>
<DataArray type="Float64" Name="cross_section" format="ascii">
3.5 3.5 3.5 3.5 3.5 3.5 3.5 3.5 3.5 3.5 3.5 3.5 3.5 3.5 3.5 3.5 3.5 3.5 3.5 3.5 3.5 3.5 3.5 3.5 3.5 3.5 3.5 3.5 3.5 3.5 3.5 3.5 3.5 3.5 3.5 3.5 3.5 3.5 3.5 3.5 
</DataArray>
<DataArray type="Float64" Name="conductivity" format="ascii">
1 1 1 1 1 1 1 1 1 1 1 1 1 1 1 1 1 1 1 1 1 1 1 1 1 1 1 1 1 1 1 1 1 1 1 1 1 1 1 1 
</DataArray>
<DataArray type="Float64" Name="sigma" format="ascii">
0.40000000000000002 0.40000000000000002 0.40000000000000002 0.40000000000000002 0.40000000000000002 0.40000000000000002 0.40000000000000002 0.40000000000000002 0.40000000000000002 0.40000000000000002 0.40000000000000002 0.40000000000000002 0.40000000000000002 0.40000000000000002 0.40000000000000002 0.40000000000000002 0.40000000000000002 0.40000000000000002 0.40000000000000002 0.40000000000000002 0.40000000000000002 0.40000000000000002 0.40000000000000002 0.40000000000000002 0.40000000000000002 0.40000000000000002 0.40000000000000002 0.40000000000000002 0.40000000000000002 0.40000000000000002 0.40000000000000002 0.40000000000000002 0.40000000000000002 0.40000000000000002 0.40000000000000002 0.40000000000000002 0.40000000000000002 0.40000000000000002 0.40000000000000002 0.40000000000000002 
</DataArray>
<DataArray type="Float64" Name="water_source_density" format="ascii">
24 24 24 24 24 24 24 24 24 24 24 24 24 24 24 24 24 24 24 24 24 24 24 24 24 24 24 24 24 24 24 24 24 24 24 24 24 24 24 24 
</DataArray>
<DataArray type="Float64" Name="storativity" format="ascii">
1 1 1 1 1 1 1 1 1 1 1 1 1 1 1 1 1 1 1 1 1 1 1 1 1 1 1 1 1 1 1 1 1 1 1 1 1 1 1 1 
</DataArray>
</CellData>
</Piece>
</UnstructuredGrid>
</VTKFile>
