<?xml version="1.0"?>
<VTKFile type="UnstructuredGrid" version="0.1" byte_order="LittleEndian">
<UnstructuredGrid>
<Piece NumberOfPoints="29" NumberOfCells="40">
<Points>
<DataArray type="Float64" NumberOfComponents="3" format="ascii">
0 0 0 0.14190641534369189 0.14141650744686629 0 0.24999999999941211 0 0 0.49999999999979922 0.1937830687830607 0 0.49999999999869432 0 0 0.27852182539674991 0.27558237801301472 0 0.49983771800902338 0.49985833874651858 0 0.19232253086417919 0.49821285681657179 0 0 0.25000000000104028 0 0 0.50000000000205869 0 0 1 0 0 0.75000000000034661 0 0.14409722222243571 0.85590277777792068 0 0.25000000000104028 1 0 0.27365336566739651 0.72631034485891277 0 0.72147817460319286 0.72147817460312347 0 0.50000000000205869 1 0 0.50146053791920198 0.80767746913577909 0 0.75000000000034661 1 0 0.85809358465621621 0.85809358465591867 0 1 1 0 1 0.74999999999934164 0 1 0.49999999999869432 0 0.80913800705467065 0.49967339473487049 0 1 0.24999999999941211 0 1 0 0 0.85809358465589014 0.14141650744641879 0 0.74999999999934164 0 0 0.72147817460309072 0.27558237801289098 0 
</DataArray>
</Points>
<Cells>
<DataArray type="UInt32" Name="connectivity" format="ascii">
0 1 8 1 5 8 1 2 5 0 1 2 2 3 5 2 3 4 5 6 7 3 5 6 7 8 9 5 7 8 7 9 11 7 11 14 12 13 14 10 12 13 11 12 14 10 11 12 13 16 17 13 14 17 6 14 17 6 7 14 6 15 17 6 15 23 15 17 18 16 17 18 19 20 21 15 19 21 15 18 19 18 19 20 21 22 23 15 21 23 22 23 24 23 24 28 26 27 28 24 26 28 25 26 27 24 25 26 3 27 28 3 4 27 3 6 28 6 23 28 
</DataArray>
<DataArray type="UInt32" Name="offsets" format="ascii">
3 6 9 12 15 18 21 24 27 30 33 36 39 42 45 48 51 54 57 60 63 66 69 72 75 78 81 84 87 90 93 96 99 102 105 108 111 114 117 120 
</DataArray>
<DataArray type="UInt32" Name="types" format="ascii">
5 5 5 5 5 5 5 5 5 5 5 5 5 5 5 5 5 5 5 5 5 5 5 5 5 5 5 5 5 5 5 5 5 5 5 5 5 5 5 5 
</DataArray>
</Cells>
<CellData Scalars="pressure_p0,cross_section,conductivity,sigma,water_source_density," Vectors="velocity_p0," Tensors="anisotropy,">
<DataArray type="Float64" Name="pressure_p0" format="ascii">
0.024693975471540279 0.08591722182277399 0.09410173781007658 0.032985355429165628 0.12574569061911706 0.089588692343809992 0.1846046677001488 0.19487051840712627 0.054030393516166023 0.10714616702011422 0.054068871665360577 0.10641800809840757 0.094072213134610755 0.033567214318247586 0.085739398269728873 0.025234305720394298 0.089370747511029927 0.12505472143807597 0.19420639418682198 0.1838930164558 0.20985819881366452 0.21999834696671797 0.1573217352143399 0.10600100754284678 0.11526783462618426 0.15804464271342014 0.14970752651881322 0.10693310741732034 0.140967631339807 0.1757081218667241 0.14096591779166878 0.17560132789030472 0.14940916591997777 0.15789291462713928 0.10685873407256169 0.11523460984678766 0.15718018579512633 0.10625580614339544 0.20964579434089703 0.21983241067699477 
</DataArray>
<DataArray type="Float64" Name="velocity_p0" NumberOfComponents="3" format="ascii">
-4.8862454058405467 -2.8891464441390724 0 -3.7644471110653952 -1.7927172049488627 0 -2.7590625088197345 -2.7874291496163601 0 -3.8790776339924498 -3.8820034178131397 0 -1.5387831284433069 -4.6272578615322804 0 -2.0000536559455386 -6.7738325725026973 0 -3.1063725111159464 -0.90091312572164595 0 -1.8870009528087337 -2.1301222444455856 0 -7.7844950797652999 -1.004586805665854 0 -5.6265859399103348 -0.55509323898644369 0 -7.7779150491276932 0.9953520498700682 0 -5.6323012717434642 0.52463209220921869 0 -2.7780867379284562 2.7781189106757211 0 -3.8727695969779599 3.8727831066580829 0 -3.7781501263561026 1.7781823168556776 0 -4.8728580238442181 2.872871533517634 0 -1.9956166601103984 6.7790064073744851 0 -1.5255479614391927 4.6322694753043967 0 -1.9046806058386536 2.1393423901581703 0 -3.1416622969041099 0.90191411216435668 0 -0.11342082104966093 2.1125305891223349 0 1.1211951455494669 0.88442001816220384 0 -0.44539711516252617 4.6351979756532442 0 0.0043542524801398015 6.7828366151920889 0 2.884114356466243 2.8841542116300918 0 1.769707449492308 1.7703103612761641 0 0.76948892870142893 2.7700918405070869 0 1.8838196815117703 3.883859536677285 0 5.7828612051128756 0.99979190687752573 0 3.6497595538118333 0.54920801449319645 0 5.7857449433530865 -1.0002031584361564 0 3.6415900889345294 -0.55040546396537149 0 0.75903374459043838 -2.7876557803071251 0 1.7645122221384477 -1.7930360277421438 0 1.8791522155963047 -3.8820948433778568 0 2.8864449505726135 -2.8893624014194343 0 -0.46124870797221657 -4.6274548083495981 0 -5.3655960576530028e-05 -6.7739710158529931 0 -0.11517528586744741 -2.130631701449047 0 1.1135579191242624 -0.89915860157130545 0 
</DataArray>
<DataArray type="Float64" Name="anisotropy" NumberOfComponents="9" format="ascii">
10 0 0 0 10 0 0 0 10 10 0 0 0 10 0 0 0 10 10 0 0 0 10 0 0 0 10 10 0 0 0 10 0 0 0 10 10 0 0 0 10 0 0 0 10 10 0 0 0 10 0 0 0 10 10 0 0 0 10 0 0 0 10 10 0 0 0 10 0 0 0 10 10 0 0 0 10 0 0 0 10 10 0 0 0 10 0 0 0 10 10 0 0 0 10 0 0 0 10 10 0 0 0 10 0 0 0 10 10 0 0 0 10 0 0 0 10 10 0 0 0 10 0 0 0 10 10 0 0 0 10 0 0 0 10 10 0 0 0 10 0 0 0 10 10 0 0 0 10 0 0 0 10 10 0 0 0 10 0 0 0 10 10 0 0 0 10 0 0 0 10 10 0 0 0 10 0 0 0 10 10 0 0 0 10 0 0 0 10 10 0 0 0 10 0 0 0 10 10 0 0 0 10 0 0 0 10 10 0 0 0 10 0 0 0 10 10 0 0 0 10 0 0 0 10 10 0 0 0 10 0 0 0 10 10 0 0 0 10 0 0 0 10 10 0 0 0 10 0 0 0 10 10 0 0 0 10 0 0 0 10 10 0 0 0 10 0 0 0 10 10 0 0 0 10 0 0 0 10 10 0 0 0 10 0 0 0 10 10 0 0 0 10 0 0 0 10 10 0 0 0 10 0 0 0 10 10 0 0 0 10 0 0 0 10 10 0 0 0 10 0 0 0 10 10 0 0 0 10 0 0 0 10 10 0 0 0 10 0 0 0 10 10 0 0 0 10 0 0 0 10 10 0 0 0 10 0 0 0 10 
</DataArray>
<DataArray type="Float64" Name="cross_section" format="ascii">
1.5 1.5 1.5 1.5 1.5 1.5 1.5 1.5 1.5 1.5 1.5 1.5 1.5 1.5 1.5 1.5 1.5 1.5 1.5 1.5 1.5 1.5 1.5 1.5 1.5 1.5 1.5 1.5 1.5 1.5 1.5 1.5 1.5 1.5 1.5 1.5 1.5 1.5 1.5 1.5 
</DataArray>
<DataArray type="Float64" Name="conductivity" format="ascii">
1 1 1 1 1 1 1 1 1 1 1 1 1 1 1 1 1 1 1 1 1 1 1 1 1 1 1 1 1 1 1 1 1 1 1 1 1 1 1 1 
</DataArray>
<DataArray type="Float64" Name="sigma" format="ascii">
0.40000000000000002 0.40000000000000002 0.40000000000000002 0.40000000000000002 0.40000000000000002 0.40000000000000002 0.40000000000000002 0.40000000000000002 0.40000000000000002 0.40000000000000002 0.40000000000000002 0.40000000000000002 0.40000000000000002 0.40000000000000002 0.40000000000000002 0.40000000000000002 0.40000000000000002 0.40000000000000002 0.40000000000000002 0.40000000000000002 0.40000000000000002 0.40000000000000002 0.40000000000000002 0.40000000000000002 0.40000000000000002 0.40000000000000002 0.40000000000000002 0.40000000000000002 0.40000000000000002 0.40000000000000002 0.40000000000000002 0.40000000000000002 0.40000000000000002 0.40000000000000002 0.40000000000000002 0.40000000000000002 0.40000000000000002 0.40000000000000002 0.40000000000000002 0.40000000000000002 
</DataArray>
<DataArray type="Float64" Name="water_source_density" format="ascii">
24 24 24 24 24 24 24 24 24 24 24 24 24 24 24 24 24 24 24 24 24 24 24 24 24 24 24 24 24 24 24 24 24 24 24 24 24 24 24 24 
</DataArray>
</CellData>
</Piece>
</UnstructuredGrid>
</VTKFile>
