<?xml version="1.0"?>
<VTKFile type="UnstructuredGrid" version="0.1" byte_order="LittleEndian">
<UnstructuredGrid>
<Piece NumberOfPoints="714" NumberOfCells="1306">
<Points>
<DataArray type="Float64" NumberOfComponents="3" format="ascii">
0.000000000000000e+00 0.000000000000000e+00 0.000000000000000e+00 5.000000000000000e+00 0.000000000000000e+00 0.000000000000000e+00 5.000000000000000e+00 1.000000000000000e+00 0.000000000000000e+00 0.000000000000000e+00 1.000000000000000e+00 0.000000000000000e+00 9.999999999992801e-02 0.000000000000000e+00 0.000000000000000e+00 1.999999999998339e-01 0.000000000000000e+00 0.000000000000000e+00 2.999999999997341e-01 0.000000000000000e+00 0.000000000000000e+00 3.999999999996643e-01 0.000000000000000e+00 0.000000000000000e+00 4.999999999995944e-01 0.000000000000000e+00 0.000000000000000e+00 5.999999999995166e-01 0.000000000000000e+00 0.000000000000000e+00 6.999999999992880e-01 0.000000000000000e+00 0.000000000000000e+00 7.999999999989961e-01 0.000000000000000e+00 0.000000000000000e+00 8.999999999987042e-01 0.000000000000000e+00 0.000000000000000e+00 9.999999999984124e-01 0.000000000000000e+00 0.000000000000000e+00 1.099999999998120e+00 0.000000000000000e+00 0.000000000000000e+00 1.199999999997829e+00 0.000000000000000e+00 0.000000000000000e+00 1.299999999997537e+00 0.000000000000000e+00 0.000000000000000e+00 1.399999999997245e+00 0.000000000000000e+00 0.000000000000000e+00 1.499999999996953e+00 0.000000000000000e+00 0.000000000000000e+00 1.599999999996661e+00 0.000000000000000e+00 0.000000000000000e+00 1.699999999996369e+00 0.000000000000000e+00 0.000000000000000e+00 1.799999999996077e+00 0.000000000000000e+00 0.000000000000000e+00 1.899999999995785e+00 0.000000000000000e+00 0.000000000000000e+00 1.999999999995511e+00 0.000000000000000e+00 0.000000000000000e+00 2.099999999995593e+00 0.000000000000000e+00 0.000000000000000e+00 2.199999999995745e+00 0.000000000000000e+00 0.000000000000000e+00 2.299999999995897e+00 0.000000000000000e+00 0.000000000000000e+00 2.399999999996049e+00 0.000000000000000e+00 0.000000000000000e+00 2.499999999996201e+00 0.000000000000000e+00 0.000000000000000e+00 2.599999999996353e+00 0.000000000000000e+00 0.000000000000000e+00 2.699999999996505e+00 0.000000000000000e+00 0.000000000000000e+00 2.799999999996657e+00 0.000000000000000e+00 0.000000000000000e+00 2.899999999996809e+00 0.000000000000000e+00 0.000000000000000e+00 2.999999999996961e+00 0.000000000000000e+00 0.000000000000000e+00 3.099999999997114e+00 0.000000000000000e+00 0.000000000000000e+00 3.199999999997265e+00 0.000000000000000e+00 0.000000000000000e+00 3.299999999997417e+00 0.000000000000000e+00 0.000000000000000e+00 3.399999999997569e+00 0.000000000000000e+00 0.000000000000000e+00 3.499999999997721e+00 0.000000000000000e+00 0.000000000000000e+00 3.599999999997873e+00 0.000000000000000e+00 0.000000000000000e+00 3.699999999998025e+00 0.000000000000000e+00 0.000000000000000e+00 3.799999999998176e+00 0.000000000000000e+00 0.000000000000000e+00 3.899999999998329e+00 0.000000000000000e+00 0.000000000000000e+00 3.999999999998481e+00 0.000000000000000e+00 0.000000000000000e+00 4.099999999998633e+00 0.000000000000000e+00 0.000000000000000e+00 4.199999999998784e+00 0.000000000000000e+00 0.000000000000000e+00 4.299999999998937e+00 0.000000000000000e+00 0.000000000000000e+00 4.399999999999088e+00 0.000000000000000e+00 0.000000000000000e+00 4.499999999999240e+00 0.000000000000000e+00 0.000000000000000e+00 4.599999999999393e+00 0.000000000000000e+00 0.000000000000000e+00 4.699999999999545e+00 0.000000000000000e+00 0.000000000000000e+00 4.799999999999696e+00 0.000000000000000e+00 0.000000000000000e+00 4.899999999999848e+00 0.000000000000000e+00 0.000000000000000e+00 5.000000000000000e+00 9.999999999981467e-02 0.000000000000000e+00 5.000000000000000e+00 1.999999999995579e-01 0.000000000000000e+00 5.000000000000000e+00 2.999999999992664e-01 0.000000000000000e+00 5.000000000000000e+00 3.999999999989749e-01 0.000000000000000e+00 5.000000000000000e+00 4.999999999986943e-01 0.000000000000000e+00 5.000000000000000e+00 5.999999999989468e-01 0.000000000000000e+00 5.000000000000000e+00 6.999999999992100e-01 0.000000000000000e+00 5.000000000000000e+00 7.999999999994734e-01 0.000000000000000e+00 5.000000000000000e+00 8.999999999997368e-01 0.000000000000000e+00 4.899999999999999e+00 1.000000000000000e+00 0.000000000000000e+00 4.800000000000000e+00 1.000000000000000e+00 0.000000000000000e+00 4.699999999999999e+00 1.000000000000000e+00 0.000000000000000e+00 4.600000000000000e+00 1.000000000000000e+00 0.000000000000000e+00 4.499999999999999e+00 1.000000000000000e+00 0.000000000000000e+00 4.399999999999999e+00 1.000000000000000e+00 0.000000000000000e+00 4.299999999999999e+00 1.000000000000000e+00 0.000000000000000e+00 4.199999999999998e+00 1.000000000000000e+00 0.000000000000000e+00 4.099999999999999e+00 1.000000000000000e+00 0.000000000000000e+00 3.999999999999999e+00 1.000000000000000e+00 0.000000000000000e+00 3.899999999999999e+00 1.000000000000000e+00 0.000000000000000e+00 3.799999999999999e+00 1.000000000000000e+00 0.000000000000000e+00 3.699999999999998e+00 1.000000000000000e+00 0.000000000000000e+00 3.599999999999999e+00 1.000000000000000e+00 0.000000000000000e+00 3.499999999999999e+00 1.000000000000000e+00 0.000000000000000e+00 3.399999999999999e+00 1.000000000000000e+00 0.000000000000000e+00 3.299999999999999e+00 1.000000000000000e+00 0.000000000000000e+00 3.199999999999998e+00 1.000000000000000e+00 0.000000000000000e+00 3.099999999999999e+00 1.000000000000000e+00 0.000000000000000e+00 2.999999999999999e+00 1.000000000000000e+00 0.000000000000000e+00 2.899999999999999e+00 1.000000000000000e+00 0.000000000000000e+00 2.799999999999999e+00 1.000000000000000e+00 0.000000000000000e+00 2.699999999999999e+00 1.000000000000000e+00 0.000000000000000e+00 2.599999999999999e+00 1.000000000000000e+00 0.000000000000000e+00 2.500000000000000e+00 1.000000000000000e+00 0.000000000000000e+00 2.399999999999999e+00 1.000000000000000e+00 0.000000000000000e+00 2.299999999999999e+00 1.000000000000000e+00 0.000000000000000e+00 2.199999999999999e+00 1.000000000000000e+00 0.000000000000000e+00 2.100000000000000e+00 1.000000000000000e+00 0.000000000000000e+00 2.000000000000000e+00 1.000000000000000e+00 0.000000000000000e+00 1.899999999999999e+00 1.000000000000000e+00 0.000000000000000e+00 1.799999999999999e+00 1.000000000000000e+00 0.000000000000000e+00 1.699999999999999e+00 1.000000000000000e+00 0.000000000000000e+00 1.599999999999999e+00 1.000000000000000e+00 0.000000000000000e+00 1.500000000000000e+00 1.000000000000000e+00 0.000000000000000e+00 1.399999999999999e+00 1.000000000000000e+00 0.000000000000000e+00 1.299999999999999e+00 1.000000000000000e+00 0.000000000000000e+00 1.199999999999999e+00 1.000000000000000e+00 0.000000000000000e+00 1.100000000000000e+00 1.000000000000000e+00 0.000000000000000e+00 9.999999999999991e-01 1.000000000000000e+00 0.000000000000000e+00 8.999999999999995e-01 1.000000000000000e+00 0.000000000000000e+00 7.999999999999998e-01 1.000000000000000e+00 0.000000000000000e+00 7.000000000000002e-01 1.000000000000000e+00 0.000000000000000e+00 5.999999999999996e-01 1.000000000000000e+00 0.000000000000000e+00 4.999999999999991e-01 1.000000000000000e+00 0.000000000000000e+00 3.999999999999995e-01 1.000000000000000e+00 0.000000000000000e+00 3.000000000000007e-01 1.000000000000000e+00 0.000000000000000e+00 1.999999999999993e-01 1.000000000000000e+00 0.000000000000000e+00 9.999999999999964e-02 1.000000000000000e+00 0.000000000000000e+00 0.000000000000000e+00 8.999999999995836e-01 0.000000000000000e+00 0.000000000000000e+00 7.999999999999998e-01 0.000000000000000e+00 0.000000000000000e+00 7.000000000006934e-01 0.000000000000000e+00 0.000000000000000e+00 6.000000000013869e-01 0.000000000000000e+00 0.000000000000000e+00 5.000000000020587e-01 0.000000000000000e+00 0.000000000000000e+00 4.000000000016644e-01 0.000000000000000e+00 0.000000000000000e+00 3.000000000012483e-01 0.000000000000000e+00 0.000000000000000e+00 2.000000000008322e-01 0.000000000000000e+00 0.000000000000000e+00 1.000000000004160e-01 0.000000000000000e+00 7.477570327540725e-01 4.905967956478702e-01 0.000000000000000e+00 1.346210646643281e+00 4.806066422083806e-01 0.000000000000000e+00 1.949496869330408e+00 5.032480558805372e-01 0.000000000000000e+00 4.449999999999997e+00 5.000000000000384e-01 0.000000000000000e+00 3.859142349610828e+00 5.103468031113156e-01 0.000000000000000e+00 3.246530027037640e+00 5.183101712757180e-01 0.000000000000000e+00 2.657531292711257e+00 5.037429884868682e-01 0.000000000000000e+00 3.824015840967434e-01 6.064457502813875e-01 0.000000000000000e+00 2.306343155343502e+00 6.315316747431162e-01 0.000000000000000e+00 1.049999999998266e+00 3.374999999994497e-01 0.000000000000000e+00 1.641930697057102e+00 3.436055112169133e-01 0.000000000000000e+00 4.150000000000006e+00 6.625000000000185e-01 0.000000000000000e+00 3.552784161359181e+00 6.642488388863971e-01 0.000000000000000e+00 2.940292465243163e+00 6.575992780735344e-01 0.000000000000000e+00 1.641237689750194e+00 6.703960699373966e-01 0.000000000000000e+00 1.050000000000000e+00 6.706367924525535e-01 0.000000000000000e+00 2.960517759676693e+00 3.261740577967960e-01 0.000000000000000e+00 3.551899302943298e+00 3.210887133285832e-01 0.000000000000000e+00 4.150779393876139e+00 3.209867287821391e-01 0.000000000000000e+00 2.213980362532827e+00 3.194901812685164e-01 0.000000000000000e+00 4.927283029162088e-01 3.252862896001115e-01 0.000000000000000e+00 4.696684455724628e+00 3.145438084075651e-01 0.000000000000000e+00 4.690990908683984e+00 6.962960281446974e-01 0.000000000000000e+00 2.487221901830106e+00 2.763334294511438e-01 0.000000000000000e+00 6.215262983536076e-01 7.328515730233995e-01 0.000000000000000e+00 2.065768881873406e+00 7.342557316219342e-01 0.000000000000000e+00 2.543072460766750e+00 7.257064952909391e-01 0.000000000000000e+00 8.105176211436336e-01 2.535517621144286e-01 0.0000000000000
[...]
<CellData Scalars="A_conc,As-lin_conc,Bs-lang_conc,Cs-freund_conc," Vectors="">
<DataArray type="Float64" Name="A_conc" format="ascii">
5.434998069794129e-07 2.629423333801105e-01 1.712000958203410e-10 9.648707542203275e-07 1.749954930277478e-01 7.273569760883909e-05 1.261330803525113e-04 7.834577732643891e-02 2.401341369206474e-01 1.008068235163275e-06 7.541704232378987e-10 7.779855918713312e-08 1.268514978963659e-07 2.107696384414947e-09 1.771087786474477e-06 5.693130282001187e-07 2.287996917210547e-06 2.408608658629952e-06 1.007935599659702e-05 1.582074725124986e-06 2.865047123598611e-09 1.284501772299499e-07 7.506277555451072e-08 7.676275050702463e-08 7.009147172455778e-07 4.319818108323524e-08 3.175055891233043e-07 1.494465602087095e-01 1.018538179686705e-06 1.691306514882957e-06 4.953257028103526e-08 1.131666034553874e-06 7.452067243942077e-09 4.044615299880006e-15 1.759873967439097e-05 2.161973628857520e-01 2.818483941166576e-08 5.469881750163722e-09 5.259966134200773e-08 1.842854310601127e-01 6.790724670668330e-09 2.136556419492240e-07 1.055377873966908e-15 9.863649569417281e-13 9.645189134494193e-10 6.699079180080653e-05 2.673146372017962e-06 9.862846307445435e-03 7.972099892366264e-06 3.525124145713702e-05 2.379694709059208e-01 4.181305153825520e-07 1.067860920241106e-07 2.035239597884739e-01 2.314992903207964e-01 2.814752295909582e-01 5.446224315831986e-09 7.032730833088606e-02 1.356708369927226e-01 1.889737674573972e-06 1.487549961671954e-07 7.435215467144912e-02 1.346487474088544e-03 9.774356713663901e-11 3.590894532226373e-10 2.344094746062450e-04 8.502885455069989e-03 1.576319755075026e-09 2.542291328338803e-01 1.238808572663769e-01 8.539344818562095e-10 2.794100093371760e-12 4.292216878130577e-08 2.575381000071192e-06 1.413209373713655e-02 1.727683783928530e-05 1.820334937195513e-07 7.012355004468115e-05 2.558232365775637e-02 1.834191320724770e-10 3.574822431069725e-07 1.639890651661207e-05 3.968285992317446e-09 1.919554205370409e-08 3.150308641335416e-03 2.000636864981970e-07 3.557878195386871e-05 1.917958577062806e-02 2.476579108201017e-07 1.749258423338876e-09 1.433808047347494e-06 3.738272728512407e-03 1.030643045253778e-01 2.101842607113541e-03 3.156888824199932e-05 1.517202510923033e-06 1.973512091923704e-03 8.144729872068490e-02 5.641073131397787e-11 1.355210470076514e-01 7.983476770578944e-13 2.887013207687321e-07 3.075934963942300e-07 2.115159749628773e-03 1.348504111263308e-07 1.667888599874534e-02 1.738438132470576e-06 1.551455297958550e-01 1.213925973416273e-07 2.230915704267192e-02 2.678876643226909e-10 3.090126267290735e-07 2.789076559565513e-07 1.125223409438625e-08 8.670665361518208e-07 8.913004685400847e-02 1.823845973430773e-06 6.678848665223678e-09 2.574265435924645e-10 1.487153765483328e-01 3.225310123417273e-10 1.865940748007441e-07 9.297770439052690e-12 5.098360331417398e-07 1.396662228961630e-01 2.750732502657597e-09 5.167029686654307e-10 1.717312423643165e-07 9.982196834226773e-02 4.093815372175158e-02 2.120398622433910e-05 1.826298951626568e-09 2.652177563127120e-02 4.985688582006239e-02 4.227639720467145e-04 3.861108682119046e-10 1.921460229202868e-06 2.734906705903711e-01 7.347400493617412e-03 2.947215272127922e-04 1.057075468961315e-08 1.363538989923769e-01 6.276410318884220e-07 2.430819607767404e-11 4.075071132614456e-07 1.927460050319851e-07 1.574783283933113e-02 9.370525000041474e-09 6.517145534451702e-05 2.113315495113349e-02 8.641929158827715e-09 4.091903057584362e-05 4.442858607071752e-04 5.468596810888723e-03 1.807996931979786e-10 1.188197898577865e-07 3.346991513906158e-08 1.024540203049336e-01 4.804227739013796e-08 7.103463968704969e-08 2.694715915037801e-06 3.756236744380580e-02 4.648115935182269e-12 2.232176658221269e-11 3.505687960356224e-12 4.908074051241005e-07 3.946511244776095e-07 1.972942047901708e-10 1.052727226193238e-10 8.561993970494641e-08 6.169762786241103e-07 7.639132265668661e-08 2.368942722002208e-07 9.229318466341852e-08 1.661811151773792e-09 1.026683745845070e-03 6.778103846768695e-02 2.536473821146410e-11 2.108193844974381e-11 2.544492030635211e-10 1.702592380934611e-03 7.959494726232032e-02 1.929363951203616e-01 6.430020800423500e-10 1.938279452916452e-11 5.494686653697473e-08 2.446354830669207e-07 7.181311601848508e-10 2.125769749009183e-10 4.288275236941077e-09 4.619821894422808e-08 1.185944755539676e-07 2.089947878985618e-06 9.066010542735238e-07 4.336012574453582e-07 5.550599702495009e-09 7.766052205377178e-07 4.730584055328020e-07 7.036331680731405e-14 2.058261486936045e-13 3.662018077789927e-07 1.637497694677694e-11 3.100382810846040e-01 1.923884006148109e-09 7.908118529465159e-04 6.289278924391220e-02 1.106330025178214e-11 1.111458072683856e-08 1.590064108344199e-06 2.116808119683738e-01 2.300412362087280e-09 6.131010873920954e-11 2.567786370232625e-04 6.219344451964326e-07 2.456384301535508e-06 4.274200219667221e-11 4.688508163619825e-07 1.281956575104812e-11 1.247361818732549e-06 1.236952623708914e-05 6.612678281276392e-06 1.643119674105857e-01 4.743999375183562e-09 2.988316410866916e-09 1.116912311181056e-08 2.953591092500842e-01 6.220245023255233e-07 8.128172835986878e-08 1.045885134433082e-08 1.001054999826499e-08 1.214431744259478e-08 3.933608339805814e-07 6.529845618793750e-07 1.601612591994135e-07 7.072006345376499e-04 4.961524404432784e-03 1.102605904400769e-02 1.837260818521254e-04 5.048140055735113e-07 2.765272609437309e-08 1.520842064276033e-02 2.522352090804938e-08 7.972346640766013e-05 1.218082965088399e-11 5.468564288859704e-07 2.287906329620368e-03 8.830989253160151e-02 3.620849316339564e-08 2.963538094172352e-06 1.555907225567111e-08 7.796041561412039e-11 4.651166053265808e-10 3.656746212822678e-07 2.300148220811596e-03 8.718070116420451e-02 8.752069962215983e-02 1.081256345965218e-06 1.235092754066642e-14 2.209585112269803e-06 5.483903027154365e-09 1.510242258986781e-09 4.844855033161039e-09 4.825674456554621e-03 3.284460253670704e-03 4.739519083042639e-08 2.268114484399299e-06 3.933099474834113e-07 1.045079702443350e-06 4.499689570370253e-09 1.810397561825936e-08 5.448896191390468e-11 2.112937786973002e-09 2.187446800736702e-02 4.137952259549898e-05 9.891880034105540e-08 1.726651895222610e-06 2.116833813148286e-07 1.415575090585689e-06 1.245280038000086e-07 1.381155690998807e-07 4.366326721716009e-10 3.323222893484067e-02 4.878368420490340e-11 2.588912142489661e-06 1.529494737301486e-01 4.958702112185438e-08 1.082375120147761e-07 2.106890756288262e-08 4.294840068003177e-04 5.790688628549969e-03 4.054090702791793e-09 4.012938634555207e-11 1.121590405561017e-09 1.232239309388302e-09 5.346556915297632e-06 5.211396987204844e-10 6.079630218511609e-09 1.972277254568055e-06 1.468814660492948e-08 4.112752214309370e-11 1.176844798551283e-06 2.985685500731490e-10 3.679115935894918e-03 9.961398565777974e-02 7.230928317206237e-08 1.908147183809263e-06 1.801241661061220e-06 1.420980352981885e-01 4.964951644318176e-03 2.058199095715495e-06 7.210377421509940e-03 4.059112935879589e-06 4.657740042040167e-08 5.208116770000286e-09 1.161928239476509e-07 1.330809388421191e-07 9.875124961895030e-13 1.513827867853054e-12 2.404952899491381e-01 7.057287015518489e-02 6.144827986085576e-02 1.177582609143687e-08 1.342438350549248e-08 2.597854515871080e-07 5.308849804377177e-10 2.285737550160596e-03 1.379275131742483e-03 1.109504601942106e-07 1.082382157788568e-06 1.252120875357084e-06 2.753972640617375e-01 2.682235874457089e-01 2.696061648505841e-01 2.746277554557369e-01 1.292669712464183e-01 1.650471562952989e-06 9.914674058632750e-07 1.361103733516907e-09 5.872255808777861e-04 3.636099067976505e-10 7.346807941205440e-12 6.771239942837404e-07 2.884997269151040e-10 1.981624146439860e-01 1.471446980973576e-09 1.344018153301739e-06 6.337999408716124e-10 3.710902419360492e-09 3.505917133899268e-07 3.275150323488491e-09 3.001432792200243e-01 9.686789141613923e-11 1.323944092106827e-07 4.738982375610604e-13 3.062689010204092e-06 8.208217838731025e-02 1.267458774124113e-09 2.496835529720688e-09 7.609657940215482e-07 5.490305308493965e-09 2.439539480149585e-06 1.999816273506895e-11 2.537127128022120e-06 4.733885655253743e-02 1.101911481987339e-06 5.077447182918021e-02 4.665105003481260e-09 3.702004249762212e-03 7.588394247731869e-04 2.507302320609160e-01 3.110607307591747e-01 3.110607380046536e-01 1.700461537400584e-01 1.682211470386285e-01 6.023699871623055e-07 2.301713835593850e-09 9.811795248500355e-02 1.196326671390650e-09 6.733542509613542e-02 2.350787322441153e-10 2.487777274593029e-01 2.173887234334098e-06 4.872090301279225e-07 7.643744811722612e-03 4.746772175530534e-06 2.766922671224488e-10 3.029456270674767e-09 4.077533359713364e-14 6.146438840198715e-13 1.653331370382534e-01 2.459307336080463e-01 3.911941825607692e-11 1.019458918160622e-07 7.805220433486660e-10 1.012815697882027e-08 2.144345045953766e-06 1.152275067506102e-06 3.080289844599473e-02 2.231160272630930e-02 3.709708539892179e-08 2.897065047187853e-07 2.295839790449069e-01 5.306771646459661e-10 9.160373441624769e-07 8.445152435818600e-07 8.479080509244908e-07 4.243522135993830e-08 7.578888782104297e-05 2.049122243698687e-01 2.624888685777600e-02 4.565594349238548e-08 3.103208308485549e-01 5.455617736374231e-08 2.060730006062226e-07 5.610512213647178e-02 2.360062643983400e-01 6.689496412827396e-08 1.391972442124637e-07 9.118794663827123e-04 9.078638858533037e-13 1.998546871082490e-08 4.376107491202029e-05 2.082152927505791e-02 1.394195839349726e-01 2.723822117919991e-09 8.226357853493959e-08 2.267549358600433e-09 1.288520906346420e-09 6.930517978971912e-06 8.201029285162219e-03 1.299977628948279e-01 6.757467974430965e-07 1.530986985654542e-09 3.355999149445118e-06 6.116137052229255e-03 1.191827822688913e-01 7.064353094842237e-07 2.353045320952267e-10 3.527736789813212e-03 7.883418286751348e-04 2.152643273074635e-07 1.210379486798987e-03 3.473687720861124e-03 4.151772181866120e-02 2.284683422533154e-04 6.158635127402366e-02 7.543082285354194e-04 3.438422728242763e-11 2.577038398246193e-06 2.884967229245813e-01 1.062286980126596e-10 4.362485906758267e-08 1.439111874382765e-04 2.772572303069073e-01 3.239383021965466e-02 1.197419831383139e-04 3.886187457462125e-08 1.313020527450499e-07 2.818079793590911e-14 1.989022406962886e-10 1.943005281167373e-01 2.385805417412207e-01 2.516980557662405e-06 1.025558411736396e-11 1.957945484689898e-08 9.050828114117495e-07 2.789752369940097e-01 2.694443249422940e-01 1.877974174311806e-07 6.587371448608445e-02 5.682996304585786e-09 6.130182652671688e-09 1.154833376843259e-07 2.326329661429974e-01 2.168482905287643e-01 2.282486029824625e-01 1.998024556654736e-07 1.710044414754307e-07 6.629959125851791e-09 1.258572145271313e-11 1.291106935251103e-01 6.945496247286724e-08 1.702121730222636e-01 1.125929973170796e-03 3.703988204820960e-10 1.531744290705349e-11 9.519503107112134e-02 2.141324650323178e-03 1.293214403447483e-03 6.566275513165564e-07 2.805097410521986e-02 2.684596541632502e-01 1.819883814928100e-01 5.263941964437538e-02 7.598075249144774e-02 1.406768512254985e-03 5.836907278075023e-10 1.526752760523332e-01 2.171302492507953e-06 1.839023530792151e-01 1.069737409250382e-09 6.924888343748768e-07 8.633126111883111e-07 2.491844475375973e-02 6.628335379607274e-05 7.462073683544022e-03 4.186130229257308e-04 8.983587674076892e-08 9.962246028429155e-10 6.644093465955745e-15 1.560602306534878e-01 2.151477165899545e-06 2.007624034182274e-11 1.800322741340464e-06 3.720602435694895e-09 4.642554489265237e-07 4.353054025453559e-02 1.230498055236690e-01 1.866134192860248e-01 1.907419307767491e-01 1.240174299192331e-06 2.762106202494330e-06 9.701110320786570e-10 1.945745338686403e-10 2.080619477782945e-01 1.632012290152603e-01 1.673882051641440e-07 7.513793096478978e-02 2.219599227404827e-07 2.167865300644397e-01 5.470044471441031e-07 4.237962348685481e-07 1.739057769757801e-01 9.772484373448864e-02 2.064826294548513e-09 5.757163617978348e-05 1.602876994953380e-08 9.763479724225054e-07 6.506132350981857e-07 1.550413608394310e-01 3.635832715493228e-05 1.019812001981424e-01 3.566012855261780e-11 3.749835549422973e-03 1.182329506848964e-06 3.245645243231465e-10 1.995307111592890e-11 1.808673404341944e-01 8.013107873817666e-09 1.280393141898644e-06 3.111918830071280e-06 8.211553066660198e-08 1.517665694579206e-08 2.782803584285260e-02 8.782805215508778e-05 1.587223002924947e-06 1.385357344759368e-01 2.225873239011238e-01 1.587688239586762e-06 1.328840594318464e-06 3.499109092240417e-09 1.269893981109756e-07 4.319124906601830e-08 6.173007754474219e-06 9.183255563585865e-03 6.624416118620116e-08 4.595438691733830e-02 3.146484200024491e-06 2.550642335207036e-01 2.170773119787534e-06 7.886126206830273e-08 1.949801161721333e-01 1.873886247534885e-01 1.906534233843753e-09 1.429661012351896e-01 1.512072956127871e-01 7.243737567802698e-10 6.871632405817763e-08 3.434372458713511e-03 4.128880544370714e-07 2.013813758734220e-09 2.507935395979184e-01 2.393244858540428e-01 1.174835320294933e-07 2.561746467097259e-08 1.147612607978556e-03 4.886955620688319e-12 1.557975056945258e-09 1.261789601071431e-08 1.126639266907576e-01 6.667256655798216e-09 4.268070469975899e-09 3.339884196905259e-02 3.820306105731195e-09 3.933645633609225e-02 2.777582136627954e-01 2.661395416090201e-01 5.336216222771187e-08 4.049452597801099e-05 2.624671174810922e-06 9.003618779229242e-10 7.095787763967931e-09 1.903116519256757e-02 3.280924670911573e-06 3.496478733905631e-05 2.484890967797940e-01 3.434660763299615e-11 9.882462695639923e-09 8.931625399757878e-10 5.049061366022826e-10 5.712044773500188e-08 2.893220423254663e-06 5.810177444329675e-10 7.684252953964515e-08 1.518251034363269e-01 8.434512902400107e-08 2.173863596711565e-08 4.630556591704887e-13 1.356291851794862e-06 1.441851996294080e-09 6.094288195259751e-02 3.846780059786743e-09 3.349143535253222e-10 1.486683641883201e-06 1.119958325069759e-01 2.820901091148827e-10 7.810934643824696e-12 1.309236904989542e-08 2.580529049179424e-06 1.015892575172138e-06 7.143790328711737e-02 6.259883907868376e-02 1.311934638905105e-09 1.836492021849673e-15 2.051750478201759e-02 4.408411076208442e-07 2.030071353796290e-09 1.277392041497561e-03 3.990732190950445e-08 1.183596453856357e-05 1.194927034489674e-02 2.693242158374033e-08 3.417588995796514e-08 1.935556867154099e-08 1.503222505030102e-02 1.111466839736231e-04 4.434926630736691e-11 2.554483135042240e-09 6.111116668484384e-09 2.312006728246719e-08 7.112562860779947e-07 1.804472039967673e-01 3.922816533729672e-06 6.290893468200984e-08 2.569843999697531e-02 7.091094826944585e-05 7.230072106465700e-07 1.180060659650025e-01 1.100930617912435e-01 8.363120963409304e-08 4.490442255763975e-08 7.918998014353082e-02 1.059042225459487e-06 1.238799370679301e-08 7.376664851762957e-09 2.119367246069789e-09 7.535672102458187e-13 1.523085446306218e-08 2.128113585243831e-12 1.406512938364514e-08 6.569851844660258e-07 8.868186038589687e-02 8.032045140760860e-02 2.685040843764501e-07 4.921349606814005e-09 5.720298562642499e-09 6.493285290830686e-10 2.233914814886784e-07 2.380911235801799e-06 4.733064442504348e-11 1.144237579973173e-09 2.451482391880712e-10 5.132403663724977e-03 2.785851441013256e-06 1.869751830859169e-08 2.080454169756614e-01 1.645659838495381e-06 3.019575311758131e-01 3.003128471802980e-01 3.781852918350012e-11 2.745962299239906e-06 8.320865408768593e-04 5.200795342196747e-04 5.229459216804923e-07 1.497524093342168e-08 1.435833745067054e-08 2.351288571491820e-05 2.266291883895936e-08 1.625667457922814e-02 8.815882415696690e-10 1.239659195398787e-01 4.931964939856251e-10 2.892157340186754e-01 3.011657279176555e-01 3.015001169048465e-01 2.895623731377316e-01 2.852548326374207e-01 2.869436040886283e-01 1.252181106617370e-07 1.444448602214319e-02 8.991437923338504e-07 7.127726332296462e-07 1.640931133987249e-08 1.266697015241844e-11 1.369646543580948e-06 1.126847650842878e-08 1.945429560072653e-01 2.248175937312483e-11 3.870443893626105e-08 4.805878106866471e-07 5.126593820354681e-07 1.160886036934299e-02 2.295742193789383e-04 3.474925266141293e-06 2.956634371055110e-07 1.394831895537612e-07 1.969379560433810e-09 9.778936812361634e-10 7.393865834803002e-07 2.554329339646033e-09 7.348320592897210e-10 4.828403258248092e-06 4.196756534853675e-02 1.225143217600580e-08 2.575475851189050e-04 9.165802648867226e-07 2.064193907566191e-08 7.708086321671345e-10 1.125386885295780e-07 2.841431044640031e-06 6.602639898637688e-03 1.485315257693272e-07 3.936477329388003e-08 5.110884942718981e-06 3.063172097579229e-06 5.359147310126980e-10 4.209040648987772e-02 2.650974496027914e-08 1.095577359208228e-06 7.311513563582938e-07 3.143392575818355e-01 3.143392602209871e-01 3.442157308311510e-09 1.262895307608665e-01 7.284828283549117e-06 5.595251578348584e-07 4.930965696556662e-07 2.267797447336115e-02 2.737956391467726e-08 3.783855946203057e-05 3.121415296394163e-06 4.970527714593732e-04 3.003999878586389e-01 3.003999957811130e-01 1.108087076132708e-02 1.942284167582536e-01 1.815510714036982e-01 1.479835976819078e-01 9.855947197032550e-07 8.648955539187595e-10 2.183034023760775e-01 2.060781362833641e-01 1.363210012094149e-08 5.063817693081875e-10 6.727412054220623e-07 4.537735705688372e-10 2.641423056242759e-10 1.900750862046162e-01 1.590644582500525e-06 2.873081536080367e-01 2.875316431738618e-01 1.250470800382776e-08 5.656733100831312e-08 5.005937235812234e-02 8.469697084996361e-08 4.145758459662989e-04 9.184902966747341e-09 6.509117558055160e-07 8.554006045934416e-02 1.101240745928147e-01 2.792830930920859e-06 2.383675569173218e-06 7.153339349914189e-11 7.618427912356674e-11 3.885725380967822e-08 6.792348264686077e-09 1.265956821181727e-01 2.131029637076409e-04 1.264102673754047e-04 3.947453673021510e-02 3.191194752465686e-02 2.370720883832148e-06 2.075400678083989e-06 4.066487599896223e-04 7.862809415007129e-08 7.290928721837825e-03 2.901683343236858e-08 5.734702135817378e-07 2.625485713534330e-03 9.085488664364613e-02 5.699611258368843e-02 6.165952900524302e-04 1.067113180156286e-06 2.553254157928852e-04 1.745755817733034e-08 8.760085476416633e-03 2.461706483543960e-06 3.751664122129380e-10 1.826427768656265e-06 7.155206045214943e-07 7.506888316178620e-02 1.141473028144368e-06 2.293205460102149e-01 1.963811140618576e-03 1.092674234537571e-01 1.640734567624834e-05 2.778640326386693e-08 1.184027858463020e-02 1.409876639173570e-04 1.024320626780463e-01 3.234408957213015e-08 1.212491935177547e-08 9.811058446708264e-07 2.685256860993280e-06 9.360917625370288e-09 7.810405217354523e-08 2.457635583598670e-01 2.545557040213831e-01 7.766729638459481e-07 4.743042884677928e-03 1.761550425687490e-06 2.316059222949054e-01 7.059126249600121e-10 1.209009432348599e-06 1.485236669079122e-06 2.021134480057012e-01 2.147403376666490e-01 1.172552300859831e-08 1.070990144273493e-09 1.450200254741848e-05 1.165163717725226e-02 2.648901353664927e-07 2.372046417359578e-07 1.994856468958537e-03 5.859463964005193e-10 8.411648277564755e-12 3.723864376977073e-08 1.383102230293078e-16 2.174993969009449e-01 2.726690575086589e-11 2.352163365776265e-12 2.662927567948452e-06 2.545226277095775e-01 2.880812193200943e-01 3.007602147829345e-01 1.633695821058324e-02 4.203580492825651e-11 8.005709853809992e-11 2.014170085867159e-10 1.070295612391379e-09 7.072873100725006e-02 1.260841488173960e-03 1.383069030408365e-06 4.054033918137476e-06 9.369152988033972e-06 4.406392465437138e-06 1.769350075155115e-06 2.595597909438584e-07 8.112530512302184e-07 8.253772006634153e-10 1.721168292679407e-11 1.707253469287929e-09 1.658957157510206e-12 1.077303537590573e-07 2.517858332531764e-04 4.207261096985770e-02 9.073904945666659e-12 1.826129342501060e-11 3.997574498302436e-08 9.198578218974744e-02 5.469393153693016e-16 1.689861863383330e-02 4.740172602982651e-09 1.636727393721840e-12 1.807495379459120e-12 4.872129508097306e-03 2.456941060594628e-01 2.822288948315388e-13 7.881608766218978e-13 4.246953233547646e-06 1.862048145366314e-01 2.423347665058599e-01 4.133639655034713e-0