<?xml version="1.0"?>
<VTKFile type="UnstructuredGrid" version="0.1" byte_order="LittleEndian">
<UnstructuredGrid>
<Piece NumberOfPoints="714" NumberOfCells="1306">
<Points>
<DataArray type="Float64" NumberOfComponents="3" format="ascii">
0.000000000000000e+00 0.000000000000000e+00 0.000000000000000e+00 5.000000000000000e+00 0.000000000000000e+00 0.000000000000000e+00 5.000000000000000e+00 1.000000000000000e+00 0.000000000000000e+00 0.000000000000000e+00 1.000000000000000e+00 0.000000000000000e+00 9.999999999992801e-02 0.000000000000000e+00 0.000000000000000e+00 1.999999999998339e-01 0.000000000000000e+00 0.000000000000000e+00 2.999999999997341e-01 0.000000000000000e+00 0.000000000000000e+00 3.999999999996643e-01 0.000000000000000e+00 0.000000000000000e+00 4.999999999995944e-01 0.000000000000000e+00 0.000000000000000e+00 5.999999999995166e-01 0.000000000000000e+00 0.000000000000000e+00 6.999999999992880e-01 0.000000000000000e+00 0.000000000000000e+00 7.999999999989961e-01 0.000000000000000e+00 0.000000000000000e+00 8.999999999987042e-01 0.000000000000000e+00 0.000000000000000e+00 9.999999999984124e-01 0.000000000000000e+00 0.000000000000000e+00 1.099999999998120e+00 0.000000000000000e+00 0.000000000000000e+00 1.199999999997829e+00 0.000000000000000e+00 0.000000000000000e+00 1.299999999997537e+00 0.000000000000000e+00 0.000000000000000e+00 1.399999999997245e+00 0.000000000000000e+00 0.000000000000000e+00 1.499999999996953e+00 0.000000000000000e+00 0.000000000000000e+00 1.599999999996661e+00 0.000000000000000e+00 0.000000000000000e+00 1.699999999996369e+00 0.000000000000000e+00 0.000000000000000e+00 1.799999999996077e+00 0.000000000000000e+00 0.000000000000000e+00 1.899999999995785e+00 0.000000000000000e+00 0.000000000000000e+00 1.999999999995511e+00 0.000000000000000e+00 0.000000000000000e+00 2.099999999995593e+00 0.000000000000000e+00 0.000000000000000e+00 2.199999999995745e+00 0.000000000000000e+00 0.000000000000000e+00 2.299999999995897e+00 0.000000000000000e+00 0.000000000000000e+00 2.399999999996049e+00 0.000000000000000e+00 0.000000000000000e+00 2.499999999996201e+00 0.000000000000000e+00 0.000000000000000e+00 2.599999999996353e+00 0.000000000000000e+00 0.000000000000000e+00 2.699999999996505e+00 0.000000000000000e+00 0.000000000000000e+00 2.799999999996657e+00 0.000000000000000e+00 0.000000000000000e+00 2.899999999996809e+00 0.000000000000000e+00 0.000000000000000e+00 2.999999999996961e+00 0.000000000000000e+00 0.000000000000000e+00 3.099999999997114e+00 0.000000000000000e+00 0.000000000000000e+00 3.199999999997265e+00 0.000000000000000e+00 0.000000000000000e+00 3.299999999997417e+00 0.000000000000000e+00 0.000000000000000e+00 3.399999999997569e+00 0.000000000000000e+00 0.000000000000000e+00 3.499999999997721e+00 0.000000000000000e+00 0.000000000000000e+00 3.599999999997873e+00 0.000000000000000e+00 0.000000000000000e+00 3.699999999998025e+00 0.000000000000000e+00 0.000000000000000e+00 3.799999999998176e+00 0.000000000000000e+00 0.000000000000000e+00 3.899999999998329e+00 0.000000000000000e+00 0.000000000000000e+00 3.999999999998481e+00 0.000000000000000e+00 0.000000000000000e+00 4.099999999998633e+00 0.000000000000000e+00 0.000000000000000e+00 4.199999999998784e+00 0.000000000000000e+00 0.000000000000000e+00 4.299999999998937e+00 0.000000000000000e+00 0.000000000000000e+00 4.399999999999088e+00 0.000000000000000e+00 0.000000000000000e+00 4.499999999999240e+00 0.000000000000000e+00 0.000000000000000e+00 4.599999999999393e+00 0.000000000000000e+00 0.000000000000000e+00 4.699999999999545e+00 0.000000000000000e+00 0.000000000000000e+00 4.799999999999696e+00 0.000000000000000e+00 0.000000000000000e+00 4.899999999999848e+00 0.000000000000000e+00 0.000000000000000e+00 5.000000000000000e+00 9.999999999981467e-02 0.000000000000000e+00 5.000000000000000e+00 1.999999999995579e-01 0.000000000000000e+00 5.000000000000000e+00 2.999999999992664e-01 0.000000000000000e+00 5.000000000000000e+00 3.999999999989749e-01 0.000000000000000e+00 5.000000000000000e+00 4.999999999986943e-01 0.000000000000000e+00 5.000000000000000e+00 5.999999999989468e-01 0.000000000000000e+00 5.000000000000000e+00 6.999999999992100e-01 0.000000000000000e+00 5.000000000000000e+00 7.999999999994734e-01 0.000000000000000e+00 5.000000000000000e+00 8.999999999997368e-01 0.000000000000000e+00 4.899999999999999e+00 1.000000000000000e+00 0.000000000000000e+00 4.800000000000000e+00 1.000000000000000e+00 0.000000000000000e+00 4.699999999999999e+00 1.000000000000000e+00 0.000000000000000e+00 4.600000000000000e+00 1.000000000000000e+00 0.000000000000000e+00 4.499999999999999e+00 1.000000000000000e+00 0.000000000000000e+00 4.399999999999999e+00 1.000000000000000e+00 0.000000000000000e+00 4.299999999999999e+00 1.000000000000000e+00 0.000000000000000e+00 4.199999999999998e+00 1.000000000000000e+00 0.000000000000000e+00 4.099999999999999e+00 1.000000000000000e+00 0.000000000000000e+00 3.999999999999999e+00 1.000000000000000e+00 0.000000000000000e+00 3.899999999999999e+00 1.000000000000000e+00 0.000000000000000e+00 3.799999999999999e+00 1.000000000000000e+00 0.000000000000000e+00 3.699999999999998e+00 1.000000000000000e+00 0.000000000000000e+00 3.599999999999999e+00 1.000000000000000e+00 0.000000000000000e+00 3.499999999999999e+00 1.000000000000000e+00 0.000000000000000e+00 3.399999999999999e+00 1.000000000000000e+00 0.000000000000000e+00 3.299999999999999e+00 1.000000000000000e+00 0.000000000000000e+00 3.199999999999998e+00 1.000000000000000e+00 0.000000000000000e+00 3.099999999999999e+00 1.000000000000000e+00 0.000000000000000e+00 2.999999999999999e+00 1.000000000000000e+00 0.000000000000000e+00 2.899999999999999e+00 1.000000000000000e+00 0.000000000000000e+00 2.799999999999999e+00 1.000000000000000e+00 0.000000000000000e+00 2.699999999999999e+00 1.000000000000000e+00 0.000000000000000e+00 2.599999999999999e+00 1.000000000000000e+00 0.000000000000000e+00 2.500000000000000e+00 1.000000000000000e+00 0.000000000000000e+00 2.399999999999999e+00 1.000000000000000e+00 0.000000000000000e+00 2.299999999999999e+00 1.000000000000000e+00 0.000000000000000e+00 2.199999999999999e+00 1.000000000000000e+00 0.000000000000000e+00 2.100000000000000e+00 1.000000000000000e+00 0.000000000000000e+00 2.000000000000000e+00 1.000000000000000e+00 0.000000000000000e+00 1.899999999999999e+00 1.000000000000000e+00 0.000000000000000e+00 1.799999999999999e+00 1.000000000000000e+00 0.000000000000000e+00 1.699999999999999e+00 1.000000000000000e+00 0.000000000000000e+00 1.599999999999999e+00 1.000000000000000e+00 0.000000000000000e+00 1.500000000000000e+00 1.000000000000000e+00 0.000000000000000e+00 1.399999999999999e+00 1.000000000000000e+00 0.000000000000000e+00 1.299999999999999e+00 1.000000000000000e+00 0.000000000000000e+00 1.199999999999999e+00 1.000000000000000e+00 0.000000000000000e+00 1.100000000000000e+00 1.000000000000000e+00 0.000000000000000e+00 9.999999999999991e-01 1.000000000000000e+00 0.000000000000000e+00 8.999999999999995e-01 1.000000000000000e+00 0.000000000000000e+00 7.999999999999998e-01 1.000000000000000e+00 0.000000000000000e+00 7.000000000000002e-01 1.000000000000000e+00 0.000000000000000e+00 5.999999999999996e-01 1.000000000000000e+00 0.000000000000000e+00 4.999999999999991e-01 1.000000000000000e+00 0.000000000000000e+00 3.999999999999995e-01 1.000000000000000e+00 0.000000000000000e+00 3.000000000000007e-01 1.000000000000000e+00 0.000000000000000e+00 1.999999999999993e-01 1.000000000000000e+00 0.000000000000000e+00 9.999999999999964e-02 1.000000000000000e+00 0.000000000000000e+00 0.000000000000000e+00 8.999999999995836e-01 0.000000000000000e+00 0.000000000000000e+00 7.999999999999998e-01 0.000000000000000e+00 0.000000000000000e+00 7.000000000006934e-01 0.000000000000000e+00 0.000000000000000e+00 6.000000000013869e-01 0.000000000000000e+00 0.000000000000000e+00 5.000000000020587e-01 0.000000000000000e+00 0.000000000000000e+00 4.000000000016644e-01 0.000000000000000e+00 0.000000000000000e+00 3.000000000012483e-01 0.000000000000000e+00 0.000000000000000e+00 2.000000000008322e-01 0.000000000000000e+00 0.000000000000000e+00 1.000000000004160e-01 0.000000000000000e+00 7.477570327540725e-01 4.905967956478702e-01 0.000000000000000e+00 1.346210646643281e+00 4.806066422083806e-01 0.000000000000000e+00 1.949496869330408e+00 5.032480558805372e-01 0.000000000000000e+00 4.449999999999997e+00 5.000000000000384e-01 0.000000000000000e+00 3.859142349610828e+00 5.103468031113156e-01 0.000000000000000e+00 3.246530027037640e+00 5.183101712757180e-01 0.000000000000000e+00 2.657531292711257e+00 5.037429884868682e-01 0.000000000000000e+00 3.824015840967434e-01 6.064457502813875e-01 0.000000000000000e+00 2.306343155343502e+00 6.315316747431162e-01 0.000000000000000e+00 1.049999999998266e+00 3.374999999994497e-01 0.000000000000000e+00 1.641930697057102e+00 3.436055112169133e-01 0.000000000000000e+00 4.150000000000006e+00 6.625000000000185e-01 0.000000000000000e+00 3.552784161359181e+00 6.642488388863971e-01 0.000000000000000e+00 2.940292465243163e+00 6.575992780735344e-01 0.000000000000000e+00 1.641237689750194e+00 6.703960699373966e-01 0.000000000000000e+00 1.050000000000000e+00 6.706367924525535e-01 0.000000000000000e+00 2.960517759676693e+00 3.261740577967960e-01 0.000000000000000e+00 3.551899302943298e+00 3.210887133285832e-01 0.000000000000000e+00 4.150779393876139e+00 3.209867287821391e-01 0.000000000000000e+00 2.213980362532827e+00 3.194901812685164e-01 0.000000000000000e+00 4.927283029162088e-01 3.252862896001115e-01 0.000000000000000e+00 4.696684455724628e+00 3.145438084075651e-01 0.000000000000000e+00 4.690990908683984e+00 6.962960281446974e-01 0.000000000000000e+00 2.487221901830106e+00 2.763334294511438e-01 0.000000000000000e+00 6.215262983536076e-01 7.328515730233995e-01 0.000000000000000e+00 2.065768881873406e+00 7.342557316219342e-01 0.000000000000000e+00 2.543072460766750e+00 7.257064952909391e-01 0.000000000000000e+00 8.105176211436336e-01 2.535517621144286e-01 0.0000000000000
[...]
<CellData Scalars="A_conc,As-lin_conc,Bs-lang_conc,Cs-freund_conc," Vectors="">
<DataArray type="Float64" Name="A_conc" format="ascii">
2.590676157244334e-08 5.184405729564524e-03 0.000000000000000e+00 2.661213427679990e-08 5.310081343997652e-07 0.000000000000000e+00 0.000000000000000e+00 1.721029990259837e-16 7.315173303411489e-04 4.189303471996298e-08 0.000000000000000e+00 5.264780926981782e-10 1.249795178524876e-12 0.000000000000000e+00 1.818221018329152e-08 4.088869919556431e-08 4.404980889691502e-08 7.033135589582089e-08 0.000000000000000e+00 3.981096051661359e-08 6.299598666576298e-23 5.160597764841146e-15 4.908526049867383e-10 1.842427830422785e-10 1.154844883058001e-09 3.567106992565950e-11 1.766738400221825e-08 4.846212585894881e-09 2.087609734928766e-09 2.138940797571892e-08 8.713989022407816e-15 5.006527633449919e-09 1.756822200237270e-15 0.000000000000000e+00 0.000000000000000e+00 6.363287834331987e-05 8.492876572194898e-11 8.427839580466840e-22 1.429286790998628e-10 1.078015416703621e-06 0.000000000000000e+00 4.324835128054287e-13 0.000000000000000e+00 0.000000000000000e+00 4.608715206023929e-27 0.000000000000000e+00 1.097777693504437e-07 0.000000000000000e+00 0.000000000000000e+00 0.000000000000000e+00 8.448538849548054e-04 3.031833317312981e-11 1.180738922815262e-08 1.317878818805512e-05 2.907508994374298e-04 1.302286408579760e-02 3.446007607423022e-21 4.034405754584703e-18 8.177669614652802e-11 3.957039945469343e-08 0.000000000000000e+00 1.874761397861858e-17 0.000000000000000e+00 6.887822945883691e-26 2.241997154656734e-28 0.000000000000000e+00 0.000000000000000e+00 9.265921116313223e-18 2.304499719101050e-03 5.209052812921387e-12 7.164733984943965e-23 0.000000000000000e+00 1.772335235497371e-11 8.087808787753034e-08 0.000000000000000e+00 0.000000000000000e+00 2.772391112701981e-12 0.000000000000000e+00 0.000000000000000e+00 3.328713083823545e-23 3.248140515872100e-08 0.000000000000000e+00 6.156004996063956e-11 0.000000000000000e+00 0.000000000000000e+00 1.248584305644835e-11 0.000000000000000e+00 0.000000000000000e+00 2.197243883693905e-10 1.403156756283379e-18 0.000000000000000e+00 0.000000000000000e+00 3.761300503614961e-13 0.000000000000000e+00 0.000000000000000e+00 2.674258995418491e-08 0.000000000000000e+00 4.417592085594900e-15 0.000000000000000e+00 4.060207594701153e-10 4.322736186730291e-26 4.166972934741431e-10 9.794871464332580e-10 0.000000000000000e+00 2.740465774203981e-12 0.000000000000000e+00 2.138038033914376e-08 1.461784633487148e-08 5.210764718009289e-13 0.000000000000000e+00 6.665212534036303e-22 1.278661716262253e-10 4.980824173424282e-11 1.642512227985075e-14 1.807256548462038e-10 9.402163840482571e-15 1.670353743267362e-08 1.679295920164477e-20 7.530397901771729e-27 1.052691169738698e-08 3.549153090498633e-25 9.241983256534952e-10 1.252018377228053e-17 4.863793455245802e-10 1.521390885131457e-09 1.297702680193978e-20 0.000000000000000e+00 1.090535723810678e-11 3.910206472156216e-13 0.000000000000000e+00 0.000000000000000e+00 2.283326970143113e-18 0.000000000000000e+00 2.021198247518614e-20 0.000000000000000e+00 0.000000000000000e+00 3.202711278269507e-08 8.394042722210317e-03 0.000000000000000e+00 0.000000000000000e+00 6.162117569000295e-19 3.217987224070337e-10 1.818285814769882e-09 3.755739250111537e-26 0.000000000000000e+00 0.000000000000000e+00 0.000000000000000e+00 3.710371322863826e-15 0.000000000000000e+00 0.000000000000000e+00 7.590792027662741e-16 0.000000000000000e+00 0.000000000000000e+00 0.000000000000000e+00 0.000000000000000e+00 0.000000000000000e+00 1.254552985632494e-15 1.335385604324276e-13 5.143717643064529e-11 0.000000000000000e+00 1.191624205994701e-07 0.000000000000000e+00 2.178111031376464e-18 0.000000000000000e+00 1.712517135651278e-25 2.415682772993862e-10 7.515414058344876e-11 9.911945690926073e-19 6.519676333063131e-19 0.000000000000000e+00 4.688199547648803e-10 8.035491186235573e-14 0.000000000000000e+00 0.000000000000000e+00 4.281430980455798e-22 0.000000000000000e+00 7.306203051246098e-18 0.000000000000000e+00 1.133220262988325e-19 6.922058939429930e-23 0.000000000000000e+00 4.125571097220861e-16 4.146552086304238e-06 3.507141995773935e-19 9.271455227449095e-21 6.733722090356302e-14 2.671682151037555e-12 3.117576289511584e-18 0.000000000000000e+00 2.601387892486629e-23 5.428862350316127e-11 1.239044963451345e-13 6.202450620270237e-08 1.656254815586133e-09 9.844667601328774e-11 9.711272960248184e-22 1.040642608148264e-09 1.199547267036374e-10 0.000000000000000e+00 0.000000000000000e+00 2.989708460050281e-11 2.136873382340897e-24 3.543710861450862e-02 3.352057641298724e-16 0.000000000000000e+00 1.585490810387136e-18 5.919658236691092e-25 2.575064895424142e-14 9.285075379412021e-08 3.398981923913442e-05 1.186766544150123e-24 0.000000000000000e+00 0.000000000000000e+00 2.152355619946212e-08 3.014636916419301e-08 1.589258491449376e-21 2.130050012447625e-10 2.109197583547853e-23 2.231835069624034e-09 0.000000000000000e+00 0.000000000000000e+00 9.114232722970817e-08 4.621013878774534e-23 1.665644938236955e-14 3.412775234679793e-13 2.263655133240540e-02 3.767559418207388e-10 1.038111135059176e-09 0.000000000000000e+00 3.069768620493786e-20 4.894038398160908e-19 3.095716696990962e-11 1.307590827579452e-09 2.548850705385698e-10 0.000000000000000e+00 0.000000000000000e+00 0.000000000000000e+00 0.000000000000000e+00 8.990402492996834e-11 0.000000000000000e+00 0.000000000000000e+00 5.751648635207514e-14 0.000000000000000e+00 4.168510864266854e-28 0.000000000000000e+00 0.000000000000000e+00 8.249050483523108e-15 0.000000000000000e+00 1.044183690621296e-07 0.000000000000000e+00 9.363683365808169e-28 3.357631057909051e-26 0.000000000000000e+00 0.000000000000000e+00 1.067612725016793e-15 2.942516952905868e-15 3.878551268594278e-09 0.000000000000000e+00 9.428020750550028e-08 0.000000000000000e+00 1.047134652205434e-20 2.047232465936194e-12 0.000000000000000e+00 0.000000000000000e+00 4.525260002683036e-15 9.227596323417597e-08 1.866988874670507e-09 7.043597582848501e-09 6.173132344013242e-13 0.000000000000000e+00 0.000000000000000e+00 2.253526479139863e-17 0.000000000000000e+00 0.000000000000000e+00 7.923465112636203e-09 9.073403076868804e-08 1.186394754060324e-08 8.393258631287881e-09 2.915916554445289e-13 1.216106021388715e-12 3.262838562024743e-21 0.000000000000000e+00 2.749065233729974e-20 4.709548208964712e-08 4.743509195818926e-09 1.447283057784930e-14 3.715265474611954e-13 9.549807558401271e-18 0.000000000000000e+00 0.000000000000000e+00 2.164481204095688e-16 0.000000000000000e+00 9.116136409603485e-15 4.355176065129179e-14 0.000000000000000e+00 0.000000000000000e+00 4.368941204925514e-17 2.881567831181245e-08 0.000000000000000e+00 2.299722619737545e-18 0.000000000000000e+00 1.543572751946343e-17 0.000000000000000e+00 2.539344952048293e-13 2.108336656994476e-10 3.686250256469662e-08 3.075286324407376e-08 1.696528349100852e-10 0.000000000000000e+00 0.000000000000000e+00 0.000000000000000e+00 0.000000000000000e+00 0.000000000000000e+00 1.011381271048659e-19 0.000000000000000e+00 3.566007408771600e-09 1.243373712107418e-20 1.100044593988528e-19 7.574563674812026e-04 5.299608200819753e-19 0.000000000000000e+00 1.304340454916970e-19 1.748901384338277e-18 2.085056878819897e-11 2.138328382113040e-25 0.000000000000000e+00 0.000000000000000e+00 7.641787200259429e-12 0.000000000000000e+00 1.863839797468733e-08 9.065153134511528e-03 6.593949377886162e-03 7.057861138888881e-03 8.796698327116641e-03 3.977998510028605e-11 6.277841021173956e-08 1.217620190884467e-09 1.781048767349981e-23 0.000000000000000e+00 5.707147121548488e-16 1.168164558661790e-23 1.679342035469036e-10 0.000000000000000e+00 6.646249060060385e-06 0.000000000000000e+00 5.695961774871182e-09 3.081889996491305e-14 0.000000000000000e+00 7.753402592490986e-12 2.270275577993174e-12 2.625893295461022e-02 0.000000000000000e+00 8.654224599187773e-13 6.508824343055885e-28 1.178938462885378e-07 1.404731862965001e-16 4.031164190875086e-23 1.471111180191945e-21 4.063334649481237e-09 3.660420187891495e-19 3.890843307659773e-08 2.882164335346264e-28 7.547002044819107e-08 0.000000000000000e+00 1.407747300539961e-08 6.689401252167809e-20 1.761840057908907e-15 0.000000000000000e+00 0.000000000000000e+00 1.794434977307709e-03 3.633850189078015e-02 3.633850837313851e-02 2.759798991816280e-08 7.037731195586693e-08 0.000000000000000e+00 2.051193274345621e-24 5.624861365756322e-15 2.416393072535433e-24 8.020556707786390e-20 4.687122247374005e-24 1.294733958623422e-03 6.343761005078540e-08 9.777877740111537e-10 0.000000000000000e+00 0.000000000000000e+00 5.877112843254509e-14 5.215896993968752e-21 0.000000000000000e+00 6.652920386501502e-22 4.252667091011100e-08 1.338140856469160e-03 8.845230712971285e-23 2.512263178799400e-12 5.909218612006326e-12 6.805991148031898e-14 6.781198421886621e-08 8.696163041322886e-09 0.000000000000000e+00 0.000000000000000e+00 1.683498567574316e-16 0.000000000000000e+00 2.581243454405220e-04 2.572312474851791e-12 1.175080163643266e-09 2.754387828459097e-09 8.415453855333596e-10 9.026244761246733e-16 0.000000000000000e+00 1.992562046377237e-05 0.000000000000000e+00 0.000000000000000e+00 3.568349816750111e-02 0.000000000000000e+00 1.975229712838395e-11 1.161428974230073e-19 5.384267913399690e-04 2.388223499016773e-13 2.078453612402834e-12 0.000000000000000e+00 1.422412354278845e-24 2.040015349260576e-15 0.000000000000000e+00 0.000000000000000e+00 5.126018744022708e-10 3.205161563981265e-15 1.024364284308627e-09 2.021261078849266e-19 1.003515071631010e-20 0.000000000000000e+00 0.000000000000000e+00 1.158586603221678e-10 3.118811609536733e-08 1.392150691694014e-19 0.000000000000000e+00 0.000000000000000e+00 8.995398933954773e-12 9.143651706816405e-09 9.654539794260516e-28 0.000000000000000e+00 0.000000000000000e+00 0.000000000000000e+00 0.000000000000000e+00 0.000000000000000e+00 4.411174564364842e-25 0.000000000000000e+00 2.767791780391848e-18 0.000000000000000e+00 0.000000000000000e+00 6.209134360793099e-08 1.686770430097152e-02 0.000000000000000e+00 1.442698927445205e-15 0.000000000000000e+00 9.882580110670858e-03 0.000000000000000e+00 0.000000000000000e+00 0.000000000000000e+00 8.057514222470234e-11 0.000000000000000e+00 2.141472532549769e-24 5.420189049494757e-06 4.832116509333109e-04 5.792876963321135e-08 0.000000000000000e+00 4.249027925161564e-10 1.290424134596143e-08 1.031355414355946e-02 6.087995863152062e-03 5.730867657047751e-12 1.126963149104167e-17 0.000000000000000e+00 0.000000000000000e+00 0.000000000000000e+00 3.088035781615954e-04 8.090706315472740e-05 3.085137992701351e-04 1.033989628282700e-12 3.092203582181110e-10 3.471965487019295e-18 0.000000000000000e+00 1.005149083270619e-10 3.649078114747108e-13 1.382538408115689e-07 0.000000000000000e+00 1.969874241984224e-20 2.367947873292125e-26 6.797958602860469e-15 0.000000000000000e+00 0.000000000000000e+00 1.487572855194534e-09 0.000000000000000e+00 5.452642027352421e-03 8.045610323218649e-07 1.289436251756058e-20 2.213057682397121e-16 0.000000000000000e+00 0.000000000000000e+00 6.753082721542580e-09 0.000000000000000e+00 5.115980363246402e-07 2.277826386988716e-17 1.424836969957172e-09 4.289641000544645e-09 0.000000000000000e+00 0.000000000000000e+00 0.000000000000000e+00 0.000000000000000e+00 9.652677872328939e-12 0.000000000000000e+00 0.000000000000000e+00 2.412661633881175e-09 1.336283739852003e-07 0.000000000000000e+00 1.375859581397487e-08 2.108159303184424e-11 1.601667719947510e-10 0.000000000000000e+00 9.932028914782145e-11 2.766962921675526e-06 4.334120432900332e-06 1.072512526077987e-08 6.304299082345054e-08 3.275506388666965e-15 6.634419937129936e-29 2.978560725900871e-05 4.391914842832862e-08 1.274999575539458e-12 4.370814346719095e-16 0.000000000000000e+00 9.741085508593303e-05 0.000000000000000e+00 7.579363755446350e-11 2.164052634217476e-07 4.035921674703181e-13 0.000000000000000e+00 0.000000000000000e+00 0.000000000000000e+00 4.857220713785062e-09 2.034564899041675e-08 1.314436778398945e-08 0.000000000000000e+00 6.251739687130844e-14 4.310872401771930e-30 0.000000000000000e+00 0.000000000000000e+00 3.966091475663823e-28 5.368574513418949e-23 1.005604277657387e-06 0.000000000000000e+00 5.462677525516738e-08 1.185632808855308e-07 5.337736117433259e-10 1.969163657096341e-16 0.000000000000000e+00 0.000000000000000e+00 4.160909463828916e-08 9.242910255876743e-10 1.255096707523392e-04 1.742916245806140e-08 8.389879381885870e-09 3.242945441932018e-25 1.889161831753693e-09 6.001342093065767e-13 0.000000000000000e+00 0.000000000000000e+00 1.288528291843734e-15 0.000000000000000e+00 1.661771391307418e-07 2.931454488076132e-03 7.449111948720325e-08 1.394652523722383e-12 6.122625039602043e-06 2.112427832607120e-06 2.568015033864125e-21 1.406495566925876e-09 1.901846180131239e-09 1.745620717905689e-13 0.000000000000000e+00 0.000000000000000e+00 6.625625495578779e-09 0.000000000000000e+00 2.349678934396950e-03 9.638031712041948e-04 1.508926886813280e-09 1.113083690794917e-16 0.000000000000000e+00 0.000000000000000e+00 0.000000000000000e+00 1.199898078653258e-17 3.984220478449995e-12 9.005722909783463e-20 6.681733905381005e-18 0.000000000000000e+00 7.083890494738236e-19 0.000000000000000e+00 1.002932817681323e-02 5.626902723892427e-03 3.170539241328616e-10 0.000000000000000e+00 6.955155902833700e-08 0.000000000000000e+00 2.881307356851110e-18 0.000000000000000e+00 1.465815114499596e-07 0.000000000000000e+00 1.633746588328134e-03 2.652226137554819e-24 9.173325269219183e-15 4.613923121183220e-24 0.000000000000000e+00 2.890565074158620e-14 7.623111152620362e-08 6.560467464037007e-26 1.041242075802070e-12 1.132159713478250e-08 1.313898925893509e-14 4.159484972608162e-19 0.000000000000000e+00 0.000000000000000e+00 1.080924137113863e-22 0.000000000000000e+00 0.000000000000000e+00 2.528589197891524e-13 9.129047649270276e-08 8.090566540617906e-12 1.463202169897541e-22 0.000000000000000e+00 3.582691962342931e-15 7.464577603746050e-08 6.867043253445369e-09 1.936065768973028e-18 8.112141902793379e-18 5.651890602661751e-22 0.000000000000000e+00 0.000000000000000e+00 5.039326386039643e-11 3.633518675949178e-26 0.000000000000000e+00 1.420121697271539e-13 0.000000000000000e+00 0.000000000000000e+00 5.953522441319728e-18 6.297114934558269e-17 7.174706581589956e-18 0.000000000000000e+00 0.000000000000000e+00 1.941465312969699e-17 0.000000000000000e+00 2.266960641255059e-23 3.116724497605511e-16 8.706939245107076e-10 1.988940654008689e-07 1.493614274094491e-07 3.558417718846991e-13 0.000000000000000e+00 0.000000000000000e+00 3.961524226496142e-10 7.623755517256327e-12 1.724640696907306e-13 2.452798863955047e-12 5.689233308071406e-14 8.195759834984194e-17 9.704182212609998e-09 8.352983410422352e-14 5.397579403960006e-20 6.280438040610178e-27 0.000000000000000e+00 0.000000000000000e+00 0.000000000000000e+00 3.750094305135559e-12 1.113613850081781e-10 1.617756509336787e-16 2.246088433951888e-18 0.000000000000000e+00 1.723028313398026e-22 4.192853685410095e-21 1.059833739406258e-23 1.980848194933881e-08 0.000000000000000e+00 2.701857667456904e-20 1.205529347987143e-22 0.000000000000000e+00 0.000000000000000e+00 9.815293853096547e-08 0.000000000000000e+00 2.930268677744763e-05 5.800453331912805e-08 2.764792371685234e-02 2.633625159328930e-02 1.678268724170817e-15 7.089419575875292e-08 0.000000000000000e+00 0.000000000000000e+00 0.000000000000000e+00 1.622148733859471e-10 7.864899721749966e-11 0.000000000000000e+00 1.563129286180789e-14 0.000000000000000e+00 0.000000000000000e+00 6.778927774634468e-11 1.239847554596200e-16 1.728551194008114e-02 2.704536401976619e-02 2.733115667093476e-02 1.749048174023049e-02 1.494575444152636e-02 1.587696447725374e-02 3.141267712127922e-11 0.000000000000000e+00 0.000000000000000e+00 0.000000000000000e+00 6.097463409558798e-19 2.065288025426295e-16 5.420100075543526e-09 6.947751124135281e-16 2.818401556105144e-06 8.795317692922453e-16 4.507126980727795e-09 1.903440774948052e-10 5.245133595306597e-10 0.000000000000000e+00 0.000000000000000e+00 1.324134554748632e-07 1.752868676385382e-08 1.618857586821444e-10 0.000000000000000e+00 1.382044386748999e-24 4.382365362585554e-10 4.448157216099173e-25 0.000000000000000e+00 0.000000000000000e+00 0.000000000000000e+00 2.430510732161071e-18 0.000000000000000e+00 6.102768088782248e-08 1.993221210805019e-16 0.000000000000000e+00 9.425058838534853e-14 6.667517223401803e-08 0.000000000000000e+00 2.429583021263465e-12 1.890740239456820e-11 0.000000000000000e+00 0.000000000000000e+00 6.057667447801939e-20 0.000000000000000e+00 1.195632785312519e-12 7.024191525511967e-09 0.000000000000000e+00 3.939382910518786e-02 3.939383165037726e-02 2.208310840836130e-19 1.074534118893205e-10 0.000000000000000e+00 3.521128557034308e-08 2.409368997969202e-10 0.000000000000000e+00 1.361160236895203e-14 0.000000000000000e+00 9.779367767130400e-08 0.000000000000000e+00 2.640353434102846e-02 2.640354045705519e-02 0.000000000000000e+00 6.102211975208215e-06 1.103335329580443e-06 7.633204187221841e-09 4.487696606664924e-09 4.898254455689486e-24 8.618467545275896e-05 2.075831269885765e-05 3.039870869879811e-11 5.248189571350624e-25 4.753128563717928e-09 4.358688180661473e-26 3.118255561331925e-28 2.659242138600066e-06 0.000000000000000e+00 1.611357738431265e-02 1.622598587270460e-02 3.031265097960602e-13 2.879084528543990e-12 1.244881822575703e-25 1.057064500535208e-14 0.000000000000000e+00 9.061936148310581e-17 8.359160294175019e-10 1.698928210254298e-14 2.162800512458205e-13 1.220358593769542e-07 1.283985145872577e-07 9.646665198636385e-16 4.036441468789869e-15 0.000000000000000e+00 3.120911230495523e-16 4.151495820865120e-11 0.000000000000000e+00 0.000000000000000e+00 0.000000000000000e+00 0.000000000000000e+00 0.000000000000000e+00 4.723182624275724e-08 0.000000000000000e+00 6.280982673408303e-13 0.000000000000000e+00 4.631302345150760e-12 0.000000000000000e+00 0.000000000000000e+00 1.353288341929661e-14 6.832997184884925e-20 0.000000000000000e+00 0.000000000000000e+00 0.000000000000000e+00 2.360517307895775e-14 0.000000000000000e+00 5.031565490074989e-08 1.691972662412169e-26 9.950646784175207e-09 2.264652298800960e-09 5.907090526916558e-16 0.000000000000000e+00 3.267267197701962e-04 0.000000000000000e+00 3.027990307778351e-12 0.000000000000000e+00 2.685520763485894e-13 0.000000000000000e+00 0.000000000000000e+00 2.539868396701257e-13 0.000000000000000e+00 0.000000000000000e+00 5.762283880919280e-08 4.165310557891040e-08 4.033414586897648e-16 0.000000000000000e+00 9.726946947406539e-04 2.171357091385804e-03 4.405147551385893e-08 0.000000000000000e+00 0.000000000000000e+00 2.549905535481417e-04 1.341068983140670e-25 9.869588176121299e-09 2.037357834818145e-08 1.312935105598225e-05 5.883177614350558e-05 6.480830316891444e-14 5.621854494579809e-22 0.000000000000000e+00 0.000000000000000e+00 2.229632674845105e-11 6.915154634665407e-12 0.000000000000000e+00 4.036376868906462e-20 5.591506725764693e-20 3.196978257502871e-09 0.000000000000000e+00 7.107801965114562e-05 0.000000000000000e+00 0.000000000000000e+00 7.055001111752539e-08 2.589573271998026e-03 1.660652354468442e-02 2.675474695852502e-02 0.000000000000000e+00 2.137415542774986e-21 0.000000000000000e+00 0.000000000000000e+00 4.092093933776652e-25 1.350695670817713e-16 0.000000000000000e+00 4.703860939341300e-09 1.209388611072017e-07 0.000000000000000e+00 0.000000000000000e+00 1.378977179089510e-08 7.635405738712388e-12 8.703962196773892e-09 0.000000000000000e+00 0.000000000000000e+00 9.616487812612575e-20 0.000000000000000e+00 6.896139507391509e-14 0.000000000000000e+00 0.000000000000000e+00 5.100259864701386e-19 8.121719523034525e-18 1.079519179623721e-14 4.345779601460179e-15 0.000000000000000e+00 0.000000000000000e+00 0.000000000000000e+00 5.825663799588586e-23 9.386859719405114e-22 0.000000000000000e+00 1.011989821610988e-03 0.000000000000000e+00 0.000000000000000e+00 1.685797340271502e-07 1.383559945652865e-06 1.012459499106995e-03 3.292684367684527e-1