<?xml version="1.0"?>
<VTKFile type="UnstructuredGrid" version="0.1" byte_order="LittleEndian">
<UnstructuredGrid>
<Piece NumberOfPoints="60" NumberOfCells="131">
<Points>
<DataArray type="Float64" NumberOfComponents="3" format="ascii">
0.24999999999941211 0 0 0.49999999999869432 0 0 0.36400213509809493 0.30340182266465199 -0.71803582340462213 0.49999999999996553 1 -0.50000000000003098 0.42348748445510859 0.67651247978210449 -0.75231254100799561 0.72147817460319108 1 -0.72147817460312469 1 1 -0.74999999999934164 1 0.72147817460311847 -0.72147817460311847 0.764412522315979 0.67651247978210449 -0.75231254100799561 1 0.49999999999972489 -0.80913800705468164 0.764412522315979 0.33558750152587891 -0.75231254100799561 0.25000000000104028 1 0 0.72147817460311847 0 -0.72147817460311858 1 0.19232253086420811 -0.50146053791859801 1 0.27852182539678272 -0.72147817460312469 1 0.49738970948455541 -0.4998377180089762 1 0.27365336566714249 -0.27365336566714249 0.80925971854791523 0 -0.49925229508213942 0.72147817460308961 0 -0.2755823780128876 0.50109540343913672 0 -0.49621010312562502 0.72305346565390649 0.3029574597295554 -0.36031078036159248 0.72147817460313146 0.27852182539678172 0 0.5010954034391506 0.49890459656082159 0 0.50000000000205869 1 0 0.50158224941189322 0.19220081937093081 0 0.85809358465589691 0.14190641534373391 0 0.82035644440722078 0.17329324848814129 -0.19386381810203029 0.8580935846558897 0 -0.1414165074464182 1 0.1440972222221624 -0.1440972222221624 0.80927324204716267 0.49986476500725602 0 1 0.50146053791859801 -0.19232253086420811 0.75000000000034661 1 0 0.764412522315979 0.67651247978210449 -0.41138750314712519 1 0.72147817460312469 -0.27852182539678277 1 1 -0.24999999999941211 1 1 -0.49999999999869432 1 1 0 1 0.80884797477518766 -0.49998196866738898 0.80913800705466277 1 -0.49999999999972899 1 0.85809358465589558 -0.1419064153437341 0.85811386990508953 0.85807329940704491 0 0.85809358465609753 1 -0.14190641534383081 1 0.74999999999934164 0 0.50159577291168977 0.80754223414328785 0 0.72147817460319741 1 -0.27852182539678338 0.72159988609643178 0.72135646310988133 0 1 0.49999999999869432 0 0.27589492110682312 0.72442964287534417 0 0.42348748445510859 0.67651247978210449 -0.41138750314712519 0.27558237801301821 1 -0.27852182539675591 0.49967339473549238 1 -0.19086199294534331 0.27589341849557891 0.27527133753033889 0 0.42348748445510859 0.33558750152587891 -0.41138750314712519 0.74999999999934164 0 0 1 0.24999999999941211 0 0.49999999999974359 0 -0.1937830687830959 1 0 0 1 0 -0.49999999999869432 1 0 -0.24999999999941211 1 0 -0.74999999999934164 
</DataArray>
</Points>
<Cells>
<DataArray type="UInt32" Name="connectivity" format="ascii">
10 8 52 32 8 10 52 4 8 3 48 32 8 3 32 5 3 38 32 5 38 7 5 6 38 37 6 35 7 37 6 38 7 38 32 37 7 5 32 38 32 5 7 8 15 9 10 8 10 15 8 32 7 37 32 15 7 15 32 8 7 9 15 8 20 12 52 10 12 2 52 10 52 2 12 19 17 20 12 19 12 14 20 13 20 14 12 10 12 13 20 17 17 13 59 12 13 17 59 57 59 13 14 12 15 13 20 14 15 10 20 32 10 15 20 14 9 15 10 14 15 30 32 20 30 15 16 20 26 30 16 20 15 13 16 20 13 17 16 20 26 58 17 16 17 13 58 57 17 13 16 58 20 17 26 18 17 58 26 18 26 17 20 16 52 12 20 19 19 55 20 52 26 20 18 55 20 17 18 19 20 55 19 18 20 10 52 32 20 22 32 52 29 22 32 20 22 20 24 52 22 21 20 29 24 20 22 21 26 53 24 55 20 24 52 55 24 1 55 53 53 55 26 18 26 24 20 55 20 24 26 21 24 53 26 21 26 21 25 54 26 21 53 25 26 27 53 18 26 27 18 58 27 25 53 56 27 26 53 25 25 56 58 28 58 56 25 27 25 58 26 28 26 58 25 27 26 16 54 28 58 26 28 16 25 28 54 56 25 26 54 28 30 29 32 20 21 30 54 26 21 20 30 26 26 30 54 16 30 20 21 29 54 30 21 29 29 54 30 46 29 30 42 46 29 33 42 30 42 33 29 45 33 32 29 45 29 32 33 30 33 30 32 15 33 37 15 32 33 38 32 44 33 37 32 38 34 37 33 38 34 37 38 35 33 34 38 44 34 33 41 44 33 32 45 44 33 34 41 39 34 39 36 41 39 40 36 41 42 40 33 45 33 40 42 39 39 40 42 36 40 33 41 39 40 33 45 44 31 40 44 41 36 40 31 41 31 40 45 44 33 40 41 44 45 31 44 43 45 32 43 44 43 44 48 50 31 50 44 43 23 50 31 43 3 32 44 48 50 3 44 48 48 44 43 32 3 38 44 32 32 8 52 48 32 22 48 52 22 43 32 48 29 22 45 32 32 43 22 45 22 47 43 48 50 49 3 48 11 50 43 47 11 23 43 50 47 50 43 48 49 50 47 48 50 11 49 47 22 24 51 52 52 51 55 24 0 24 55 51 24 1 0 55 
</DataArray>
<DataArray type="UInt32" Name="offsets" format="ascii">
4 8 12 16 20 24 28 32 36 40 44 48 52 56 60 64 68 72 76 80 84 88 92 96 100 104 108 112 116 120 124 128 132 136 140 144 148 152 156 160 164 168 172 176 180 184 188 192 196 200 204 208 212 216 220 224 228 232 236 240 244 248 252 256 260 264 268 272 276 280 284 288 292 296 300 304 308 312 316 320 324 328 332 336 340 344 348 352 356 360 364 368 372 376 380 384 388 392 396 400 404 408 412 416 420 424 428 432 436 440 444 448 452 456 460 464 468 472 476 480 484 488 492 496 500 504 508 512 516 520 524 
</DataArray>
<DataArray type="UInt32" Name="types" format="ascii">
10 10 10 10 10 10 10 10 10 10 10 10 10 10 10 10 10 10 10 10 10 10 10 10 10 10 10 10 10 10 10 10 10 10 10 10 10 10 10 10 10 10 10 10 10 10 10 10 10 10 10 10 10 10 10 10 10 10 10 10 10 10 10 10 10 10 10 10 10 10 10 10 10 10 10 10 10 10 10 10 10 10 10 10 10 10 10 10 10 10 10 10 10 10 10 10 10 10 10 10 10 10 10 10 10 10 10 10 10 10 10 10 10 10 10 10 10 10 10 10 10 10 10 10 10 10 10 10 10 10 10 
</DataArray>
</Cells>
<PointData Scalars="pressure_p0," Vectors="velocity_p0," Tensors="anisotropy,">
<DataArray type="Float64" Name="pressure_p0" format="ascii">
-0.0046269399321821926 -0.0031865928840164978 -0.32627479954983563 -0.11322925119945607 -0.662000098031158 -0.14649848288604961 -0.038667649442979131 -0.12107137648213245 -0.3010485418830921 -0.23394937466942337 -0.31778143803430958 -0.0053827993573768709 -0.17422486631036033 -0.05210927834607898 -0.14600570148927464 -0.13569241652642161 -0.026251630938771413 -0.037507782672033245 -0.023499490258475818 -0.10595714780401727 -0.088043836047145746 -0.015936049083343361 -0.059444618753140784 -0.0033074989329744784 -0.025518318774712875 -0.0027505646418198742 -0.014321860688278468 -0.0033912269088516977 -0.0035904335788251459 -0.023979462304942408 -0.026201381300177521 -0.0042445388693050715 -0.11939832358031684 -0.019147886381082117 -0.0072858539425798632 -0.012810851817000396 -0.0012465347220765809 -0.039281536102839208 -0.048397357955171333 -0.0024821949775428588 -0.0045552413580564974 -0.0036568228474215614 -0.0039691730036249904 -0.028174448694867935 -0.032003548290406768 -0.018775639326534137 -0.0033040774463678618 -0.021124755888815273 -0.097222941558258169 -0.030229542201115522 -0.023134574731090755 -0.022709248841188034 -0.21912726885072079 -0.0052349432266412472 -0.0050799340077575311 -0.03028913668121477 -0.00066343701594957338 -0.013037376224467944 -0.0072062518408211344 -0.038946213575337292 
</DataArray>
<DataArray type="Float64" Name="velocity_p0" NumberOfComponents="3" format="ascii">
0.0070790747894120057 0.018565221322665658 -0.22395318377143381 0.00077621803598364007 0.019894411408318362 -0.21973831030818097 0.042842223244707198 0.20167430159039124 -0.51339837742407046 -0.055121492730207791 -0.13443446551983215 -0.31970543747454216 0.022947006011299398 0.060513957780068628 -0.80736316150551557 -0.10392127883393765 -0.16518213061026327 -0.37806102043084577 -0.13519466048666604 -0.11740516903728791 -0.26814982448946839 -0.20572038685627803 -0.076945472647681215 -0.34473584573206451 -0.20361181133162937 -0.045356487970970007 -0.50328889108358632 -0.49320248865217281 -0.0057827837331212092 -0.56907077134217621 -0.19269987980276679 0.032645857931652936 -0.52030462269228683 0.0047792513239542644 -0.022947638286568744 -0.22449332037347461 -0.080946505062202065 0.15770044129717978 -0.37169494716548407 -0.12097639001453384 0.092374285631187769 -0.26882820563573995 -0.25454367365280489 0.056921726808594343 -0.37238104888476525 -0.23698780100630953 -0.0034718896088551362 -0.35553292316605306 -0.058117520421636412 0.022420854378789105 -0.24445918318521023 -0.048240493451839457 0.095776251554635192 -0.24678513327624041 -0.014301869394291275 0.056083275126020238 -0.23363431156025213 -0.0088337179115982149 0.17322523994777073 -0.29697947970368976 -0.066255471654306314 0.057276807544248513 -0.29206882606802137 -0.013561587561984331 0.01390214854275138 -0.23314716148799891 -0.0078546947129249853 -0.00099239296847524242 -0.28961589214061367 0.0010691121529500208 -0.020619756720042549 -0.2208029240785308 -0.0015581028735634859 0.019991809799007294 -0.24230478489829829 -0.0047389786719561483 0.0052252543481195101 -0.2081683542104443 -0.01632368839935561 0.018429302138135026 -0.22217889364439899 -0.0054737941928558976 0.011676567904150706 -0.20735806515611391 -0.011896719263521663 0.005481995265893963 -0.20844252675996255 -0.026719174056568314 -0.0011120441425436047 -0.24014731348931137 -0.045020816542514927 0.00095893181287228456 -0.23896257012109917 -0.0040844323595254674 -0.019939353392305348 -0.21825558498716888 -0.089099398634402902 -0.046783662131859846 -0.32048778193359878 -0.040339838915407086 -0.018982817181140057 -0.22982625027433837 -0.031729977407567188 -0.029472609880126645 -0.21456067224072636 -0.080543196554151542 -0.080423357748604624 -0.22510610438848525 -0.0070228753711417463 -0.0070084208625748497 -0.20711157457672036 -0.13491912080926072 -0.047086825506318361 -0.25190718465661999 -0.091380410949579369 -0.097444240724313749 -0.26606240413297372 -0.013608511963753928 -0.0044004556638508243 -0.20521853776558066 -0.010716017366094205 -0.0094494925712239521 -0.21137014808335422 -0.011174052364081463 -0.011777865592570677 -0.20552812201041148 -0.018959059364616861 -0.0035221758315280367 -0.21741778537393797 -0.0014775007081913743 -0.02490330415632816 -0.24581060760453763 -0.015313408797291629 -0.046553979304106589 -0.24492462117996766 -0.017198499143842354 -0.01188968975588935 -0.23657786966098651 -0.02079282672095438 0.00068279591512724822 -0.22061463534263037 0.0073881128870166134 -0.020604036918061949 -0.23514166443609558 -0.023532602873617914 -0.056507827573578952 -0.29907541790803249 0.0064323637242857034 -0.053661435548691121 -0.24471635252313642 0.0042974730349860258 -0.041061422405186968 -0.23809525991062749 0.013265907496257057 0.014829955404373776 -0.24053645679819138 -0.034092374562327041 0.059973198819968446 -0.41004522743733268 -0.0054554344349709467 0.017374305550817853 -0.21787032000461212 -0.017047210961501327 0.006079574415054868 -0.21781183720849592 -0.002189380690191135 0.038395554619719656 -0.24499536537514557 -0.0048703767402848725 0.0047676895777333961 -0.20485354966758768 -0.082188571235496721 0.081239624261536275 -0.22375692759022481 -0.025321187211749481 0.025614945456946214 -0.21463866705387794 -0.12050244442191164 0.13744873372928038 -0.26432278697189487 
</DataArray>
<DataArray type="Float64" Name="anisotropy" NumberOfComponents="9" format="ascii">
0.10000000000000001 0 0 0 0.10000000000000001 0 0 0 0.10000000000000001 0.10000000000000001 0 0 0 0.10000000000000001 0 0 0 0.10000000000000001 0.10000000000000001 0 0 0 0.10000000000000001 0 0 0 0.10000000000000001 0.099999999999999992 0 0 0 0.099999999999999992 0 0 0 0.099999999999999992 0.10000000000000001 0 0 0 0.10000000000000001 0 0 0 0.10000000000000001 0.10000000000000001 0 0 0 0.10000000000000001 0 0 0 0.10000000000000001 0.10000000000000002 0 0 0 0.10000000000000002 0 0 0 0.10000000000000002 0.099999999999999992 0 0 0 0.099999999999999992 0 0 0 0.099999999999999992 0.099999999999999992 0 0 0 0.099999999999999992 0 0 0 0.099999999999999992 0.10000000000000002 0 0 0 0.10000000000000002 0 0 0 0.10000000000000002 0.099999999999999992 0 0 0 0.099999999999999992 0 0 0 0.099999999999999992 0.10000000000000002 0 0 0 0.10000000000000002 0 0 0 0.10000000000000002 0.099999999999999992 0 0 0 0.099999999999999992 0 0 0 0.099999999999999992 0.099999999999999992 0 0 0 0.099999999999999992 0 0 0 0.099999999999999992 0.099999999999999992 0 0 0 0.099999999999999992 0 0 0 0.099999999999999992 0.10000000000000001 0 0 0 0.10000000000000001 0 0 0 0.10000000000000001 0.099999999999999992 0 0 0 0.099999999999999992 0 0 0 0.099999999999999992 0.099999999999999992 0 0 0 0.099999999999999992 0 0 0 0.099999999999999992 0.099999999999999992 0 0 0 0.099999999999999992 0 0 0 0.099999999999999992 0.099999999999999992 0 0 0 0.099999999999999992 0 0 0 0.099999999999999992 0.10000000000000005 0 0 0 0.10000000000000005 0 0 0 0.10000000000000005 0.099999999999999992 0 0 0 0.099999999999999992 0 0 0 0.099999999999999992 0.099999999999999992 0 0 0 0.099999999999999992 0 0 0 0.099999999999999992 0.10000000000000001 0 0 0 0.10000000000000001 0 0 0 0.10000000000000001 0.099999999999999992 0 0 0 0.099999999999999992 0 0 0 0.099999999999999992 0.099999999999999992 0 0 0 0.099999999999999992 0 0 0 0.099999999999999992 0.10000000000000003 0 0 0 0.10000000000000003 0 0 0 0.10000000000000003 0.099999999999999992 0 0 0 0.099999999999999992 0 0 0 0.099999999999999992 0.099999999999999992 0 0 0 0.099999999999999992 0 0 0 0.099999999999999992 0.099999999999999992 0 0 0 0.099999999999999992 0 0 0 0.099999999999999992 0.10000000000000001 0 0 0 0.10000000000000001 0 0 0 0.10000000000000001 0.099999999999999992 0 0 0 0.099999999999999992 0 0 0 0.099999999999999992 0.10000000000000005 0 0 0 0.10000000000000005 0 0 0 0.10000000000000005 0.10000000000000003 0 0 0 0.10000000000000003 0 0 0 0.10000000000000003 0.099999999999999992 0 0 0 0.099999999999999992 0 0 0 0.099999999999999992 0.10000000000000001 0 0 0 0.10000000000000001 0 0 0 0.10000000000000001 0.10000000000000001 0 0 0 0.10000000000000001 0 0 0 0.10000000000000001 0.099999999999999992 0 0 0 0.099999999999999992 0 0 0 0.099999999999999992 0.099999999999999992 0 0 0 0.099999999999999992 0 0 0 0.099999999999999992 0.099999999999999992 0 0 0 0.099999999999999992 0 0 0 0.099999999999999992 0.099999999999999992 0 0 0 0.099999999999999992 0 0 0 0.099999999999999992 0.099999999999999992 0 0 0 0.099999999999999992 0 0 0 0.099999999999999992 0.099999999999999992 0 0 0 0.099999999999999992 0 0 0 0.099999999999999992 0.099999999999999992 0 0 0 0.099999999999999992 0 0 0 0.099999999999999992 0.10000000000000002 0 0 0 0.10000000000000002 0 0 0 0.10000000000000002 0.099999999999999992 0 0 0 0.099999999999999992 0 0 0 0.099999999999999992 0.10000000000000001 0 0 0 0.10000000000000001 0 0 0 0.10000000000000001 0.10000000000000001 0 0 0 0.10000000000000001 0 0 0 0.10000000000000001 0.099999999999999992 0 0 0 0.099999999999999992 0 0 0 0.099999999999999992 0.10000000000000002 0 0 0 0.10000000000000002 0 0 0 0.10000000000000002 0.099999999999999992 0 0 0 0.099999999999999992 0 0 0 0.099999999999999992 0.10000000000000002 0 0 0 0.10000000000000002 0 0 0 0.10000000000000002 0.10000000000000002 0 0 0 0.10000000000000002 0 0 0 0.10000000000000002 0.099999999999999992 0 0 0 0.099999999999999992 0 0 0 0.099999999999999992 0.099999999999999992 0 0 0 0.099999999999999992 0 0 0 0.099999999999999992 0.099999999999999992 0 0 0 0.099999999999999992 0 0 0 0.099999999999999992 0.10000000000000001 0 0 0 0.10000000000000001 0 0 0 0.10000000000000001 0.10000000000000001 0 0 0 0.10000000000000001 0 0 0 0.10000000000000001 0.099999999999999992 0 0 0 0.099999999999999992 0 0 0 0.099999999999999992 0.10000000000000002 0 0 0 0.10000000000000002 0 0 0 0.10000000000000002 
</DataArray>
</PointData>
</Piece>
</UnstructuredGrid>
</VTKFile>
