<?xml version="1.0"?>
<VTKFile type="UnstructuredGrid" version="0.1" byte_order="LittleEndian">
<UnstructuredGrid>
<Piece NumberOfPoints="65" NumberOfCells="131">
<Points>
<DataArray type="Float64" NumberOfComponents="3" format="ascii">
0 0.80935234175974147 -0.50021433470480037 0.49999999999996553 1 -0.50000000000003098 1 1 -0.74999999999934164 1 0.72147817460311847 -0.72147817460311847 1 0 -0.74999999999934164 1 0.19232253086420811 -0.50146053791859801 1 0.49738970948455541 -0.4998377180089762 1 0.27365336566714249 -0.27365336566714249 0.80925971854791523 0 -0.49925229508213942 1 0 -0.49999999999869432 0.72147817460308961 0 -0.2755823780128876 0.50109540343913672 0 -0.49621010312562502 0.72305346565390649 0.3029574597295554 -0.36031078036159248 0.72147817460313146 0.27852182539678172 0 0.5010954034391506 0.49890459656082159 0 0.50158224941189322 0.19220081937093081 0 0.74999999999934164 0 0 0.85809358465589691 0.14190641534373391 0 0.82035644440722078 0.17329324848814129 -0.19386381810203029 0.8580935846558897 0 -0.1414165074464182 1 0 0 1 0 -0.24999999999941211 1 0.1440972222221624 -0.1440972222221624 1 0.24999999999941211 0 0.80927324204716267 0.49986476500725602 0 1 0.49999999999869432 0 1 0.50146053791859801 -0.19232253086420811 1 0.74999999999934164 0 0.764412522315979 0.67651247978210449 -0.41138750314712519 1 0.72147817460312469 -0.27852182539678277 0.80913800705466277 1 -0.49999999999972899 1 0.80884797477518766 -0.49998196866738898 1 1 -0.49999999999869432 1 1 -0.24999999999941211 1 1 0 1 0.85809358465589558 -0.1419064153437341 0.85811386990508953 0.85807329940704491 0 0.75000000000034661 1 0 0.85809358465609753 1 -0.14190641534383081 0.50159577291168977 0.80754223414328785 0 0.50000000000205869 1 0 0.72147817460319741 1 -0.27852182539678338 0.72159988609643178 0.72135646310988133 0 0.27589492110682312 0.72442964287534417 0 0.42348748445510859 0.67651247978210449 -0.41138750314712519 0.27558237801301821 1 -0.27852182539675591 0.49967339473549238 1 -0.19086199294534331 0.25000000000104028 1 0 0.1414165074468669 1 -0.14190641534369289 0.14146859796247779 0.85858549603494483 0 0 0.85809358465609809 -0.14190641534383031 0 0.75000000000034661 0 0 1 0 0 1 -0.24999999999941211 0 0.72147817460320118 -0.27852182539678011 0 0.50017861225427096 -0.49773060372977418 0 0.50000000000205869 0 0 0.50000000000037348 -0.1908619929453429 0 0.25000000000104028 0 0.19390478027631419 0.49987828850705518 0 0.27589341849557891 0.27527133753033889 0 0.42348748445510859 0.33558750152587891 -0.41138750314712519 0.49999999999869432 0 0 0.49999999999974359 0 -0.1937830687830959 0.24999999999941211 0 0 
</DataArray>
</Points>
<Cells>
<DataArray type="UInt32" Name="connectivity" format="ascii">
3 31 2 30 3 30 28 31 30 31 2 32 3 31 28 6 5 8 4 9 26 6 7 12 18 26 7 12 6 5 7 12 6 26 28 12 8 5 7 21 5 8 7 12 8 5 21 9 12 8 18 10 18 8 12 7 8 21 18 10 18 21 8 7 18 12 10 63 12 63 11 10 11 63 12 61 12 8 10 11 12 14 28 61 14 13 12 24 24 14 28 12 14 12 15 61 15 12 14 13 18 15 12 63 12 15 18 13 15 16 18 13 16 63 18 10 18 16 15 63 15 62 63 16 12 15 61 63 18 7 23 22 18 19 16 10 18 13 17 23 21 18 22 7 18 19 10 21 19 17 16 20 18 13 16 17 19 18 16 17 17 20 21 22 21 20 17 19 18 21 17 19 17 21 18 22 17 22 23 20 17 18 23 22 18 26 23 7 24 23 26 25 26 12 13 24 13 12 26 18 13 26 23 18 26 24 28 12 23 26 13 24 27 29 24 42 24 28 29 26 29 28 24 42 24 29 27 26 24 26 27 25 29 31 6 28 29 26 28 6 29 33 30 41 29 30 28 41 33 31 29 30 33 31 30 32 29 31 28 30 29 33 38 35 33 35 34 38 35 36 27 34 29 36 27 35 27 36 29 42 29 28 42 41 33 29 38 41 36 29 38 35 37 36 42 41 29 36 38 41 36 29 42 41 37 36 41 38 35 36 34 38 34 36 37 38 39 41 44 46 42 28 39 41 37 46 41 39 40 46 37 39 42 37 41 39 44 41 39 28 46 1 41 44 1 30 41 28 1 28 41 44 28 14 44 61 14 39 28 44 28 39 14 42 24 14 42 28 14 43 44 59 14 43 39 44 14 44 61 59 44 57 61 59 46 45 1 44 46 47 45 43 43 46 39 44 47 40 39 46 45 46 43 44 47 46 39 43 50 43 48 49 43 47 48 49 54 45 43 44 51 50 49 43 45 47 48 43 50 51 54 43 45 50 48 53 47 52 48 49 50 45 54 53 50 45 48 43 45 50 54 43 50 52 51 49 52 50 48 49 50 52 48 53 45 0 54 53 45 0 44 54 54 0 44 55 57 54 44 55 44 43 57 59 44 57 43 54 51 57 54 43 51 57 43 59 56 57 51 59 59 57 58 56 14 60 59 61 14 15 60 61 64 15 63 60 15 62 64 63 61 60 63 15 
</DataArray>
<DataArray type="UInt32" Name="offsets" format="ascii">
4 8 12 16 20 24 28 32 36 40 44 48 52 56 60 64 68 72 76 80 84 88 92 96 100 104 108 112 116 120 124 128 132 136 140 144 148 152 156 160 164 168 172 176 180 184 188 192 196 200 204 208 212 216 220 224 228 232 236 240 244 248 252 256 260 264 268 272 276 280 284 288 292 296 300 304 308 312 316 320 324 328 332 336 340 344 348 352 356 360 364 368 372 376 380 384 388 392 396 400 404 408 412 416 420 424 428 432 436 440 444 448 452 456 460 464 468 472 476 480 484 488 492 496 500 504 508 512 516 520 524 
</DataArray>
<DataArray type="UInt32" Name="types" format="ascii">
10 10 10 10 10 10 10 10 10 10 10 10 10 10 10 10 10 10 10 10 10 10 10 10 10 10 10 10 10 10 10 10 10 10 10 10 10 10 10 10 10 10 10 10 10 10 10 10 10 10 10 10 10 10 10 10 10 10 10 10 10 10 10 10 10 10 10 10 10 10 10 10 10 10 10 10 10 10 10 10 10 10 10 10 10 10 10 10 10 10 10 10 10 10 10 10 10 10 10 10 10 10 10 10 10 10 10 10 10 10 10 10 10 10 10 10 10 10 10 10 10 10 10 10 10 10 10 10 10 10 10 
</DataArray>
</Cells>
<PointData Scalars="pressure_p0," Vectors="velocity_p0," Tensors="anisotropy,">
<DataArray type="Float64" Name="pressure_p0" format="ascii">
-0.04999019223811399 -0.068265815319724421 -0.024596806276110616 -0.059315945802963344 -0.015512056023389181 -0.029011979073623274 -0.050356814681657203 -0.026251629444063472 -0.028791613803919345 -0.01303737587758147 -0.023499488907802405 -0.062468286402890795 -0.050737974155481584 -0.015936047757859603 -0.056707031297592317 -0.025518317991223786 -0.0052349421711032143 -0.0027505636058536174 -0.014321859083828816 -0.003391225504556315 -0.00066343675686127796 -0.0072062506152550318 -0.003590432573287082 -0.0050799331670725121 -0.02397946101072634 -0.0033040773082962816 -0.026201379963139444 -0.0039691730146825636 -0.062924050799988571 -0.019147885721717779 -0.035127786694935111 -0.039281535885883311 -0.012810851794728982 -0.0072858540363335113 -0.0012465347630597843 -0.0024821951035709335 -0.0045552413742190939 -0.0042445389015574051 -0.0036568229032684333 -0.028174447879366068 -0.0033074988480334337 -0.03200354766605816 -0.018775638390718871 -0.017585388960243507 -0.061821720916885169 -0.022332745776597114 -0.023134574076215768 -0.0040997660182464819 -0.0037829604006864989 -0.0026271062906368676 -0.0050667988135269506 -0.0045417772706837891 -0.001351114233677848 -0.0050456716051037924 -0.032669785935215065 -0.067492130835875297 -0.0036068652600736231 -0.031135173635734349 -0.0035735056616712896 -0.035146984030494897 -0.024478861794488896 -0.078658682590666926 -0.0031865927569563906 -0.030289136081039746 -0.0046269397606378392 
</DataArray>
<DataArray type="Float64" Name="velocity_p0" NumberOfComponents="3" format="ascii">
0.087231709917642855 -0.039474562888559578 -0.26749835197424882 -0.012147526223851273 -0.12363104735970215 -0.30040033086772744 -0.1530408540223307 -0.068476979559571508 -0.23178900231566019 -0.20957569520316263 -0.04251284209395844 -0.24838398971364661 -0.11332680796043576 0.11212039357783474 -0.2238693821120385 -0.093376959194186801 0.053009931361365462 -0.25589136644358729 -0.14503185299242935 -0.013997743427586312 -0.27338410479946634 -0.058117517440650121 0.022420854585560767 -0.24445918347527612 -0.051061709690080406 0.061755433457320069 -0.24610674626554857 -0.082188569166988468 0.081239622189268751 -0.22375692939975708 -0.014301870863289705 0.056083271990987643 -0.23363431197694229 -0.0082816661363364925 0.12149024073099109 -0.28839115016491407 -0.034211320609348291 0.031920133321287701 -0.26989681316659736 -0.013561587862821333 0.013902148439649997 -0.23314715903093428 -0.0032124526721633425 -0.00094816127702098698 -0.28606358521270908 -0.0015581035233491643 0.019991809056521963 -0.24230478423148483 -0.0054554358019528425 0.017374303558591521 -0.21787031770430715 -0.0047389771798894541 0.0052252529813016741 -0.20816835147148094 -0.016323687770490595 0.018429300784793174 -0.22217889254846501 -0.0054737926845652785 0.011676563985273516 -0.20735806313092564 -0.0048703746417541023 0.0047676875735459551 -0.20485354760504665 -0.025321183980170379 0.025614942812397113 -0.21463866689951386 -0.011896716252496322 0.0054819947775269192 -0.20844252539212724 -0.017047208774819321 0.0060795748118239283 -0.21781183527248216 -0.026719173237321283 -0.001112045007738889 -0.24014731176475015 -0.020792825964953916 0.00068279611972262076 -0.22061463459120512 -0.045020814430987988 0.00095893188697576529 -0.23896256968003388 -0.018959058990405859 -0.0035221756510305682 -0.21741778488790223 -0.058866740691402804 -0.032327956587612859 -0.28113861726925321 -0.040339837826055831 -0.018982816632043417 -0.2298262499065292 -0.086447972056442335 -0.056038807307932981 -0.24949116901178148 -0.13491911993232658 -0.047086825253374716 -0.25190718463920481 -0.080543196418685681 -0.080423357613299884 -0.22510610391757097 -0.031729977365352262 -0.029472609729464642 -0.21456067220379696 -0.0070228757304606412 -0.0070084213761648492 -0.20711157509996828 -0.013608512167597205 -0.0044004557847403501 -0.20521853784078492 -0.010716017078811807 -0.0094494923998224272 -0.2113701478624172 -0.0040844320843158345 -0.01993935362406473 -0.2182555852103796 -0.011174052240492782 -0.011777865560282623 -0.20552812216114455 -0.0014775002840860536 -0.024903303436353746 -0.24581060654244583 0.0010691129539135403 -0.02061975661374349 -0.22080292397941034 -0.015313408504489498 -0.04655397758699964 -0.24492462073129651 -0.017198499054155748 -0.011889688709306989 -0.23657786814659315 0.011943492298420929 -0.015298020240619582 -0.23160339601455185 0.020409068026876712 -0.036221962850716709 -0.28048759259269773 0.018657531278346996 -0.032550185227045197 -0.23016849332007047 0.0042974732382160498 -0.041061421057600259 -0.23809525923602215 0.0028521953671829018 -0.017086040978498439 -0.21888099706427 0.0047950523400816462 -0.012967937538910177 -0.21211710962050012 0.0050450788285087466 -0.0051353926467634257 -0.21441130174809461 0.012177854786847108 -0.010898437872590528 -0.21245144101850669 0.019367648690924569 -0.0039702878113437199 -0.22129215894687657 0.0076945257904609413 -0.0076886884796937153 -0.20771539757728852 0.023592520891704213 -0.021845137467909174 -0.20628109973852166 0.050011609285303425 -0.019774102153462696 -0.24472406574831909 0.12217100155334279 -0.021611271997689266 -0.29666010292782885 0.022321496555011699 0.00032025214466288468 -0.22267714928351789 0.031883517191215793 -0.0076247849682685121 -0.24976862989194629 0.021908597994705351 0.00032051138880195493 -0.22225766798747731 0.017309667033941635 -0.0045133154523285144 -0.2584140652138649 0.013245460131128673 0.015428640932911769 -0.24501649375563125 0.0089998073218545555 0.022869638604763112 -0.30395404527159153 0.00077621800326215179 0.019894410629022419 -0.21973830953498086 -0.0021893813847233515 0.03839555386787942 -0.24499536527722701 0.0070790745489915201 0.018565220693454492 -0.2239531829167051 
</DataArray>
<DataArray type="Float64" Name="anisotropy" NumberOfComponents="9" format="ascii">
0.10000000000000002 0 0 0 0.10000000000000002 0 0 0 0.10000000000000002 0.10000000000000001 0 0 0 0.10000000000000001 0 0 0 0.10000000000000001 0.10000000000000001 0 0 0 0.10000000000000001 0 0 0 0.10000000000000001 0.10000000000000002 0 0 0 0.10000000000000002 0 0 0 0.10000000000000002 0.10000000000000001 0 0 0 0.10000000000000001 0 0 0 0.10000000000000001 0.10000000000000001 0 0 0 0.10000000000000001 0 0 0 0.10000000000000001 0.099999999999999992 0 0 0 0.099999999999999992 0 0 0 0.099999999999999992 0.099999999999999992 0 0 0 0.099999999999999992 0 0 0 0.099999999999999992 0.099999999999999992 0 0 0 0.099999999999999992 0 0 0 0.099999999999999992 0.10000000000000001 0 0 0 0.10000000000000001 0 0 0 0.10000000000000001 0.099999999999999992 0 0 0 0.099999999999999992 0 0 0 0.099999999999999992 0.10000000000000002 0 0 0 0.10000000000000002 0 0 0 0.10000000000000002 0.10000000000000003 0 0 0 0.10000000000000003 0 0 0 0.10000000000000003 0.099999999999999992 0 0 0 0.099999999999999992 0 0 0 0.099999999999999992 0.10000000000000001 0 0 0 0.10000000000000001 0 0 0 0.10000000000000001 0.099999999999999992 0 0 0 0.099999999999999992 0 0 0 0.099999999999999992 0.099999999999999992 0 0 0 0.099999999999999992 0 0 0 0.099999999999999992 0.099999999999999992 0 0 0 0.099999999999999992 0 0 0 0.099999999999999992 0.10000000000000003 0 0 0 0.10000000000000003 0 0 0 0.10000000000000003 0.099999999999999992 0 0 0 0.099999999999999992 0 0 0 0.099999999999999992 0.10000000000000001 0 0 0 0.10000000000000001 0 0 0 0.10000000000000001 0.099999999999999992 0 0 0 0.099999999999999992 0 0 0 0.099999999999999992 0.099999999999999992 0 0 0 0.099999999999999992 0 0 0 0.099999999999999992 0.099999999999999992 0 0 0 0.099999999999999992 0 0 0 0.099999999999999992 0.099999999999999992 0 0 0 0.099999999999999992 0 0 0 0.099999999999999992 0.10000000000000001 0 0 0 0.10000000000000001 0 0 0 0.10000000000000001 0.10000000000000001 0 0 0 0.10000000000000001 0 0 0 0.10000000000000001 0.099999999999999992 0 0 0 0.099999999999999992 0 0 0 0.099999999999999992 0.10000000000000002 0 0 0 0.10000000000000002 0 0 0 0.10000000000000002 0.10000000000000003 0 0 0 0.10000000000000003 0 0 0 0.10000000000000003 0.099999999999999992 0 0 0 0.099999999999999992 0 0 0 0.099999999999999992 0.099999999999999992 0 0 0 0.099999999999999992 0 0 0 0.099999999999999992 0.10000000000000001 0 0 0 0.10000000000000001 0 0 0 0.10000000000000001 0.099999999999999992 0 0 0 0.099999999999999992 0 0 0 0.099999999999999992 0.10000000000000001 0 0 0 0.10000000000000001 0 0 0 0.10000000000000001 0.099999999999999992 0 0 0 0.099999999999999992 0 0 0 0.099999999999999992 0.099999999999999992 0 0 0 0.099999999999999992 0 0 0 0.099999999999999992 0.099999999999999992 0 0 0 0.099999999999999992 0 0 0 0.099999999999999992 0.099999999999999992 0 0 0 0.099999999999999992 0 0 0 0.099999999999999992 0.099999999999999992 0 0 0 0.099999999999999992 0 0 0 0.099999999999999992 0.10000000000000001 0 0 0 0.10000000000000001 0 0 0 0.10000000000000001 0.10000000000000002 0 0 0 0.10000000000000002 0 0 0 0.10000000000000002 0.099999999999999992 0 0 0 0.099999999999999992 0 0 0 0.099999999999999992 0.10000000000000003 0 0 0 0.10000000000000003 0 0 0 0.10000000000000003 0.10000000000000003 0 0 0 0.10000000000000003 0 0 0 0.10000000000000003 0.099999999999999992 0 0 0 0.099999999999999992 0 0 0 0.099999999999999992 0.099999999999999992 0 0 0 0.099999999999999992 0 0 0 0.099999999999999992 0.099999999999999992 0 0 0 0.099999999999999992 0 0 0 0.099999999999999992 0.099999999999999992 0 0 0 0.099999999999999992 0 0 0 0.099999999999999992 0.099999999999999992 0 0 0 0.099999999999999992 0 0 0 0.099999999999999992 0.099999999999999992 0 0 0 0.099999999999999992 0 0 0 0.099999999999999992 0.099999999999999992 0 0 0 0.099999999999999992 0 0 0 0.099999999999999992 0.10000000000000001 0 0 0 0.10000000000000001 0 0 0 0.10000000000000001 0.10000000000000001 0 0 0 0.10000000000000001 0 0 0 0.10000000000000001 0.099999999999999992 0 0 0 0.099999999999999992 0 0 0 0.099999999999999992 0.10000000000000001 0 0 0 0.10000000000000001 0 0 0 0.10000000000000001 0.10000000000000001 0 0 0 0.10000000000000001 0 0 0 0.10000000000000001 0.099999999999999992 0 0 0 0.099999999999999992 0 0 0 0.099999999999999992 0.10000000000000001 0 0 0 0.10000000000000001 0 0 0 0.10000000000000001 0.099999999999999992 0 0 0 0.099999999999999992 0 0 0 0.099999999999999992 0.10000000000000001 0 0 0 0.10000000000000001 0 0 0 0.10000000000000001 0.099999999999999992 0 0 0 0.099999999999999992 0 0 0 0.099999999999999992 0.10000000000000001 0 0 0 0.10000000000000001 0 0 0 0.10000000000000001 0.099999999999999992 0 0 0 0.099999999999999992 0 0 0 0.099999999999999992 0.10000000000000001 0 0 0 0.10000000000000001 0 0 0 0.10000000000000001 
</DataArray>
</PointData>
</Piece>
</UnstructuredGrid>
</VTKFile>
