<?xml version="1.0"?>
<VTKFile type="UnstructuredGrid" version="0.1" byte_order="LittleEndian">
<UnstructuredGrid>
<Piece NumberOfPoints="2876" NumberOfCells="719">
<Points>
<DataArray type="Float64" NumberOfComponents="3" format="ascii">
0.31610726166346748 0.18804489794572149 0 0.16929708765618309 0.30074819035915368 0 0.14641016151452901 0.14641016151487049 0 0.312576188949791 0.31458070521983672 0.3125761889497819 0 0.20000000000083221 0 0 0 0 0.14641016151452901 0.14641016151487049 0 0 0.14641016151432179 0.14641016151432179 0 0 0 0.19999999999955789 0 0 0.14641016151452901 0.14641016151487049 0 0.1464101615145241 0 0.14641016151486561 0 0.14641016151432179 0.14641016151432179 0 0 0.20000000000083221 0 0 0 0.1464101615145241 0 0.14641016151486561 0 0.14641016151432179 0.14641016151432179 0 0.30074819035869899 0.1692970876565193 0 0.18804489794560331 0.31610726166461361 0.312576188949791 0.31458070521983672 0.3125761889497819 0.31578456131778371 0 0.1865278143482666 0.1464101615145241 0 0.14641016151486561 0.16938214347656569 0 0.30011357660650623 0.312576188949791 0.31458070521983672 0.3125761889497819 0 0.14641016151432179 0.14641016151432179 0 0 0 0.14641016151452901 0.14641016151487049 0 0.1464101615145241 0 0.14641016151486561 0.14641016151452901 0.14641016151487049 0 0.1464101615145241 0 0.14641016151486561 0.31578456131778371 0 0.1865278143482666 0.312576188949791 0.31458070521983672 0.3125761889497819 0.14641016151452901 0.14641016151487049 0 0 0.30074819035869899 0.1692970876565193 0 0.14641016151432179 0.14641016151432179 0.312576188949791 0.31458070521983672 0.3125761889497819 0.14641016151452901 0.14641016151487049 0 0 0.14641016151432179 0.14641016151432179 0.1464101615145241 0 0.14641016151486561 0.312576188949791 0.31458070521983672 0.3125761889497819 0 0.14641016151432179 0.14641016151432179 0.16938214347656569 0 0.30011357660650623 0.1464101615145241 0 0.14641016151486561 0.312576188949791 0.31458070521983672 0.3125761889497819 0.1464101615145241 0 0.14641016151486561 0 0.14641016151432179 0.14641016151432179 0 0 0.20000000000083221 0.16938214347656569 0 0.30011357660650623 0 0.18804489794560331 0.31610726166461361 0 0 0.20000000000083221 0 0.14641016151432179 0.14641016151432179 0.16938214347656569 0 0.30011357660650623 0 0.14641016151432179 0.14641016151432179 0.14641016151452901 0.14641016151487049 0 0 0.20000000000083221 0 0 0.30074819035869899 0.1692970876565193 0 0.30074819035869899 0.1692970876565193 0.14641016151452901 0.14641016151487049 0 0 0.20000000000083221 0 0.16929708765618309 0.30074819035915368 0 0.19999999999955789 0 0 0.14641016151452901 0.14641016151487049 0 0.31578456131778371 0 0.1865278143482666 0.31610726166346748 0.18804489794572149 0 0.19999999999955789 0 0 0.14641016151452901 0.14641016151487049 0 0.1464101615145241 0 0.14641016151486561 0.31578456131778371 0 0.1865278143482666 0.31578456131778371 0 0.1865278143482666 0.3999999999989749 0 0 0.19999999999955789 0 0 0.31610726166346748 0.18804489794572149 0 0.31578456131778371 0 0.1865278143482666 0.31610726166346748 0.18804489794572149 0 0.14641016151452901 0.14641016151487049 0 0.312576188949791 0.31458070521983672 0.3125761889497819 0.31610726166346748 0.18804489794572149 0 0.312576188949791 0.31458070521983672 0.3125761889497819 0.31578456131778371 0 0.1865278143482666 0.5003997205654479 0.21136633249797621 0.2258422409314382 0.31610726166346748 0.18804489794572149 0 0.49391845158624981 0 0.1323760430705655 0.50966790549376417 0.16275515618023731 0 0.5003997205654479 0.21136633249797621 0.2258422409314382 0.31610726166346748 0.18804489794572149 0 0.50966790549376417 0.16275515618023731 0 0.45812322962036273 0.31024977578535839 0 0.5003997205654479 0.21136633249797621 0.2258422409314382 0.49391845158624981 0 0.1323760430705655 0.3999999999989749 0 0 0.31610726166346748 0.18804489794572149 0 0.50966790549376417 0.16275515618023731 0 0.49391845158624981 0 0.1323760430705655 0.3999999999989749 0 0 0.31578456131778371 0 0.1865278143482666 0.31610726166346748 0.18804489794572149 0 0.31578456131778371 0 0.1865278143482666 0.47688326899416439 0 0.31741132792405607 0.49391845158624981 0 0.1323760430705655 0.5003997205654479 0.21136633249797621 0.2258422409314382 0.31610726166346748 0.18804489794572149 0 0.31578456131778371 0 0.1865278143482666 0.49391845158624981 0 0.1323760430705655 0.5003997205654479 0.21136633249797621 0.2258422409314382 0.31030302876556398 0 0.54179813558513157 0.50073570207385831 0.24848280280289631 0.52886631355986169 0.32146143392436449 0 0.38738071487621961 0.22088738526309029 0.22111069116742441 0.50004796911802929 0.32146143392436449 0 0.38738071487621961 0.312576188949791 0.31458070521983672 0.3125761889497819 0.16938214347656569 0 0.30011357660650623 0.22088738526309029 0.22111069116742441 0.50004796911802929 0.32146143392436449 0 0.38738071487621961 0.50073570207385831 0.24848280280289631 0.52886631355986169 0.312576188949791 0.31458070521983672 0.3125761889497819 0.22088738526309029 0.22111069116742441 0.50004796911802929 0.32146143392436449 0 0.38738071487621961 0.50073570207385831 0.24848280280289631 0.52886631355986169 0.47688326899416439 0 0.31741132792405607 0.5003997205654479 0.21136633249797621 0.2258422409314382 0.32146143392436449 0 0.38738071487621961 0.312576188949791 0.31458070521983672 0.3125761889497819 0.50073570207385831 0.24848280280289631 0.52886631355986169 0.5003997205654479 0.21136633249797621 0.2258422409314382 0.32146143392436449 0 0.38738071487621961 0.31578456131778371 0 0.1865278143482666 0.16938214347656569 0 0.30011357660650623 0.312576188949791 0.31458070521983672 0.3125761889497819 0.31578456131778371 0 0.1865278143482666 0.312576188949791 0.31458070521983672 0.3125761889497819 0.32146143392436449 0 0.38738071487621961 0.5003997205654479 0.21136633249797621 0.2258422409314382 0.31578456131778371 0 0.1865278143482666 0.32146143392436449 0 0.38738071487621961 0.47688326899416439 0 0.31741132792405607 0.5003997205654479 0.21136633249797621 0.2258422409314382 0.31030302876556398 0 0.54179813558513157 0.50000000000250922 0 0.48038475773043671 0.32146143392436449 0 0.38738071487621961 0.50073570207385831 0.24848280280289631 0.52886631355986169 0.32146143392436449 0 0.38738071487621961 0.50000000000250922 0 0.48038475773043671 0.47688326899416439 0 0.31741132792405607 0.50073570207385831 0.24848280280289631 0.52886631355986169 0.16370661204827031 0 0.4886650857430957 0.31030302876556398 0 0.54179813558513157 0.32146143392436449 0 0.38738071487621961 0.22088738526309029 0.22111069116742441 0.50004796911802929 0.16370661204827031 0 0.4886650857430957 0.32146143392436449 0 0.38738071487621961 0.16938214347656569 0 0.30011357660650623 0.22088738526309029 0.22111069116742441 0.50004796911802929 0.16938214347656569 0 0.30011357660650623 0 0.14641016151432179 0.14641016151432179 0 0.18804489794560331 0.31610726166461361 0.312576188949791 0.31458070521983672 0.3125761889497819 0 0.18804489794560331 0.31610726166461361 0.16370661204827031 0 0.4886650857430957 0.16938214347656569 0 0.30011357660650623 0.22088738526309029 0.22111069116742441 0.50004796911802929 0 0.18804489794560331 0.31610726166461361 0.16938214347656569 0 0.30011357660650623 0.312576188949791 0.31458070521983672 0.3125761889497819 0.22088738526309029 0.22111069116742441 0.50004796911802929 0 0 0.40000000000166441 0 0 0.60000000000138687 0.16370661204827031 0 0.4886650857430957 0 0.16275515618034081 0.50966790549591257 0 0 0.40000000000166441 0 0.18804489794560331 0.31610726166461361 0.16370661204827031 0 0.4886650857430957 0.16938214347656569 0 0.30011357660650623 0.16370661204827031 0 0.4886650857430957 0 0.18804489794560331 0.31610726166461361 0 0 0.40000000000166441 0 0.16275515618034081 0.50966790549591257 0 0.18804489794560331 0.31610726166461361 0 0 0.40000000000166441 0 0 0.20000000000083221 0.16938214347656569 0 0.30011357660650623 0 0.18804489794560331 0.31610726166461361 0 0.16275515618034081 0.50966790549591257 0.16370661204827031 0 0.4886650857430957 0.22088738526309029 0.22111069116742441 0.50004796911802929 0 0.18804489794560331 0.31610726166461361 0 0.31024977578556651 0.45812322962166352 0 0.16275515618034081 0.50966790549591257 0.22088738526309029 0.22111069116742441 0.50004796911802929 0 0.30074819035869899 0.1692970876565193 0 0.39615100178029522 0.32925244736138171 0 0.18804489794560331 0.31610726166461361 0.312576188949791 0.31458070521983672 0.3125761889497819 0 0.31024977578556651 0.45812322962166352 0.312576188949791 0.31458070521983672 0.3125761889497819 0.24769234054476261 0.52242103280823293 0.45098450226372488 0.22088738526309029 0.22111069116742441 0.50004796911802929 0 0.18804489794560331 0.31610726166461361 0 0.39615100178029522 0.32925244736138171 0 0.31024977578556651 0.45812322962166352 0.312576188949791 0.31458070521983672 0.3125761889497819 0 0.39615100178029522 0.32925244736138171 0.24769234054476261 0.52242103280823293 0.45098450226372488 0.312576188949791 0.31458070521983672 0.3125761889497819 0.22345881830598399 0.5062398304147856 0.22345881830602041 0 0.31024977578556651 0.45812322962166352 0.312576188949791 0.31458070521983672 0.3125761889497819 0 0.39615100178029522 0.32925244736138171 0.24769234054476261 0.52242103280823293 0.45098450226372488 0 0.30074819035869899 0.1692970876565193 0 0.39615100178029522 0.32925244736138171 0.312576188949791 0.31458070521983672 0.3125761889497819 0.22345881830598399 0.5062398304147856 0.22345881830602041 0 0.18804489794560331 0.31610726166461361 0.312576188949791 0.31458070521983672 0.3125761889497819 0 0.31024977578556651 0.45812322962166352 0.22088738526309029 0.22111069116742441 0.50004796911802929 0 0.31024977578556651 0.45812322962166352 0 0.39615100178029522 0.32925244736138171 0 0.50000000000237477 0.51961524226909872 0.24769234054476261 0.52242103280823293 0.45098450226372488 0.50000000000001332 0.49999999999999561 0.49999999999999561 0.50073570207385831 0.24848280280289631 0.52886631355986169 0.312576188949791 0.314580705
[...]
<PointData Scalars="" Vectors="displacement," Tensors="">
<DataArray type="Float64" Name="displacement" NumberOfComponents="3" format="ascii">
9.8789491180239584e-06 -2.1033372388399939e-10 -1.2611971430343467e-09 5.290866347621012e-06 -1.4511039912978912e-10 -1.2146706973711674e-09 4.5756204854584968e-06 -2.1892342072719153e-10 -9.7080332900367806e-10 9.7686314128452169e-06 -9.8719039374730089e-11 -2.9304676263877372e-05 1.8943270484504898e-14 -2.3492368773987311e-10 -1.2115022401246363e-09 1.424165976748734e-14 -3.250368745568161e-10 -1.3077285920676001e-09 4.5756204854584968e-06 -2.1892342072719153e-10 -9.7080332900315776e-10 -2.9350580980801926e-14 -2.0271980283213969e-10 -1.3726824476945558e-05 1.4241659767487343e-14 -3.250368745568161e-10 -1.3077285920664892e-09 6.2503214218619117e-06 -3.5504336976671166e-10 -1.3765647294037885e-09 4.5756204854584968e-06 -2.1892342072719153e-10 -9.7080332900315776e-10 4.575618667113072e-06 -2.3769946929931969e-10 -1.3726857112178096e-05 -2.9350580980801926e-14 -2.0271980283213969e-10 -1.3726824476945558e-05 4.0485995285346471e-15 -3.0964298545501116e-10 -1.8750821782527422e-05 1.4241659767487343e-14 -3.250368745568161e-10 -1.3077285920664892e-09 4.575618667113072e-06 -2.3769946929931969e-10 -1.3726857112178096e-05 -2.9350580980801926e-14 -2.0271980283213969e-10 -1.3726824476945558e-05 -1.4801797414101093e-14 -8.7510607944831711e-11 -1.5872541037089011e-05 -1.8391377004747272e-15 -1.8957276366509627e-10 -2.9635636996504369e-05 9.768631412845222e-06 -9.8719039374730024e-11 -2.9304676263877365e-05 9.8689161044496725e-06 -3.2053021260086531e-10 -1.7487976158653344e-05 4.5756186671130712e-06 -2.3769946929931969e-10 -1.3726857112178094e-05 5.2935452106757363e-06 -3.0073961341321812e-10 -2.8136293504327884e-05 9.7686314128452169e-06 -9.8719039374730089e-11 -2.9304676263877372e-05 -2.9350580980801926e-14 -2.0271980283213969e-10 -1.3726824476945558e-05 1.4241659397201117e-14 -3.2503687455681605e-10 -1.3077285920659337e-09 4.5756204854584968e-06 -2.1892342072719153e-10 -9.7080332900315776e-10 4.575618667113072e-06 -2.3769946929931969e-10 -1.3726857112178096e-05 4.5756204854584968e-06 -2.1892342072719153e-10 -9.7080332900315776e-10 4.5756186671130712e-06 -2.3769946929931969e-10 -1.3726857112178101e-05 9.8689161044496725e-06 -3.2053021260086531e-10 -1.7487976158653344e-05 9.7686314128452169e-06 -9.8719039374730089e-11 -2.9304676263877372e-05 4.5756204854584968e-06 -2.1892342072719153e-10 -9.7080332900315776e-10 -1.4801797237356302e-14 -8.7510607944831673e-11 -1.5872541037089008e-05 -2.9350580627006854e-14 -2.0271980283213972e-10 -1.372682447694556e-05 9.7686314128452169e-06 -9.8719039374730089e-11 -2.9304676263877372e-05 4.5756204854584968e-06 -2.1892342072719153e-10 -9.7080332900315776e-10 -2.9350580938929095e-14 -2.0271980283213969e-10 -1.3726824476945556e-05 4.575618667113072e-06 -2.3769946929931969e-10 -1.3726857112178096e-05 9.7686314128452169e-06 -9.8719039374730076e-11 -2.9304676263877372e-05 -2.9350580980801926e-14 -2.0271980283213969e-10 -1.3726824476945558e-05 5.293545210675738e-06 -3.0073961341321812e-10 -2.813629350432788e-05 4.575618667113072e-06 -2.3769946929931969e-10 -1.3726857112178096e-05 9.7686314128452186e-06 -9.8719039374730101e-11 -2.9304676263877379e-05 4.575618667113072e-06 -2.3769946929931969e-10 -1.3726857112178096e-05 -2.9350580919598418e-14 -2.0271980283213969e-10 -1.3726824476945558e-05 4.048598887179968e-15 -3.0964298545501116e-10 -1.8750821782527422e-05 5.2935452106757363e-06 -3.0073961341321812e-10 -2.8136293504327884e-05 -1.8391377004747272e-15 -1.8957276366509627e-10 -2.9635636996504369e-05 4.048598887179968e-15 -3.0964298545501116e-10 -1.8750821782527422e-05 -2.9350580980801926e-14 -2.0271980283213969e-10 -1.3726824476945558e-05 5.2935452106757363e-06 -3.0073961341321812e-10 -2.8136293504327884e-05 -2.9350580980801926e-14 -2.0271980283213969e-10 -1.3726824476945558e-05 4.5756204854584968e-06 -2.1892342072719153e-10 -9.7080332900315776e-10 1.8943270484504898e-14 -2.3492368773987311e-10 -1.2115022401245472e-09 -1.4801797414101093e-14 -8.7510607944831711e-11 -1.5872541037089011e-05 -1.4801797414101093e-14 -8.7510607944831711e-11 -1.5872541037089011e-05 4.5756204854584976e-06 -2.189234207271915e-10 -9.7080332900711003e-10 1.8943270484504898e-14 -2.3492368773987311e-10 -1.2115022401246363e-09 5.290866347621012e-06 -1.4511039912978912e-10 -1.2146706973711674e-09 6.2503214218619117e-06 -3.5504336976671166e-10 -1.3765647294037885e-09 4.5756204854584959e-06 -2.1892342072719153e-10 -9.7080332900468536e-10 9.8689161044496725e-06 -3.2053021260086531e-10 -1.7487976158653344e-05 9.8789491180239584e-06 -2.1033372388399939e-10 -1.2611971430343467e-09 6.2503214218619117e-06 -3.5504336976671166e-10 -1.3765647294037885e-09 4.5756204854584976e-06 -2.1892342072719153e-10 -9.7080332900314473e-10 4.5756186671130704e-06 -2.3769946929931964e-10 -1.3726857112178097e-05 9.8689161044496725e-06 -3.2053021260086531e-10 -1.7487976158653344e-05 9.8689161044496725e-06 -3.2053021260086531e-10 -1.7487976158653344e-05 1.2500770631694509e-05 -3.2551865487249185e-10 -1.6298312782212908e-09 6.2503214218619117e-06 -3.5504336976671166e-10 -1.3765647294046465e-09 9.8789491180239584e-06 -2.1033372388399939e-10 -1.2611971430343467e-09 9.8689161044496725e-06 -3.2053021260086531e-10 -1.7487976158653344e-05 9.8789491180239584e-06 -2.1033372388399939e-10 -1.2611971430344133e-09 4.5756204854584951e-06 -2.189234207271915e-10 -9.7080332900402734e-10 9.7686314128452152e-06 -9.8719039374730063e-11 -2.9304676263877369e-05 9.8789491180239584e-06 -2.1033372388399939e-10 -1.2611971430343467e-09 9.7686314128452135e-06 -9.8719039374730076e-11 -2.9304676263877375e-05 9.8689161044496725e-06 -3.2053021260086531e-10 -1.7487976158653344e-05 1.5638472074161126e-05 -2.1739648929442879e-10 -2.1173537326265207e-05 9.8789491180239584e-06 -2.1033372388399939e-10 -1.2611971430343467e-09 1.5435874170417731e-05 -3.0158246289135902e-10 -1.2411423166219327e-05 1.5928102293019623e-05 -1.9230759909025034e-10 -1.1798406967463162e-09 1.5638472074161122e-05 -2.1739648929442876e-10 -2.117353732626521e-05 9.8789491180239584e-06 -2.1033372388399939e-10 -1.2611971430343467e-09 1.5928102293019623e-05 -1.9230759909025034e-10 -1.1798406967491967e-09 1.4317220832694687e-05 -1.1877050831415157e-10 -1.0177437396673764e-09 1.5638472074161122e-05 -2.1739648929442882e-10 -2.117353732626521e-05 1.5435874170417731e-05 -3.0158246289135907e-10 -1.2411423166219332e-05 1.2500770631694509e-05 -3.2551865487249185e-10 -1.6298312782212908e-09 9.8789491180239618e-06 -2.1033372388399946e-10 -1.2611971430282801e-09 1.5928102293019623e-05 -1.9230759909025034e-10 -1.1798406967463162e-09 1.5435874170417731e-05 -3.0158246289135907e-10 -1.2411423166219332e-05 1.2500770631694509e-05 -3.2551865487249185e-10 -1.6298312782212908e-09 9.8689161044496725e-06 -3.2053021260086531e-10 -1.7487976158653344e-05 9.8789491180239584e-06 -2.1033372388399946e-10 -1.2611971430326671e-09 9.8689161044496725e-06 -3.2053021260086531e-10 -1.7487976158653344e-05 1.4903524049732077e-05 -3.6922275844051115e-10 -2.9758047374277382e-05 1.5435874170417731e-05 -3.0158246289135907e-10 -1.2411423166219332e-05 1.5638472074161122e-05 -2.1739648929442879e-10 -2.1173537326265207e-05 9.8789491180239584e-06 -2.1033372388399939e-10 -1.2611971430343467e-09 9.8689161044496725e-06 -3.2053021260086531e-10 -1.7487976158653337e-05 1.5435874170417728e-05 -3.0158246289135902e-10 -1.2411423166219336e-05 1.5638472074161122e-05 -2.1739648929442876e-10 -2.1173537326265214e-05 9.6976195658220851e-06 -2.5740156772024874e-10 -5.079380795096179e-05 1.5649015781864177e-05 -1.6228295607618598e-10 -4.9581559587152601e-05 1.0046318757326264e-05 -2.7787189418596753e-10 -3.6317496456138621e-05 6.903188573960937e-06 -1.6079586032112983e-10 -4.6879764981981335e-05 1.0046318757326264e-05 -2.7787189418596753e-10 -3.6317496456138621e-05 9.7686314128452169e-06 -9.8719039374730089e-11 -2.9304676263877372e-05 5.2935452106757363e-06 -3.0073961341321812e-10 -2.8136293504327884e-05 6.9031885739609362e-06 -1.6079586032112986e-10 -4.6879764981981335e-05 1.0046318757326264e-05 -2.7787189418596753e-10 -3.6317496456138621e-05 1.564901578186418e-05 -1.6228295607618595e-10 -4.9581559587152594e-05 9.7686314128452186e-06 -9.8719039374730101e-11 -2.9304676263877372e-05 6.903188573960937e-06 -1.6079586032112986e-10 -4.6879764981981341e-05 1.0046318757326264e-05 -2.7787189418596753e-10 -3.6317496456138621e-05 1.5649015781864177e-05 -1.6228295607618595e-10 -4.9581559587152601e-05 1.4903524049732079e-05 -3.692227584405112e-10 -2.9758047374277382e-05 1.5638472074161122e-05 -2.1739648929442879e-10 -2.1173537326265207e-05 1.0046318757326264e-05 -2.7787189418596753e-10 -3.6317496456138621e-05 9.7686314128452186e-06 -9.8719039374730101e-11 -2.9304676263877369e-05 1.564901578186418e-05 -1.6228295607618598e-10 -4.9581559587152601e-05 1.5638472074161119e-05 -2.1739648929442874e-10 -2.117353732626521e-05 1.0046318757326264e-05 -2.7787189418596753e-10 -3.6317496456138621e-05 9.8689161044496708e-06 -3.2053021260086531e-10 -1.748797615865334e-05 5.2935452106757363e-06 -3.0073961341321812e-10 -2.8136293504327884e-05 9.7686314128452169e-06 -9.8719039374730089e-11 -2.9304676263877372e-05 9.8689161044496725e-06 -3.2053021260086531e-10 -1.7487976158653344e-05 9.7686314128452169e-06 -9.8719039374730089e-11 -2.9304676263877372e-05 1.0046318757326264e-05 -2.7787189418596753e-10 -3.6317496456138621e-05 1.5638472074161122e-05 -2.1739648929442879e-10 -2.1173537326265207e-05 9.8689161044496725e-06 -3.2053021260086531e-10 -1.7487976158653344e-05 1.0046318757326264e-05 -2.7787189418596753e-10 -3.6317496456138621e-05 1.4903524049732079e-05 -3.6922275844051126e-10 -2.9758047374277382e-05 1.5638472074161122e-05 -2.1739648929442879e-10 -2.1173537326265207e-05 9.6976195658220851e-06 -2.5740156772024874e-10 -5.079380795096179e-05 1.5625990340109727e-05 -3.1909607908090827e-10 -4.5036512895558558e-05 1.0046318757326264e-05 -2.7787189418596753e-10 -3.6317496456138621e-05 1.564901578186418e-05 -1.6228295607618603e-10 -4.9581559587152601e-05 1.0046318757326264e-05 -2.7787189418596753e-10 -3.6317496456138621e-05 1.5625990340109727e-05 -3.1909607908090827e-10 -4.5036512895558558e-05 1.4903524049732077e-05 -3.6922275844051115e-10 -2.9758047374277382e-05 1.564901578186418e-05 -1.6228295607618598e-10 -4.9581559587152601e-05 5.1161760617392409e-06 -2.9973527601313126e-10 -4.581262799123024e-05 9.6976195658220851e-06 -2.5740156772024874e-10 -5.079380795096179e-05 1.0046318757326264e-05 -2.7787189418596753e-10 -3.6317496456138621e-05 6.903188573960937e-06 -1.6079586032112986e-10 -4.6879764981981335e-05 5.1161760617392409e-06 -2.9973527601313126e-10 -4.581262799123024e-05 1.0046318757326264e-05 -2.7787189418596753e-10 -3.6317496456138621e-05 5.2935452106757363e-06 -3.0073961341321812e-10 -2.8136293504327884e-05 6.903188573960937e-06 -1.6079586032112986e-10 -4.6879764981981335e-05 5.2935452106757363e-06 -3.0073961341321812e-10 -2.8136293504327884e-05 -2.9350580980801926e-14 -2.0271980283213969e-10 -1.3726824476945558e-05 -1.839138019426318e-15 -1.895727636650963e-10 -2.9635636996504369e-05 9.7686314128452169e-06 -9.8719039374730076e-11 -2.9304676263877365e-05 -1.8391377004747272e-15 -1.8957276366509627e-10 -2.9635636996504369e-05 5.1161760617392392e-06 -2.9973527601313131e-10 -4.581262799123024e-05 5.2935452106757363e-06 -3.0073961341321812e-10 -2.8136293504327884e-05 6.9031885739609396e-06 -1.6079586032112983e-10 -4.6879764981981335e-05 -1.8391377004747272e-15 -1.8957276366509627e-10 -2.9635636996504369e-05 5.2935452106757355e-06 -3.0073961341321812e-10 -2.8136293504327884e-05 9.7686314128452169e-06 -9.8719039374730076e-11 -2.9304676263877372e-05 6.903188573960937e-06 -1.6079586032112983e-10 -4.6879764981981335e-05 2.8411134726412226e-15 -3.6096348707872233e-10 -3.750043521659016e-05 1.0013898901228728e-14 -4.0660738171072445e-10 -5.6250025531786102e-05 5.1161760617392409e-06 -2.9973527601313126e-10 -4.581262799123024e-05 -6.9730691623275109e-15 -2.3774173402760527e-10 -4.7781568686664073e-05 2.8411134726412226e-15 -3.6096348707872233e-10 -3.750043521659016e-05 -1.8391377004747272e-15 -1.8957276366509627e-10 -2.9635636996504369e-05 5.1161760617392409e-06 -2.9973527601313126e-10 -4.581262799123024e-05 5.2935452106757363e-06 -3.0073961341321812e-10 -2.8136293504327884e-05 5.1161760617392409e-06 -2.9973527601313126e-10 -4.581262799123024e-05 -1.8391372740862074e-15 -1.8957276366509627e-10 -2.9635636996504365e-05 2.8411134850988276e-15 -3.6096348707872233e-10 -3.750043521659016e-05 -6.9730691623275109e-15 -2.3774173402760527e-10 -4.7781568686664073e-05 -1.8391377004747272e-15 -1.8957276366509627e-10 -2.9635636996504369e-05 2.8411144332073678e-15 -3.6096348707872233e-10 -3.750043521659016e-05 4.048598887179968e-15 -3.0964298545501116e-10 -1.8750821782527422e-05 5.2935452106757363e-06 -3.0073961341321812e-10 -2.8136293504327884e-05 -1.8391377004747272e-15 -1.8957276366509627e-10 -2.9635636996504369e-05 -6.9730691623275109e-15 -2.3774173402760527e-10 -4.7781568686664073e-05 5.1161760617392409e-06 -2.9973527601313126e-10 -4.581262799123024e-05 6.9031885739609396e-06 -1.6079586032112981e-10 -4.6879764981981335e-05 -1.8391377004747272e-15 -1.8957276366509627e-10 -2.9635636996504369e-05 -2.631328631965041e-15 -1.0868251789077637e-10 -4.2949381530007733e-05 -6.9730689168915675e-15 -2.3774173402760527e-10 -4.7781568686664073e-05 6.9031885739609387e-06 -1.6079586032112983e-10 -4.6879764981981335e-05 -1.4801797414101093e-14 -8.7510607944831711e-11 -1.5872541037089011e-05 2.1465206120996431e-15 -4.7484203222515168e-11 -3.0868038677502576e-05 -1.8391377004747272e-15 -1.8957276366509627e-10 -2.9635636996504369e-05 9.7686314128452169e-06 -9.8719039374730089e-11 -2.9304676263877372e-05 -2.6313288024560773e-15 -1.0868251789077634e-10 -4.2949381530007733e-05 9.7686314128452152e-06 -9.8719039374730089e-11 -2.9304676263877362e-05 7.7408888467154314e-06 2.1400440649606432e-11 -4.2280181507588739e-05 6.903188573960937e-06 -1.6079586032112986e-10 -4.6879764981981335e-05 -1.8391377004747272e-15 -1.8957276366509627e-10 -2.9635636996504369e-05 2.1465209589819839e-15 -4.7484203222515168e-11 -3.0868038677502576e-05 -2.6313288241362237e-15 -1.0868251789077634e-10 -4.2949381530007733e-05 9.7686314128452169e-06 -9.8719039374730089e-11 -2.9304676263877372e-05 2.1465206120996431e-15 -4.7484203222515168e-11 -3.0868038677502576e-05 7.7408888467154331e-06 2.1400440649606426e-11 -4.2280181507588739e-05 9.7686314128452169e-06 -9.8719039374730089e-11 -2.9304676263877372e-05 6.9835545031663871e-06 1.0423397557719797e-11 -2.0950150144393386e-05 -2.6313288024560773e-15 -1.0868251789077634e-10 -4.2949381530007733e-05 9.7686314128452169e-06 -9.8719039374730127e-11 -2.9304676263877369e-05 2.1465206120996431e-15 -4.7484203222515168e-11 -3.0868038677502576e-05 7.7408888467154314e-06 2.1400440649606432e-11 -4.2280181507588739e-05 -1.4801797414101093e-14 -8.7510607944831711e-11 -1.5872541037089011e-05 2.1465206120996431e-15 -4.7484203222515168e-11 -3.0868038677502576e-05 9.7686314128452152e-06 -9.8719039374730127e-11 -2.9304676263877375e-05 6.9835545031663845e-06 1.0423397557719763e-11 -2.09501501443934e-05 -1.8391377004747272e-15 -1.8957276366509627e-10 -2.9635636996504369e-05 9.7686314128452169e-06 -9.8719039374730076e-11 -2.9304676263877372e-05 -2.6313288830245072e-15 -1.0868251789077633e-10 -4.2949381530007733e-05 6.9031885739609379e-06 -1.6079586032112988e-10 -4.6879764981981341e-05 -2.6313288024560773e-15 -1.0868251789077634e-10 -4.2949381530007733e-05 2.1465203710980537e-15 -4.7484203222515175e-11 -3.0868038677502576e-05 -6.7683441514757425e-15 4.0493707356556116e-12 -4.8714121995995779e-05 7.7408888467154314e-06 2.1400440649606432e-11 -4.2280181507588739e-05 1.562600746976112e-05 -1.794718503326462e-12 -4.6875390101611998e-05 1.564901578186418e-05 -1.6228295607618598e-10 -4.9581559587152594e-05 9.7686314128452135e-06 -9.8719039374730076e-11 -2.9304676263877365e-05 1.563859584053514e-05 -2.0842065621694226e-11 -2.3403715355258553e-05 7.7408888467154314e-06 2.1400440649606432e-11 -4.2280181507588739e-05 1.563859584053514e-05 -2.0842065621694255e-11 -2.3403715355258553e-05 9.7686314128452186e-06 -9.8719039374730063e-11 -2.9304676263877369e-05 6.9835545031663871e-06 1.0423397557719806e-11 -2.0950150144393393e-05 9.7686314128452169e-06 -9.8719039374730089e-11 -2.9304676263877372e-05 1.563859584053514e-05 -2.0842065621694223e-11 -2.3403715355258553e-05 1.564901578186418e-05 -1.6228295607618598e-10 -4.9581559587152601e-05 1.5638472074161122e-05 -2.1739648929442879e-10 -2.117353732626521e-05 1.562600746976112e-05 -1.794718503326462e-12 -4.6875390101611998e-05 7.7408888467154314e-06 2.1400440649606432e-11 -4.2280181507588739e-05 9.7686314128452186e-06 -9.8719039374730076e-11 -2.9304676263877362e-05 1.564901578186418e-05 -1.6228295607618598e-10 -4.9581559587152601e-05 9.7686314128452169e-06 -9.8719039374730089e-11 -2.9304676263877372e-05 7.7408888467154314e-06 2.1400440649606432e-11 -4.2280181507588739e-05 1.562600746976112e-05 -1.794718503326479e-12 -4.6875390101612012e-05 1.563859584053514e-05 -2.0842065621694223e-11 -2.3403715355258556e-05 9.7686314128452169e-06 -9.8719039374730089e-11 -2.9304676263877372e-05 1.564901578186418e-05 -1.6228295607618598e-10 -4.9581559587152608e-05 7.7408888467154314e-06 2.1400440649606439e-11 -4.2280181507588739e-05 6.903188573960937e-06 -1.6079586032112986e-10 -4.6879764981981335e-05 1.0289794207172254e-05 -7.5403124581760312e-11 -1.4010547198906637e-09 9.7686314128452152e-06 -9.8719039374730127e-11 -2.9304676263877372e-05 1.4317220832694687e-05 -1.1877050831415157e-10 -1.0177437396675507e-09 1.563859584053514e-05 -2.0842065621694223e-11 -2.3403715355258556e-05 1.0289794207172254e-05 -7.5403124581760312e-11 -1.4010547198906637e-09 1.563859584053514e-05 -2.0842065621694223e-11 -2.3403715355258556e-05 1.0140216880563031e-05 6.788009561706986e-11 -1.4693990174247081e-09 6.9835545031663871e-06 1.0423397557719806e-11 -2.0950150144393393e-05 1.4317220832694687e-05 -1.1877050831415157e-10 -1.0177437396673764e-09 1.563859584053514e-05 -2.0842065621694223e-11 -2.3403715355258556e-05 9.7686314128452152e-06 -9.8719039374730037e-11 -2.9304676263877372e-05 1.5638472074161126e-05 -2.1739648929442882e-10 -2.1173537326265203e-05 1.4317220832694687e-05 -1.1877050831415157e-10 -1.0177437396673764e-09 1.0289794207172254e-05 -7.5403124581760312e-11 -1.4010547198906637e-09 9.8789491180239584e-06 -2.1033372388399939e-10 -1.2611971430343467e-09 9.7686314128452169e-06 -9.8719039374730089e-11 -2.9304676263877372e-05 5.290866347621012e-06 -1.4511039912978912e-10 -1.2146706973711674e-09 9.7686314128452152e-06 -9.8719039374730089e-11 -2.9304676263877372e-05 1.0289794207172254e-05 -7.5403124581760312e-11 -1.4010547198906637e-09 6.9835545031663871e-06 1.0423397557719806e-11 -2.0950150144393393e-05 9.8789491180239584e-06 -2.1033372388399939e-10 -1.2611971430343467e-09 1.4317220832694687e-05 -1.1877050831415157e-10 -1.0177437396673764e-09 9.7686314128452152e-06 -9.8719039374730063e-11 -2.9304676263877372e-05 1.5638472074161122e-05 -2.1739648929442884e-10 -2.117353732626521e-05 1.0289794207172254e-05 -7.5403124581760312e-11 -1.4010547198906637e-09 9.7686314128452186e-06 -9.8719039374730192e-11 -2.9304676263877372e-05 1.563859584053514e-05 -2.0842065621694223e-11 -2.3403715355258556e-05 6.9835545031663888e-06 1.0423397557719845e-11 -2.0950150144393389e-05 1.0289794207172254e-05 -7.5403124581760312e-11 -1.4010547198906637e-09 5.290866347621012e-06 -1.4511039912978914e-10 -1.2146706973707952e-09 9.8789491180239584e-06 -2.1033372388399939e-10 -1.2611971430343467e-09 9.7686314128452152e-06 -9.8719039374730089e-11 -2.9304676263877379e-05 1.0140216880563031e-05 6.788009561706986e-11 -1.4693990174247081e-09 1.0289794207172254e-05 -7.5403124581760312e-11 -1.4010547198906637e-09 1.6239023559649787e-05 2.3597046534813304e-11 -1.3010143685195271e-09 1.563859584053514e-05 -2.0842065621694223e-11 -2.3403715355258556e-05 1.6239023559649787e-05 2.3597046534