<?xml version="1.0"?>
<VTKFile type="UnstructuredGrid" version="0.1" byte_order="LittleEndian">
<UnstructuredGrid>
<Piece NumberOfPoints="2876" NumberOfCells="719">
<Points>
<DataArray type="Float64" NumberOfComponents="3" format="ascii">
0.31610726166346748 0.18804489794572149 0 0.16929708765618309 0.30074819035915368 0 0.14641016151452901 0.14641016151487049 0 0.312576188949791 0.31458070521983672 0.3125761889497819 0 0.20000000000083221 0 0 0 0 0.14641016151452901 0.14641016151487049 0 0 0.14641016151432179 0.14641016151432179 0 0 0 0.19999999999955789 0 0 0.14641016151452901 0.14641016151487049 0 0.1464101615145241 0 0.14641016151486561 0 0.14641016151432179 0.14641016151432179 0 0 0.20000000000083221 0 0 0 0.1464101615145241 0 0.14641016151486561 0 0.14641016151432179 0.14641016151432179 0 0.30074819035869899 0.1692970876565193 0 0.18804489794560331 0.31610726166461361 0.312576188949791 0.31458070521983672 0.3125761889497819 0.31578456131778371 0 0.1865278143482666 0.1464101615145241 0 0.14641016151486561 0.16938214347656569 0 0.30011357660650623 0.312576188949791 0.31458070521983672 0.3125761889497819 0 0.14641016151432179 0.14641016151432179 0 0 0 0.14641016151452901 0.14641016151487049 0 0.1464101615145241 0 0.14641016151486561 0.14641016151452901 0.14641016151487049 0 0.1464101615145241 0 0.14641016151486561 0.31578456131778371 0 0.1865278143482666 0.312576188949791 0.31458070521983672 0.3125761889497819 0.14641016151452901 0.14641016151487049 0 0 0.30074819035869899 0.1692970876565193 0 0.14641016151432179 0.14641016151432179 0.312576188949791 0.31458070521983672 0.3125761889497819 0.14641016151452901 0.14641016151487049 0 0 0.14641016151432179 0.14641016151432179 0.1464101615145241 0 0.14641016151486561 0.312576188949791 0.31458070521983672 0.3125761889497819 0 0.14641016151432179 0.14641016151432179 0.16938214347656569 0 0.30011357660650623 0.1464101615145241 0 0.14641016151486561 0.312576188949791 0.31458070521983672 0.3125761889497819 0.1464101615145241 0 0.14641016151486561 0 0.14641016151432179 0.14641016151432179 0 0 0.20000000000083221 0.16938214347656569 0 0.30011357660650623 0 0.18804489794560331 0.31610726166461361 0 0 0.20000000000083221 0 0.14641016151432179 0.14641016151432179 0.16938214347656569 0 0.30011357660650623 0 0.14641016151432179 0.14641016151432179 0.14641016151452901 0.14641016151487049 0 0 0.20000000000083221 0 0 0.30074819035869899 0.1692970876565193 0 0.30074819035869899 0.1692970876565193 0.14641016151452901 0.14641016151487049 0 0 0.20000000000083221 0 0.16929708765618309 0.30074819035915368 0 0.19999999999955789 0 0 0.14641016151452901 0.14641016151487049 0 0.31578456131778371 0 0.1865278143482666 0.31610726166346748 0.18804489794572149 0 0.19999999999955789 0 0 0.14641016151452901 0.14641016151487049 0 0.1464101615145241 0 0.14641016151486561 0.31578456131778371 0 0.1865278143482666 0.31578456131778371 0 0.1865278143482666 0.3999999999989749 0 0 0.19999999999955789 0 0 0.31610726166346748 0.18804489794572149 0 0.31578456131778371 0 0.1865278143482666 0.31610726166346748 0.18804489794572149 0 0.14641016151452901 0.14641016151487049 0 0.312576188949791 0.31458070521983672 0.3125761889497819 0.31610726166346748 0.18804489794572149 0 0.312576188949791 0.31458070521983672 0.3125761889497819 0.31578456131778371 0 0.1865278143482666 0.5003997205654479 0.21136633249797621 0.2258422409314382 0.31610726166346748 0.18804489794572149 0 0.49391845158624981 0 0.1323760430705655 0.50966790549376417 0.16275515618023731 0 0.5003997205654479 0.21136633249797621 0.2258422409314382 0.31610726166346748 0.18804489794572149 0 0.50966790549376417 0.16275515618023731 0 0.45812322962036273 0.31024977578535839 0 0.5003997205654479 0.21136633249797621 0.2258422409314382 0.49391845158624981 0 0.1323760430705655 0.3999999999989749 0 0 0.31610726166346748 0.18804489794572149 0 0.50966790549376417 0.16275515618023731 0 0.49391845158624981 0 0.1323760430705655 0.3999999999989749 0 0 0.31578456131778371 0 0.1865278143482666 0.31610726166346748 0.18804489794572149 0 0.31578456131778371 0 0.1865278143482666 0.47688326899416439 0 0.31741132792405607 0.49391845158624981 0 0.1323760430705655 0.5003997205654479 0.21136633249797621 0.2258422409314382 0.31610726166346748 0.18804489794572149 0 0.31578456131778371 0 0.1865278143482666 0.49391845158624981 0 0.1323760430705655 0.5003997205654479 0.21136633249797621 0.2258422409314382 0.31030302876556398 0 0.54179813558513157 0.50073570207385831 0.24848280280289631 0.52886631355986169 0.32146143392436449 0 0.38738071487621961 0.22088738526309029 0.22111069116742441 0.50004796911802929 0.32146143392436449 0 0.38738071487621961 0.312576188949791 0.31458070521983672 0.3125761889497819 0.16938214347656569 0 0.30011357660650623 0.22088738526309029 0.22111069116742441 0.50004796911802929 0.32146143392436449 0 0.38738071487621961 0.50073570207385831 0.24848280280289631 0.52886631355986169 0.312576188949791 0.31458070521983672 0.3125761889497819 0.22088738526309029 0.22111069116742441 0.50004796911802929 0.32146143392436449 0 0.38738071487621961 0.50073570207385831 0.24848280280289631 0.52886631355986169 0.47688326899416439 0 0.31741132792405607 0.5003997205654479 0.21136633249797621 0.2258422409314382 0.32146143392436449 0 0.38738071487621961 0.312576188949791 0.31458070521983672 0.3125761889497819 0.50073570207385831 0.24848280280289631 0.52886631355986169 0.5003997205654479 0.21136633249797621 0.2258422409314382 0.32146143392436449 0 0.38738071487621961 0.31578456131778371 0 0.1865278143482666 0.16938214347656569 0 0.30011357660650623 0.312576188949791 0.31458070521983672 0.3125761889497819 0.31578456131778371 0 0.1865278143482666 0.312576188949791 0.31458070521983672 0.3125761889497819 0.32146143392436449 0 0.38738071487621961 0.5003997205654479 0.21136633249797621 0.2258422409314382 0.31578456131778371 0 0.1865278143482666 0.32146143392436449 0 0.38738071487621961 0.47688326899416439 0 0.31741132792405607 0.5003997205654479 0.21136633249797621 0.2258422409314382 0.31030302876556398 0 0.54179813558513157 0.50000000000250922 0 0.48038475773043671 0.32146143392436449 0 0.38738071487621961 0.50073570207385831 0.24848280280289631 0.52886631355986169 0.32146143392436449 0 0.38738071487621961 0.50000000000250922 0 0.48038475773043671 0.47688326899416439 0 0.31741132792405607 0.50073570207385831 0.24848280280289631 0.52886631355986169 0.16370661204827031 0 0.4886650857430957 0.31030302876556398 0 0.54179813558513157 0.32146143392436449 0 0.38738071487621961 0.22088738526309029 0.22111069116742441 0.50004796911802929 0.16370661204827031 0 0.4886650857430957 0.32146143392436449 0 0.38738071487621961 0.16938214347656569 0 0.30011357660650623 0.22088738526309029 0.22111069116742441 0.50004796911802929 0.16938214347656569 0 0.30011357660650623 0 0.14641016151432179 0.14641016151432179 0 0.18804489794560331 0.31610726166461361 0.312576188949791 0.31458070521983672 0.3125761889497819 0 0.18804489794560331 0.31610726166461361 0.16370661204827031 0 0.4886650857430957 0.16938214347656569 0 0.30011357660650623 0.22088738526309029 0.22111069116742441 0.50004796911802929 0 0.18804489794560331 0.31610726166461361 0.16938214347656569 0 0.30011357660650623 0.312576188949791 0.31458070521983672 0.3125761889497819 0.22088738526309029 0.22111069116742441 0.50004796911802929 0 0 0.40000000000166441 0 0 0.60000000000138687 0.16370661204827031 0 0.4886650857430957 0 0.16275515618034081 0.50966790549591257 0 0 0.40000000000166441 0 0.18804489794560331 0.31610726166461361 0.16370661204827031 0 0.4886650857430957 0.16938214347656569 0 0.30011357660650623 0.16370661204827031 0 0.4886650857430957 0 0.18804489794560331 0.31610726166461361 0 0 0.40000000000166441 0 0.16275515618034081 0.50966790549591257 0 0.18804489794560331 0.31610726166461361 0 0 0.40000000000166441 0 0 0.20000000000083221 0.16938214347656569 0 0.30011357660650623 0 0.18804489794560331 0.31610726166461361 0 0.16275515618034081 0.50966790549591257 0.16370661204827031 0 0.4886650857430957 0.22088738526309029 0.22111069116742441 0.50004796911802929 0 0.18804489794560331 0.31610726166461361 0 0.31024977578556651 0.45812322962166352 0 0.16275515618034081 0.50966790549591257 0.22088738526309029 0.22111069116742441 0.50004796911802929 0 0.30074819035869899 0.1692970876565193 0 0.39615100178029522 0.32925244736138171 0 0.18804489794560331 0.31610726166461361 0.312576188949791 0.31458070521983672 0.3125761889497819 0 0.31024977578556651 0.45812322962166352 0.312576188949791 0.31458070521983672 0.3125761889497819 0.24769234054476261 0.52242103280823293 0.45098450226372488 0.22088738526309029 0.22111069116742441 0.50004796911802929 0 0.18804489794560331 0.31610726166461361 0 0.39615100178029522 0.32925244736138171 0 0.31024977578556651 0.45812322962166352 0.312576188949791 0.31458070521983672 0.3125761889497819 0 0.39615100178029522 0.32925244736138171 0.24769234054476261 0.52242103280823293 0.45098450226372488 0.312576188949791 0.31458070521983672 0.3125761889497819 0.22345881830598399 0.5062398304147856 0.22345881830602041 0 0.31024977578556651 0.45812322962166352 0.312576188949791 0.31458070521983672 0.3125761889497819 0 0.39615100178029522 0.32925244736138171 0.24769234054476261 0.52242103280823293 0.45098450226372488 0 0.30074819035869899 0.1692970876565193 0 0.39615100178029522 0.32925244736138171 0.312576188949791 0.31458070521983672 0.3125761889497819 0.22345881830598399 0.5062398304147856 0.22345881830602041 0 0.18804489794560331 0.31610726166461361 0.312576188949791 0.31458070521983672 0.3125761889497819 0 0.31024977578556651 0.45812322962166352 0.22088738526309029 0.22111069116742441 0.50004796911802929 0 0.31024977578556651 0.45812322962166352 0 0.39615100178029522 0.32925244736138171 0 0.50000000000237477 0.51961524226909872 0.24769234054476261 0.52242103280823293 0.45098450226372488 0.50000000000001332 0.49999999999999561 0.49999999999999561 0.50073570207385831 0.24848280280289631 0.52886631355986169 0.312576188949791 0.314580705
[...]
<PointData Scalars="" Vectors="displacement," Tensors="">
<DataArray type="Float64" Name="displacement" NumberOfComponents="3" format="ascii">
9.8790153068455956e-06 -2.1121579162264695e-10 -1.2611946983145855e-09 5.290902011785459e-06 -1.45728144702175e-10 -1.2146670269605026e-09 4.5756521728102969e-06 -2.1911435151839325e-10 -9.7080158449060453e-10 9.7686857675651657e-06 -9.7502542195324594e-11 -2.9304582303400684e-05 2.175758168436934e-14 -2.348047805311839e-10 -1.2115001095756138e-09 1.7581730673147494e-14 -3.2503627666367538e-10 -1.3077256022108323e-09 4.5756521728102969e-06 -2.1911435151839325e-10 -9.7080158449008423e-10 -2.6486990628278409e-14 -2.0305051459275953e-10 -1.3726803259339413e-05 1.75817306731475e-14 -3.2503627666367538e-10 -1.3077256022097214e-09 6.2503629252373263e-06 -3.5504215052180338e-10 -1.3765603206326892e-09 4.5756521728102969e-06 -2.1911435151839325e-10 -9.7080158449008423e-10 4.57564769880476e-06 -2.3769838849863392e-10 -1.3726825501211122e-05 -2.6486990628278409e-14 -2.0305051459275953e-10 -1.3726803259339413e-05 7.3875366135084912e-15 -3.0964168615934707e-10 -1.8750784790611388e-05 1.75817306731475e-14 -3.2503627666367538e-10 -1.3077256022097214e-09 4.57564769880476e-06 -2.3769838849863392e-10 -1.3726825501211122e-05 -2.6486990628278409e-14 -2.0305051459275953e-10 -1.3726803259339413e-05 -1.1484260224077193e-14 -8.8034459140245527e-11 -1.5872513584478897e-05 7.6090955397311911e-16 -1.8991250927259418e-10 -2.9635583636598374e-05 9.7686857675651708e-06 -9.750254219532453e-11 -2.9304582303400678e-05 9.8689810598073188e-06 -3.2053074771416564e-10 -1.748791804655817e-05 4.5756476988047591e-06 -2.3769838849863392e-10 -1.372682550121112e-05 5.2935753922122886e-06 -3.0073934692317498e-10 -2.8136225990415071e-05 9.7686857675651657e-06 -9.7502542195324594e-11 -2.9304582303400684e-05 -2.6486990628278409e-14 -2.0305051459275953e-10 -1.3726803259339413e-05 1.7581730302859031e-14 -3.2503627666367533e-10 -1.307725602209166e-09 4.5756521728102969e-06 -2.1911435151839325e-10 -9.7080158449008423e-10 4.57564769880476e-06 -2.3769838849863392e-10 -1.3726825501211122e-05 4.5756521728102969e-06 -2.1911435151839325e-10 -9.7080158449008423e-10 4.5756476988047591e-06 -2.3769838849863392e-10 -1.3726825501211127e-05 9.8689810598073188e-06 -3.2053074771416564e-10 -1.748791804655817e-05 9.7686857675651657e-06 -9.7502542195324594e-11 -2.9304582303400684e-05 4.5756521728102969e-06 -2.1911435151839325e-10 -9.7080158449008423e-10 -1.1484260047330356e-14 -8.8034459140245488e-11 -1.5872513584478893e-05 -2.6486990274481793e-14 -2.0305051459275955e-10 -1.3726803259339415e-05 9.7686857675651657e-06 -9.7502542195324594e-11 -2.9304582303400684e-05 4.5756521728102969e-06 -2.1911435151839325e-10 -9.7080158449008423e-10 -2.6486990586405098e-14 -2.0305051459275953e-10 -1.3726803259339412e-05 4.57564769880476e-06 -2.3769838849863392e-10 -1.3726825501211122e-05 9.7686857675651657e-06 -9.7502542195324581e-11 -2.9304582303400684e-05 -2.6486990628278409e-14 -2.0305051459275953e-10 -1.3726803259339413e-05 5.2935753922122903e-06 -3.0073934692317498e-10 -2.8136225990415068e-05 4.57564769880476e-06 -2.3769838849863392e-10 -1.3726825501211122e-05 9.7686857675651674e-06 -9.7502542195324607e-11 -2.9304582303400691e-05 4.57564769880476e-06 -2.3769838849863392e-10 -1.3726825501211122e-05 -2.6486990567074582e-14 -2.0305051459275953e-10 -1.3726803259339413e-05 7.3875359721497431e-15 -3.0964168615934707e-10 -1.8750784790611388e-05 5.2935753922122886e-06 -3.0073934692317498e-10 -2.8136225990415071e-05 7.6090955397311911e-16 -1.8991250927259418e-10 -2.9635583636598374e-05 7.3875359721497431e-15 -3.0964168615934707e-10 -1.8750784790611388e-05 -2.6486990628278409e-14 -2.0305051459275953e-10 -1.3726803259339413e-05 5.2935753922122886e-06 -3.0073934692317498e-10 -2.8136225990415071e-05 -2.6486990628278409e-14 -2.0305051459275953e-10 -1.3726803259339413e-05 4.5756521728102969e-06 -2.1911435151839325e-10 -9.7080158449008423e-10 2.175758168436934e-14 -2.348047805311839e-10 -1.2115001095755247e-09 -1.1484260224077193e-14 -8.8034459140245527e-11 -1.5872513584478897e-05 -1.1484260224077193e-14 -8.8034459140245527e-11 -1.5872513584478897e-05 4.5756521728102978e-06 -2.1911435151839323e-10 -9.708015844940365e-10 2.175758168436934e-14 -2.348047805311839e-10 -1.2115001095756138e-09 5.290902011785459e-06 -1.45728144702175e-10 -1.2146670269605026e-09 6.2503629252373263e-06 -3.5504215052180338e-10 -1.3765603206326892e-09 4.5756521728102961e-06 -2.1911435151839325e-10 -9.7080158449161182e-10 9.8689810598073188e-06 -3.2053074771416564e-10 -1.748791804655817e-05 9.8790153068455956e-06 -2.1121579162264695e-10 -1.2611946983145855e-09 6.2503629252373263e-06 -3.5504215052180338e-10 -1.3765603206326892e-09 4.5756521728102978e-06 -2.1911435151839325e-10 -9.708015844900712e-10 4.5756476988047583e-06 -2.3769838849863387e-10 -1.3726825501211123e-05 9.8689810598073188e-06 -3.2053074771416564e-10 -1.748791804655817e-05 9.8689810598073188e-06 -3.2053074771416564e-10 -1.748791804655817e-05 1.2500863388171044e-05 -3.255182453016061e-10 -1.6298252423454543e-09 6.2503629252373263e-06 -3.5504215052180338e-10 -1.3765603206335472e-09 9.8790153068455956e-06 -2.1121579162264695e-10 -1.2611946983145855e-09 9.8689810598073188e-06 -3.2053074771416564e-10 -1.748791804655817e-05 9.8790153068455956e-06 -2.1121579162264695e-10 -1.2611946983146521e-09 4.5756521728102952e-06 -2.1911435151839323e-10 -9.708015844909538e-10 9.768685767565164e-06 -9.7502542195324568e-11 -2.9304582303400681e-05 9.8790153068455956e-06 -2.1121579162264695e-10 -1.2611946983145855e-09 9.7686857675651623e-06 -9.7502542195324581e-11 -2.9304582303400688e-05 9.8689810598073188e-06 -3.2053074771416564e-10 -1.748791804655817e-05 1.5638583340235327e-05 -2.1791482584440446e-10 -2.1173425769283046e-05 9.8790153068455956e-06 -2.1121579162264695e-10 -1.2611946983145855e-09 1.5436000795116352e-05 -3.0158469890278158e-10 -1.2411359611427613e-05 1.5928231637793098e-05 -1.9340447038210617e-10 -1.1798393184987478e-09 1.5638583340235323e-05 -2.1791482584440444e-10 -2.1173425769283049e-05 9.8790153068455956e-06 -2.1121579162264695e-10 -1.2611946983145855e-09 1.5928231637793098e-05 -1.9340447038210617e-10 -1.1798393185016283e-09 1.4317331061876068e-05 -1.2010786202920817e-10 -1.0177394755194075e-09 1.5638583340235323e-05 -2.1791482584440449e-10 -2.1173425769283049e-05 1.5436000795116352e-05 -3.0158469890278163e-10 -1.2411359611427618e-05 1.2500863388171044e-05 -3.255182453016061e-10 -1.6298252423454543e-09 9.8790153068455989e-06 -2.1121579162264702e-10 -1.261194698308519e-09 1.5928231637793098e-05 -1.9340447038210617e-10 -1.1798393184987478e-09 1.5436000795116352e-05 -3.0158469890278163e-10 -1.2411359611427618e-05 1.2500863388171044e-05 -3.255182453016061e-10 -1.6298252423454543e-09 9.8689810598073188e-06 -3.2053074771416564e-10 -1.748791804655817e-05 9.8790153068455956e-06 -2.1121579162264702e-10 -1.2611946983129059e-09 9.8689810598073188e-06 -3.2053074771416564e-10 -1.748791804655817e-05 1.4903632373037122e-05 -3.6922521303966338e-10 -2.9757897784731912e-05 1.5436000795116352e-05 -3.0158469890278163e-10 -1.2411359611427618e-05 1.5638583340235323e-05 -2.1791482584440446e-10 -2.1173425769283046e-05 9.8790153068455956e-06 -2.1121579162264695e-10 -1.2611946983145855e-09 9.8689810598073188e-06 -3.2053074771416564e-10 -1.7487918046558164e-05 1.5436000795116349e-05 -3.0158469890278158e-10 -1.2411359611427622e-05 1.5638583340235323e-05 -2.1791482584440444e-10 -2.1173425769283052e-05 9.6976500870371113e-06 -2.574028863898347e-10 -5.0793645101403733e-05 1.5649089646065347e-05 -1.6208601468792426e-10 -4.9581301137518186e-05 1.0046373245164156e-05 -2.7787113618700607e-10 -3.6317373226972919e-05 6.903211434479629e-06 -1.5970690888193442e-10 -4.6879646701734525e-05 1.0046373245164156e-05 -2.7787113618700607e-10 -3.6317373226972919e-05 9.7686857675651657e-06 -9.7502542195324594e-11 -2.9304582303400684e-05 5.2935753922122886e-06 -3.0073934692317498e-10 -2.8136225990415071e-05 6.9032114344796282e-06 -1.5970690888193445e-10 -4.6879646701734525e-05 1.0046373245164156e-05 -2.7787113618700607e-10 -3.6317373226972919e-05 1.564908964606535e-05 -1.6208601468792423e-10 -4.9581301137518179e-05 9.7686857675651674e-06 -9.7502542195324607e-11 -2.9304582303400684e-05 6.903211434479629e-06 -1.5970690888193445e-10 -4.6879646701734532e-05 1.0046373245164156e-05 -2.7787113618700607e-10 -3.6317373226972919e-05 1.5649089646065347e-05 -1.6208601468792423e-10 -4.9581301137518186e-05 1.4903632373037123e-05 -3.6922521303966344e-10 -2.9757897784731912e-05 1.5638583340235323e-05 -2.1791482584440446e-10 -2.1173425769283046e-05 1.0046373245164156e-05 -2.7787113618700607e-10 -3.6317373226972919e-05 9.7686857675651674e-06 -9.7502542195324607e-11 -2.9304582303400681e-05 1.564908964606535e-05 -1.6208601468792426e-10 -4.9581301137518186e-05 1.563858334023532e-05 -2.1791482584440441e-10 -2.1173425769283049e-05 1.0046373245164156e-05 -2.7787113618700607e-10 -3.6317373226972919e-05 9.8689810598073171e-06 -3.2053074771416564e-10 -1.7487918046558167e-05 5.2935753922122886e-06 -3.0073934692317498e-10 -2.8136225990415071e-05 9.7686857675651657e-06 -9.7502542195324594e-11 -2.9304582303400684e-05 9.8689810598073188e-06 -3.2053074771416564e-10 -1.748791804655817e-05 9.7686857675651657e-06 -9.7502542195324594e-11 -2.9304582303400684e-05 1.0046373245164156e-05 -2.7787113618700607e-10 -3.6317373226972919e-05 1.5638583340235323e-05 -2.1791482584440446e-10 -2.1173425769283046e-05 9.8689810598073188e-06 -3.2053074771416564e-10 -1.748791804655817e-05 1.0046373245164156e-05 -2.7787113618700607e-10 -3.6317373226972919e-05 1.4903632373037123e-05 -3.6922521303966349e-10 -2.9757897784731912e-05 1.5638583340235323e-05 -2.1791482584440446e-10 -2.1173425769283046e-05 9.6976500870371113e-06 -2.574028863898347e-10 -5.0793645101403733e-05 1.5626086726334145e-05 -3.190981810924936e-10 -4.5036277833226017e-05 1.0046373245164156e-05 -2.7787113618700607e-10 -3.6317373226972919e-05 1.564908964606535e-05 -1.6208601468792431e-10 -4.9581301137518186e-05 1.0046373245164156e-05 -2.7787113618700607e-10 -3.6317373226972919e-05 1.5626086726334145e-05 -3.190981810924936e-10 -4.5036277833226017e-05 1.4903632373037122e-05 -3.6922521303966338e-10 -2.9757897784731912e-05 1.564908964606535e-05 -1.6208601468792426e-10 -4.9581301137518186e-05 5.1161944893469846e-06 -2.9973474356933064e-10 -4.5812526550916822e-05 9.6976500870371113e-06 -2.574028863898347e-10 -5.0793645101403733e-05 1.0046373245164156e-05 -2.7787113618700607e-10 -3.6317373226972919e-05 6.903211434479629e-06 -1.5970690888193445e-10 -4.6879646701734525e-05 5.1161944893469846e-06 -2.9973474356933064e-10 -4.5812526550916822e-05 1.0046373245164156e-05 -2.7787113618700607e-10 -3.6317373226972919e-05 5.2935753922122886e-06 -3.0073934692317498e-10 -2.8136225990415071e-05 6.903211434479629e-06 -1.5970690888193445e-10 -4.6879646701734525e-05 5.2935753922122886e-06 -3.0073934692317498e-10 -2.8136225990415071e-05 -2.6486990628278409e-14 -2.0305051459275953e-10 -1.3726803259339413e-05 7.6090923501980535e-16 -1.8991250927259421e-10 -2.9635583636598374e-05 9.7686857675651657e-06 -9.7502542195324581e-11 -2.9304582303400678e-05 7.6090955397311911e-16 -1.8991250927259418e-10 -2.9635583636598374e-05 5.1161944893469829e-06 -2.997347435693307e-10 -4.5812526550916822e-05 5.2935753922122886e-06 -3.0073934692317498e-10 -2.8136225990415071e-05 6.9032114344796316e-06 -1.5970690888193442e-10 -4.6879646701734525e-05 7.6090955397311911e-16 -1.8991250927259418e-10 -2.9635583636598374e-05 5.2935753922122877e-06 -3.0073934692317498e-10 -2.8136225990415071e-05 9.7686857675651657e-06 -9.7502542195324581e-11 -2.9304582303400684e-05 6.903211434479629e-06 -1.5970690888193442e-10 -4.6879646701734525e-05 5.3766553338700287e-15 -3.6096263345980584e-10 -3.7500362982104616e-05 9.2584711406968235e-15 -4.0660780248845761e-10 -5.6249925222190525e-05 5.1161944893469846e-06 -2.9973474356933064e-10 -4.5812526550916822e-05 -4.7228214892874616e-15 -2.3703577694362555e-10 -4.7781485106608328e-05 5.3766553338700287e-15 -3.6096263345980584e-10 -3.7500362982104616e-05 7.6090955397311911e-16 -1.8991250927259418e-10 -2.9635583636598374e-05 5.1161944893469846e-06 -2.9973474356933064e-10 -4.5812526550916822e-05 5.2935753922122886e-06 -3.0073934692317498e-10 -2.8136225990415071e-05 5.1161944893469846e-06 -2.9973474356933064e-10 -4.5812526550916822e-05 7.6090998036317418e-16 -1.8991250927259418e-10 -2.963558363659837e-05 5.3766553463276783e-15 -3.6096263345980584e-10 -3.7500362982104616e-05 -4.7228214892874616e-15 -2.3703577694362555e-10 -4.7781485106608328e-05 7.6090955397311911e-16 -1.8991250927259418e-10 -2.9635583636598374e-05 5.3766562944416505e-15 -3.6096263345980584e-10 -3.7500362982104616e-05 7.3875359721497431e-15 -3.0964168615934707e-10 -1.8750784790611388e-05 5.2935753922122886e-06 -3.0073934692317498e-10 -2.8136225990415071e-05 7.6090955397311911e-16 -1.8991250927259418e-10 -2.9635583636598374e-05 -4.7228214892874616e-15 -2.3703577694362555e-10 -4.7781485106608328e-05 5.1161944893469846e-06 -2.9973474356933064e-10 -4.5812526550916822e-05 6.9032114344796316e-06 -1.5970690888193439e-10 -4.6879646701734525e-05 7.6090955397311911e-16 -1.8991250927259418e-10 -2.9635583636598374e-05 -2.3397871029333898e-15 -1.085275306771324e-10 -4.2949306458741608e-05 -4.7228212438507057e-15 -2.3703577694362555e-10 -4.7781485106608328e-05 6.9032114344796307e-06 -1.5970690888193442e-10 -4.6879646701734525e-05 -1.1484260224077193e-14 -8.8034459140245527e-11 -1.5872513584478897e-05 4.844219696014276e-15 -4.6841058309638208e-11 -3.086798455481524e-05 7.6090955397311911e-16 -1.8991250927259418e-10 -2.9635583636598374e-05 9.7686857675651657e-06 -9.7502542195324594e-11 -2.9304582303400684e-05 -2.3397872734249913e-15 -1.0852753067713237e-10 -4.2949306458741608e-05 9.768685767565164e-06 -9.7502542195324594e-11 -2.9304582303400674e-05 7.7409206933156903e-06 2.1289200158487449e-11 -4.2280066784070145e-05 6.903211434479629e-06 -1.5970690888193445e-10 -4.6879646701734525e-05 7.6090955397311911e-16 -1.8991250927259418e-10 -2.9635583636598374e-05 4.8442200428985468e-15 -4.6841058309638208e-11 -3.086798455481524e-05 -2.3397872951052583e-15 -1.0852753067713237e-10 -4.2949306458741608e-05 9.7686857675651657e-06 -9.7502542195324594e-11 -2.9304582303400684e-05 4.844219696014276e-15 -4.6841058309638208e-11 -3.086798455481524e-05 7.740920693315692e-06 2.1289200158487442e-11 -4.2280066784070145e-05 9.7686857675651657e-06 -9.7502542195324594e-11 -2.9304582303400684e-05 6.9835954304979784e-06 1.0760774716519911e-11 -2.0950094955929968e-05 -2.3397872734249913e-15 -1.0852753067713237e-10 -4.2949306458741608e-05 9.7686857675651657e-06 -9.7502542195324633e-11 -2.9304582303400681e-05 4.844219696014276e-15 -4.6841058309638208e-11 -3.086798455481524e-05 7.7409206933156903e-06 2.1289200158487449e-11 -4.2280066784070145e-05 -1.1484260224077193e-14 -8.8034459140245527e-11 -1.5872513584478897e-05 4.844219696014276e-15 -4.6841058309638208e-11 -3.086798455481524e-05 9.768685767565164e-06 -9.7502542195324633e-11 -2.9304582303400688e-05 6.9835954304979758e-06 1.0760774716519878e-11 -2.0950094955929981e-05 7.6090955397311911e-16 -1.8991250927259418e-10 -2.9635583636598374e-05 9.7686857675651657e-06 -9.7502542195324581e-11 -2.9304582303400684e-05 -2.3397873539916738e-15 -1.0852753067713236e-10 -4.2949306458741608e-05 6.9032114344796299e-06 -1.5970690888193447e-10 -4.6879646701734532e-05 -2.3397872734249913e-15 -1.0852753067713237e-10 -4.2949306458741608e-05 4.8442194550116954e-15 -4.6841058309638215e-11 -3.086798455481524e-05 -2.6761829786800163e-15 3.1931889263408313e-12 -4.8714047978490953e-05 7.7409206933156903e-06 2.1289200158487449e-11 -4.2280066784070145e-05 1.5626091574759127e-05 -1.8183402471537628e-12 -4.6875145498662381e-05 1.564908964606535e-05 -1.6208601468792426e-10 -4.9581301137518179e-05 9.7686857675651623e-06 -9.7502542195324581e-11 -2.9304582303400678e-05 1.563871014645135e-05 -2.0632452651716374e-11 -2.340359493142364e-05 7.7409206933156903e-06 2.1289200158487449e-11 -4.2280066784070145e-05 1.563871014645135e-05 -2.0632452651716403e-11 -2.340359493142364e-05 9.7686857675651674e-06 -9.7502542195324568e-11 -2.9304582303400681e-05 6.9835954304979784e-06 1.0760774716519921e-11 -2.0950094955929974e-05 9.7686857675651657e-06 -9.7502542195324594e-11 -2.9304582303400684e-05 1.563871014645135e-05 -2.063245265171637e-11 -2.340359493142364e-05 1.564908964606535e-05 -1.6208601468792426e-10 -4.9581301137518186e-05 1.5638583340235323e-05 -2.1791482584440446e-10 -2.1173425769283049e-05 1.5626091574759127e-05 -1.8183402471537628e-12 -4.6875145498662381e-05 7.7409206933156903e-06 2.1289200158487449e-11 -4.2280066784070145e-05 9.7686857675651674e-06 -9.7502542195324581e-11 -2.9304582303400674e-05 1.564908964606535e-05 -1.6208601468792426e-10 -4.9581301137518186e-05 9.7686857675651657e-06 -9.7502542195324594e-11 -2.9304582303400684e-05 7.7409206933156903e-06 2.1289200158487449e-11 -4.2280066784070145e-05 1.5626091574759127e-05 -1.8183402471537798e-12 -4.6875145498662395e-05 1.563871014645135e-05 -2.063245265171637e-11 -2.3403594931423644e-05 9.7686857675651657e-06 -9.7502542195324594e-11 -2.9304582303400684e-05 1.564908964606535e-05 -1.6208601468792426e-10 -4.9581301137518193e-05 7.7409206933156903e-06 2.1289200158487455e-11 -4.2280066784070145e-05 6.903211434479629e-06 -1.5970690888193445e-10 -4.6879646701734525e-05 1.0289865374598556e-05 -7.4491595558042837e-11 -1.4010515441995876e-09 9.768685767565164e-06 -9.7502542195324633e-11 -2.9304582303400684e-05 1.4317331061876068e-05 -1.2010786202920817e-10 -1.0177394755195818e-09 1.563871014645135e-05 -2.063245265171637e-11 -2.3403594931423644e-05 1.0289865374598556e-05 -7.4491595558042837e-11 -1.4010515441995876e-09 1.563871014645135e-05 -2.063245265171637e-11 -2.3403594931423644e-05 1.0140287401504952e-05 6.8385820260986792e-11 -1.469395778697431e-09 6.9835954304979784e-06 1.0760774716519921e-11 -2.0950094955929974e-05 1.4317331061876068e-05 -1.2010786202920817e-10 -1.0177394755194075e-09 1.563871014645135e-05 -2.063245265171637e-11 -2.3403594931423644e-05 9.768685767565164e-06 -9.7502542195324542e-11 -2.9304582303400684e-05 1.5638583340235327e-05 -2.1791482584440449e-10 -2.1173425769283042e-05 1.4317331061876068e-05 -1.2010786202920817e-10 -1.0177394755194075e-09 1.0289865374598556e-05 -7.4491595558042837e-11 -1.4010515441995876e-09 9.8790153068455956e-06 -2.1121579162264695e-10 -1.2611946983145855e-09 9.7686857675651657e-06 -9.7502542195324594e-11 -2.9304582303400684e-05 5.290902011785459e-06 -1.45728144702175e-10 -1.2146670269605026e-09 9.768685767565164e-06 -9.7502542195324594e-11 -2.9304582303400684e-05 1.0289865374598556e-05 -7.4491595558042837e-11 -1.4010515441995876e-09 6.9835954304979784e-06 1.0760774716519921e-11 -2.0950094955929974e-05 9.8790153068455956e-06 -2.1121579162264695e-10 -1.2611946983145855e-09 1.4317331061876068e-05 -1.2010786202920817e-10 -1.0177394755194075e-09 9.768685767565164e-06 -9.7502542195324568e-11 -2.9304582303400684e-05 1.5638583340235323e-05 -2.1791482584440452e-10 -2.1173425769283049e-05 1.0289865374598556e-05 -7.4491595558042837e-11 -1.4010515441995876e-09 9.7686857675651674e-06 -9.7502542195324698e-11 -2.9304582303400684e-05 1.563871014645135e-05 -2.063245265171637e-11 -2.3403594931423644e-05 6.9835954304979801e-06 1.076077471651996e-11 -2.0950094955929971e-05 1.0289865374598556e-05 -7.4491595558042837e-11 -1.4010515441995876e-09 5.290902011785459e-06 -1.4572814470217502e-10 -1.2146670269601304e-09 9.8790153068455956e-06 -2.1121579162264695e-10 -1.2611946983145855e-09 9.768685767565164e-06 -9.7502542195324594e-11 -2.9304582303400691e-05 1.0140287401504952e-05 6.8385820260986792e-11 -1.469395778697431e-09 1.0289865374598556e-05 -7.4491595558042837e-11 -1.4010515441995876e-09 1.6239155153754883e-05 2.3903561875270402e-11 -1.3010116391736113e-09 1.563871014645135e-05 -2.063245265171637e-11 -2.3403594931423644e-05 1.6239155153754883e-05 2.3903561875270402e-11 -1.3010116391736113e-09 1.0289865374598