<?xml version="1.0"?>
<VTKFile type="UnstructuredGrid" version="0.1" byte_order="LittleEndian">
<UnstructuredGrid>
<Piece NumberOfPoints="396" NumberOfCells="716">
<Points>
<DataArray type="Float64" NumberOfComponents="3" format="ascii">
0 3.1632653061224492 0 0.1119513441196147 3.179677507126152 0 0 3.2653061224489801 0 0 3.3673469387755102 0 0.069451599829770949 3.3922818313504299 0 0.091267192130190647 3.3030534847155049 0 0.1687065900217318 3.367508350580696 0 0.25849086477489402 3.4162963251678051 0 0.29905833529779569 3.321331864173946 0 0.29951848318466712 3.1975795936572382 0 0.1974936188100265 3.2462001580112649 0 0.097077589692612612 3.7255224746846469 0 0 3.6734693877551021 0 0.11555231524657231 3.5970606301109092 0 0 3.5714285714285721 0 0 3.4693877551020411 0 0.093898834674157702 3.4718656420816871 0 0.19088034847260249 3.480692274817561 0 0.28610206094182278 3.4989282251002791 0 0.237071236615437 3.587410332529188 0 0.27416429328756398 3.6692551491799521 0 0.19398553286314771 3.6850613153804082 0 0.42252155128195029 3.7159956933435212 0 0.33518256870019719 3.705609020721448 0 0.35406263555393591 3.6117291412289232 0 0.43166725207891921 3.5433792180458412 0 0.36510611791046338 3.499244798601397 0 0.43322010181219489 3.452038539774545 0 0.62262874963171744 3.4547196061584549 0 0.539923670668636 3.5428754028075282 0 0.47271258649760889 3.637577798531991 0 0.56649974067528852 3.6547878365136151 0 0.52950790336942155 3.7294097432047808 0 0.41375468593906722 3.244024535300138 0 0.34075766255237933 3.4211497176254699 0 0.41468644180180392 3.3565643688750129 0 0.50143189778035635 3.312787139652789 0 0.51448644989580883 3.4103478247946719 0 0.59499060762666767 3.2441812081818791 0 0.51172481330155739 3.234688217089341 0 0.57684587915652596 3.155409382391194 0 0.67067192868346204 3.1570019988387128 0 0.76267254644685212 3.1729991379337452 0 0.70287366316625632 3.2574638213175269 0 0.63313284952640536 3.3496491670386752 0 0.71475488819429567 3.4221038943483371 0 0.73470352734118938 3.340356993514312 0 0.81934223244597693 3.3822839672868619 0 0.92107208570212862 3.3757607125894169 0 0.88579149221809461 3.3099576261986319 0 0.90940715013876383 3.2268941128680608 0 0.83765433205950968 3.1608985013308208 0 0.80712132395410197 3.2634422832831591 0 0.72283544086306117 3.6915176315998171 0 0.62554356437687264 3.7229857266510731 0 0.63788658166006995 3.6170059498848901 0 0.73997849291681772 3.5798860354163189 0 0.64136072240870445 3.5312020164852429 0 0.70419027385034683 3.4975531022555488 0 0.78509125505663901 3.4903426458109368 0 0.89952264644139623 3.4727147916555769 0 0.85327424664170204 3.5704162707474238 0 0.818307864017085 3.6535427210176681 0 0.92602221937973339 3.6595535179469598 0 0.87066380460773352 3.7208717206395421 0 1.0206105889181489 3.7146227736301212 0 1.0097772338963089 3.6119166489954 0 1.0624994976016979 3.5671178200174962 0 0.94194503999589418 3.565297482763524 0 0.99989411492761215 3.5118755673658151 0 1.102570382920445 3.4737138433196049 0 1.21648376469023 3.4915067780971412 0 1.1530050919725039 3.5735007097460021 0 1.0998459844020401 3.6579006243515639 0 1.1848835549149781 3.666910143689492 0 1.2221172012643959 3.7383070476434241 0 1.000246859467449 3.2994731618267599 0 1.000457197937727 3.414374015979257 0 1.0798744190381651 3.3760916609568672 0 1.1814108920693629 3.3827238402127429 0 0.63578111498855316 3.0575456048284781 0 0.76110629086622017 3.0637581738536359 0 0.52631578947580238 5 0 0.56004336394215448 4.9008043762421432 0 0.62258456792221062 4.8210831911082179 0 0.60001108884468679 4.7136084895150221 0 0.50237181196839853 4.7870066712282764 0 0.39870685472337469 4.7079979446396472 0 0.38537115365944402 4.8146072784709766 0 0.35352548286509311 4.9082258790697493 0 0.46321461295915523 4.8986035624074988 0 0.42105263158070022 5 0 0.31578947368552512 5 0 0.25406404438006508 4.911900314185992 0 0.21052631579035011 5 0 0.1052631578951753 5 0 0.089434352729611463 4.8541394186729043 0 0.15615197363863861 4.9175262543138922 0 0 4.8979591836734686 0 0 5 0 0.066100999494046991 4.9328989885951344 0 0 4.6938775510204076 0 0 4.795918367346939 0 0.091269211082649113 4.747437874729231 0 0.17765467541800301 4.7003598575823036 0 0.1907791617427817 4.8132049743438197 0 0.29379174733444391 4.8369530855277842 0 0.28521889402483541 4.7368269815683828 0 0.24989441950127561 4.6417706065295237 0 0.2380413011998202 4.532042075557178 0 0.30254901058606681 4.5797071275245731 0 0.16913530315923769 4.6302975963766446 0 0.089426283532055062 4.6200933061126142 0 0 4.591836734693878 0 0.062726669771182089 4.5331077434417981 0 0 4.3877551020408161 0 0 4.4897959183673466 0 0.1385973799677695 4.5264005133866823 0 0.084224786505346483 4.4495977674843283 0 0.18493380651727309 4.4282838945985743 0 0.29418398224385389 4.4103582472594853 0 0.39883248360389778 4.4001896994342191 0 0.41468726603845779 4.4856095988240554 0 0.33276423934658889 4.4892578357507418 0 0.3231513258996106 4.6576091144034786 0 0.39648885539895629 4.5842310689158063 0 0.49244733949332481 4.5400809619419604 0 0.50256324591769697 4.648328200982216 0 0.61350949401376886 4.6201681514066548 0 0.55553636104171911 4.5803598503856708 0 0.60498688123605671 4.5071943369183103 0 0.50413559316466772 4.4409373310901321 0 0.4934995245078479 4.3496771208119807 0 0.60909770224905657 4.3672323029525781 0 0.54997174451893682 4.2642056998316784 0 0.59987908171345183 4.0707759247695909 0 0.51723754913105235 4.167190854117174 0 0.38758561716316942 4.1524759456439932 0 0.32457054638266508 4.256533450618849 0 0.42753373683625467 4.2780092508612091 0 0.33840005598227763 4.3357094897785018 0 0.24687953084471631 4.3334568007187482 0 0.2103189032648087 4.2455914788801596 0 0.11909086277585421 4.3322434330707527 0 0.1043626921133345 4.2234497837706302 0 0 4.2857142857142856 0 0 4.0816326530612246 0 0 4.1836734693877551 0 0.078819042028610925 4.1381648622834 0 0.18874092913852211 4.1447802154886242 0 0.28422805214720698 4.1801549422224848 0 0.29110355078639583 4.0893279075322004 0 0.28916884689444472 3.9731858790166901 0 0.19417315073202671 4.0187699756460047 0 0.100991588891198 4.0572881897087667 0 0.093309475611813894 3.94352564728745 0 0 3.9795918367346941 0 0 3.7755102040816331 0 0 3.877551020408164 0 0.093226224667735558 3.833153547473815 0 0.17970146537822021 3.7888797633060172 0 0.19331615291571819 3.90395776297578 0 0.28163907332892341 3.8598523390225519 0 0.26325299387970608 3.7502514197294481 0 0.35618439182763312 3.7988771440165041 0 0.37576732487086301 3.9057150660644391 0 0.38591552343949048 4.0227424647060914 0 0.45960000316570487 3.954546188757468 0 0.49148275201041969 4.0540779386646122 0 0.568570775423615 3.9489808399771529 0 0.60090848490381854 3.8278519027043041 0 0.47626364008413602 3.8412146343750448 0 0.78017618964004853 3.8660393750607431 0 0.70066845506866249 3.7940095339582349 0 0.67370179119004747 3.906242496113256 0 0.66983000638029955 3.998828235190552 0 0.7713814365663455 3.9799406171258851 0 0.85359347507399996 3.922099843684284 0 0.92398033647175404 4.037864376140889 0 0.85976350145364111 3.9961685727652978 0 0.79642728249646444 3.7578621513496309 0 0.88591194078219648 3.8211919258217861 0 0.94966930183086506 3.75317304301513 0 1.0083989227898089 3.8224453009640138 0 1.0718186155401539 3.8834030248445681 0 1.129949871210139 3.782747506507655 0 1.1682082756705059 3.908307632622376 0 1.1690089024539381 3.99408454241307 0 1.113348555497869 4.0544334607516443 0 1.0207819625904899 4.0368006209321097 0 1.0867518746429761 3.97209583513752 0 0.96396963951845394 3.9391874062977021 0 0.95433632379220767 4.1261187235452192 0 1.0388249272401611 4.1932155297833784 0 1.056072587232437 4.1082005871328251 0 1.1332703206457531 4.1397662419935086 0 1.233398180086557 4.1757217700010809 0 1.202392725381108 4.0646774055203663 0 1.2205418229324541 4.3666202474178943 0 1.2249076725582391 4.2696181309819554 0 1.1385065000240639 4.2626032373277889 0 1.0215092046351479 4.3064579649564658 0 0.91368994305845774 4.3665288514162084 0 0.85052574547699711 4.304742794075727 0 0.81613242993595558 4.3697605828341963 0 0.92497606074830185 4.2406861373207514 0 0.88109338157177741 4.1692829965974187 0 0.83229085731986052 4.0947778731687619 0 0.8127702844267396 4.2155492523549416 0 0.74190098804469584 4.1546368311897997 0 0.70948718549899947 4.0798132725311627 0 0.64266622183632516 4.1757644081368896 0 0.64202060229187208 4.2605433130411487 0 0.73863654701328729 4.3106439796296092 0 0.71203664014622858 4.2247969360419608 0 0.7304330230107281 4.4374243393451849 0 0.68571993364357398 4.6631749758443828 0 0.72329721074743314 4.5643444707998846 0 0.84881869299713764 4.5544616561959552 0 0.79540564481231091 4.6677182161379784 0 0.88271545152832132 4.6325193865161696 0 0.78821016565676771 4.5059063214709196 0 0.83936738747189288 4.4532462496560328 0 1.0140583228915621 4.4099747411544801 0 0.94575400551206334 4.4799906641257206 0 1.052086496550295 4.5079338897753169 0 1.10203304033479 4.3887740568589759 0 1.1729860791069111 4.4909184405248874 0 1.24044967120748 4.6009065999089067 0 1.1205456799725571 4.5978508418025479 0 1.043103983284156 4.686823006215624 0 1.04473705470818 4.5964488044178538 0 0.96321205902571339 4.5931874798779262 0 0.98728007281940555 4.8105423685478303 0 1.164962332976885 4.7086890730810582 0 1.0962860399079419 4.7879400822645097 0 1.2177211740345479 4.7957991112555076 0 1.2465732377950569 4.8957447327042249 0 1.15765999556577 4.8734373654996901 0 1.1578947368442241 5 0 1.052631578949925 5 0 1.0698247892470789 4.8877029012742046 0 0.99397148622526288 4.917888058805751 0 0.94736842105533414 5 0 0.84210526316045109 5 0 0.80504911566412074 4.9075789520080848 0 0.90058840145035801 4.8891810547532852 0 0.9064511824077266 4.8017685182183794 0 0.91421747251735874 4.7123675458162859 0 0.82371878284378419 4.7949831037561168 0 0.70132593764510476 4.7517993946475761 0 0.65271702564276568 4.9105923281007069 0 0.63157894737068521 5 0 0.73684210526556826 5 0 0.71903817949015336 4.86268
[...]
<CellData Scalars="pressure_p0," Vectors="velocity_p0," Tensors="">
<DataArray type="Float64" Name="pressure_p0" format="ascii">
3.2027496452325965 3.2429770499509631 3.2493457047635057 3.3542274182800798 3.3119021819798613 3.4096721750756531 3.4105519413363341 3.3055873311025969 3.354281222215314 3.3116801242540457 3.4214989835192728 3.3862593023194991 3.3683788466387758 3.2550372052784509 3.7248340221734519 3.6139861964311062 3.6653508308494738 3.6692148067240091 3.5165395156682813 3.5467849478729638 3.5042273228706442 3.4445117428442189 3.4400220891576625 3.4454580892940778 3.4653056083583631 3.5223436108125901 3.5660225662829346 3.5550544124837162 3.6231774260049545 3.6227982076432443 3.6472422656942616 3.7083718632079199 3.7015226280945117 3.7413974994701302 3.7331545177890311 3.7401606193579524 3.6777779517617795 3.6621977703740054 3.5975620525989074 3.6551008776985148 3.5366340549732262 3.5514510526217311 3.4574776853301978 3.4731075804387497 3.498220852136956 3.5127643868725333 3.4684205891221218 3.5095990084809365 3.4693142779170785 3.5636944563900013 3.5746108064586037 3.6117470126149329 3.604889729732847 3.6649265043475738 3.7023944354540528 3.6739251260807602 3.6943277450240499 3.2543119977078638 3.3073069227804921 3.3663486502221316 3.4099175420881664 3.4063169111444047 3.3044586812731223 3.359899777770889 3.4049055326607824 3.3022058382880668 3.3575947104922044 3.2114262692177009 3.2638855216384046 3.2638332973447763 3.1855308631347441 3.1958216526955194 3.1312531035422593 3.2313017475103609 3.2195490094438184 3.3158233272870121 3.2837647321763233 3.4088242225121812 3.3707033516308424 3.4315768358133685 3.3815816183808369 3.2870876993693332 3.3185612922548318 3.3286944146926558 3.410253157176327 3.3283971668712984 3.3560007686905111 3.2667646741158705 3.278774966963959 3.1991133075159093 3.1325519377075173 3.2170782991605851 3.7477964389680682 3.7009741679883286 3.6771697693765253 3.7361709640679202 3.6294698722983911 3.6416487960100064 3.5225939278256746 3.5760313339264975 3.5362137180500399 3.4944915749637451 3.4581255342514248 3.4699998808027188 3.448447134916397 3.5111579027371396 3.5361428483890425 3.5468816506569691 3.6012816757263377 3.6278375032377097 3.5984224238200468 3.6779893198687423 3.7111994272020379 3.7107588643357312 3.7184236348318085 3.7091164448658733 3.6620309801927018 3.6122558832368878 3.6614800156611067 3.6123116977902416 3.5636366787946701 3.5175690769024808 3.5630298997098881 3.5166292805958133 3.4663214583343227 3.4666544755565338 3.5129071103888174 3.4493148205442963 3.5493500352862002 3.5381107910292551 3.5995063847070918 3.6327704925977766 3.6430231474531727 3.6078178238178014 3.7293215659490571 3.6947779573303654 3.7025194248517383 3.363202630132359 3.4209498400748437 3.3633129462564617 3.4213931734210501 3.4108431148320069 3.4321495861973395 3.123318995350667 3.0927685925064035 4.8621382032927141 4.9331359795499408 4.9662011874693635 4.9669347920807327 4.9371322347810542 4.8774932984834738 4.7738994506166428 4.8362980795259256 4.7163144539088444 4.8334058373694226 4.769870631447346 4.714444272284581 4.7531440682283259 4.7008113468731532 4.7961291151911265 4.8532620810245515 4.8738122399838986 4.9356098138265843 4.9694086263570778 4.9706334380622925 4.940042064419254 4.8540194580206935 4.8856930929291025 4.8808771809490956 4.9431421895005965 4.9725087514384789 4.9501417476373391 4.8616235491115365 4.9015215538621284 4.8493389898984098 4.8949991969815585 4.9776329961987029 4.9436193907564876 4.7457445976994617 4.7991652202508996 4.8049274225836216 4.6892970128100373 4.7536675688872325 4.7501306045009208 4.7956616804823522 4.6929858152297834 4.6787355675036189 4.6263622828225266 4.5336690129478656 4.5845066032070472 4.562913395109514 4.6013700928241112 4.6574760201656584 4.6502502533594727 4.5598671876489387 4.5922638052941611 4.5816792614173929 4.5382467988348294 4.6871362439553748 4.6352691972764797 4.4423829292978585 4.3898654341992938 4.4908338097653546 4.4680940584918982 4.5030353414393831 4.4033750317192242 4.4955754945169675 4.4772193861925889 4.4568947391415072 4.3906996475279954 4.3820858121600033 4.433268594151377 4.3969347171137656 4.4422455431186343 4.4583523780064445 4.5196995011678434 4.6071824369515246 4.551065344067986 4.6499460426558787 4.6468524048482447 4.5366405432309103 4.5908800772825851 4.5895896711046564 4.6607016139682607 4.6162854009256424 4.5692407795702881 4.5425450497491937 4.4384546569876946 4.3859489182858615 4.4888759639545448 4.4960708766511752 4.2364686016038142 4.297297357169013 4.2973271052753583 4.3270383745326368 4.2335044736700382 4.2023869873619146 4.1379103956740639 4.0973482391830389 4.1992253502080281 4.0764321163374468 4.1245815794749996 4.0881821059600103 4.1963881128296556 4.1406529317996155 4.2290062157095329 4.2900840637546782 4.3426253570370328 4.337969480026354 4.3598415125881358 4.3085665803741415 4.2274266239083467 4.2785272434074901 4.3646613761307034 4.3037639042240698 4.2670948985740491 4.2804691675189206 4.23094584629089 4.3352376069423419 4.1344903282439596 4.0923619016840052 4.1817627051470057 4.1687982871801923 4.1134110891595208 4.0842926995546014 4.0736127936134512 4.2046071593791545 4.1901755455302085 4.1380876884139894 4.0270945873967392 3.9123319936697172 3.9554177953015071 3.9653045392111301 4.0065279375460987 3.9335561681430415 4.039504226501232 3.9934685579095386 3.7780620754127909 3.8847434050557137 3.828738257320853 3.8419970245836783 3.8935456525776244 3.7825185951538178 3.8508966217662666 3.7996611740174142 3.8029936342539594 3.7515791948200743 3.7853624905760528 3.9004919630635855 3.8486022814831138 3.8548148496988386 3.9672144699267884 3.9129177613655699 4.0284187504165523 4.0104555307075724 3.9610012398405026 3.9149138877014158 3.9858683224646452 4.0061949999778168 4.0246115678024195 3.8726824590172022 3.8943584129300657 3.7600824575177665 3.7994920934261533 3.7622066903055886 3.8554304683760212 3.805970353455236 3.7816157211024715 3.8427013109235455 3.951350523758923 4.0498058108292643 4.0195273749479909 4.0515105876075888 3.9616704494751787 3.9174074960985146 3.9226932786224982 3.9660696778575684 4.0236290210191177 4.042936940691213 3.9910734517344526 3.9524852742487271 3.8941597252679045 3.8697770481884266 3.8150311507437951 3.7666419326042657 3.7650788964935531 3.7989367566017807 3.7634137058715651 3.8609415443620252 3.8816785773698075 3.8295319441069386 3.7732718603691042 3.8581527213263547 3.843807316382136 3.7871404547227199 4.0108072010694764 3.9586839434366987 3.9074446993029532 3.9581626700586545 3.9212688308691006 4.0377318028961922 4.0068712794350247 4.0211099722745018 3.9826946207898111 3.9315620887607352 4.0046174677906112 4.0669279068730386 4.0903733105370321 4.1866734635494574 4.142511613487093 4.1470607863032001 4.0664782229394305 4.1008000966264708 4.0862923694227478 4.1985283363677421 4.1926970831074115 4.1048624331112098 4.1267218058391677 4.2996138719081838 4.235981046103209 4.339332513866812 4.3192784197128251 4.3684022543215946 4.2540922440212938 4.2467865440193417 4.360987185841072 4.3045576512303203 4.3039859276035575 4.3470107427746223 4.3283824521792749 4.2769786753529715 4.2536593945833596 4.2085061287573184 4.1786959524876961 4.130059864437019 4.0862536576182142 4.1549879855704361 4.1598700407065072 4.1983276731950001 4.1097426589622543 4.1367381706183739 4.1087845351449337 4.1850660584557762 4.2653280762376165 4.2203682190734071 4.3717668739760116 4.3128065318747622 4.3726096339357028 4.2503300560084494 4.5025583772041404 4.437283659739033 4.5029877156872793 4.5639023197075588 4.6656505389210734 4.6158958660154337 4.6317458875921123 4.5955081143760204 4.5415708161539632 4.6182330862815082 4.6460248040685874 4.6708683828217428 4.5425466000651769 4.5933895075284408 4.4958995233247645 4.5045380757730653 4.4655256368228375 4.3965118946343873 4.4201437239439825 4.4332552550648252 4.4188314188975975 4.5270373445915792 4.4659664316838104 4.4355608959279529 4.4154375815988587 4.4625421290513003 4.5276691003159293 4.4495736494857612 4.635815504928666 4.6743200056088048 4.5632252940766227 4.5322343906989166 4.6644543070311144 4.6270408841435229 4.6254864301689578 4.5674111786634226 4.565856724688917 4.6641260106351154 4.7365776401918076 4.8287284506938315 4.7617684856743221 4.7278173871851212 4.7641427555314539 4.8190588530046394 4.7392841760576871 4.9652482442345258 4.9230606994007919 4.8549937364854152 4.9203800889237748 4.8496934496776962 4.9625676337577573 4.9351969866926613 4.8720444428744161 4.8725371607009054 4.9726293529349599 4.9356897045190236 4.9630603515841827 4.9691929840026479 4.9322533355869878 4.863914370171754 4.8550833142256078 4.8338306471717312 4.76970638926257 4.8286442255747755 4.7748928108595834 4.7250229552353282 4.8031567951049663 4.7381669048454107 4.6942308622080242 4.762163691755811 4.7095276200008787 4.8118568242227493 4.8647878020410076 4.9244267383385107 4.9701974427003028 4.923422279640798 4.96343137909966 4.9364504858841229 4.9730191067845215 4.8621973316760307 4.8745648333770717 4.7732693815385909 4.7231723246408395 4.6941283586851066 4.8224033314765986 4.8274578402978552 4.7778844130858387 4.7199690199776292 4.7016367186054007 4.8016677512633787 4.7671438596428377 4.8903844230780118 4.8577225994426847 4.8765130354811044 4.9333441791669772 4.9457434800169953 4.9699128000674255 4.9758306799495537 4.9453144476718762 4.8899553907332551 4.8493678177019479 4.8706025674663316 4.9694837677223909 4.9658756928258372 4.9353594605481081 4.8651572969047097 4.9311239370604696 4.7704211782090642 4.831214641163398 4.8351521595884126 4.773595927484255 4.7428076018462022 4.7482075323335939 4.7885290146732773 4.6622685176166589 4.5947978878985536 4.5557055162653644 4.5786695368344335 4.6874541763142412 4.6429475671652352 4.672912597546417 4.531303927086765 4.5615013090194978 4.6355620034602358 4.4167563103679237 4.4550070357139324 4.5216565835354405 4.3762398329229715 4.428170974133411 4.4650889923189281 4.4707235968011467 4.5027053020354106 4.4638482276953813 4.4262319179788392 4.4032378535030272 4.3926724675782864 4.5099150144636218 4.4592235798138713 4.5721839276998493 4.6782452171176256 4.6162630559303075 4.5938852915095874 4.5318079746027982 4.6300267914041751 4.6129754771763896 4.4534612074256064 4.5120200380316069 4.4119923234221607 4.4306600052125908 4.4919168257872686 4.2239663223366524 4.3340364496148602 4.3134187353755609 4.3533870715486849 4.2450096816949285 4.2580751950088143 4.1485028638005828 4.0859388881409275 4.1705987219462752 4.1702652530701698 4.1407305385542807 4.086662122283033 4.0863788841719462 4.1459638069208866 4.2438015135571288 4.2588364741823748 4.2436887790607427 4.2198558931863737 4.3096290978971092 4.2984153659722306 4.3558155674645267 4.3728885426014568 4.3387731200917328 4.2775516898990764 4.2894113364777908 4.2541812623948427 4.3468971864916721 4.330524230724186 4.2791075982461244 4.2200546209173453 4.2396223900544578 4.3032552158593447 4.3442046465885973 4.1327766538827584 4.1992230356729454 4.0836224789706943 4.1029903728168833 4.1729761329732131 4.196799036219196 4.1568874365781747 4.1805194864118365 4.0913764485327659 4.0554235756172528 3.9533415766772038 4.0613022880172736 3.9922645830501682 3.9520840832034794 3.9682444048117724 4.0375083948682402 4.0253690081161926 3.7909762919667722 3.8458120473838404 3.905613593060612 3.8465593536421148 3.7915152762036355 3.805116884014633 3.7692403160859858 3.8902005777107451 3.8676157536367244 3.8496913219358841 3.8905762527562215 3.7908542548876425 3.7613291330640664 3.8098240831296435 3.8275788396222685 3.8990065155168043 3.8804391626226691 3.8562677741017271 3.9555545116605977 3.9864264087291215 4.0566119140501486 3.9947847084267503 3.9715806332027794 3.9137830835425067 3.9101206887551183 4.0539663300154816 4.0007120465584576 3.9642360870331359 3.9616171019784328 3.8684156904438636 3.8099756607561739 3.7567311840897615 3.7907933898339001 3.8275890634948944 3.7670903025144327 3.8988076365447979 3.8847403307238979 3.9876984518171663 4.0005459603389495 4.0599241220237507 4.0325880009146893 3.9347022876357736 4.1301348710894841 4.0810902189443592 4.188804950876948 4.1814206775798555 4.2808499123754551 4.278183779854329 4.3338837618625483 4.3289387896904863 4.2349592758770074 4.5259654051492486 4.4357428963511207 4.3769265840017475 4.3792054236526869 4.4401776173424521 4.4719123831338052 4.5570460407108841 4.5642355813387026 4.6804587618132008 4.6705168687350476 4.6301069108826578 4.7442294019505633 4.7973340956758186 4.8034756540531562 4.9020968599317873 4.8950641477048515 4.9510329825329915 4.9780138757481609 4.9440002703059358 4.8490230610719225 3.426233103996327 3.6794182772415676 3.7370179268259087 3.7372262488471737 3.6278717893855492 3.5659244875366394 3.5788640712079922 3.5239836550499137 3.5375125710582176 3.4703754958057749 3.4581216142977769 3.4947467429113055 3.5103541755646859 3.4697652761936495 3.4810076316818006 3.5895659786146288 3.5364953267338217 3.6076283254129433 3.616371020810154 3.6973225095525497 3.6799560734776415 3.7489357569878452 3.6721143969405308 3.7099553821113407 3.7158599867272541 3.6192518680533317 3.6634233463237393 3.6695674474221489 3.6212947445242039 3.6004999443053047 3.5322188196259141 3.5432494508280348 3.5915192292536515 3.5047438414194803 3.4432151896401431 3.5095261930493833 3.4497964479203524 3.449769612752438 3.5118303035670855 3.54839848864211 3.6296672724179144 3.6002584433309419 3.6419776442666985 3.6974919366305254 3.7275694870044989 3.6875125104672977 3.3962864801887016 3.3881661600224109 3.4326424244348965 3.7150114430995047 3.6345517920903605 3.6664115974362543 3.6248695420900132 3.5930097367442659 3.5368370408581642 3.500669635319511 
</DataArray>
<DataArray type="Float64" Name="velocity_p0" NumberOfComponents="3" format="ascii">