<?xml version="1.0"?>
<VTKFile type="UnstructuredGrid" version="0.1" byte_order="LittleEndian">
<UnstructuredGrid>
<Piece NumberOfPoints="398" NumberOfCells="716">
<Points>
<DataArray type="Float64" NumberOfComponents="3" format="ascii">
0.073634588831630737 0.063733304865559531 0 0 0 0 0 0.1020408163265305 0 0.1058477383279523 0.15089529357940679 0 0.10526315789448409 0 0 0.2105263157889683 0 0 0.15706204793571721 0.065730414421860325 0 0.2227417586060364 0.14198457667505321 0 0.2458590500629341 0.061570842006046268 0 0.3065290384860177 0.21845328511822379 0 0.19912213507755991 0.24170113105785579 0 0.096326094416150879 0.2738115102943669 0 0 0.20408163265306101 0 0 0.3061224489795924 0 0 0.40816326530612201 0 0.079886347472302513 0.39267504564254302 0 0.063661092758028087 0.55935793480215701 0 0 0.61224489795918391 0 0 0.51020408163265341 0 0.099581482345633993 0.49355644173513979 0 0.1247920390493031 0.5981384238717109 0 0.22205887719093709 0.51085764442280845 0 0.23580292830338159 0.61156435780913132 0 0.17099478320065239 0.33418874558395761 0 0.19230207234368041 0.42267882596596917 0 0.29845534578569238 0.44756390809804841 0 0.28395937666824012 0.33632665726232341 0 0.37751055495358538 0.39126393687673539 0 0.31454340936270092 0.54916538087209121 0 0.4068115365931686 0.48491119452919718 0 0.42059707578191508 0.59585436944894388 0 0.50993157348022133 0.5222808145795188 0 0.61394540470706838 0.57099007365173216 0 0.49852334123339559 0.38907693763721879 0 0.58768653706651386 0.46412604547642611 0 0.61404777858908499 0.38779589852573809 0 0.58188516883365671 0.30239275902164231 0 0.50098672486132223 0.25062984267919391 0 0.61110205716185617 0.19633559899170319 0 0.59443945123281217 0.088717840836347678 0 0.52631578947244417 0 0 0.51310137082636131 0.1341294928157436 0 0.42091535253335821 0.074985042685527997 0 0.4210526315779366 0 0 0.31578947368345239 0 0 0.32203054174603751 0.1135564938669265 0 0.39980317448743058 0.29844098685688902 0 0.41201455634411649 0.1897984988829047 0 0.29535040693981252 1.2487814442762459 0 0.24652255435168349 1.16362252184999 0 0.18186396436738239 1.2489010184241831 0 0 1.2244897959183669 0 0.076991227018255809 1.215503509727863 0 0 1.122448979591836 0 0.1560221044846879 1.156713840617748 0 0.093842089569650469 1.079130223827806 0 0 1.020408163265305 0 0.074119965104957108 0.97958999024182325 0 0.15632314691226529 0.98942808156337614 0 0.20223978045739341 1.0824581785913561 0 0.28348777954110133 1.081709374779469 0 0.25704116485693501 0.99595972917084474 0 0.3123180749855447 0.92656129760539985 0 0.28351958488957152 0.82418616838813186 0 0.19365491978087371 0.80908438962595375 0 0.22353967557461929 0.90141690386786355 0 0.1083586080873238 0.88106794047698711 0 0 0.91836734693877453 0 0 0.81632653061224492 0 0.110872549238551 0.75326234048887408 0 0 0.71428571428571441 0 0.078882305155223195 0.67085170501850533 0 0.15874693748826191 0.67632714848704367 0 0.23638417351493071 0.72968749346881823 0 0.33591602694935457 0.66131199390812068 0 0.36525958917446788 0.75455484928980965 0 0.46608820308031917 0.75846025055775845 0 0.4340919746430883 0.68202834426904635 0 0.51775152288730519 0.64920465993269849 0 0.60748045148422647 0.66752467993528308 0 0.55681583298790127 0.75122208750940123 0 0.50355958793309408 0.83115174296957917 0 0.58442202915549346 0.85086584249506758 0 0.50501468137625061 0.91212621675578376 0 0.40324807918930472 0.85880807225225553 0 0.34373065202840097 1.033857539694272 0 0.43202523034113782 1.071444393666098 0 0.41710247631787462 0.97058883660027473 0 0.51074157308319057 1.0093740006043139 0 0.61101434257854614 0.95196880561321229 0 0.5923826067897171 1.054642716087848 0 0.52456864609935183 1.1089936168043419 0 0.53227952062921358 1.221612406350121 0 0.45104823163348962 1.163477407911337 0 0.35285320778342583 1.1463879991197961 0 0.92559079061448379 1.1466858129777091 0 0.84290063553489691 1.1016368018522229 0 0.85642981488493297 1.2209420463253651 0 0.72983648414492086 1.2323628842432699 0 0.63559975705159799 1.152294650422925 0 0.75437106197220549 1.143894364695101 0 0.76972037162132056 1.053009254602195 0 0.67998871513589931 1.050582506994443 0 0.73025941392591198 0.95775976245843986 0 0.83139196822827133 0.99938114807813017 0 0.919899805888167 1.0459081844348399 0 0.91021978912487322 0.92498720613229191 0 0.89117965782129116 0.81172291664322871 0 0.81193677080446458 0.88684787384632269 0 0.69467126818299485 0.86180401360524572 0 0.77321267290795737 0.78185578216716867 0 0.66084851872722317 0.74488750129731696 0 0.67376695549967347 0.64179747048437008 0 0.73873045158558381 0.67029362296825246 0 0.83198825274678712 0.70528988035238571 0 0.95355808760144622 0.69658025498213427 0 1.072739201998409 0.74135293838840355 0 1.0581699577822421 0.63255642837815063 0 1.1721553793451409 0.67124257571205892 0 1.174196369975183 0.74051798943649838 0 1.1298244765613299 0.80092821849574458 0 1.238351116529042 0.78405745692554685 0 1.1967096064035321 0.86810157518635656 0 1.091312577630531 0.90181900847938157 0 1.051391310887877 0.81343332255164325 0 0.97953521380484287 0.79804395455192179 0 0.98942221694873111 0.87491136987165585 0 1.00374734117194 0.97912445032417816 0 1.008496394777991 1.0904708687214091 0 1.1714052895562941 0.94672427573449036 0 1.208630584294039 1.014000098821296 0 1.16376270091775 1.0795377305082889 0 1.103818069110976 1.026733974161542 0 1.0957950816788939 1.138584618393222 0 1.185475381948079 1.172985822612816 0 1.1115960110091561 1.238719228936759 0 1.00212728020349 1.205788172036959 0 0.78314504829354004 0.1701005193766596 0 0.86388615672870284 0.24176633445622139 0 0.86990206979269136 0.14074136310065741 0 0.90435207992901956 0.073685767001444136 0 0.84210526315617695 0 0 0.81340388240176209 0.082230928545733564 0 0.73684210526159943 0 0 0.6315789473670218 0 0 0.69994062016789216 0.1067243554569797 0 0.7146634246400515 0.20408871895009509 0 0.76946047077062085 0.27305316427947629 0 0.67269763957089668 0.28766618318192039 0 0.74668177105190892 0.38792643481769917 0 0.68272892922030293 0.47640034990436031 0 0.7182718633112356 0.57559649524946854 0 0.79240597296936732 0.60871689540328877 0 0.79377944327345673 0.50585895228391087 0 0.90259640099045146 0.48208009363873128 0 0.8715730992191858 0.59995893354213636 0 0.82893956394501045 0.43556042781491189 0 0.86766391211838234 0.36291129017940282 0 0.99844906495211683 0.41033081222798851 0 1.0728978996940359 0.31252874061214919 0 0.97319982903322488 0.57044714315958112 0 0.98205552484982783 0.49350909675441562 0 1.053976804423518 0.51117833799136159 0 1.167556212236738 0.54446138636918329 0 1.2444890247102549 0.61602393795440413 0 1.141915868145003 0.41978116155007861 0 1.245957087493881 0.46849279367838709 0 1.225653998537624 0.38278828131682618 0 1.1819992474799661 0.30979610441797029 0 1.2345235746582319 0.2181638112276699 0 1.1345589987113649 0.2170967965472991 0 1.032698843042275 0.2304471948699372 0 0.95389326217247672 0.16622683104451211 0 0.96479329276126891 0.28597364760584049 0 1.0078160298597001 0.074864658161345007 0 0.94736842105075469 0 0 1.0721797583938311 0.14221234134749089 0 1.0526315789454781 0 0 1.157894736840348 0 0 1.09415611104755 0.065435489204975203 0 1.1802584511983949 0.1101004465160401 0 1.263157894735218 0 0 1.280155454284023 0.1342534891134432 0 1.3559719059247251 0.085465235273525897 0 1.368421052630088 0 0 1.3390827734179991 0.2266379076346059 0 1.4299114572144691 0.26220849177377392 0 1.518819711327392 0.19523249910944729 0 1.473684210524957 0 0 1.436008109534886 0.1412553629199613 0 1.527269886522288 0.093520847501434773 0 1.5789473684199371 0 0 1.6842105263149529 0 0 1.6249563313411499 0.1187222475248199 0 1.6065359973843549 0.25184544126164482 0 1.709736384318292 0.21428709134280671 0 1.8101620587580161 0.286750675265454 0 1.825155911307244 0.18410715013907611 0 1.7894736842099681 0 0 1.7498615242676481 0.099357140554428222 0 1.7645878445382031 0.551245651813427 0 1.800326224007422 0.46814141035353779 0 1.799696768310902 0.38494677689433282 0 1.689211001472062 0.45290149160710408 0 1.6863561734379791 0.32497828982494542 0 1.587728198134857 0.38563926492374062 0 1.5837473472170811 0.48992424880157759 0 1.667463593774317 0.56111317607550426 0 1.568034546232121 0.60420339024524405 0 1.465545208278842 0.53760058199711758 0 1.511759182109367 0.3168194186655115 0 1.4954676243228899 0.41861978052816262 0 1.431188080270273 0.35632848408955431 0 1.3559097790697601 0.33665325336024798 0 1.403223919473702 0.43021118457373098 0 1.3093301910557431 0.41112098453386009 0 1.2758425629675949 0.31995112729171749 0 1.356524423615747 0.60656979857174365 0 1.3426444510496971 0.50088228854271188 0 1.275285876380265 0.55129838790143226 0 1.27323681256548 0.69367816707229613 0 1.3685146367671721 0.69131266377573941 0 1.3286958772219311 0.76002013292601911 0 1.2915567177821989 0.84514997133460013 0 1.2571911474506361 0.93487782281713361 0 1.365373475487007 0.91633819833830954 0 1.372900164136714 0.81645745450158436 0 1.4564318694433089 0.83645052929969455 0 1.557778167448173 0.86923184674449805 0 1.540255308948308 0.73720239579684488 0 1.4590027656295239 0.6504418072600836 0 1.4251133048031801 0.74585341304855424 0 1.3770801632686891 1.2086842157336299 0 1.2766512141451469 1.1967793468765859 0 1.3513156442513721 1.099999964422633 0 1.2532795495196689 1.093550220618378 0 1.309480960301123 1.009606376748005 0 1.474587007103809 0.94713269011347057 0 1.51020635580338 1.046501611774201 0 1.409090031843351 1.016782758159495 0 1.4396329737233009 1.1190968561893 0 1.5345732855015 1.156807353684586 0 1.4512277665266331 1.1874140521775609 0 1.63692624254826 1.1955100929594979 0 1.693594420943408 1.150506696075277 0 1.635082103177709 1.0846185439398219 0 1.5843877288100789 0.97302901201642067 0 1.704825695439496 0.98894810537884659 0 1.8162255459672549 0.98532035675161966 0 1.7639871625517201 1.097546548024011 0 1.848653498599895 1.1850920149040001 0 1.7383821754959421 1.224351599377778 0 1.640489971280549 0
[...]
<CellData Scalars="pressure_p0," Vectors="velocity_p0," Tensors="">
<DataArray type="Float64" Name="pressure_p0" format="ascii">
0.021244434955212083 0.055258040397391975 0.15233924751977684 0.10555647159062484 0.093453004289140301 0.043154573095897653 0.042433752142798417 0.021910138140684682 0.089761944368015212 0.1195367615591391 0.1057039708498963 0.020523614002117035 0.05837577862467306 0.2654936911474034 0.1579981185543046 0.2007129976179684 0.17819366710469903 0.30407217796915254 0.2832337956461497 0.2221359783111061 0.20959614550924033 0.26133853064249979 0.36898691997622374 0.32420300163913873 0.43146491756158267 0.43630343778184877 0.33355843384088318 0.38318087239826254 0.56060230479809692 0.61415151259345413 0.4706412628915001 0.52103948605697803 0.53418417001057161 0.60944935456446736 0.55035093347015462 0.57352014203529023 0.4756976373754882 0.50252897779893091 0.55719579436899103 0.60734724419732466 0.36439807627190057 0.46036679283017201 0.40218979711018826 0.34201052700050222 0.44124634650309258 0.39171816741405596 0.42175068968306839 0.31271592239333162 0.35959395379234582 0.60211058141083218 0.49388016116802841 0.54331031495161297 0.53434879285429504 0.58911328132177865 0.51913231123769887 0.58082518272270112 0.31403317978171758 0.46542298225077122 0.4584945992332945 0.41366629388217629 0.35975519839728609 0.32595161357870595 0.24978606689968105 0.26213151373390275 0.19369831149743749 0.19151927812783545 0.13972764421606659 0.029572613612435142 0.0742824445514913 0.069704845167799137 0.13297101146268159 0.024995014228763816 0.062847178851307223 0.024995014228738274 0.12611334514619724 0.17393609262398907 0.23556425695459979 0.28440697641426077 0.24628977614184033 1.1862639884130641 1.220434994848012 1.1305732985807069 1.109263358404655 1.1342648470175898 1.1897457936286551 1.2070394562550506 1.1874807617457273 1.1390275710484783 1.1061007476771065 1.1504491913898034 1.0503388279924073 1.0160494318765179 1.0739957888946401 1.0263761257777047 0.9727885001483858 0.95002867075979069 0.96226823819908325 1.0226153297731977 1.0533757608449295 1.0371755478791724 0.98545952215480648 0.94131264354638766 0.88405478995252795 0.78765268382715459 0.84489582062641078 0.92397097530159766 0.86385641132274305 0.87192060600912424 0.92634175921871353 0.81688560385917097 0.8144715568635551 0.76129152846226233 0.712799919931145 0.66579410575455578 0.64843909245946563 0.70014706466499055 0.67252633325540512 0.62867664338984997 0.71975899414830191 0.76401140786098887 0.76947617038191107 0.66752128172918535 0.6992983958227631 0.71518477888908971 0.73168114803900997 0.64639823587633749 0.64236245788463253 0.69656441825372861 0.6292398045075599 0.6893171424596326 0.72121142291399676 0.78027802701186255 0.71962899933357294 0.78232514376670981 0.81107989099065048 0.90498695495323545 0.86736201065800189 0.86471460073900341 0.91384104186787707 0.81614002192573198 0.79060772403273383 0.81251636330933752 0.86985184608073862 0.9186527354843772 0.97700255796466395 1.0838966441575479 1.0873183045286499 1.0171357436214912 1.0252969233179734 0.96402968465162298 0.95782300765606465 1.0053285074333584 1.0576701111636397 1.0632706703562 1.1646944770201249 1.1146384727918148 1.1609668911909941 1.1053103277701335 1.2208292183883926 1.2156377086389891 1.1905629062284975 1.1271032668966892 1.2189975850167665 1.2164673546382443 1.0980769330878539 1.1564215537183813 1.099513473715779 1.1554910709572943 1.1761839664531339 1.1990664317544319 1.2244127110198573 1.1155905073698102 1.0824953754296058 1.0204505080170601 1.0190646762301561 1.0858399578336426 0.9867703583537526 1.0033833883783236 0.94799626145947569 1.0513424015098962 1.0489753781208375 0.99009217954719142 0.87451933220577249 0.87054049754747442 0.82680885755081768 0.93707207601746789 0.90213721663498125 0.92384419389057637 0.88821288723633596 0.81918578579819057 0.79618243235554753 0.84350255653810158 0.73234563547699838 0.68565953158323456 0.68473655057247629 0.62677074135794375 0.62922919623435747 0.63798856976561436 0.66143346624102728 0.71914642849526378 0.76628952638641601 0.73786435065806533 0.66727635629148008 0.63319460883901868 0.76878237539101291 0.74532571597277886 0.69016320724838609 0.68171731415838577 0.70181291073938556 0.66031489357882922 0.73941787114394852 0.77516788828493799 0.71770450117782492 0.76093304877229373 0.85694960071944681 0.8324363344814627 0.81769575020163199 0.88270978977881298 0.91656789124543003 0.90554828646591234 0.8633879002994852 0.91861827622382453 0.78427673849578372 0.83872684984089696 0.78523815981045786 0.82879621565683093 0.82822608035396894 0.92634100877458592 0.98333994696253657 1.0385011678261169 1.032109764401917 1.0852631537588473 0.96922581098756666 0.95842575279114428 0.99581944957218882 0.96520073245737004 1.0623626833164188 1.0816187743546062 1.0400906011637765 1.1303693905055114 1.1544384633703917 1.115357924580614 1.2148341532606799 1.2288141139474431 1.1834298899820601 1.2416333843650267 1.1943640064566965 1.1449478863844287 1.0943549553777665 1.1476482845790876 1.2114160632089477 0.18420273897896031 0.22830667270551885 0.29257692963967441 0.29688375741476414 0.23132227103634628 0.18291150953470658 0.098886019549989684 0.12688465371627311 0.024561922333982515 0.05197223184945822 0.027410309515493475 0.13102427034201025 0.11968526779423132 0.062985094668203415 0.03557478515270511 0.06514739876514955 0.13059259842971044 0.22936350037657152 0.16904955780123482 0.16030453126272431 0.21574746753710397 0.254936022139158 0.3544628388439518 0.41737422775127092 0.44277409797103662 0.45672857900339103 0.31621526076173423 0.59612801312940999 0.54099563960323149 0.50383882301272143 0.51928526581367263 0.56339078097938777 0.61820233787385681 0.57151159374328275 0.47449982457983464 0.52929932648847922 0.55082872344654232 0.62232877722723456 0.34129696309379115 0.44311527164002806 0.39546605093861359 0.42685060387842305 0.4184407320158256 0.35307191667167492 0.33627773348223478 0.46197333420706488 0.44709677058948255 0.38088023812992022 0.47167274899099693 0.52504485930127054 0.51534544451733921 0.57139396984220991 0.56273205091199785 0.61608679681874678 0.49180696196960216 0.47757844719863352 0.52141752264908992 0.6105759666776599 0.5705945707410145 0.34736866885973128 0.42368741218124661 0.37078851576118244 0.33751183767503445 0.2483522373973131 0.28263701431202859 0.18178701809677189 0.15646986147017944 0.27980721385884888 0.27631652769618803 0.25335757734301911 0.19658544425490798 0.17962878908765861 0.22754922450732101 0.024954886053874602 0.049516808387874103 0.10492575206961774 0.12776794351812368 0.0941708295713998 0.046766715788852553 0.058511978573642695 0.021811829735002449 0.10591609235615836 0.15417258228547329 0.081451311876364701 0.036700148838638508 0.073239574795520651 0.14878554400690802 0.15111950194239376 0.02848841175776622 0.028488411757779497 0.25491761538421509 0.29441409609501157 0.19301840265822312 0.21003392077572047 0.27516655092242182 0.31178546484264102 0.19956545126734715 0.25463245301194282 0.25808680318258104 0.075573532730959417 0.078258736806894755 0.13582519804496376 0.14333623650992894 0.031173615833728907 0.039574082508201575 0.070747698341943666 0.07269312935963701 0.14412215980719623 0.18860006263171566 0.26370360747636312 0.19495159337623935 0.2283816389157094 0.16591712734529668 0.27533868547771689 0.23998521113079466 0.12099802156180611 0.14248943405664474 0.059628971515492186 0.026509924664092469 0.033119046851404842 0.49076285125844588 0.58575161090059735 0.60971924528393062 0.57832319626236128 0.4880529201883711 0.52336497330496834 0.43279922657088354 0.39232933794718616 0.33947639888092873 0.33222524732834985 0.38760885277565038 0.43532989295194269 0.38783968211871755 0.31810137495016133 0.32082099867002128 0.4428216684444467 0.5013129721618681 0.52175343983253675 0.62486456798260381 0.55174693837475031 0.61130036312742919 0.59741525983474775 0.5439094070152285 0.48204820377602753 0.59820406260996783 0.37369282137251614 0.43139443141814848 0.46214384903320571 0.4017198163970882 0.36392256109428478 0.31839674307410865 0.37439764067418396 0.39266180748892066 0.44740481921653535 0.42080068650916047 0.46016535558459487 0.35590845506141811 0.37128679771357537 0.54835088970394663 0.4895646850379276 0.50689115670713591 0.55291682500510375 0.59129737480882882 0.63875730119905372 0.66385354313969458 0.64944142320271014 0.77411033349206027 0.7323954032501272 0.74591858564059965 0.71500365459099113 0.79640918706142194 0.8987886641631605 0.80720918625376448 0.8564153940467778 0.85931520805807504 0.79958713228356526 0.89997380591765141 0.9297978496255157 0.88427168871989037 0.81429492394782532 0.66394919776821093 0.69586929469513703 0.77316877938236184 0.71116587203586523 1.2352973644457637 1.130109843973637 1.1425936787828739 1.1684878423455356 1.0421296997774361 1.0786265262580015 1.0677188539304521 1.0390522320630504 0.98616143279561153 0.9536074659679844 0.98090911108250622 1.0034723533498613 0.96008454887111339 0.98888777130210093 1.0607937420418547 1.1717317080344674 1.1544394206846118 1.1074686072168025 1.0959758364667489 1.2006895887470166 1.2246765289194284 1.2179818760969296 1.1901227961378331 1.2356757365745112 1.2473501610137152 1.2038974397801923 1.145645330195062 1.1435451109919403 1.1108905960133688 1.0570377324478772 1.0347163892439963 1.0155318871120893 0.9527576093919925 0.96032099512943991 0.95061217682105492 1.0514921941463944 1.0239383367184878 1.157468281159312 1.1689967207686496 1.1180827468636381 1.2399541515551169 1.2322589216956161 0.73569032729627615 0.6872482533971298 0.66999676970134758 0.73200304845573227 0.85191659467824987 0.79888548968416295 0.91285218984746652 0.87820711585542521 0.93064611313867718 0.79003919078603824 0.83938301693950979 0.8016699092807249 0.85448000625987208 0.87851317455073663 0.93191516613700454 0.79978666317740488 0.85798448797362792 0.76750525277537007 0.70743246038163221 0.67602174157176265 0.66901640935047801 0.66414753790597381 0.76297661355547874 0.77752106777019359 0.71778891375353293 0.71283843717718898 0.80658419663598546 0.90387487907905062 0.90875378859073219 0.8599341136911266 1.1997344480423138 1.2128670417129201 1.1411252442778901 1.120244232506467 1.1712042719240907 1.0714889401720069 1.0182677987452553 1.0065718632414926 0.9671870218365114 0.060523530106216611 0.11513398945245988 0.026509924664109261 0.25310062987321058 0.15665127567258297 0.20567027289311968 0.19901211205521302 0.29419340924541471 0.3006506671499205 0.35367248625570186 0.45455894646708139 0.40006816741746376 0.50207381061427969 0.61654531281628766 0.60962158572690284 0.55771894577886638 1.8819181000522418 1.4952207493395404 1.5471061602724281 1.4658872447655407 1.3649207114640638 1.3827337976504579 1.4022365276608202 1.2914768444475277 1.3045426649265037 1.2661525657047661 1.6885155263904332 1.5857998665827258 1.6503758505583108 1.6416623317514913 1.7380782871866318 1.7487917980520857 1.7842566383442766 1.8294400445219881 1.806139949945355 1.8269819364753985 1.7867346204359895 1.7938763495459602 1.7250433919166017 1.7079425560626471 1.6019611247348458 1.596806384984347 1.6439250649232708 1.7008690894510701 1.5856795830693979 1.6356368077482837 1.603865480640132 1.6847822258917109 1.664420980673055 1.7362258096775112 1.7853508122804371 1.8385369334108801 1.8392638642915133 1.7440244160619969 1.2864947024418527 1.3323521609746587 1.3350652488285291 1.391451672400001 1.4760233189647398 1.4215465018538413 1.4705141415476743 1.4216779069632566 1.5545538996177624 1.5086732755805174 1.5068925643087208 1.5476184485955145 1.5167492032515866 1.5278192099967778 1.5011442560102695 1.4787367385794887 1.4208784913274108 1.3352766538277878 1.393004056998985 1.3688678986370206 1.3285402591866127 1.3766259734341477 1.2913768544334145 1.3115186361594049 1.2864388246353853 1.2571811273789884 1.3081966983866906 1.3223897172329366 1.2882710318788402 1.3856336571750978 1.426800600209468 1.4688573731745325 1.4088642342985258 1.5117222992306147 1.4928961033887149 1.5303387739213377 1.5145032615658118 1.4309988487181262 1.4503155476096701 1.4065611326411849 1.474753263686464 1.4046900922496111 1.3493301303689493 1.3288959976910046 1.3598182434947874 1.2573150559641075 1.2713748508279623 1.7705935900080521 1.8720061992965615 1.8064223894242897 1.7697353252013386 1.679063460193376 1.7002490773797032 1.5684126249983383 1.5736051615267224 1.6191499705113697 1.6185982275462703 1.677210861848933 1.7127209085990382 1.6542576367479889 1.6930547389546984 1.6041996644925989 1.5849358753618286 1.5634089662396908 1.8966197919928718 1.8791198341085886 1.3249118756968303 1.3070388855067367 1.255985042922618 1.3705770674879973 1.2847278732249028 1.3248046968420706 1.2828427192819674 1.3243147881503605 1.3358624907812846 1.3835200153700455 1.4427178627183244 1.4743182084423863 1.4171923023488686 1.4684307959729272 1.4235690256116822 1.4797715289195414 1.5911039017706279 1.4872540075488803 1.4501480582663664 1.4751001682010985 1.4848674911721225 1.5505755153834766 1.4688055831768421 1.447346338058165 1.3822537698890542 1.339700848732186 1.3608509195576106 1.2791207139266914 1.2565745299036526 1.2904574760524972 1.3555565812326176 1.3956970394670152 1.3766004854415954 1.2789093245421082 1.289302066682072 1.3863407773367378 1.3271836162748625 1.3092176110135472 1.2622797154456364 1.2711988110242931 1.32395096611415 1.3485661309998112 1.4003516520127941 1.4752083551344983 1.4340465008833099 1.4191609333137682 1.494132160436406 1.5174797703826439 1.5154853736120004 1.4945180851252209 1.4201602930885415 1.4615180223928768 1.4661201365939962 1.4083887766505223 1.4129908908517943 1.574070064765126 1.6410432891477948 1.6362702667535785 1.5818093137107581 1.5854477399067428 1.5813145128403365 1.5166908491875504 1.5131844242000874 1.4700788648923266 1.4070882507920854 1.5288369221700777 1.529971518368018 1.4787744495552422 1.4186737337459763 1.4780917108086886 1.4191255911974137 1.3684707127618774 1.2555079726301179 1.2974480731470504 1.2715715418728102 1.3124825766309745 1.3728245707988476 1.3828797318545587 1.2786396922324759 1.3147731674627843 
</DataArray>
<DataArray type="Float64" Name="velocity_p0" NumberOfComponents="3" format="ascii">