<?xml version="1.0"?>
<VTKFile type="UnstructuredGrid" version="0.1" byte_order="LittleEndian">
<UnstructuredGrid>
<Piece NumberOfPoints="6444" NumberOfCells="2148">
<Points>
<DataArray type="Float64" NumberOfComponents="3" format="ascii">
0.0736345888316307 0.0637333048655595 0 0 0 0 0.105263157894484 0 0 0.0736345888316307 0.0637333048655595 0 0 0 0 0 0.102040816326531 0 0 0.102040816326531 0 0.105847738327952 0.150895293579407 0 0 0.204081632653061 0 0.0736345888316307 0.0637333048655595 0 0 0.102040816326531 0 0.105847738327952 0.150895293579407 0 0.0736345888316307 0.0637333048655595 0 0.105847738327952 0.150895293579407 0 0.157062047935717 0.0657304144218603 0 0.0736345888316307 0.0637333048655595 0 0.105263157894484 0 0 0.157062047935717 0.0657304144218603 0 0.210526315788968 0 0 0.157062047935717 0.0657304144218603 0 0.245859050062934 0.0615708420060463 0 0.105263157894484 0 0 0.210526315788968 0 0 0.157062047935717 0.0657304144218603 0 0.157062047935717 0.0657304144218603 0 0.222741758606036 0.141984576675053 0 0.245859050062934 0.0615708420060463 0 0.105847738327952 0.150895293579407 0 0.157062047935717 0.0657304144218603 0 0.222741758606036 0.141984576675053 0 0.222741758606036 0.141984576675053 0 0.245859050062934 0.0615708420060463 0 0.322030541746038 0.113556493866926 0 0.210526315788968 0 0 0.245859050062934 0.0615708420060463 0 0.315789473683452 0 0 0.245859050062934 0.0615708420060463 0 0.315789473683452 0 0 0.322030541746038 0.113556493866926 0 0.306529038486018 0.218453285118224 0 0.19912213507756 0.241701131057856 0 0.28395937666824 0.336326657262323 0 0.222741758606036 0.141984576675053 0 0.306529038486018 0.218453285118224 0 0.322030541746038 0.113556493866926 0 0.222741758606036 0.141984576675053 0 0.306529038486018 0.218453285118224 0 0.19912213507756 0.241701131057856 0 0.105847738327952 0.150895293579407 0 0.222741758606036 0.141984576675053 0 0.19912213507756 0.241701131057856 0 0.19912213507756 0.241701131057856 0 0.170994783200652 0.334188745583958 0 0.28395937666824 0.336326657262323 0 0.19912213507756 0.241701131057856 0 0.0963260944161509 0.273811510294367 0 0.170994783200652 0.334188745583958 0 0.105847738327952 0.150895293579407 0 0.19912213507756 0.241701131057856 0 0.0963260944161509 0.273811510294367 0 0.105847738327952 0.150895293579407 0 0.0963260944161509 0.273811510294367 0 0 0.204081632653061 0 0.0963260944161509 0.273811510294367 0 0 0.204081632653061 0 0 0.306122448979592 0 0 0.306122448979592 0 0 0.408163265306122 0 0.0798863474723025 0.392675045642543 0 0.0963260944161509 0.273811510294367 0 0 0.306122448979592 0 0.0798863474723025 0.392675045642543 0 0 0.408163265306122 0 0.0798863474723025 0.392675045642543 0 0.099581482345634 0.49355644173514 0 0.0798863474723025 0.392675045642543 0 0.099581482345634 0.49355644173514 0 0.19230207234368 0.422678825965969 0 0.0963260944161509 0.273811510294367 0 0.0798863474723025 0.392675045642543 0 0.170994783200652 0.334188745583958 0 0.0798863474723025 0.392675045642543 0 0.170994783200652 0.334188745583958 0 0.19230207234368 0.422678825965969 0 0.0636610927580281 0.559357934802157 0 0 0.612244897959184 0 0 0.510204081632653 0 0.0636610927580281 0.559357934802157 0 0 0.612244897959184 0 0.0788823051552232 0.670851705018505 0 0 0.408163265306122 0 0 0.510204081632653 0 0.099581482345634 0.49355644173514 0 0.0636610927580281 0.559357934802157 0 0 0.510204081632653 0 0.099581482345634 0.49355644173514 0 0.099581482345634 0.49355644173514 0 0.124792039049303 0.598138423871711 0 0.222058877190937 0.510857644422808 0 0.0636610927580281 0.559357934802157 0 0.124792039049303 0.598138423871711 0 0.0788823051552232 0.670851705018505 0 0.0636610927580281 0.559357934802157 0 0.099581482345634 0.49355644173514 0 0.124792039049303 0.598138423871711 0 0.124792039049303 0.598138423871711 0 0.222058877190937 0.510857644422808 0 0.235802928303382 0.611564357809131 0 0.099581482345634 0.49355644173514 0 0.222058877190937 0.510857644422808 0 0.19230207234368 0.422678825965969 0 0.222058877190937 0.510857644422808 0 0.298455345785692 0.447563908098048 0 0.314543409362701 0.549165380872091 0 0.222058877190937 0.510857644422808 0 0.235802928303382 0.611564357809131 0 0.314543409362701 0.549165380872091 0 0.235802928303382 0.611564357809131 0 0.314543409362701 0.549165380872091 0 0.335916026949355 0.661311993908121 0 0.170994783200652 0.334188745583958 0 0.19230207234368 0.422678825965969 0 0.28395937666824 0.336326657262323 0 0.222058877190937 0.510857644422808 0 0.19230207234368 0.422678825965969 0 0.298455345785692 0.447563908098048 0 0.19230207234368 0.422678825965969 0 0.298455345785692 0.447563908098048 0 0.28395937666824 0.336326657262323 0 0.28395937666824 0.336326657262323 0 0.377510554953585 0.391263936876735 0 0.399803174487431 0.298440986856889 0 0.298455345785692 0.447563908098048 0 0.377510554953585 0.391263936876735 0 0.406811536593169 0.484911194529197 0 0.298455345785692 0.447563908098048 0 0.28395937666824 0.336326657262323 0 0.377510554953585 0.391263936876735 0 0.377510554953585 0.391263936876735 0 0.406811536593169 0.484911194529197 0 0.498523341233396 0.389076937637219 0 0.498523341233396 0.389076937637219 0 0.500986724861322 0.250629842679194 0 0.399803174487431 0.298440986856889 0 0.377510554953585 0.391263936876735 0 0.498523341233396 0.389076937637219 0 0.399803174487431 0.298440986856889 0 0.314543409362701 0.549165380872091 0 0.420597075781915 0.595854369448944 0 0.335916026949355 0.661311993908121 0 0.298455345785692 0.447563908098048 0 0.314543409362701 0.549165380872091 0 0.406811536593169 0.484911194529197 0 0.314543409362701 0.549165380872091 0 0.406811536593169 0.484911194529197 0 0.420597075781915 0.595854369448944 0 0.406811536593169 0.484911194529197 0 0.420597075781915 0.595854369448944 0 0.509931573480221 0.522280814579519 0 0.420597075781915 0.595854369448944 0 0.509931573480221 0.522280814579519 0 0.517751522887305 0.649204659932698 0 0.509931573480221 0.522280814579519 0 0.613945404707068 0.570990073651732 0 0.587686537066514 0.464126045476426 0 0.509931573480221 0.522280814579519 0 0.613945404707068 0.570990073651732 0 0.517751522887305 0.649204659932698 0 0.498523341233396 0.389076937637219 0 0.581885168833657 0.302392759021642 0 0.500986724861322 0.250629842679194 0 0.406811536593169 0.484911194529197 0 0.509931573480221 0.522280814579519 0 0.498523341233396 0.389076937637219 0 0.509931573480221 0.522280814579519 0 0.498523341233396 0.389076937637219 0 0.587686537066514 0.464126045476426 0 0.498523341233396 0.389076937637219 0 0.587686537066514 0.464126045476426 0 0.614047778589085 0.387795898525738 0 0.498523341233396 0.389076937637219 0 0.614047778589085 0.387795898525738 0 0.581885168833657 0.302392759021642 0 0.614047778589085 0.387795898525738 0 0.581885168833657 0.302392759021642 0 0.672697639570897 0.28766618318192 0 0.581885168833657 0.302392759021642 0 0.500986724861322 0.250629842679194 0 0.611102057161856 0.196335598991703 0 0.581885168833657 0.302392759021642 0 0.611102057161856 0.196335598991703 0 0.672697639570897 0.28766618318192 0 0.500986724861322 0.250629842679194 0 0.611102057161856 0.196335598991703 0 0.513101370826361 0.134129492815744 0 0.500986724861322 0.250629842679194 0 0.513101370826361 0.134129492815744 0 0.412014556344116 0.189798498882905 0 0.611102057161856 0.196335598991703 0 0.594439451232812 0.0887178408363477 0 0.513101370826361 0.134129492815744 0 0.594439451232812 0.0887178408363477 0 0.526315789472444 0 0 0.631578947367022 0 0 0.594439451232812 0.0887178408363477 0 0.526315789472444 0 0 0.513101370826361 0.134129492815744 0 0.526315789472444 0 0 0.513101370826361 0.134129492815744 0 0.420915352533358 0.074985042685528 0 0.513101370826361 0.134129492815744 0 0.420915352533358 0.074985042685528 0 0.412014556344116 0.189798498882905 0 0.526315789472444 0 0 0.420915352533358 0.074985042685528 0 0.421052631577937 0 0 0.420915352533358 0.074985042685528 0 0.315789473683452 0 0 0.322030541746038 0.113556493866926 0 0.420915352533358 0.074985042685528 0 0.421052631577937 0 0 0.315789473683452 0 0 0.420915352533358 0.074985042685528 0 0.322030541746038 0.113556493866926 0 0.412014556344116 0.189798498882905 0 0.306529038486018 0.218453285118224 0 0.322030541746038 0.113556493866926 0 0.412014556344116 0.189798498882905 0 0.306529038486018 0.218453285118224 0 0.399803174487431 0.298440986856889 0 0.412014556344116 0.189798498882905 0 0.306529038486018 0.218453285118224 0 0.28395937666824 0.336326657262323 0 0.399803174487431 0.298440986856889 0 0.500986724861322 0.250629842679194 0 0.399803174487431 0.298440986856889 0 0.412014556344116 0.189798498882905 0 0.295350406939813 1.24878144427625 0 0.246522554351683 1.16362252184999 0 0.352853207783426 1.1463879991198 0 0.295350406939813 1.24878144427625 0 0.246522554351683 1.16362252184999 0 0.181863964367382 1.24890101842418 0 0.246522554351683 1.16362252184999 0 0.283487779541101 1.08170937477947 0 0.352853207783426 1.1463879991198 0 0.246522554351683 1.16362252184999 0 0.202239780457393 1.08245817859136 0 0.283487779541101 1.08170937477947 0 0.246522554351683 1.16362252184999 0 0.156022104484688 1.15671384061775 0 0.202239780457393 1.08245817859136 0 0.246522554351683 1.16362252184999 0 0.181863964367382 1.24890101842418 0 0.156022104484688 1.15671384061775 0 0.181863964367382 1.24890101842418 0 0.0769912270182558 1.21550350972786 0 0.156022104484688 1.15671384061775 0 0 1.22448979591837 0 0.0769912270182558 1.21550350972786 0 0 1.12244897959184 0 0.0769912270182558 1.21550350972786 0 0 1.12244897959184 0 0.0938420895696505 1.07913022382781 0 0.156022104484688 1.15671384061775 0 0.0938420895696505 1.07913022382781 0 0.202239780457393 1.08245817859136 0 0.0769912270182558 1.21550350972786 0 0.156022104484688 1.15671384061775 0 0.0938420895696505 1.07913022382781 0 0.0938420895696505 1.07913022382781 0 0.156323146912265 0.989428081563376 0 0.202239780457393 1.08245817859136 0 0.0938420895696505 1.07913022382781 0 0.0741199651049571
[...]
<PointData Scalars="conc_conc," Vectors="" Tensors="">
<DataArray type="Float64" Name="conc_conc" format="ascii">
0.000995336627776776 0.000937155637287906 0.000985781787925683 0.000997431977076904 0.000937946113894057 0.000995788189575658 0.000994612171406869 0.00107704493777444 0.00105717790276766 0.00100143285097212 0.000993552371397255 0.00107925790736428 0.000997927068359975 0.00108350266279054 0.00107801883450985 0.00099738704710593 0.000986496160079996 0.00107616327962786 0.0010987023235388 0.00107936551270509 0.00118377546413166 0.00098708212913122 0.0011003447651559 0.00107431932377446 0.0010806206872182 0.00122752365089161 0.00118597597439004 0.00108359127189362 0.00108103037389101 0.00122579086389962 0.00123087222728185 0.00118476048576261 0.00132047213684544 0.00110317940987477 0.00118066749610362 0.00121410468786847 0.00118634000806549 0.0012080819664428 0.00131672369030636 0.00141701049454154 0.00128435719469898 0.00151212282356736 0.00123095439862681 0.00141324768830573 0.00132131205302416 0.00122613926345672 0.00141551418718295 0.00128424334610097 0.00108199087477006 0.00122717754090101 0.00127806971916326 0.00128054222905745 0.00131888834170091 0.00151220180435152 0.00127986962736985 0.00116088536810374 0.00131670714408578 0.00108335090745625 0.00127568102521097 0.00116286442690603 0.00108260660002263 0.0011583045552108 0.0010537829078913 0.00115440702554064 0.00105889460429583 0.00112472060787407 0.00112629271150667 0.00119511324516524 0.00122681717895077 0.00115953828644684 0.00112143567071725 0.0012295035844212 0.00119193030194015 0.00123076390544759 0.00132306160566883 0.00122483786795175 0.00132888064163876 0.00143329760464453 0.00116233948213946 0.00122954290724579 0.00131519052846519 0.00122542055675032 0.00131972876098987 0.00143384786322592 0.00133623825339038 0.00133986853881257 0.00126733190682158 0.00134088106969972 0.00133544782936899 0.00144062144778978 0.00119471905109111 0.00126489873265166 0.0013186624242882 0.00133887199131793 0.00126170388711215 0.00132445722531616 0.00132586729798207 0.0014651294376835 0.00158743070231768 0.00133903148904027 0.0014606093161954 0.00144305819205137 0.0013384329511015 0.00133033085524022 0.00146241337629451 0.00146314068423078 0.00159313958012034 0.0017355380848824 0.00132736830011752 0.00158668992824976 0.00144007814860606 0.00159598042891693 0.00166807046583435 0.00182445809088372 0.00159207575622185 0.0017414885012286 0.00182737307709798 0.00174529620227826 0.00182526772306166 0.00201947439590874 0.00131761539715234 0.00144007509749821 0.00151494791904709 0.00159208210947531 0.00143926676804822 0.00166924548620254 0.00144295374116237 0.00166605275231279 0.00151484695499766 0.00152513083748267 0.00168615141228206 0.00158077019709848 0.00167509605535607 0.00168433129880427 0.0018289379867667 0.00166954793220489 0.00151682452056311 0.0016886860648801 0.00169433404137657 0.00182836179229209 0.00164888427162132 0.0016411890889128 0.00146494361105072 0.00158238015861496 0.00169127318810296 0.00165025463697652 0.00157364376224108 0.00183142617840444 0.00199932637537755 0.00202537697602485 0.00167217589028974 0.00183122140138302 0.00183292785171366 0.00183894374893867 0.00182397239043993 0.00199291763662723 0.00183095688719057 0.00199263060048969 0.00180683748628865 0.00200132753218388 0.00179436475481716 0.00197018378493027 0.00180088837577207 0.00159217327356589 0.00153680387243667 0.00180045301118521 0.00159581924340851 0.00196318079358839 0.00163657890176407 0.00137768842824661 0.00146521324745364 0.00183564102210441 0.00180018247507884 0.00163473423002306 0.00179441686644985 0.00163981531363277 0.00154614108670889 0.00164585500413729 0.00154287802849057 0.00138694371202528 0.00164308797273044 0.00138701331638154 0.00137064069231862 0.00138121073118081 0.00137535578053843 0.0011229576409918 0.00137452464965445 0.00146924208474167 0.00120466239067277 0.00137269789797838 0.00120111838893014 0.00112567872758515 0.00146383018377828 0.00121195930471332 0.00131800295945514 0.00146430905648314 0.00132041112643682 0.00145286312131573 0.00120859583052021 0.00113695167187034 0.00131935520027724 0.00113195035160364 0.00118147904824524 0.00100333316817926 0.00113960185981783 0.00117204493613202 0.00131455553505975 0.00117388821434736 0.00131776274305489 0.00132166735621204 0.00132536062172094 0.00131707588031023 0.00144838947266266 0.00118263917423459 0.00131213256253146 0.00125516321925051 0.00132086700630054 0.00120866659721866 0.00131984517346712 0.00131174626996947 0.0012552070881293 0.00121669947817625 0.00131958205197288 0.00132421462049896 0.00144668912429625 0.00141813374977364 0.00131765933573432 0.00145150417539787 0.0014204054343302 0.00157610084633141 0.00144995596251415 0.00141155803735368 0.00152213304891607 0.00158245258117114 0.00146996243829207 0.00157762765535219 0.00144547583499695 0.00294467072712726 0.00257074027623167 0.00293653297247453 0.00293705447166545 0.00255735488605907 0.00236403117223316 0.0025700853957059 0.00256847590644012 0.00293491747889171 0.00255787353505291 0.00223438443720153 0.00257493860175548 0.00255143810169659 0.00212124931041873 0.00223149764905163 0.00255494062138446 0.00235794302316267 0.00211772077353342 0.00234290789211011 0.0018695485443927 0.00212431991582176 0.00178510743517409 0.00186674354289689 0.00170539154965994 0.00187759091996254 0.0016910464277165 0.00180648351245738 0.0021185363399348 0.00180368920413422 0.00222393751732531 0.00188067746128024 0.00211330718453169 0.00181250809376763 0.00180773452755069 0.00193656691407454 0.00222055134780682 0.00181062292505325 0.00167939209105257 0.00192617801886413 0.00169979433930579 0.0017926297317012 0.00162950673467222 0.00180055394675182 0.00162347398863215 0.00168635517721201 0.00163171784829106 0.00167724972587633 0.00155638321557939 0.00168239965397121 0.00192445665163063 0.00167646374202029 0.00193665276685788 0.00232648478482562 0.00207131420129188 0.0019322273339998 0.00223082022663718 0.00233046047522401 0.00223792116682306 0.00257147391862337 0.00233006032933429 0.00257338731340282 0.00233328427114105 0.00268235895583567 0.00233884941181441 0.00239806286834327 0.00267616878963753 0.00233186097770345 0.00240349424725098 0.00207315963375151 0.00239970962214192 0.00215577445161998 0.00207749747670125 0.00215487021125414 0.00185667690264394 0.00188840876428261 0.00215789374245699 0.00185482017826634 0.00207137019108318 0.0019331437465892 0.00206465308723628 0.00166753662436238 0.00185669391130972 0.00206317535488809 0.00167068766094433 0.00165372361321904 0.00155051288473956 0.00147665798125256 0.00168316968602058 0.00166532377755724 0.00154357283022045 0.00166210638503046 0.00146658327837926 0.00156316860395683 0.00184923534140495 0.00167491722596918 0.00156378211071647 0.00147426699932263 0.00155109459496709 0.00140347314661128 0.00155462071009225 0.00140178022966515 0.00144620157649524 0.00133846132851475 0.00140833035337846 0.00143788589076733 0.00146486921914826 0.00143999223842884 0.00160776794064466 0.00156311031827469 0.00143890739337945 0.00160793433222336 0.00174100674222603 0.00161520355278126 0.00188500282247546 0.00145978310774933 0.00173776893710089 0.00161377107749105 0.00156319910320241 0.00161336070937151 0.00188430201595734 0.00185220589902801 0.00156090891827577 0.00188715173599912 0.00216010400471515 0.00189845668482648 0.00222217360671095 0.00173974741907772 0.00189780065520659 0.00202398303271537 0.00203037117089899 0.00221641461544011 0.00213060256170317 0.00190368074131412 0.00202068455790179 0.0022176288024901 0.00222575849759611 0.00223273191453212 0.00211732990967448 0.0019884778676142 0.0020347386011638 0.0021257979933785 0.00199440163447162 0.00212292542392533 0.00197730529896033 0.00222454180047743 0.00212652102271133 0.00196927577706809 0.00158360130483919 0.00197025706648638 0.00172452882847701 0.00196943487963645 0.00172696289954464 0.00201285035613645 0.00171827860553896 0.00201524821522952 0.00160585048135999 0.00223055811168989 0.00202035891396624 0.00228589576387764 0.0022283798136875 0.00195929743120742 0.00202033807327608 0.00201889207502924 0.00205990894281309 0.00160305239609078 0.00200953440070935 0.00228998096166978 0.0020668573073635 0.00205812504581497 0.00243903204413704 0.00211051143609279 0.00229044351953599 0.00243985668802821 0.00244847093599253 0.00229166198340292 0.0020676880948724 0.00243332745654475 0.00244748458953225 0.00243859202652165 0.00264962098007462 0.00222011837442729 0.00229159513163633 0.00244319514824289 0.00222473343694126 0.00223607186206199 0.00243269017981691 0.00217035626647503 0.00220917078991745 0.00243805369080494 0.00240785283615062 0.00216568232918044 0.0024449180263111 0.00242020134361966 0.00242859484495238 0.00265073786587516 0.00240956815545657 0.00267810128213887 0.00265972740180255 0.0026810136966869 0.00286100082410994 0.00293350911634908 0.00257718261410485 0.0026775472386032 0.00292667372528314 0.00285177097170951 0.0026533513699604 0.00260988947781319 0.0026894402497139 0.00285261976862585 0.00264269565908565 0.00243010068346029 0.00266159039638808 0.00260213523586571 0.0024369746054596 0.0025975852291524 0.00211506994320838 0.00260655275197426 0.0020999970449171 0.00234920202565253 0.00260071767659344 0.00235422525407203 0.00274726203403298 0.00286541735002271 0.00259022123231419 0.00275569229870448 0.00274667701698463 0.00295348552857527 0.00303977469289568 0.00285809223358874 0.0027629272128146 0.00303338949063138 0.0027572304970042 0.00295255008081024 0.00228304961781495 0.00234059970719732 0.00275651582738304 0.00227953184698212 0.0029682723286345 0.00225901656410375 0.00247440225544333 0.00296427734872718 0.00303043030042442 0.00330794942159719 0.00305294775132513 0.00294102173325254 0.00329245213658299 0.00284448732870579 0.00304504588786263 0.00294879795355803 0.00296680643927908 0.00291402014020434 0.00330483747502575 0.000693266679719746 0.000935239635054782 0.00063651008226998 0.000687937217251702 0.000960738820040912 0.00068608364602124 0.000682077739100874 0.000970122197834862 0.000945640888373314 0.000971713785883783 0.0014762459973248 0.00132769900906138 0.000971513035561432 0.000949230341875071 0.00147469809433894 0.00172033980602084 0.00226154048248639 0.00147802639616826 0.000939920775803611 0.00170711556704609 0.001486292128373 0.00172320142274849 0.00226654249112138 0.00244961764482969 0.00225452933489157 0.00148507863595944 0.00185303453704228 0.0014851382539516 0.00132254634672857 0.00184846903628149 0.00132643144073628 0.00184411557442731 0.00146782463105541 0.00209721765021773 0.00234530701411599 0.00186194023145347 0.00234970823091693 0.00226348862321573 0.00185685883426286 0.00210256394601292 0.00185311239566844 0.00146867819777751 0.00132452064672704 0.00146437359123192 0.000979521042083993 0.00145601862922666 0.000984842958305431 0.0010147260112012 0.000976880605493123 0.0013211867931934 0.000983382785165094 0.000969457257745054 0.000981361068842185 0.000677227221486452 0.000970351270110515 0.000684928211852528 0.00068682231373888 0.000684621520064622 0.000709654502349131 0.00100260360597828 0.000683668599010202 0.00070388353237483 0.000547884230058063 0.000698059240765971 0.00101105033770552 0.00111622796884867 0.000978244469765762 0.000677370839171367 0.00101122220363189 0.00146233081454813 0.00101139464666841 0.00155945744749129 0.00209633222390067 0.00147190437224082 0.00155871573062322 0.00206970965832783 0.00209586673572968 0.00156825007935002 0.00206375216607322 0.00157130298000822 0.00159358449637942 0.00155848118337047 0.00112490668383262 0.00159936125299493 0.00101656590929179 0.00155294680463406 0.00112391983907899 0.00112812094964725 0.00159379550649534 0.00119069442113373 0.00159376515241066 0.00143722795025025 0.00119254873719083 0.00172120108261065 0.00159934066138572 0.00143596352236629 0.00158425985796035 0.00171961197799507 0.00143881231383543 0.00143536475288857 0.00119368774863698 0.00120054061598972 0.000852208376459694 0.000943438424480022 0.000697703465200786 0.00118720092171558 0.000854849318048329 0.000946554082284829 0.0011207103803935 0.00119014790470166 0.000852830650071681 0.00070332755125549 0.00111248650008144 0.000858709740401657 0.000706393319411832 0.000842253597198218 0.00054737616215252 0.00084226569025092 0.000549260095007481 0.000705179982277859 0.000554134654192997 0.000533240365824694 0.000525728596003205 0.000698418841222982 0.000563635167992198 0.000557246596550492 0.000554354263422019 0.000556473069632467 0.000554983347327708 0.000546341033737677 0.000563306882214708 0.000540659345938974 0.000570005464805974 0.000530877955873151 0.000764885916586432 0.000774973046547414 0.00081111681492729 0.00114913583211577 0.000775758881780268 0.00099706752957155 0.00115061406130309 0.000810125105494041 0.00106743459792046 0.00115313660617199 0.000815074883582072 0.000696857227852169 0.00106211549601803 0.000564414671388682 0.000776165453150531 0.000808208468248315 0.00056533059907142 0.000806822715361803 0.00069987870818169 0.000705202774684341 0.000933031364857436 0.000627739358845993 0.00107103804817651 0.000942461203701908 0.0013485304178275 0.000694009218568715 0.00106307208072106 0.000940354112721953 0.00093912918967375 0.00135172510063469 0.00125157386739263 0.00094422644668413 0.000877520616593503 0.00124544214165177 0.000937802486989487 0.000622109588361095 0.000875843056446475 0.000624360112097332 0.000572707550254816 0.000549673621794092 0.000620923304479663 0.000551687961226267 0.000560767336711073 0.000569398226231843 0.000567746947838025 0.000548022987071707 0.000697393790354891 0.000631936517016862 0.000563147898304398 0.000576828158135606 0.000695755498915672 0.000566082413571441 0.000565278640265737 0.000552918764396905 0.000555670694044539 0.000696986885836775 0.000556775022169428 0.000552812605454457 0.00067602243285787 0.000559185124688467 0.000559042065536795 0.000681255117662364 0.000684441116222543 0.000551041050139189 0.000671620587207916 0.00056401734569759 0.000568648046563682 0.000560222857754029 0.000570060767941542 0.000665830480089498 0.000561301826982668 0.000680084284358681 0.000679571076897306 0.000636291648971935 0.000551624440381993 0.000674471842546801 0.0006294474106943 0.000872017558407104 0.000682470678908714 0.000882266738217878 0.00105449064742653 0.000674961442435215 0.000874475345153131 0.00106184099978177 0.00124934972252383 0.00106654129640166 0.000891028956324961 0.00133489684077092 0.000889663327029064 0.000682535866931677 0.000682849383318071 0.00105546632123816 0.000893373415934705 0.000671870885673414 0.000898369565105185 0.000673300561988504 0.0010140558779496 0.00102003783587453 0.00155711028321341 0.00134725134592049 0.000888143778455236 0.00102385084205593 0.00133611333675678 0.00101748508604073 0.00155751465109921 0.00115320789328894 0.00102702962761484 0.000730456237504005 0.00114388572197502 0.000675223753029336 0.00101057905439751 0.000737555802953396 0.000719896253935896 0.00056497073670148 0.00060218158727389 0.000685512932314293 0.000725586702397067 0.000557646404533229 0.000572744430930815 0.00067126819838694 0.000571355561056841 0.00068267473517763 0.000683632045604199 0.000558938929191116 0.000674239151417603 0.000569992912591636 0.00057886983204313 0.000686111596071451 0.000573118613262159 0.000638972528333066 0.000744510863621834 0.000599993873482855 0.000557202517774817 0.000749721427835405 0.000597793583434855 0.000830976929201471 0.000597164603799852 0.000831142389380583 0.000629922657870692 0.000597745398521218 0.000623008261524264 0.000473250702230628 0.00059192190617129 0.000461528328040325 0.000477187157099756 0.000595710487115582 0.000559738099497609 0.000457940867122133 0.000560018021100553 0.000487886640301739 0.000639833208733414 0.000558591074112597 0.000491584886806725 0.000459951539435119 0.00048745169981621 0.000557640166509966 0.000430371339972587 0.000488056238806544 0.000562616515519156 0.000638839824012587 0.00056072222103197 0.000639536611430176 0.000769797755025448 0.000744816835432248 0.000558000893276399 0.000644391854199992 0.000748865587026768 0.000640171458945121 0.000911307740443764 0.000641524211019701 0.000770891090800441 0.000908126684843581 0.000773064685431921 0.00100035625197425 0.000909325203055997 0.00113715838761377 0.000995389664481874 0.000917756443646006 0.00120120618455757 0.00114124285933196 0.000917552994192499 0.00120412160380671 0.00094347000187088 0.00112105033792479 0.00120143010672041 0.000913340667408314 0.000944494610999723 0.000748739085950347 0.000914971314898184 0.00094165377880893 0.000747711695250282 0.000941162667378163 0.000834809311271485 0.00094275233117092 0.000835099559872149 0.00111698169351045 0.00138122946611227 0.00111920733132972 0.000973524778292156 0.00138574203025578 0.000969581657708595 0.00124814216992291 0.00154122850386881 0.00138329591262679 0.00125305819718419 0.000968048200124056 0.00124433600659585 0.000887706677614867 0.00083332082459135 0.00111854380871359 0.000969683922988441 0.00158638739970262 0.00143659584249229 0.00120233203875651 0.00158221925121749 0.00124618197644592 0.00120474020734339 0.00158225581250012 0.00154303468733819 0.00125163761417613 0.00124819194038615 0.00119876835614312 0.000884338243422646 0.00119640689940786 0.000947028090937616 0.000884349730763984 0.00119018643076334 0.00120085417401059 0.000945225199152713 0.000943943791029205 0.000886359121402764 0.000698097753840617 0.000879026426254458 0.000593158398917845 0.00075547828065604 0.000877426077751108 0.000592285812168867 0.000699963083419708 0.000602776546338379 0.000692265513660422 0.000516283932698574 0.000558316417460833 0.000690376969603355 0.000517171255170389 0.000837402405631969 0.000959996483055586 0.000626640449239219 0.00096553291205866 0.000885329565217595 0.000751567089071594 0.000959949446127388 0.000752890239332084 0.000625446042751488 0.000598236884693568 0.000752092467364259 0.000630151064920726 0.000596093134881522 0.000622537180058126 0.000467122588624626 0.000616079173231527 0.000472744860453417 0.000480016455798613 0.000476238535610859 0.000489842135782302 0.000469150034643036 0.000590567032536224 0.000477374058761968 0.000508928256990484 0.000466359336725955 0.00051747724161208 0.000604952638387029 0.000467697173117004 0.000504416679124252 0.000605012415515533 0.000480502875759446 0.000509018545742813 0.000515263296109932 0.000521084198814811 0.000508680534086885 0.000513280465917213 0.000594551115509108 0.000521898155527374 0.000506425164344276 0.000538687698298509 0.000518227507864729 0.000517034879889974 0.000535805912563878 0.000512454768537314 0.000706836650432991 0.000526678436094744 0.000769396175569654 0.000720040323826375 0.000511358132303247 0.000709895544790707 0.000623406146963731 0.000718664170813575 0.000614830298372126 0.000908097877622753 0.000715601705659702 0.000917575236996984 0.00106162472271311 0.000778886766308355 0.000716638442661008 0.000990640853112721 0.000713141170606877 0.000992649099128719 0.00106235896672641 0.00049237525491275 0.000615222527141563 0.000662356835995912 0.000614416136493936 0.000909250195471534 0.000813818127120847 0.0006179620690632 0.000810816550329047 0.000669609594641483 0.000812273983756005 0.000666841239258735 0.000917947581029784 0.000668421716494782 0.000750670518777398 0.000547889702515142 0.000669154088134748 0.000756477907681307 0.00091598727937231 0.000748612181091756 0.00055016286729754 0.000597244745783315 0.000550467835496403 0.000455739583045736 0.000591143704977712 0.000493450508927294 0.000661734807774615 0.000555410285886155 0.000491337615028117 0.000460620947321532 0.000469233994071486 0.00049602641445228 0.000546939255983671 0.000452478773083971 0.000545506402725959 0.000454606391997041 0.000463601435055895 0.000456961561310952 0.000450708353689345 0.000454503633961148 0.000454567085059346 0.000459178808233687 0.000475770060417644 0.000423851923934158 0.000429835379901806 0.000416709336494134 0.000484436397906724 0.000420823123873783 0.000436377757290321 0.000484376036021768 0.000460013137420052 0.00042029920