<?xml version="1.0"?>
<VTKFile type="UnstructuredGrid" version="0.1" byte_order="LittleEndian">
<UnstructuredGrid>
<Piece NumberOfPoints="6444" NumberOfCells="2148">
<Points>
<DataArray type="Float64" NumberOfComponents="3" format="ascii">
0.0736345888316307 0.0637333048655595 0 0 0 0 0.105263157894484 0 0 0 0.102040816326531 0 0 0 0 0.0736345888316307 0.0637333048655595 0 0.105847738327952 0.150895293579407 0 0 0.204081632653061 0 0 0.102040816326531 0 0.105847738327952 0.150895293579407 0 0 0.102040816326531 0 0.0736345888316307 0.0637333048655595 0 0.0736345888316307 0.0637333048655595 0 0.157062047935717 0.0657304144218603 0 0.105847738327952 0.150895293579407 0 0.105263157894484 0 0 0.157062047935717 0.0657304144218603 0 0.0736345888316307 0.0637333048655595 0 0.157062047935717 0.0657304144218603 0 0.210526315788968 0 0 0.245859050062934 0.0615708420060463 0 0.105263157894484 0 0 0.210526315788968 0 0 0.157062047935717 0.0657304144218603 0 0.222741758606036 0.141984576675053 0 0.157062047935717 0.0657304144218603 0 0.245859050062934 0.0615708420060463 0 0.222741758606036 0.141984576675053 0 0.105847738327952 0.150895293579407 0 0.157062047935717 0.0657304144218603 0 0.245859050062934 0.0615708420060463 0 0.322030541746038 0.113556493866926 0 0.222741758606036 0.141984576675053 0 0.245859050062934 0.0615708420060463 0 0.210526315788968 0 0 0.315789473683452 0 0 0.315789473683452 0 0 0.322030541746038 0.113556493866926 0 0.245859050062934 0.0615708420060463 0 0.28395937666824 0.336326657262323 0 0.19912213507756 0.241701131057856 0 0.306529038486018 0.218453285118224 0 0.222741758606036 0.141984576675053 0 0.322030541746038 0.113556493866926 0 0.306529038486018 0.218453285118224 0 0.306529038486018 0.218453285118224 0 0.19912213507756 0.241701131057856 0 0.222741758606036 0.141984576675053 0 0.105847738327952 0.150895293579407 0 0.222741758606036 0.141984576675053 0 0.19912213507756 0.241701131057856 0 0.19912213507756 0.241701131057856 0 0.28395937666824 0.336326657262323 0 0.170994783200652 0.334188745583958 0 0.0963260944161509 0.273811510294367 0 0.19912213507756 0.241701131057856 0 0.170994783200652 0.334188745583958 0 0.0963260944161509 0.273811510294367 0 0.105847738327952 0.150895293579407 0 0.19912213507756 0.241701131057856 0 0.0963260944161509 0.273811510294367 0 0 0.204081632653061 0 0.105847738327952 0.150895293579407 0 0 0.306122448979592 0 0 0.204081632653061 0 0.0963260944161509 0.273811510294367 0 0 0.306122448979592 0 0.0798863474723025 0.392675045642543 0 0 0.408163265306122 0 0.0963260944161509 0.273811510294367 0 0.0798863474723025 0.392675045642543 0 0 0.306122448979592 0 0.0798863474723025 0.392675045642543 0 0.099581482345634 0.49355644173514 0 0 0.408163265306122 0 0.0798863474723025 0.392675045642543 0 0.19230207234368 0.422678825965969 0 0.099581482345634 0.49355644173514 0 0.0798863474723025 0.392675045642543 0 0.0963260944161509 0.273811510294367 0 0.170994783200652 0.334188745583958 0 0.0798863474723025 0.392675045642543 0 0.170994783200652 0.334188745583958 0 0.19230207234368 0.422678825965969 0 0 0.612244897959184 0 0 0.510204081632653 0 0.0636610927580281 0.559357934802157 0 0.0788823051552232 0.670851705018505 0 0 0.612244897959184 0 0.0636610927580281 0.559357934802157 0 0.099581482345634 0.49355644173514 0 0 0.510204081632653 0 0 0.408163265306122 0 0.0636610927580281 0.559357934802157 0 0 0.510204081632653 0 0.099581482345634 0.49355644173514 0 0.099581482345634 0.49355644173514 0 0.222058877190937 0.510857644422808 0 0.124792039049303 0.598138423871711 0 0.124792039049303 0.598138423871711 0 0.0788823051552232 0.670851705018505 0 0.0636610927580281 0.559357934802157 0 0.0636610927580281 0.559357934802157 0 0.099581482345634 0.49355644173514 0 0.124792039049303 0.598138423871711 0 0.124792039049303 0.598138423871711 0 0.222058877190937 0.510857644422808 0 0.235802928303382 0.611564357809131 0 0.19230207234368 0.422678825965969 0 0.222058877190937 0.510857644422808 0 0.099581482345634 0.49355644173514 0 0.298455345785692 0.447563908098048 0 0.314543409362701 0.549165380872091 0 0.222058877190937 0.510857644422808 0 0.235802928303382 0.611564357809131 0 0.222058877190937 0.510857644422808 0 0.314543409362701 0.549165380872091 0 0.335916026949355 0.661311993908121 0 0.235802928303382 0.611564357809131 0 0.314543409362701 0.549165380872091 0 0.19230207234368 0.422678825965969 0 0.170994783200652 0.334188745583958 0 0.28395937666824 0.336326657262323 0 0.19230207234368 0.422678825965969 0 0.298455345785692 0.447563908098048 0 0.222058877190937 0.510857644422808 0 0.19230207234368 0.422678825965969 0 0.28395937666824 0.336326657262323 0 0.298455345785692 0.447563908098048 0 0.28395937666824 0.336326657262323 0 0.399803174487431 0.298440986856889 0 0.377510554953585 0.391263936876735 0 0.406811536593169 0.484911194529197 0 0.298455345785692 0.447563908098048 0 0.377510554953585 0.391263936876735 0 0.28395937666824 0.336326657262323 0 0.377510554953585 0.391263936876735 0 0.298455345785692 0.447563908098048 0 0.377510554953585 0.391263936876735 0 0.498523341233396 0.389076937637219 0 0.406811536593169 0.484911194529197 0 0.399803174487431 0.298440986856889 0 0.500986724861322 0.250629842679194 0 0.498523341233396 0.389076937637219 0 0.399803174487431 0.298440986856889 0 0.498523341233396 0.389076937637219 0 0.377510554953585 0.391263936876735 0 0.420597075781915 0.595854369448944 0 0.335916026949355 0.661311993908121 0 0.314543409362701 0.549165380872091 0 0.298455345785692 0.447563908098048 0 0.406811536593169 0.484911194529197 0 0.314543409362701 0.549165380872091 0 0.420597075781915 0.595854369448944 0 0.314543409362701 0.549165380872091 0 0.406811536593169 0.484911194529197 0 0.509931573480221 0.522280814579519 0 0.420597075781915 0.595854369448944 0 0.406811536593169 0.484911194529197 0 0.517751522887305 0.649204659932698 0 0.420597075781915 0.595854369448944 0 0.509931573480221 0.522280814579519 0 0.587686537066514 0.464126045476426 0 0.613945404707068 0.570990073651732 0 0.509931573480221 0.522280814579519 0 0.517751522887305 0.649204659932698 0 0.509931573480221 0.522280814579519 0 0.613945404707068 0.570990073651732 0 0.500986724861322 0.250629842679194 0 0.581885168833657 0.302392759021642 0 0.498523341233396 0.389076937637219 0 0.406811536593169 0.484911194529197 0 0.498523341233396 0.389076937637219 0 0.509931573480221 0.522280814579519 0 0.509931573480221 0.522280814579519 0 0.498523341233396 0.389076937637219 0 0.587686537066514 0.464126045476426 0 0.614047778589085 0.387795898525738 0 0.587686537066514 0.464126045476426 0 0.498523341233396 0.389076937637219 0 0.581885168833657 0.302392759021642 0 0.614047778589085 0.387795898525738 0 0.498523341233396 0.389076937637219 0 0.581885168833657 0.302392759021642 0 0.672697639570897 0.28766618318192 0 0.614047778589085 0.387795898525738 0 0.581885168833657 0.302392759021642 0 0.500986724861322 0.250629842679194 0 0.611102057161856 0.196335598991703 0 0.581885168833657 0.302392759021642 0 0.611102057161856 0.196335598991703 0 0.672697639570897 0.28766618318192 0 0.611102057161856 0.196335598991703 0 0.500986724861322 0.250629842679194 0 0.513101370826361 0.134129492815744 0 0.513101370826361 0.134129492815744 0 0.500986724861322 0.250629842679194 0 0.412014556344116 0.189798498882905 0 0.594439451232812 0.0887178408363477 0 0.611102057161856 0.196335598991703 0 0.513101370826361 0.134129492815744 0 0.526315789472444 0 0 0.631578947367022 0 0 0.594439451232812 0.0887178408363477 0 0.526315789472444 0 0 0.594439451232812 0.0887178408363477 0 0.513101370826361 0.134129492815744 0 0.513101370826361 0.134129492815744 0 0.420915352533358 0.074985042685528 0 0.526315789472444 0 0 0.420915352533358 0.074985042685528 0 0.513101370826361 0.134129492815744 0 0.412014556344116 0.189798498882905 0 0.526315789472444 0 0 0.420915352533358 0.074985042685528 0 0.421052631577937 0 0 0.322030541746038 0.113556493866926 0 0.315789473683452 0 0 0.420915352533358 0.074985042685528 0 0.420915352533358 0.074985042685528 0 0.315789473683452 0 0 0.421052631577937 0 0 0.412014556344116 0.189798498882905 0 0.322030541746038 0.113556493866926 0 0.420915352533358 0.074985042685528 0 0.412014556344116 0.189798498882905 0 0.306529038486018 0.218453285118224 0 0.322030541746038 0.113556493866926 0 0.412014556344116 0.189798498882905 0 0.399803174487431 0.298440986856889 0 0.306529038486018 0.218453285118224 0 0.306529038486018 0.218453285118224 0 0.399803174487431 0.298440986856889 0 0.28395937666824 0.336326657262323 0 0.412014556344116 0.189798498882905 0 0.500986724861322 0.250629842679194 0 0.399803174487431 0.298440986856889 0 0.295350406939813 1.24878144427625 0 0.246522554351683 1.16362252184999 0 0.352853207783426 1.1463879991198 0 0.295350406939813 1.24878144427625 0 0.181863964367382 1.24890101842418 0 0.246522554351683 1.16362252184999 0 0.246522554351683 1.16362252184999 0 0.283487779541101 1.08170937477947 0 0.352853207783426 1.1463879991198 0 0.283487779541101 1.08170937477947 0 0.246522554351683 1.16362252184999 0 0.202239780457393 1.08245817859136 0 0.156022104484688 1.15671384061775 0 0.202239780457393 1.08245817859136 0 0.246522554351683 1.16362252184999 0 0.156022104484688 1.15671384061775 0 0.246522554351683 1.16362252184999 0 0.181863964367382 1.24890101842418 0 0.156022104484688 1.15671384061775 0 0.181863964367382 1.24890101842418 0 0.0769912270182558 1.21550350972786 0 0.0769912270182558 1.21550350972786 0 0 1.22448979591837 0 0 1.12244897959184 0 0 1.12244897959184 0 0.0938420895696505 1.07913022382781 0 0.0769912270182558 1.21550350972786 0 0.156022104484688 1.15671384061775 0 0.0938420895696505 1.07913022382781 0 0.202239780457393 1.08245817859136 0 0.0769912270182558 1.21550350972786 0 0.0938420895696505 1.07913022382781 0 0.156022104484688 1.15671384061775 0 0.0938420895696505 1.07913022382781 0 0.156323146912265 0.989428081563376 0 0.202239780457393 1.08245817859136 0 0.156323146912265 0.989428081563376 0 0.0938420895696505
[...]
<PointData Scalars="conc_conc," Vectors="" Tensors="">
<DataArray type="Float64" Name="conc_conc" format="ascii">
0.000995336627779699 0.00093715563727444 0.00098578178793516 0.00099578818955747 0.000937946113880964 0.000997431977079212 0.00107704493779331 0.00105717790274476 0.000994612171385198 0.00107925790738121 0.000993552371377537 0.00100143285097594 0.000997927068364942 0.0010780188345275 0.00108350266280592 0.000986496160088891 0.00107616327964561 0.000997387047110268 0.00107936551272193 0.00109870232355736 0.00118377546415238 0.000987082129141642 0.00110034476517505 0.00107431932379151 0.00122752365091215 0.00108062068723512 0.00118597597441071 0.00122579086392076 0.0010835912719088 0.0010810303739077 0.00118476048578332 0.00132047213687125 0.0012308722273019 0.0011806674961245 0.00110317940989317 0.00121410468789292 0.00120808196646736 0.00131672369033175 0.00118634000808659 0.00151212282358798 0.00128435719471605 0.00141701049456708 0.00123095439864662 0.00132131205305047 0.0014132476883315 0.00141551418720804 0.00128424334611819 0.00122613926347729 0.00108199087478568 0.00122717754092211 0.00127806971918256 0.00128054222907507 0.00151220180437409 0.00131888834171767 0.00116088536811411 0.00127986962738938 0.00131670714410252 0.00116286442691602 0.00108335090747222 0.00127568102523149 0.00115830455522745 0.00105378290786789 0.00108260660004289 0.00112472060785223 0.00105889460427306 0.00115440702555704 0.0011262927114877 0.00122681717896255 0.00119511324515343 0.00115953828645901 0.00122950358443153 0.00112143567069947 0.00123076390545752 0.00132306160568698 0.0011919303019299 0.00122483786796293 0.00143329760465771 0.00132888064165364 0.00122954290725605 0.00116233948215041 0.00131519052848134 0.00122542055676094 0.00131972876100616 0.00143384786323956 0.00133986853881773 0.00126733190681799 0.00133623825340279 0.00144062144780368 0.00133544782937674 0.00134088106970979 0.00131866242430839 0.00126489873264797 0.00119471905107974 0.0013388719913287 0.00126170388711011 0.00132445722533467 0.00132586729799672 0.00158743070232908 0.00146512943769729 0.00146060931620716 0.00144305819206248 0.00133903148905131 0.00133843295111264 0.00133033085525759 0.0014624133763062 0.00146314068424614 0.00159313958013192 0.00173553808489196 0.00144007814861859 0.00158668992826052 0.00132736830013172 0.00166807046584631 0.00182445809088841 0.00159598042892618 0.00174148850123734 0.0015920757562324 0.00182737307710264 0.00201947439590711 0.0017452962022874 0.00182526772306636 0.00144007509751408 0.001317615397169 0.00151494791907068 0.00143926676806226 0.00166924548621732 0.00159208210948457 0.00144295374118208 0.00151484695501951 0.00166605275233106 0.00152513083750544 0.00158077019711126 0.00168615141229168 0.00182893798677931 0.00167509605537086 0.00168433129881578 0.00151682452058814 0.00168868606488986 0.00166954793222037 0.00169433404138867 0.00164888427162178 0.00182836179230271 0.00158238015862427 0.00146494361105795 0.00164118908891586 0.00157364376225187 0.00165025463697771 0.00169127318811413 0.00199932637537634 0.00202537697602594 0.00183142617841015 0.00167217589030347 0.00183292785172813 0.0018312214013888 0.00199291763662166 0.00183894374895011 0.0018239723904524 0.00180683748627857 0.00199263060048636 0.00183095688719943 0.00197018378491161 0.00200132753218185 0.00179436475480816 0.001536803872421 0.00159217327354708 0.00180088837576201 0.00196318079357106 0.00180045301117379 0.00159581924339005 0.00146521324746602 0.00137768842823644 0.00163657890177237 0.00183564102211438 0.00163473423002364 0.00180018247507195 0.00179441686644382 0.00163981531363875 0.00154614108668963 0.00138694371200713 0.00154287802847303 0.00164585500414267 0.00137064069231093 0.00138701331636225 0.00164308797273713 0.0013753557805284 0.00112295764097716 0.00138121073116409 0.00137452464964587 0.00146924208475247 0.00120466239066151 0.00137269789796887 0.00120111838892071 0.00112567872757036 0.00121195930470345 0.00146383018378699 0.0013180029594593 0.00132041112644029 0.00146430905648744 0.00145286312133523 0.00113695167186455 0.00120859583051134 0.00131935520028095 0.00118147904824831 0.00100333316817026 0.00113195035159804 0.00117204493613563 0.00113960185981198 0.00131455553506325 0.00131776274305909 0.00132166735622846 0.00117388821435135 0.00131707588032744 0.00132536062172446 0.00144838947268185 0.00118263917423793 0.00131213256254884 0.00125516321926787 0.00131984517349424 0.00120866659724407 0.00132086700631949 0.00131174626998831 0.00121669947820305 0.00125520708814651 0.00144668912431683 0.00132421462052734 0.00131958205199118 0.00145150417541972 0.00141813374980196 0.00131765933576247 0.00144995596253358 0.00157610084634729 0.0014204054343624 0.00141155803738572 0.00158245258119292 0.00152213304893345 0.00144547583501857 0.00146996243829504 0.00157762765536189 0.00294467072720085 0.00257074027628884 0.00293653297252535 0.00293705447173332 0.00236403117226754 0.00255735488611236 0.00257008539576535 0.002568475906487 0.00293491747893826 0.00257493860180573 0.00255787353510902 0.00223438443722671 0.00212124931044159 0.00223149764907501 0.00255143810174844 0.00211772077355303 0.00255494062143778 0.00235794302319673 0.00212431991583839 0.00234290789214261 0.00186954854439284 0.00186674354289763 0.00178510743518529 0.0017053915496766 0.00169104642773109 0.00180648351245909 0.00187759091996453 0.00211853633995258 0.00180368920413311 0.00222393751734784 0.00188067746128161 0.0018125080937667 0.00211330718454629 0.00180773452754726 0.00193656691408175 0.00222055134782562 0.00192617801886595 0.00181062292504746 0.00167939209105618 0.0017926297317027 0.00169979433932036 0.00162950673468122 0.00180055394674869 0.0016234739886402 0.00168635517721482 0.00163171784830224 0.00155638321559399 0.00167724972587797 0.00167646374202117 0.00192445665163491 0.00168239965397496 0.00193665276686659 0.0020713142013084 0.00232648478485113 0.00193222733400662 0.00233046047525123 0.00223082022665355 0.0023300603293537 0.00257147391867401 0.00223792116684405 0.00268235895584697 0.00257338731345018 0.00233328427116312 0.00267616878964888 0.00233884941183572 0.00239806286835726 0.00207315963376949 0.00240349424726613 0.00233186097772633 0.00215577445163009 0.00239970962215652 0.00207749747671802 0.00185667690265029 0.00188840876428876 0.00215487021126533 0.00215789374246787 0.00207137019109729 0.00185482017827135 0.0020646530872512 0.00193314374659775 0.00166753662436223 0.00206317535489719 0.00167068766094186 0.00185669391131541 0.00165372361320964 0.00155051288475196 0.00147665798127631 0.00168316968602742 0.0015435728302287 0.00166532377755163 0.00146658327839857 0.00156316860395815 0.00166210638502422 0.00167491722596833 0.00156378211071971 0.00184923534140965 0.00147426699934233 0.00140347314663246 0.00155109459496726 0.0014462015765056 0.00155462071009257 0.00140178022968486 0.00133846132852287 0.00143788589078192 0.00140833035339756 0.00160776794065086 0.00143999223843839 0.00146486921916092 0.00160793433222766 0.00156311031827482 0.00143890739339095 0.00174100674223647 0.00188500282247726 0.00161520355278686 0.00145978310776398 0.00173776893711205 0.00161377107750219 0.00161336070937539 0.00188430201595995 0.00156319910320269 0.00156090891827569 0.00188715173600213 0.00185220589903596 0.00216010400472732 0.00189845668483596 0.00222217360670214 0.00173974741908798 0.00202398303271288 0.00189780065521425 0.00203037117089734 0.00213060256169337 0.00221641461542862 0.00202068455789946 0.00221762880247821 0.00190368074132308 0.00222575849758595 0.00211732990966486 0.00223273191452137 0.00203473860116752 0.00198847786761345 0.00212579799336845 0.00212292542391598 0.00199440163446852 0.00197730529894377 0.00222454180046573 0.00212652102270207 0.00196927577705283 0.00172452882845647 0.00197025706646928 0.00158360130482211 0.00201285035611381 0.00196943487962045 0.00172696289952355 0.00171827860551851 0.00160585048133849 0.00201524821520537 0.00223055811167995 0.00202035891394412 0.0022858957638639 0.00222837981367661 0.00195929743119141 0.00202033807325465 0.00205990894278073 0.00201889207500568 0.00160305239606837 0.00200953440068633 0.00206685730733476 0.00228998096165574 0.00205812504578628 0.0021105114360578 0.00243903204412183 0.00244847093598965 0.00229044351952229 0.0024398566880138 0.00243332745652993 0.0022916619833892 0.00206768809484382 0.00244748458951792 0.00264962098007263 0.00243859202651851 0.00229159513162314 0.00244319514823959 0.00222011837441656 0.00223607186205185 0.0024326901798123 0.00222473343693047 0.00217035626648841 0.00220917078990476 0.0024380536907956 0.00240785283616531 0.00216568232918954 0.00244491802630378 0.00242020134363082 0.00242859484494742 0.00265073786587046 0.00265972740179542 0.00267810128215587 0.00240956815546752 0.00293350911638538 0.0026810136967014 0.00286100082411324 0.00292667372531882 0.00257718261415893 0.00267754723860167 0.0026098894777997 0.00285177097171307 0.00265335136995904 0.00264269565907767 0.00285261976862935 0.00268944024973034 0.00260213523585116 0.0026615903963866 0.0024301006834449 0.00243697460544352 0.00211506994317459 0.00259758522913475 0.00234920202561957 0.00260655275195839 0.00209999704488094 0.00274726203401551 0.00260071767657818 0.0023542252540397 0.0025902212322988 0.00275569229868553 0.00286541735002607 0.00303977469291765 0.0027466770169643 0.00295348552855124 0.00276292721279438 0.00303338949064904 0.00285809223359104 0.00295255008077942 0.00275723049698473 0.00228304961777798 0.00227953184694491 0.00275651582736481 0.00234059970716488 0.00247440225540379 0.0029682723285989 0.00225901656407066 0.00296427734869967 0.00330794942166987 0.00303043030044975 0.00329245213665084 0.00294102173329778 0.00305294775134626 0.00284448732870309 0.00304504588787418 0.00294879795359339 0.00291402014024641 0.00330483747508995 0.00296680643935952 0.000693266679706203 0.000636510082250844 0.00093523963503648 0.000686083646012206 0.000687937217239086 0.000960738820024686 0.000682077739087838 0.000945640888354025 0.000970122197819616 0.00132769900904519 0.000971713785869283 0.00147624599730612 0.000971513035547108 0.000949230341853703 0.00147469809431912 0.00226154048245031 0.00147802639614867 0.0017203398059897 0.00170711556701577 0.00148629212835339 0.000939920775781619 0.00244961764479329 0.00226654249108509 0.00172320142271643 0.00185303453700983 0.00148507863594241 0.00225452933485617 0.00148513825393555 0.00184846903624835 0.00132254634671181 0.00132643144071684 0.00184411557438882 0.00146782463103361 0.00209721765018199 0.00186194023140966 0.00234530701407875 0.00226348862317967 0.00234970823087794 0.00185685883421803 0.00185311239562566 0.00210256394597053 0.00146867819775624 0.00132452064670892 0.00146437359121097 0.000979521042068996 0.00145601862920613 0.00101472601119071 0.000984842958289313 0.00132118679317696 0.000983382785147768 0.000976880605478436 0.000677227221480329 0.000969457257726241 0.000981361068820558 0.000686822313734138 0.000684928211844379 0.000970351270090677 0.000684621520059279 0.00100260360596927 0.000709654502346299 0.000703883532372575 0.000547884230056229 0.000683668599005789 0.00101105033769749 0.00111622796884605 0.000698059240761946 0.000677370839166405 0.000978244469745768 0.00101122220362284 0.00146233081452684 0.00155945744747824 0.00101139464665869 0.00209633222385592 0.00155871573060941 0.00147190437222221 0.00209586673568838 0.00206970965829592 0.00156825007932767 0.00159358449636021 0.00157130297998531 0.00206375216603679 0.00159936125297384 0.00112490668383406 0.00155848118335632 0.00155294680462703 0.00112391983907699 0.00101656590928561 0.0011281209496476 0.00159379550647565 0.00119069442112899 0.00119254873718586 0.00159376515239162 0.00143722795023631 0.00159934066136597 0.00172120108258944 0.00143596352235293 0.00143881231382156 0.00171961197797449 0.00158425985794427 0.00143536475287478 0.00120054061598387 0.0011936877486315 0.000943438424480826 0.000697703465203751 0.000852208376461249 0.00118720092171099 0.000946554082285507 0.000854849318049703 0.00119014790469763 0.000852830650073092 0.001120710380393 0.000703327551251616 0.00111248650007943 0.000858709740404017 0.000547376162152236 0.000706393319411307 0.000842253597201758 0.000705179982280705 0.000549260095007117 0.000842265690253398 0.000554134654193078 0.000525728596006676 0.000533240365830159 0.000557246596551648 0.000698418841222532 0.000563635167992904 0.000554354263422893 0.000556473069637565 0.000554983347328208 0.000563306882219701 0.000546341033738709 0.0005406593459446 0.000764885916600899 0.000570005464811104 0.000530877955878389 0.000811116814940196 0.000774973046562524 0.0011491358321483 0.00077575888179587 0.000997067529598437 0.00115061406133667 0.000810125105506539 0.00115313660620495 0.0010674345979455 0.000815074883595225 0.00106211549604192 0.000696857227855808 0.000808208468261777 0.000564414671393984 0.000776165453165763 0.000699878708184875 0.000565330599077848 0.000806822715375048 0.000627739358845415 0.000705202774689647 0.000933031364872258 0.00107103804820153 0.00134853041786152 0.000942461203717991 0.000694009218572476 0.00106307208074467 0.000940354112738209 0.00135172510066975 0.00125157386741942 0.00093912918969017 0.000877520616599705 0.000944226446700546 0.00124544214167831 0.000875843056453932 0.000622109588360577 0.000937802487004362 0.000549673621789598 0.000572707550255014 0.00062436011209453 0.000551687961222708 0.000620923304476336 0.000560767336704148 0.000548022987071673 0.000569398226237954 0.000567746947839554 0.000697393790360115 0.000631936517015803 0.000563147898305508 0.000566082413575134 0.000576828158142971 0.000695755498919741 0.000555670694040105 0.000552918764398227 0.000565278640266204 0.000696986885836169 0.000556775022171006 0.000552812605452123 0.000559185124686216 0.000559042065532841 0.000676022432854722 0.000684441116219895 0.000551041050136167 0.000681255117651321 0.000564017345692681 0.000568648046552729 0.000671620587199577 0.000570060767930103 0.000560222857746774 0.000665830480081811 0.000561301826970839 0.000680084284351917 0.000679571076887818 0.000636291648970178 0.000674471842540278 0.000551624440373472 0.00068247067890453 0.000629447410694311 0.000872017558415493 0.00088226673822796 0.00105449064743163 0.000674961442431467 0.000874475345160554 0.00124934972254975 0.001061840999791 0.00089102895632274 0.00106654129640863 0.00133489684078337 0.000889663327028215 0.000682849383308127 0.000682535866925769 0.00105546632124424 0.000893373415933642 0.00067187088566884 0.00101405587794674 0.000673300561978683 0.000898369565105179 0.00155711028322361 0.00102003783587303 0.00134725134593087 0.00102385084205508 0.000888143778453017 0.00133611333676897 0.00155751465110978 0.00115320789328837 0.00101748508603919 0.00073045623749241 0.00102702962761358 0.00114388572197484 0.00101057905439566 0.000737555802942186 0.000675223753018652 0.000564970736684882 0.000719896253921827 0.000602181587254959 0.00068551293230548 0.00072558670238448 0.00055764640451539 0.000572744430919431 0.000671268198377696 0.000571355561040364 0.00068267473516509 0.000683632045594935 0.000558938929182549 0.000578869832026556 0.000674239151405557 0.000569992912583828 0.00068611159605839 0.000573118613247021 0.000638972528314334 0.000557202517766516 0.000599993873477234 0.000744510863604094 0.000830976929183586 0.000749721427816837 0.000597793583429297 0.000831142389362346 0.000597164603793806 0.000629922657867261 0.000623008261519493 0.000597745398515234 0.000473250702227601 0.000591921906166004 0.0004615283280331 0.000477187157096396 0.000595710487110091 0.000559738099489023 0.000457940867115116 0.000639833208714531 0.000487886640292646 0.000560018021091485 0.000491584886796485 0.000459951539427649 0.000558591074103284 0.0004874516998057 0.000557640166494379 0.000430371339963862 0.000638839823993726 0.00056261651550229 0.000488056238797212 0.000769797755003979 0.000560722221014709 0.000639536611408806 0.000644391854179072 0.000558000893267918 0.000744816835414645 0.000640171458921897 0.000748865587003993 0.000911307740423679 0.00064152421099581 0.000908126684823066 0.00077089109078071 0.00100035625196581 0.000773064685410752 0.000909325203038019 0.00113715838760828 0.000995389664473265 0.000917756443629684 0.000917552994176376 0.00120120618454988 0.00114124285932662 0.000943470001849531 0.00112105033791226 0.00120412160379889 0.00120143010671481 0.000913340667391029 0.000944494610977016 0.000941653778785043 0.000914971314878568 0.00074873908592674 0.000834809311253707 0.000941162667352179 0.000747711695228651 0.000942752331146441 0.000835099559849939 0.00111698169350095 0.000973524778280556 0.00138122946609693 0.0011192073313159 0.00124814216991198 0.00138574203023901 0.000969581657698921 0.00154122850385137 0.00138329591261021 0.00125305819717221 0.00124433600658506 0.00096804820011454 0.00088770667761524 0.000969683922975801 0.00111854380870034 0.000833320824571183 0.00158638739968659 0.00120233203874984 0.00143659584247893 0.00124618197643423 0.00120474020733772 0.00158221925120167 0.00158225581248194 0.00154303468732199 0.0012516376141626 0.00119876835613741 0.00124819194037443 0.000884338243422993 0.000884349730763362 0.000947028090940211 0.00119640689940281 0.0012008541740062 0.00094522519915545 0.00119018643075717 0.000886359121403082 0.000698097753843521 0.000943943791030548 0.000755478280654403 0.000593158398921411 0.000879026426254866 0.000877426077751134 0.00059228581217209 0.000699963083423151 0.000516283932704304 0.000692265513665514 0.000602776546340211 0.000690376969608557 0.000517171255176218 0.000558316417458384 0.000959996483038615 0.000837402405612236 0.000626640449236895 0.000885329565218634 0.000965532912046834 0.000751567089068997 0.000752890239330001 0.000959949446111114 0.000625446042746819 0.000630151064915749 0.000598236884697327 0.000752092467362258 0.000467122588624217 0.000596093134882789 0.000622537180054288 0.000480016455795456 0.000472744860452797 0.000616079173226429 0.000476238535609922 0.000469150034638723 0.000489842135786713 0.000590567032536625 0.000477374058760884 0.000508928256989047 0.000604952638401193 0.000517477241619707 0.00046635933672501 0.00046769717311601 0.000504416679128534 0.00060501241552921 0.000509018545741516 0.000480502875757687 0.000515263296117616 0.000513280465923654 0.000521084198819875 0.00050868053408661 0.000506425164342123 0.000521898155534051 0.000594551115509526 0.000517034879896607 0.000538687698304892 0.00051822750786795 0.000535805912570662 0.0005124547685447 0.000706836650452598 0.000769396175582805 0.000526678436100601 0.000720040323848156 0.000511358132310693 0.000623406146977502 0.000709895544809653 0.000908097877643251 0.000718664170833007 0.000614830298384618 0.00106162472273872 0.000715601705679849 0.000917575237016391 0.000990640853137076 0.000778886766326045 0.00071663844268348 0.000992649099153684 0.000713141170627739 0.00106235896675122 0.000662356836005302 0.000615222527153965 0.000492375254917927 0.000909250195491374 0.000614416136505908 0.00081381812713489 0.000810816550341983 0.000617962069074582 0.000669609594649885 0.0006668412392668 0.000917947581038934 0.000812273983768168 0.000547889702519481 0.000750670518784221 0.000668421716503379 0.000756477907687438 0.000915987279381198 0.000669154088143299 0.000550162867302154 0.000597244745786424 0.000748612181098326 0.000455739583044967 0.000591143704981179 0.000550467835500133 0.000493450508932307 0.000555410285889132 0.000661734807783417 0.000491337615032523 0.000469233994067458 0.000460620947318223 0.000452478773081002 0.0005469392559865 0.000496026414455155 0.000545506402729171 0.000454606391993461 0.000463601435054586 0.000454503633959962 0.000456961561305747 0.000450708353679422 0.00045456708505281 0.000475770060413722 0.000459178808224274 0.000429835379892284 0.000416709336490405 0.000423851923927127 0.00042082312386608 0.000484436397895343 0.000436377757281218 0.000484376036010113 0.000420299205258386 0.00046001313741183 0.00