<?xml version="1.0"?>
<VTKFile type="UnstructuredGrid" version="0.1" byte_order="LittleEndian">
<UnstructuredGrid>
<Piece NumberOfPoints="6444" NumberOfCells="2148">
<Points>
<DataArray type="Float64" NumberOfComponents="3" format="ascii">
1.8542219899 4.9190573204 0.0000000000 1.8947368421 5.0000000000 0.0000000000 1.7894736842 5.0000000000 0.0000000000 1.7617279742 4.8902941373 0.0000000000 1.8542219899 4.9190573204 0.0000000000 1.7894736842 5.0000000000 0.0000000000 0.0912692111 4.7474378747 0.0000000000 0.0000000000 4.7959183673 0.0000000000 0.0000000000 4.6938775510 0.0000000000 0.0000000000 0.3061224490 0.0000000000 0.0000000000 0.2040816327 0.0000000000 0.0963260944 0.2738115103 0.0000000000 2.0000000000 4.6938775510 0.0000000000 2.0000000000 4.7959183673 0.0000000000 1.8861800738 4.7428922875 0.0000000000 2.0000000000 0.1020408163 0.0000000000 2.0000000000 0.2040816327 0.0000000000 1.9168260657 0.1638313780 0.0000000000 1.7617279742 4.8902941373 0.0000000000 1.7894736842 5.0000000000 0.0000000000 1.6842105263 5.0000000000 0.0000000000 1.6713792382 4.3555658260 0.0000000000 1.6569725195 4.2649936595 0.0000000000 1.7423629103 4.2746866125 0.0000000000 0.3359160269 0.6613119939 0.0000000000 0.3652595892 0.7545548493 0.0000000000 0.2363841735 0.7296874935 0.0000000000 0.9142174725 4.7123675458 0.0000000000 1.0431039833 4.6868230062 0.0000000000 0.9872800728 4.8105423685 0.0000000000 1.7645878445 0.5512456518 0.0000000000 1.6674635938 0.5611131761 0.0000000000 1.6892110015 0.4529014916 0.0000000000 1.1649623330 4.7086890731 0.0000000000 1.0431039833 4.6868230062 0.0000000000 1.1205456800 4.5978508418 0.0000000000 1.1649623330 4.7086890731 0.0000000000 1.2863160018 4.7133643438 0.0000000000 1.2177211740 4.7957991113 0.0000000000 1.5643258840 4.4035530682 0.0000000000 1.6713792382 4.3555658260 0.0000000000 1.6849313191 4.4505946664 0.0000000000 0.4205970758 0.5958543694 0.0000000000 0.3359160269 0.6613119939 0.0000000000 0.3145434094 0.5491653809 0.0000000000 0.9872800728 4.8105423685 0.0000000000 1.0431039833 4.6868230062 0.0000000000 1.0962860399 4.7879400823 0.0000000000 1.3646462625 4.5924150666 0.0000000000 1.4591304181 4.5201242912 0.0000000000 1.4868984501 4.6234692527 0.0000000000 0.9731998290 0.5704471432 0.0000000000 0.8715730992 0.5999589335 0.0000000000 0.9025964010 0.4820800936 0.0000000000 1.1721553793 0.6712425757 0.0000000000 1.0727392020 0.7413529384 0.0000000000 1.0581699578 0.6325564284 0.0000000000 0.7694604708 0.2730531643 0.0000000000 0.8638861567 0.2417663345 0.0000000000 0.8676639121 0.3629112902 0.0000000000 0.7466817711 0.3879264348 0.0000000000 0.7694604708 0.2730531643 0.0000000000 0.8676639121 0.3629112902 0.0000000000 1.3646462625 4.5924150666 0.0000000000 1.2863160018 4.7133643438 0.0000000000 1.2404496712 4.6009065999 0.0000000000 1.1205456800 4.5978508418 0.0000000000 1.1729860791 4.4909184405 0.0000000000 1.2404496712 4.6009065999 0.0000000000 1.5643258840 4.4035530682 0.0000000000 1.6849313191 4.4505946664 0.0000000000 1.5721840690 4.5235230049 0.0000000000 0.4205970758 0.5958543694 0.0000000000 0.3145434094 0.5491653809 0.0000000000 0.4068115366 0.4849111945 0.0000000000 1.1721553793 0.6712425757 0.0000000000 1.0581699578 0.6325564284 0.0000000000 1.1675562122 0.5444613864 0.0000000000 1.0215092046 4.3064579650 0.0000000000 0.9249760607 4.2406861373 0.0000000000 1.0388249272 4.1932155298 0.0000000000 0.6140477786 0.3877958985 0.0000000000 0.5876865371 0.4641260455 0.0000000000 0.4985233412 0.3890769376 0.0000000000 0.8505257455 4.3047427941 0.0000000000 0.9249760607 4.2406861373 0.0000000000 0.9136899431 4.3665288514 0.0000000000 1.2177211740 4.7957991113 0.0000000000 1.2863160018 4.7133643438 0.0000000000 1.3308933361 4.8021000795 0.0000000000 1.4067918922 4.7129583822 0.0000000000 1.2863160018 4.7133643438 0.0000000000 1.3646462625 4.5924150666 0.0000000000 1.4067918922 4.7129583822 0.0000000000 1.5203496477 4.7259348941 0.0000000000 1.4445468781 4.8057293208 0.0000000000 1.0539768044 0.5111783380 0.0000000000 1.0581699578 0.6325564284 0.0000000000 0.9731998290 0.5704471432 0.0000000000 0.9457540055 4.4799906641 0.0000000000 0.9632120590 4.5931874799 0.0000000000 0.8488186930 4.5544616562 0.0000000000 0.9457540055 4.4799906641 0.0000000000 0.9136899431 4.3665288514 0.0000000000 1.0140583229 4.4099747412 0.0000000000 0.7146634246 0.2040887190 0.0000000000 0.7694604708 0.2730531643 0.0000000000 0.6726976396 0.2876661832 0.0000000000 0.5818851688 0.3023927590 0.0000000000 0.6726976396 0.2876661832 0.0000000000 0.6140477786 0.3877958985 0.0000000000 1.0140583229 4.4099747412 0.0000000000 1.1020330403 4.3887740569 0.0000000000 1.0520864966 4.5079338898 0.0000000000 0.4209153525 0.0749850427 0.0000000000 0.3157894737 0.0000000000 0.0000000000 0.4210526316 0.0000000000 0.0000000000 0.1691353032 4.6302975964 0.0000000000 0.0894262835 4.6200933061 0.0000000000 0.1385973800 4.5264005134 0.0000000000 0.0000000000 4.5918367347 0.0000000000 0.0000000000 4.4897959184 0.0000000000 0.0627266698 4.5331077434 0.0000000000 0.0627266698 4.5331077434 0.0000000000 0.0894262835 4.6200933061 0.0000000000 0.0000000000 4.5918367347 0.0000000000 1.7996967683 0.3849467769 0.0000000000 1.6892110015 0.4529014916 0.0000000000 1.6863561734 0.3249782898 0.0000000000 1.6863561734 0.3249782898 0.0000000000 1.6892110015 0.4529014916 0.0000000000 1.5877281981 0.3856392649 0.0000000000 1.7695539057 4.3718569104 0.0000000000 1.6713792382 4.3555658260 0.0000000000 1.7423629103 4.2746866125 0.0000000000 0.2358029283 0.6115643578 0.0000000000 0.3359160269 0.6613119939 0.0000000000 0.2363841735 0.7296874935 0.0000000000 1.8071346920 4.5702681128 0.0000000000 1.6972487080 4.5556273721 0.0000000000 1.7892345150 4.4695284389 0.0000000000 0.1923020723 0.4226788260 0.0000000000 0.2984553458 0.4475639081 0.0000000000 0.2220588772 0.5108576444 0.0000000000 0.7368421053 0.0000000000 0.0000000000 0.8421052632 0.0000000000 0.0000000000 0.8134038824 0.0822309285 0.0000000000 0.8134038824 0.0822309285 0.0000000000 0.6999406202 0.1067243555 0.0000000000 0.7368421053 0.0000000000 0.0000000000 0.8699020698 0.1407413631 0.0000000000 0.8638861567 0.2417663345 0.0000000000 0.7831450483 0.1701005194 0.0000000000 0.7146634246 0.2040887190 0.0000000000 0.6999406202 0.1067243555 0.0000000000 0.7831450483 0.1701005194 0.0000000000 0.7146634246 0.2040887190 0.0000000000 0.6726976396 0.2876661832 0.0000000000 0.6111020572 0.1963355990 0.0000000000 0.0842247865 4.4495977675 0.0000000000 0.0000000000 4.4897959184 0.0000000000 0.0000000000 4.3877551020 0.0000000000 0.0627266698 4.5331077434 0.0000000000 0.0000000000 4.4897959184 0.0000000000 0.0842247865 4.4495977675 0.0000000000 0.7232972107 4.5643444708 0.0000000000 0.8488186930 4.5544616562 0.0000000000 0.7954056448 4.6677182161 0.0000000000 0.3359160269 0.6613119939 0.0000000000 0.4205970758 0.5958543694 0.0000000000 0.4340919746 0.6820283443 0.0000000000 0.3359160269 0.6613119939 0.0000000000 0.4340919746 0.6820283443 0.0000000000 0.3652595892 0.7545548493 0.0000000000 1.6674635938 0.5611131761 0.0000000000 1.7645878445 0.5512456518 0.0000000000 1.7412968726 0.6448960048 0.0000000000 1.6674635938 0.5611131761 0.0000000000 1.7412968726 0.6448960048 0.0000000000 1.6404899713 0.6685845231 0.0000000000 0.4275337368 4.2780092509 0.0000000000 0.4934995245 4.3496771208 0.0000000000 0.3988324836 4.4001896994 0.0000000000 1.4926643318 4.3044384839 0.0000000000 1.5643258840 4.4035530682 0.0000000000 1.4396242152 4.4106740758 0.0000000000 1.3813163683 4.3255789998 0.0000000000 1.4926643318 4.3044384839 0.0000000000 1.4396242152 4.4106740758 0.0000000000 1.1020330403 4.3887740569 0.0000000000 1.0140583229 4.4099747412 0.0000000000 1.0215092046 4.3064579650 0.0000000000 1.7695539057 4.3718569104 0.0000000000 1.7892345150 4.4695284389 0.0000000000 1.6849313191 4.4505946664 0.0000000000 1.6713792382 4.3555658260 0.0000000000 1.7695539057 4.3718569104 0.0000000000 1.6849313191 4.4505946664 0.0000000000 0.2358029283 0.6115643578 0.0000000000 0.2220588772 0.5108576444 0.0000000000 0.3145434094 0.5491653809 0.0000000000 0.3359160269 0.6613119939 0.0000000000 0.2358029283 0.6115643578 0.0000000000 0.3145434094 0.5491653809 0.0000000000 1.5837473472 0.4899242488 0.0000000000 1.5877281981 0.3856392649 0.0000000000 1.6892110015 0.4529014916 0.0000000000 1.6674635938 0.5611131761 0.0000000000 1.5837473472 0.4899242488 0.0000000000 1.6892110015 0.4529014916 0.0000000000 0.9142174725 4.7123675458 0.0000000000 0.8237187828 4.7949831038 0.0000000000 0.7954056448 4.6677182161 0.0000000000 1.1649623330 4.7086890731 0.0000000000 1.2177211740 4.7957991113 0.0000000000 1.0962860399 4.7879400823 0.0000000000 1.1649623330 4.7086890731 0.0000000000 1.0962860399 4.7879400823 0.0000000000 1.0431039833 4.6868230062 0.0000000000 0.9142174725 4.7123675458 0.0000000000 0.9632120590 4.5931874799 0.0000000000 1.0431039833 4.6868230062 0.0000000000 0.8638861567 0.2417663345 0.0000000000 0.8699020698 0.1407413631 0.0000000000 0.9538932622 0.1662268310 0.0000000000 1.1649623330 4.7086890731 0.0000000000 1.1205456800 4.5978508418 0.0000000000 1.2404496712 4.6009065999 0.0000000000 1.1649623330 4.7086890731 0.0000000000 1.2404496712 4.6009065999 0.0000000000 1.2863160018 4.7133643438 0.0000000000 1.4067918922 4.7129583822 0.0000000000 1.4445468781 4.8057293208 0.0000000000 1.3308933361 4.8021000795 0.0000000000 1.2863160018 4.7133643438 0.0000000000 1.4067918922 4.7129583822 0.0000000000 1.3308933361 4.8021000795 0.0000000000 0.9457540055 4.4799906641 0.0000000000 1.0140583229 4.4099747412 0.0000000000 1.0520864966 4.5079338898 0.0000000000 0.9457540055 4.4799906641 0.0000000000 1.0520864966 4.5079338898 0.0000000000 0.9632120590 4.5931874799 0.0000000000 1.0215092046 4.3064579650 0.0000000000 1.0140583229 4.4099747412 0.0000000000 0.9136899431 4.3665288514 0.0000000000 1.0215092046 4.3064579650 0.0000000000 0.9136899431 4.3665288514 0.0000000000 0.9249760607 4.2406861373 0.0000000000 0.5876865371 0.4641260455 0.0000000000 0.61404777
[...]
<PointData Scalars="conc_conc," Vectors="" Tensors="">
<DataArray type="Float64" Name="conc_conc" format="ascii">
-0.0000005061 0.0000001351 -0.0000004678 0.0000062151 -0.0000013225 -0.0000020790 0.0000058703 -0.0000028710 0.0000024744 0.0039012061 0.0038279201 0.0040524231 0.0000003877 -0.0000032573 0.0000067944 0.0037104448 0.0037937883 0.0038696047 0.0000057528 -0.0000019853 -0.0000042933 0.0156656743 0.0171347179 0.0066860162 0.0060136932 0.0063528097 0.0055172195 0.0000006121 -0.0000002458 -0.0000002699 0.0050649964 0.0055594394 0.0052813283 0.0000007625 -0.0000006684 0.0000012269 -0.0000007756 0.0000112371 -0.0000009203 0.0281763937 0.0156804877 0.0152195401 0.0061098310 0.0060313783 0.0057117426 -0.0000000444 -0.0000001658 -0.0000000713 -0.0020789995 0.0062508082 0.0067602221 0.0016053035 0.0021353093 0.0019468351 0.0022342442 0.0016328636 0.0015983405 0.0029156810 0.0021288597 0.0021322697 0.0032181668 0.0029343189 0.0021209948 -0.0003723649 0.0000319931 0.0000445510 0.0000038743 0.0000031394 0.0000025516 0.0277429862 0.0157325013 0.0339812720 0.0060939183 0.0057331921 0.0058343533 0.0022499553 0.0015813444 0.0022126672 0.0000070145 -0.0000072769 0.0000035739 0.0046242104 0.0049824533 0.0054751860 -0.0000693022 -0.0000103629 0.0000104385 -0.0000027162 0.0000157744 0.0000223241 -0.0003963678 0.0000601971 -0.0004357004 -0.0007061945 0.0026060496 -0.0007627816 0.0016341923 0.0016192855 0.0016119131 0.0000036083 -0.0000004817 0.0000077081 0.0000052069 0.0000006991 0.0000025770 0.0033943259 0.0029281459 0.0038877416 0.0047451136 0.0039046851 0.0046093626 0.0000014604 0.0000032907 0.0000002929 0.0049773727 0.0047247537 0.0048643172 -0.0002349905 0.0000261844 -0.0001867504 0.0000080415 0.0000063365 -0.0000090896 -0.0000093200 -0.0000020769 0.0000095696 0.0046358831 0.0052836856 0.0050763153 0.0050714736 0.0053050783 0.0053523367 0.0026008398 0.0155099382 0.0066695448 0.0052998947 0.0060255071 0.0055021377 -0.0015658342 0.0055390912 0.0005734450 0.0047419837 0.0054289873 0.0050553714 0.0029982146 0.0021899021 0.0024327938 0.0024327059 0.0034093211 0.0030074565 0.0020676178 0.0021352205 0.0027233830 0.0033916256 0.0034246147 0.0027365566 0.0033974451 0.0038985378 0.0043378743 -0.0000691014 0.0000149479 -0.0000169403 -0.0000110871 0.0000167771 -0.0000741193 -0.0001717903 0.0000280881 0.0000280001 0.0060554727 0.0060771005 0.0062701633 0.0060426915 0.0062827790 0.0063483279 0.0055660303 0.0050574935 0.0053402205 0.0055500340 0.0053550998 0.0058520473 0.0226482972 0.0198654700 0.0257127113 0.0145656744 0.0262738370 0.0059113797 0.0015725115 0.0138866311 0.0059146292 0.0000033643 0.0000013736 0.0000045612 0.0028754381 -0.0006406067 0.0121277620 0.0158369259 0.0022902257 0.0132789847 0.0053031983 0.0050560286 0.0056988469 0.0060163584 0.0053130834 0.0056909564 0.0055454846 0.0053333878 0.0053221214 0.0055702059 0.0055590854 0.0053002605 0.0000018945 0.0000075166 0.0000018844 0.0000000508 -0.0000004362 -0.0000002602 0.0000001561 -0.0000002376 -0.0000001874 0.0000007808 0.0000004704 -0.0000004095 0.0021234372 0.0020740780 0.0016787743 0.0000027121 0.0000014070 0.0000046979 0.0000042939 0.0000045534 0.0000056043 -0.0003150750 -0.0001764695 0.0000866422 0.0000373609 -0.0002881602 0.0000729262 0.0000029468 0.0000020626 -0.0000002832 0.0000025767 -0.0000001508 0.0000001052 0.0000040231 0.0000023520 0.0000004291 0.0000073872 0.0000003384 -0.0000089829 0.0049785039 0.0046110665 0.0040329326 0.0049597691 0.0322652323 0.0087732108 0.0028023678 0.0019170976 0.0021541411 0.0040213215 0.0046189867 0.0032446784 0.0040114234 0.0032406722 0.0028300576 0.0000035065 0.0000023479 0.0000003766 0.0000026059 0.0000008419 0.0000037124 0.0029287546 0.0033892386 0.0027354729 0.0029183490 0.0027399341 0.0021273099 -0.0017930559 -0.0011470246 0.0055804658 0.0056758951 -0.0030283642 0.0070712765 -0.0001788979 -0.0003964739 0.0000544821 -0.0001341972 0.0000172338 0.0000242302 -0.0004824790 -0.0002490564 0.0001717316 -0.0014841444 -0.0005686604 0.0052089909 0.0047436420 0.0045033118 0.0051573529 0.0047510803 0.0051563352 0.0054223935 0.0047316944 0.0046232535 0.0054709998 0.0051568003 0.0047529449 0.0054525642 0.0016152758 0.0020224093 0.0021878426 0.0016079447 0.0016220907 0.0021754680 0.0032521861 0.0046110371 0.0038920144 0.0032434502 0.0038897539 0.0029249598 0.0000098054 0.0000133306 -0.0000158600 0.0000107743 -0.0000174283 -0.0000017607 0.0047394225 0.0043280208 0.0039109111 0.0000079026 -0.0000017205 -0.0001664450 0.0024430499 0.0020681972 0.0027263640 0.0024299687 0.0027376534 0.0034138651 0.0054240410 0.0056932486 0.0050655185 0.0054390072 0.0058628198 0.0057118832 0.0074656814 0.0123332912 -0.0009661916 -0.0042364212 0.0403811625 0.0070470423 0.0100463592 0.0367597369 0.0125845298 0.0054625156 0.0051578952 0.0054647642 0.0540673339 0.0111812615 0.0040873325 0.0328657783 0.0482682225 0.0087287426 0.0098228944 0.0410662174 0.0374436348 0.0366230003 -0.0075841706 0.0102421241 0.0070980906 -0.0087257750 0.0384986270 0.0188077726 0.0123299285 0.0614618811 0.0161813490 0.0561378880 0.0169297820 0.0041029822 0.0040457139 0.0041775049 -0.0000122112 0.0000145829 -0.0000640167 0.0039791435 0.0040288013 0.0042775127 0.0042062938 0.0040968922 0.0041507155 0.0041507466 0.0041227216 0.0044736435 -0.0001418195 -0.0000789545 -0.0001261963 -0.0000000123 0.0000000172 0.0000000203 0.0038858526 0.0030109306 0.0034178886 0.0043339059 0.0034228046 0.0033990852 -0.0000097673 0.0000170067 0.0000163361 0.0000124005 -0.0000051163 -0.0000052492 0.0001499534 0.0000906377 -0.0003273016 0.0058092375 0.0083365123 -0.0061890514 0.0000049586 0.0000005297 0.0000044983 0.0000040523 0.0000011490 0.0000115172 -0.0000006569 -0.0000012938 0.0000004761 0.0000068392 -0.0000027880 -0.0000019179 0.0039712972 0.0038209812 0.0037461021 0.0040677897 0.0038084079 0.0039907440 0.0046161918 0.0045424046 0.0047997039 0.0046695875 0.0039477110 0.0027622734 0.0027584308 0.0035493036 0.0041902981 0.0068639478 0.0062200717 0.0055304228 0.0017426835 0.0004792082 0.0001978685 0.0019633296 0.0023238543 0.0044736104 0.0036730363 0.0017923198 0.0014977734 0.0014613906 0.0019472874 0.0030858422 0.0037449218 0.0024200746 0.0018696121 0.0149328320 0.0102558992 0.0089752958 0.0112584743 0.0061986593 0.0057853495 0.0070630685 0.0075605076 0.0125842226 0.0081328673 0.0083875299 0.0081355627 0.0081344801 0.0079950840 0.0081288763 0.0078124474 0.0078366182 0.0075268355 0.0075366331 0.0075309568 0.0077979013 -0.0000772242 -0.0001400312 0.0004838415 0.0040358454 0.0036396302 0.0022370839 0.0055459370 0.0056985864 0.0043113899 0.0026555772 0.0019209802 0.0010435711 0.0013135148 0.0023939332 0.0032261093 0.0077668523 0.0058796813 0.0044039971 0.0052362759 0.0068156794 0.0083713464 0.0075182391 0.0071833294 0.0104627446 0.0094240936 0.0061363049 0.0065093541 0.0026858557 0.0060988708 0.0050916818 0.0064065388 0.0074396748 0.0036690950 0.0165521128 0.0229282118 0.0208526535 0.0058430717 0.0067473036 0.0061192179 0.0062723720 0.0056078753 0.0061503055 0.0034774823 0.0017628393 0.0037341277 0.0045349663 0.0022972961 0.0042743971 0.0042578683 0.0035962944 0.0035629784 -0.0003694604 0.0004123794 -0.0007330814 0.0051835912 0.0055769395 0.0048029440 0.0097868895 0.0078846756 0.0094019998 0.0096021291 0.0078600251 0.0098131263 0.0102294930 0.0085013860 0.0105353542 0.0032823272 0.0023963500 0.0040974424 0.0041058380 0.0023841478 0.0037782559 0.0034259404 0.0019208662 0.0027132711 0.0031195520 0.0019088005 0.0034337736 0.0056340465 0.0070297082 0.0016035385 0.0023098480 0.0068552398 0.0064767683 0.0060280780 0.0052385768 0.0083638361 0.0060092370 0.0059088976 0.0037820840 0.0077554910 0.0044097725 0.0051755520 0.0031173582 0.0050912588 0.0051551409 0.0057000569 0.0157662005 0.0106377163 0.0080365455 0.0070689818 0.0084395406 0.0090492061 0.0078249088 0.0087644802 0.0074917278 0.0094564505 0.0078257740 0.0074552025 0.0051102039 0.0070720028 0.0084463884 0.0102821677 0.0083731555 0.0079313450 0.0059374018 0.0083578887 0.0000091338 0.0000160773 -0.0000088710 0.0166043678 0.0153171959 0.0157296100 0.0162239359 0.0132622390 0.0161907672 0.0043903300 0.0041613665 0.0041774443 0.0035634226 0.0035846970 0.0029718430 0.0017034042 0.0017151060 0.0014487106 0.0058079666 0.0056074622 0.0062701394 0.0062544865 0.0061081071 0.0058316238 0.0015151254 0.0016637581 0.0014720670 0.0062981195 0.0060925700 0.0062681456 0.0030869455 0.0035854932 0.0038630072 0.0104622964 0.0062066197 0.0112826860 0.0125886066 0.0075838175 0.0118618502 0.0019290923 0.0029443789 0.0025251513 0.0000056920 -0.0000037812 0.0000133970 0.0048244534 0.0045045708 0.0044753412 0.0042804727 0.0046156978 0.0046130567 0.0046316212 0.0045806557 0.0048251807 0.0000121513 -0.0000149951 0.0000295694 0.0000773601 -0.0000534333 0.0000305805 0.0049181486 0.0047031709 0.0049981856 0.0048077869 0.0055736521 0.0051535636 0.0015535099 0.0016337865 0.0015858682 0.0019382354 0.0016922766 0.0015734690 0.0015809696 0.0016552341 0.0019349037 0.0108837306 0.0104975791 0.0107279666 0.0096945615 0.0097024372 0.0103000865 0.0000000595 -0.0000000420 -0.0000000410 0.0000000347 -0.0000000644 0.0000000496 0.0054327760 0.0060597798 0.0080773948 0.0083386522 0.0061739771 0.0055176587 0.0035816539 0.0030826597 0.0026365312 0.0026401019 0.0029704537 0.0035785946 0.0051773709 0.0055565917 0.0057575217 0.0057518879 0.0055273206 0.0055937448 0.0033497212 0.0060753277 0.0040751026 0.0047754663 0.0068677739 0.0039669238 0.0098798993 0.0020928502 0.0107974034 -0.0000042234 -0.0000011895 0.0000145912 0.0000144098 0.0000106486 -0.0000046050 0.0052991771 0.0054705120 0.0047987310 0.0047958746 0.0054659985 0.0045055372 0.0026979235 0.0061124123 -0.0001564260 0.0028671519 0.0022097804 0.0019996029 0.0027426907 0.0050605210 0.0014469891 0.0080958052 0.0080523192 0.0076669134 0.0069933956 0.0075809895 0.0075116739 0.0021346552 0.0063728505 0.0037179688 0.0151482540 0.0194475672 0.0234021716 0.0102334157 0.0198300554 0.0146550215 0.0012893447 -0.0002562735 0.0004420436 0.0005766736 -0.0002559662 0.0013008153 0.0022402474 0.0019993678 0.0016836237 -0.0000914217 -0.0000106640 -0.0000764467 0.0050801869 0.0053274629 0.0050115561 0.0049972413 0.0047939218 0.0050954107 0.0025165610 0.0060385043 0.0027116381 0.0036893635 0.0073842296 0.0034169000 -0.0000000289 -0.0000006068 -0.0000002290 0.0094214609 0.0075398118 0.0089987233 0.0090467214 0.0074963344 0.0070897708 0.0097877427 0.0084315892 0.0102338183 0.0079531965 0.0083879911 0.0098428462 0.0057669092 0.0056929343 0.0063529984 0.0126338528 0.0233952101 0.0152922106 0.0194436466 0.0234873929 0.0126718364 0.0027339590 0.0019689127 0.0041064259 0.0045483005 0.0067932527 0.0040992277 0.0041253990 0.0019389879 0.0045003737 0.0033695868 0.0015034845 0.0021757202 0.0033598142 0.0058495951 0.0037454395 0.0037006751 0.0014722518 0.0033882591 0.0059101234 0.0138405362 0.0017146494 -0.0000002970 0.0000000312 -0.0000006210 -0.0000020101 0.0000054033 -0.0000013656 0.0102038322 0.0142329680 0.0023904100 0.0023892029 0.0141903582 0.0046053257 -0.0007474207 0.0002999730 -0.0003142319 0.0041375069 0.0041567187 0.0043505207 0.0042845424 0.0038747576 0.0034368361 0.0042813817 0.0043530049 0.0048700990 0.0034357488 0.0043332987 0.0042931273 0.0027921364 0.0027561579 0.0041860197 0.0027803629 0.0046907506 0.0035618277 0.0042073902 0.0046923795 0.0027805085 -0.0001534702 -0.0000861453 -0.0000651232 0.0022923170 0.0016172004 0.0022645923 0.0023113644 0.0029441161 0.0019354336 0.0019453758 0.0016222851 0.0022877911 -0.0005244219 0.0019428544 -0.0015996222 0.0045424073 0.0051524813 0.0045063543 0.0068609200 0.0055335168 0.0061919996 0.0015495912 0.0017238039 0.0019676967 0.0019646867 0.0016348563 0.0015471175 0.0007731221 0.0035942335 0.0003467357 0.0033429464 0.0037912037 0.0007146648 0.0044928472 0.0050560718 0.0052876701 0.0102207001 0.0105428055 0.0105295551 0.0099385410 0.0097700634 0.0094465198 0.0002617465 -0.0003245052 -0.0002625935 -0.0001682974 -0.0002047038 0.0000492309 0.0026690480 0.0014438272 0.0031031746 0.0027002261 0.0043538170 0.0021503332 0.0037629662 0.0018515485 0.0032883152 0.0027127140 0.0051762322 0.0033181326 -0.0006434464 0.0001514755 -0.0002669043 0.0047428445 0.0050405150 0.0042587032 0.0022635981 0.0029593138 0.0033053877 0.0058638397 0.0053426251 0.0055994355 0.0063740179 0.0057960351 0.0063420416 -0.0000778334 0.0000191273 -0.0001039804 -0.0000918534 0.0000117670 -0.0000197726 -0.0001368016 -0.0000721069 -0.0000846415 0.0030818715 0.0038658701 0.0034899904 0.0040437021 0.0040921778 0.0042530456 0.0042712021 0.0040793469 0.0042123382 0.0164040498 0.0272004348 0.0230387234 0.0243916981 0.0260523003 0.0157671782 0.0231796415 0.0170305298 0.0161523079 0.0044322250 0.0038725515 0.0045572382 0.0145398404 0.0056902641 0.0176899653 0.0174802485 0.0058702358 0.0103752839 0.0076549595 0.0080531983 0.0077422414 0.0062751625 0.0056330697 0.0059329746 0.0062702094 0.0059520773 0.0061321090 0.0026456356 0.0030699250 0.0022610391 0.0208191433 0.0173903826 0.0229375298 0.0042567480 0.0050398005 0.0045004994 0.0041839054 0.0042693336 0.0044943964 0.0016849450 0.0019593483 0.0022408849 0.0043762901 0.0041393419 0.0044082993 0.0047967908 0.0043788392 0.0044179585 0.0000352296 0.0000197442 -0.0000905831 0.0000375645 0.0000300281 -0.0000733386 0.0045826636 0.0038971962 0.0042733667 0.0045563851 0.0042911224 0.0048576001 0.0013589051 0.0028738467 0.0017621226 0.0021435927 0.0034151880 0.0016395197 0.0065795766 0.0062301181 0.0061873655 0.0065790983 0.0061928640 0.0067308690 0.0068410485 0.0064415817 0.0060572721 0.0068291910 0.0060687385 0.0063979061 0.0178494426 0.0125144840 0.0109320226 0.0178981906 0.0109421905 0.0159667953 0.0025165366 0.0021169601 0.0056893971 0.0060885362 0.0024760470 0.0057973163 0.0061507340 0.0104042954 0.0050751782 0.0069561631 0.0029131723 0.0034191761 0.0070559841 0.0033878428 0.0074267364 0.0064080399 0.0118209405 0.0074816606 0.0115186407 0.0112389629 0.0058782427 0.0072013880 0.0125186628 0.0126892902 0.0135514467 0.0113779174 0.0114183168 0.0125772565 0.0125824586 0.0141010174 0.0033848314 0.0021363363 0.0043716592 0.0058452644 0.0033708686 0.0044160320 0.0051945824 0.0026985285 0.0041210044 0.0052345102 0.0041104542 0.0067861537 0.0076772431 0.0071104446 0.0077803589 0.0035045593 0.0037486119 0.0064733291 0.0060480486 0.0034853659 0.0065035086 0.0074957681 0.0045487761 0.0043100597 0.0075204702 0.0042951094 0.0070845583 0.0026698958 0.0031316954 0.0051343759 0.0043888140 0.0026563031 0.0051512414 0.0059929601 0.0037897510 0.0032940689 0.0060091316 0.0032819675 0.0052092476 0.0098837534 0.0095306552 0.0095683029 0.0101165298 0.0103165791 0.0104585233 0.0051637076 0.0048122647 0.0044018675 0.0054545605 0.0017261321 0.0014307827 0.0055009336 0.0013770413 0.0051011641 0.0021510455 0.0024216047 0.0063091944 0.0064063417 0.0020763926 0.0063820858 0.0058219640 0.0051606130 0.0055873825 0.0051933625 0.0058026133 0.0061432580 0.0055785022 0.0051954846 0.0061407108 0.0098019355 0.0098720345 0.0102066518 0.0108004036 0.0104356812 0.0106083067 0.0041147944 0.0037926930 0.0058918604 0.0050720698 0.0031304710 0.0034440478 0.0044861981 0.0052907465 0.0047957383 0.0022979812 0.0022638519 0.0032994485 0.0022954161 0.0033083149 0.0029585183 0.0036399323 0.0032557802 0.0025206114 0.0029686302 0.0036352625 0.0025268997 0.0083441628 0.0085738197 0.0061852774 0.0060731745 0.0083069545 0.0080771121 0.0060625511 0.0083625933 0.0083828181 0.0060561712 0.0083795699 0.0059059107 0.0074766205 0.0077524403 0.0051994011 0.0050875002 0.0074666606 0.0051976985 0.0015245207 0.0015673903 0.0015789473 0.0015089510 0.0015990980 0.0016736839 0.0038644891 0.0044306310 0.0034972543 -0.0001053818 -0.0000175568 -0.0002159959 -0.0001648089 -0.0002454903 -0.0000424909 -0.0001581832 0.0000248925 -0.0000758705 0.0021375361 0.0015285055 0.0010039753 0.0013381053 0.0019884145 0.0026944076 0.0037515169 0.0036227278 0.0044370821 0.0062120199 0.0044685723 0.0046634848 0.0045785373 0.0045044420 0.0035717264 0.0044891746 0.0036413270 0.0037738787 0.0047220138 0.0045203214 0.0063662957 0.0035882439 0.0045592184 0.0046365765 0.0005437693 0.0020050300 0.0019784949 0.0026459025 0.0026417663 0.0008331587 0.0019888883 0.0019899681 0.0043213118 0.0052691106 0.0026252850 0.0026698439 0.0126676080 0.0135960140 0.0120789015 0.0134471905 0.0127514743 0.0139617009 0.0109229969 0.0129294046 0.0115154041 0.0133815904 0.0115986919 0.0127933769 0.0016633244 0.0016886075 0.0013354129 0.0023937542 0.0017125853 0.0016422454 0.0018640193 0.0006407202 0.0020284522 0.0027005944 0.0009962002 0.0025266094 0.0135652642 0.0124988215 0.0120683482 0.0109243338 0.0115135395 0.0128826882 0.0021149045 0.0025480321 0.0039524413 0.0021175782 0.0039555720 0.0034703020 0.0033410791 0.0020856871 0.0017329372 0.0029302400 0.0033454370 0.0017341303 0.0036033687 0.0042556681 0.0043979594 0.0044084456 0.0042487209 0.0048105781 0.0047988965 0.0049888690 0.0044200135 0.0109022894 0.0127910318 0.0172670461 0.0177195796 0.0174594272 0.0131986695 0.0120299245 0.0087967561 0.0126435835 0.0071912683 0.0126962611 0.0087336046 0.0114734718 0.0075443254 0.0108791718 0.0074933375 0.0115110088 0.0058853509 0.0133462795 0.0148796524 0.0090660500 0.0134774585 0.0160642421 0.0150213863 0.0047868683 0.0074247976 0.0068792187 0.0060984399 0.0065960657 0.0040796001 0.0027198990 0.0021799390 0.0020038801 0.0035531162 0.0027331812 0.0035739762 0.0027266062 0.0035572380 0.0029705475 0.0027319847 0.0029603349 0.0021772618 0.0028684917 0.0065899988 0.0059575772 0.0030022646 0.0029401795 0.0058736790 0.0060011770 0.0066873533 0.0029577210 0.0059092582 0.0029916987 0.0026682245 -0.0000014507 0.0000034981 -0.0000030810 -0.0000019663 -0.0000010644 0.0000049090 0.0062701936 0.0071944109 0.0082849665 0.0076025623 0.0062833620 0.0082736757 0.0036155289 0.0034756472 0.0045313975 0.0071634090 0.0062549980 0.0046593814 0.0040983689 0.0045996760 0.0034362351 0.0045872945 0.0034909738 0.0036345489 0.0047138605 0.0064151281 0.0073820342 0.0034501036 0.0046582557 0.0041363561 0.0086409202 0.0074174362 0.0064237960 0.0086309044 0.0064363359 0.0078939918 0.0051050945 0.0049825321 0.0053442899 0.0053357629 0.0055468700 0.0051144833 0.0045682110 0.0049938063 0.0050971504 0.0055472730 0.0042894470 0.0038900857 0.0071319885 0.0077976227 0.0075833956 0.0071299756 0.0078408189 0.0070514168 0.0045776281 0.0046733124 0.0056857648 -0.0001651428 0.0002294854 -0.0005968422 0.0006979192 0.0006078249 0.0010400969 0.0010703102 0.0013485040 0.0006392566 0.0023533834 0.0013907761 0.0010592130 0.0008249445 0.0006084868 0.0006981016 0.0006404011 0.0010795768 0.0008543945 0.0008429909 0.0011213290 0.0018817304 -0.0000946966 0.0005240186 0.0006032772 -0.0000627197 0.0002752262 0.0005098327 -0.0009691406 -0.0018923414 0.0028664453 0.0018646756 0.0073473825 0.0049072685 0.0079509653 0.0057723386 0.0114252128 0.0057498401 0.0078555083 0.0024153311 0.0056717393 0.0025659095 0.0014266969 -0.0001802833 -0.0000772907 0.0003246392 0.0041760063 0.0041806507 0.0044851483 0.0041550273 0.0045062871 0.0044177335 0.0051901800 0.0045166351 0.0057716826 0.0051621965 0.0043992159 0.0045297409 -0.0001269434 0.0000250854 0.0005206144 -0.0001625785 0.0005710453 0.0003806707 0.0041352849 0.0041797257 0.0046704638 0.0061950382 0.0056351733 0.0047130325 0.0047213539 0.0055288444 0.0061925695 0.0013447997 0.0002847975 -0.0000271072 0.0011084016 0.0014509192 -0.0000856135 0.0013305618 0.0056384753 0.0057493059 0.0055559837 0.0014216714 0.0010028190 0.0078808342 0.0057470989 0.0024175049 0.0016672518 0.0024845183 0.0055588752 0.0045147426 0.0041593677 0.0041204285 0.0045700596 0.0045502090 0.0040933020 0.0018815523 0.0053621321 0.0073503281 0.0052016550 0.0019899951 0.0017734026 0.0067308651 0.0053003410 0.0045176159 0.0045707097 0.0053890129 0.0069267665 0.0044660454 0.0038735051 0.0037552774 0.0044671110 0.0045284559 0.0037132117 0.0037770684 0.0038995815 0.0045196450 0.0037330900 0.0045850246 0.0045210597 0.0040650514 0.0035217951 0.0033926472 0.0034090691 0.0035398453 0.0041019908 0.0032067094 0.0022530099 0.002495