<?xml version="1.0"?>
<VTKFile type="UnstructuredGrid" version="0.1" byte_order="LittleEndian">
<UnstructuredGrid>
<Piece NumberOfPoints="6444" NumberOfCells="2148">
<Points>
<DataArray type="Float64" NumberOfComponents="3" format="ascii">
1.854221989851703e+00 4.919057320353651e+00 0.000000000000000e+00 1.894736842105409e+00 5.000000000000000e+00 0.000000000000000e+00 1.789473684210819e+00 5.000000000000000e+00 0.000000000000000e+00 1.761727974207509e+00 4.890294137299613e+00 0.000000000000000e+00 1.854221989851703e+00 4.919057320353651e+00 0.000000000000000e+00 1.789473684210819e+00 5.000000000000000e+00 0.000000000000000e+00 9.126921108264911e-02 4.747437874729231e+00 0.000000000000000e+00 0.000000000000000e+00 4.795918367346939e+00 0.000000000000000e+00 0.000000000000000e+00 4.693877551020408e+00 0.000000000000000e+00 0.000000000000000e+00 3.061224489795924e-01 0.000000000000000e+00 0.000000000000000e+00 2.040816326530610e-01 0.000000000000000e+00 9.632609441615088e-02 2.738115102943669e-01 0.000000000000000e+00 2.000000000000000e+00 4.693877551019979e+00 0.000000000000000e+00 2.000000000000000e+00 4.795918367346652e+00 0.000000000000000e+00 1.886180073786021e+00 4.742892287486169e+00 0.000000000000000e+00 2.000000000000000e+00 1.020408163263281e-01 0.000000000000000e+00 2.000000000000000e+00 2.040816326526563e-01 0.000000000000000e+00 1.916826065655924e+00 1.638313780388485e-01 0.000000000000000e+00 1.761727974207509e+00 4.890294137299613e+00 0.000000000000000e+00 1.789473684210819e+00 5.000000000000000e+00 0.000000000000000e+00 1.684210526316228e+00 5.000000000000000e+00 0.000000000000000e+00 1.671379238171647e+00 4.355565825994195e+00 0.000000000000000e+00 1.656972519506107e+00 4.264993659450348e+00 0.000000000000000e+00 1.742362910288180e+00 4.274686612473190e+00 0.000000000000000e+00 3.359160269493546e-01 6.613119939081207e-01 0.000000000000000e+00 3.652595891744679e-01 7.545548492898096e-01 0.000000000000000e+00 2.363841735149307e-01 7.296874934688182e-01 0.000000000000000e+00 9.142174725173587e-01 4.712367545816286e+00 0.000000000000000e+00 1.043103983284156e+00 4.686823006215624e+00 0.000000000000000e+00 9.872800728194056e-01 4.810542368547830e+00 0.000000000000000e+00 1.764587844538203e+00 5.512456518134270e-01 0.000000000000000e+00 1.667463593774317e+00 5.611131760755043e-01 0.000000000000000e+00 1.689211001472062e+00 4.529014916071041e-01 0.000000000000000e+00 1.164962332976885e+00 4.708689073081058e+00 0.000000000000000e+00 1.043103983284156e+00 4.686823006215624e+00 0.000000000000000e+00 1.120545679972557e+00 4.597850841802548e+00 0.000000000000000e+00 1.164962332976885e+00 4.708689073081058e+00 0.000000000000000e+00 1.286316001784507e+00 4.713364343843550e+00 0.000000000000000e+00 1.217721174034548e+00 4.795799111255508e+00 0.000000000000000e+00 1.564325884006745e+00 4.403553068152111e+00 0.000000000000000e+00 1.671379238171647e+00 4.355565825994195e+00 0.000000000000000e+00 1.684931319093551e+00 4.450594666363146e+00 0.000000000000000e+00 4.205970757819151e-01 5.958543694489439e-01 0.000000000000000e+00 3.359160269493546e-01 6.613119939081207e-01 0.000000000000000e+00 3.145434093627009e-01 5.491653808720912e-01 0.000000000000000e+00 9.872800728194056e-01 4.810542368547830e+00 0.000000000000000e+00 1.043103983284156e+00 4.686823006215624e+00 0.000000000000000e+00 1.096286039907942e+00 4.787940082264510e+00 0.000000000000000e+00 1.364646262478820e+00 4.592415066635965e+00 0.000000000000000e+00 1.459130418149962e+00 4.520124291173715e+00 0.000000000000000e+00 1.486898450120218e+00 4.623469252699420e+00 0.000000000000000e+00 9.731998290332249e-01 5.704471431595811e-01 0.000000000000000e+00 8.715730992191858e-01 5.999589335421364e-01 0.000000000000000e+00 9.025964009904515e-01 4.820800936387313e-01 0.000000000000000e+00 1.172155379345141e+00 6.712425757120589e-01 0.000000000000000e+00 1.072739201998409e+00 7.413529383884035e-01 0.000000000000000e+00 1.058169957782242e+00 6.325564283781506e-01 0.000000000000000e+00 7.694604707706209e-01 2.730531642794763e-01 0.000000000000000e+00 8.638861567287028e-01 2.417663344562214e-01 0.000000000000000e+00 8.676639121183823e-01 3.629112901794028e-01 0.000000000000000e+00 7.466817710519089e-01 3.879264348176992e-01 0.000000000000000e+00 7.694604707706209e-01 2.730531642794763e-01 0.000000000000000e+00 8.676639121183823e-01 3.629112901794028e-01 0.000000000000000e+00 1.364646262478820e+00 4.592415066635965e+00 0.000000000000000e+00 1.286316001784507e+00 4.713364343843550e+00 0.000000000000000e+00 1.240449671207480e+00 4.600906599908907e+00 0.000000000000000e+00 1.120545679972557e+00 4.597850841802548e+00 0.000000000000000e+00 1.172986079106911e+00 4.490918440524887e+00 0.000000000000000e+00 1.240449671207480e+00 4.600906599908907e+00 0.000000000000000e+00 1.564325884006745e+00 4.403553068152111e+00 0.000000000000000e+00 1.684931319093551e+00 4.450594666363146e+00 0.000000000000000e+00 1.572184068992192e+00 4.523523004927910e+00 0.000000000000000e+00 4.205970757819151e-01 5.958543694489439e-01 0.000000000000000e+00 3.145434093627009e-01 5.491653808720912e-01 0.000000000000000e+00 4.068115365931686e-01 4.849111945291972e-01 0.000000000000000e+00 1.172155379345141e+00 6.712425757120589e-01 0.000000000000000e+00 1.058169957782242e+00 6.325564283781506e-01 0.000000000000000e+00 1.167556212236738e+00 5.444613863691833e-01 0.000000000000000e+00 1.021509204635148e+00 4.306457964956466e+00 0.000000000000000e+00 9.249760607483019e-01 4.240686137320751e+00 0.000000000000000e+00 1.038824927240161e+00 4.193215529783378e+00 0.000000000000000e+00 6.140477785890850e-01 3.877958985257381e-01 0.000000000000000e+00 5.876865370665139e-01 4.641260454764261e-01 0.000000000000000e+00 4.985233412333956e-01 3.890769376372188e-01 0.000000000000000e+00 8.505257454769971e-01 4.304742794075727e+00 0.000000000000000e+00 9.249760607483019e-01 4.240686137320751e+00 0.000000000000000e+00 9.136899430584577e-01 4.366528851416208e+00 0.000000000000000e+00 1.217721174034548e+00 4.795799111255508e+00 0.000000000000000e+00 1.286316001784507e+00 4.713364343843550e+00 0.000000000000000e+00 1.330893336073056e+00 4.802100079534701e+00 0.000000000000000e+00 1.406791892218053e+00 4.712958382166945e+00 0.000000000000000e+00 1.286316001784507e+00 4.713364343843550e+00 0.000000000000000e+00 1.364646262478820e+00 4.592415066635965e+00 0.000000000000000e+00 1.406791892218053e+00 4.712958382166945e+00 0.000000000000000e+00 1.520349647702894e+00 4.725934894083145e+00 0.000000000000000e+00 1.444546878142265e+00 4.805729320756690e+00 0.000000000000000e+00 1.053976804423518e+00 5.111783379913616e-01 0.000000000000000e+00 1.058169957782242e+00 6.325564283781506e-01 0.000000000000000e+00 9.731998290332249e-01 5.704471431595811e-01 0.000000000000000e+00 9.457540055120633e-01 4.479990664125721e+00 0.000000000000000e+00 9.632120590257134e-01 4.593187479877926e+00 0.000000000000000e+00 8.488186929971376e-01 4.554461656195955e+00 0.000000000000000e+00 9.457540055120633e-01 4.479990664125721e+00 0.000000000000000e+00 9.136899430584577e-01 4.366528851416208e+00 0.000000000000000e+00 1.014058322891562e+00 4.409974741154480e+00 0.000000000000000e+00 7.146634246400515e-01 2.040887189500951e-01 0.000000000000000e+00 7.694604707706209e-01 2.730531642794763e-01 0.000000000000000e+00 6.726976395708967e-01 2.876661831819204e-01 0.000000000000000e+00 5.818851688336567e-01 3.023927590216423e-01 0.000000000000000e+00 6.726976395708967e-01 2.876661831819204e-01 0.000000000000000e+00 6.140477785890850e-01 3.877958985257381e-01 0.000000000000000e+00 1.014058322891562e+00 4.409974741154480e+00 0.000000000000000e+00 1.102033040334790e+00 4.388774056858976e+00 0.000000000000000e+00 1.052086496550295e+00 4.507933889775317e+00 0.000000000000000e+00 4.209153525333582e-01 7.498504268552800e-02 0.000000000000000e+00 3.157894736834524e-01 0.000000000000000e+00 0.000000000000000e+00 4.210526315779366e-01 0.000000000000000e+00 0.000000000000000e+00 1.691353031592377e-01 4.630297596376645e+00 0.000000000000000e+00 8.942628353205506e-02 4.620093306112614e+00 0.000000000000000e+00 1.385973799677695e-01 4.526400513386682e+00 0.000000000000000e+00 0.000000000000000e+00 4.591836734693878e+00 0.000000000000000e+00 0.000000000000000e+00 4.489795918367347e+00 0.000000000000000e+00 6.272666977118209e-02 4.533107743441798e+00 0.000000000000000e+00 6.272666977118209e-02 4.533107743441798e+00 0.000000000000000e+00 8.942628353205506e-02 4.620093306112614e+00 0.000000000000000e+00 0.000000000000000e+00 4.591836734693878e+00 0.000000000000000e+00 1.799696768310902e+00 3.849467768943328e-01 0.000000000000000e+00 1.689211001472062e+00 4.529014916071041e-01 0.000000000000000e+00 1.686356173437979e+00 3.249782898249454e-01 0.000000000000000e+00 1.686356173437979e+00 3.249782898249454e-01 0.000000000000000e+00 1.689211001472062e+00 4.529014916071041e-01 0.000000000000000e+00 1.587728198134857e+00 3.856392649237406e-01 0.000000000000000e+00 1.769553905740010e+00 4.371856910377475e+00 0.000000000000000e+00 1.671379238171647e+00 4.355565825994195e+00 0.000000000000000e+00 1.742362910288180e+00 4.274686612473190e+00 0.000000000000000e+00 2.358029283033816e-01 6.115643578091313e-01 0.000000000000000e+00 3.359160269493546e-01 6.613119939081207e-01 0.000000000000000e+00 2.363841735149307e-01 7.296874934688182e-01 0.000000000000000e+00 1.807134692036463e+00 4.570268112811003e+00 0.000000000000000e+00 1.697248708035143e+00 4.555627372102794e+00 0.000000000000000e+00 1.789234515049053e+00 4.469528438896718e+00 0.000000000000000e+00 1.923020723436804e-01 4.226788259659692e-01 0.000000000000000e+00 2.984553457856924e-01 4.475639080980484e-01 0.000000000000000e+00 2.220588771909371e-01 5.108576444228085e-01 0.000000000000000e+00 7.368421052615994e-01 0.000000000000000e+00 0.000000000000000e+00 8.421052631561770e-01 0.000000000000000e+00 0.000000000000000e+00 8.134038824017621e-01 8.223092854573356e-02 0.000000000000000e+00 8.134038824017621e-01 8.223092854573356e-02 0.000000000000
[...]
<PointData Scalars="conc_conc," Vectors="" Tensors="">
<DataArray type="Float64" Name="conc_conc" format="ascii">
1.181583256146377e-07 -2.960137809802386e-08 -3.538477632970471e-08 2.702859328350030e-07 3.788021948640545e-07 -1.574768929967222e-07 5.144338122832000e-07 4.763742609551465e-07 2.735035046017627e-06 3.897571466175757e-03 3.825573708126295e-03 4.046559145177749e-03 2.785839359324386e-06 6.618211397536200e-07 -1.335532730915789e-06 3.708303239752470e-03 3.787698290281121e-03 3.862973419827344e-03 2.606430922129092e-07 -6.317379901022463e-08 1.720149462661331e-07 1.559427609515448e-02 1.717514827285158e-02 6.587248481174123e-03 6.012734098432230e-03 6.355107651300001e-03 5.522885544942333e-03 5.068171758802191e-07 -1.213155615564682e-07 -1.677218524962625e-07 5.068291767753593e-03 5.558730737722381e-03 5.277777670604455e-03 1.621170139632717e-06 -3.418622549623377e-07 1.771948300016840e-06 2.893469227166130e-06 -4.946293905612275e-06 3.407163828027477e-06 2.866999464849035e-02 1.582499800141074e-02 1.545821437713979e-02 6.113143816544426e-03 6.035912188583693e-03 5.714825152782875e-03 -3.460213704658311e-08 -3.132732169739752e-08 -4.274934563141848e-08 -2.207033189640830e-03 6.213665118509707e-03 6.482604754795875e-03 1.598838296230490e-03 2.131851219457078e-03 1.950257545626061e-03 2.226649376699755e-03 1.633229938180701e-03 1.596465640693143e-03 2.911118063931646e-03 2.129742719642041e-03 2.133982759533799e-03 3.211942289768745e-03 2.934239025748532e-03 2.120045097980123e-03 -2.577151667204382e-04 -2.642869103425306e-05 4.353076601631295e-06 7.649752609323179e-06 -8.479979106329841e-06 -1.627848680983643e-05 2.817314902033814e-02 1.588657001349318e-02 3.423018056805838e-02 6.097292401743382e-03 5.737562101472391e-03 5.836442195885852e-03 2.240993434086595e-03 1.576720234244468e-03 2.211445147282854e-03 5.452301316881468e-06 -1.060648205836439e-05 1.065192473834166e-06 4.629052273093999e-03 4.985265105093857e-03 5.480277118432520e-03 -6.042693016968572e-05 -1.468067018246944e-05 1.571196162711715e-06 4.267238820614165e-06 -4.579653811214914e-06 4.448682155327793e-06 -2.371831799499100e-04 -3.335126124764343e-05 -2.937669283822266e-04 -6.009231416159263e-04 2.222367692115931e-03 -6.910510693023837e-04 1.635938437623500e-03 1.618826486664453e-03 1.608566862870162e-03 1.321823124857142e-06 2.021414746834602e-06 -1.464762754689233e-06 3.291223998377892e-06 -3.913515269346850e-06 3.168209036256526e-06 3.394236373824329e-03 2.929022039990226e-03 3.886746327705336e-03 4.747691449934373e-03 3.906284400453762e-03 4.608979979270685e-03 2.077311203914473e-06 -4.206232338188162e-07 2.123259555835145e-06 4.977363950997563e-03 4.729379502143092e-03 4.864977562586965e-03 -1.732795554860014e-04 -3.356041753838923e-05 -1.427536522878270e-04 6.854427819050482e-06 -6.835495396614631e-06 -2.342041766607519e-05 -2.620857722831055e-05 -2.112297514203978e-05 8.856504947771524e-06 4.636959709470333e-03 5.282110578840976e-03 5.075827938027430e-03 5.071224131534205e-03 5.306420469724313e-03 5.355068092262288e-03 2.497436928492912e-03 1.530898206277765e-02 6.604442218226794e-03 5.302148762194181e-03 6.026031372126282e-03 5.506337308902875e-03 -1.597262818002687e-03 5.174805905558024e-03 6.472047685910145e-04 4.741657612289663e-03 5.429881938516028e-03 5.056271230623984e-03 2.996623727334406e-03 2.189215110751004e-03 2.431431478727071e-03 2.431811563858242e-03 3.407419627658587e-03 3.007069352596667e-03 2.065811802816776e-03 2.136637484502647e-03 2.720771502698043e-03 3.388919924260605e-03 3.426291530048821e-03 2.736106532352753e-03 3.398626244107329e-03 3.900081898947556e-03 4.338527700160292e-03 -7.257196300936624e-05 1.290138418640097e-06 -3.776061683038077e-05 -2.719041355860357e-05 3.047896351044669e-06 -7.840128659506320e-05 -1.048169887014590e-04 9.552159174742515e-06 1.649809217192585e-06 6.063013645846666e-03 6.075768427684551e-03 6.275308105278135e-03 6.047330635016094e-03 6.287187973421693e-03 6.352266710362837e-03 5.566585780212715e-03 5.057245818824258e-03 5.340583157439235e-03 5.548333760834878e-03 5.358017390474585e-03 5.853170171267292e-03 2.251557709796123e-02 2.025280070261209e-02 2.605804948094728e-02 1.443828620042154e-02 2.598619197903983e-02 5.949712464240095e-03 1.536584677841128e-03 1.373049353594926e-02 5.957834691757506e-03 -4.373011225912643e-07 2.245371575106652e-06 2.359187096639158e-06 2.838870028961938e-03 -6.717958594044665e-04 1.162149343046901e-02 1.566921664458773e-02 2.170903263030502e-03 1.283188411744546e-02 5.305528895556724e-03 5.056954046633276e-03 5.699250949358511e-03 6.016464986646665e-03 5.317065776748973e-03 5.690319640594919e-03 5.545772743351482e-03 5.333175528394714e-03 5.325051352913729e-03 5.573243372856337e-03 5.559602416759645e-03 5.301328291236345e-03 2.658642750988896e-06 5.581311886418329e-06 -2.865263003030199e-06 1.134704555046907e-06 8.227158293815765e-07 -3.541974362422099e-07 9.982480462767069e-07 -2.718497143738016e-07 -1.340320947148700e-07 6.538883298751855e-07 6.245736300316395e-07 -2.389376385933058e-07 2.119628178676619e-03 2.072308620645438e-03 1.677928754753659e-03 6.999884153639984e-06 4.445687640873379e-06 -1.282453333763789e-05 1.193772869367789e-05 -1.815062913319051e-05 -1.549372448400349e-05 -1.932304693676414e-04 -1.070563442050467e-04 3.019413203859735e-05 6.761815105344024e-07 -1.750455060549523e-04 3.134026014410204e-05 1.415813192997116e-06 1.918638846379189e-06 8.843848175296717e-07 1.257108836644840e-06 8.199011334342992e-07 7.051020212956553e-07 2.473458109378278e-06 3.082127016257411e-06 -3.826690234517269e-06 6.138307489933287e-06 -5.188794315959759e-06 -1.294598098149811e-05 4.978203231573472e-03 4.607288792167801e-03 4.038413246471770e-03 4.774570269797203e-03 3.242367904750848e-02 8.902146197012824e-03 2.797223528085189e-03 1.914935848822286e-03 2.153995364760956e-03 4.021557351714970e-03 4.618342241485825e-03 3.247433913202087e-03 4.007676828265944e-03 3.244319058487164e-03 2.831966240123675e-03 -4.875805915879439e-06 3.726036872520319e-06 2.889661060546516e-06 -6.352990696056983e-06 3.997028420524790e-06 -1.250953034914671e-06 2.929910613508285e-03 3.387073562783466e-03 2.734166883157528e-03 2.913950155300109e-03 2.739278790613051e-03 2.127414265209216e-03 -1.800279357589260e-03 -1.132028930287576e-03 5.319012062796187e-03 5.280706329432705e-03 -3.069811831691190e-03 6.923142339371370e-03 -1.249883564905824e-04 -2.500271262822894e-04 -1.108018564524496e-05 -1.037826477044766e-04 -1.803763577741110e-05 4.476489744412745e-06 -2.353073362371232e-04 -4.737113043081132e-04 4.537818207170598e-04 -1.494851008465707e-03 -8.451541681945582e-05 4.962304662006624e-03 4.745201568501431e-03 4.502136561047170e-03 5.157646131403715e-03 4.753495857216217e-03 5.155694293381971e-03 5.422203466564124e-03 4.730013903634125e-03 4.629253370790801e-03 5.477683013262165e-03 5.154063737217775e-03 4.760609154843558e-03 5.453067421700176e-03 1.609646810857141e-03 2.024950820208936e-03 2.180562532584223e-03 1.605270938693241e-03 1.617923360005080e-03 2.169959567370204e-03 3.256574057360641e-03 4.609508918596519e-03 3.892150770892097e-03 3.245801443879160e-03 3.889658576694807e-03 2.924700513128520e-03 7.474141278480165e-06 -1.357642408182415e-07 -2.238014671400115e-05 8.778531835438715e-06 -2.378880416962211e-05 -7.254944330810550e-06 4.740625154116927e-03 4.326102112181368e-03 3.915711891021111e-03 -3.003369816439403e-05 -2.220830166880026e-05 -1.347402073778657e-04 2.444251842186179e-03 2.065783672924910e-03 2.723050719956629e-03 2.428542637415103e-03 2.736951152656186e-03 3.413030385242774e-03 5.424304417885589e-03 5.693314667567895e-03 5.067412855963875e-03 5.441809944102406e-03 5.866445071399147e-03 5.715059175533770e-03 7.174967688657121e-03 1.193147203172592e-02 -1.000245611093658e-03 -4.448437815422906e-03 4.005567516685970e-02 6.602007656820253e-03 1.024658717934937e-02 3.705497206565893e-02 1.256143988670474e-02 5.465854324157915e-03 5.161738686748906e-03 5.471563433652059e-03 5.503705491159445e-02 1.089007262779928e-02 3.668442699270197e-03 3.303510061350411e-02 4.895024343993108e-02 8.728074494595686e-03 9.719840374950505e-03 4.063415060760885e-02 3.777442699192208e-02 3.376385696096618e-02 -7.289506365535632e-03 9.501420961075065e-03 6.215652217466861e-03 -8.141264029910384e-03 3.592517408970117e-02 1.769614838888435e-02 1.282879327735294e-02 6.576051006778955e-02 1.568455311142642e-02 5.876535363226981e-02 1.712517339457230e-02 4.097652100870558e-03 4.045727890347403e-03 4.170291213997310e-03 -3.210131432870962e-05 4.387267741123562e-06 -6.267214658238161e-05 3.974697872259237e-03 4.023956211209877e-03 4.267799641821114e-03 4.200107194849482e-03 4.097838254321490e-03 4.140754590749326e-03 4.147080908694674e-03 4.118295977606461e-03 4.465236362012502e-03 -1.246715116819537e-04 -8.377797260034817e-05 -9.865209456660707e-05 8.638945036321761e-10 -4.673291390387457e-10 -7.954796641421086e-10 3.886901692916037e-03 3.010979209648687e-03 3.417912200133317e-03 4.333312648411867e-03 3.422584831413106e-03 3.401921914700877e-03 4.843235985534567e-08 4.981760887560911e-06 2.182496500362081e-06 2.253397722843844e-06 -3.169868131906351e-07 -5.609733038997863e-07 5.555856232181093e-05 3.767501051591151e-05 -1.659241619162010e-04 5.418260424641206e-03 7.563202879676567e-03 -5.700298369456674e-03 2.117897087979520e-06 -1.384965573249127e-05 8.159976723072405e-06 7.888909477631690e-06 -1.399269263872051e-05 2.400882165651655e-06 3.009508137701258e-07 3.105596637784426e-07 -1.414287475893683e-07 -3.371920583339469e-07 5.628427470446963e-07 9.470325611876105e-07 3.965465891168909e-03 3.818250971797121e-03 3.742523371371303e-03 4.062726494972468e-03 3.804487664576314e-03 3.987229558005420e-03 4.618748374205850e-03 4.542645453014889e-03 4.797616455679599e-03 4.665291854152690e-03 3.947559300491763e-03 2.757730152690707e-03 2.756965513046516e-03 3.553202509806234e-03 4.175153085407183e-03 6.863857668983936e-03 6.218888333333878e-03 5.531108505951406e-03 1.760598598578471e-03 4.736626101509692e-04 1.958722169174070e-04 1.956775709199889e-03 2.319480884565828e-03 4.458010525153805e-03 3.655537145927184e-03 1.788348984015207e-03 1.494414761422711e-03 1.459022126537843e-03 1.946358294241941e-03 3.072560367069324e-03 3.732039339248679e-03 2.417902384418827e-03 1.865364843468632e-03 1.488962284494390e-02 1.025780093375262e-02 8.938882455295335e-03 1.125255204137031e-02 6.187679979075626e-03 5.747307482475469e-03 7.034160621937052e-03 7.569264971759485e-03 1.260403705297920e-02 8.150329429712156e-03 8.394850992065796e-03 8.146485333001965e-03 8.149241852268186e-03 7.992642529500056e-03 8.146903415193906e-03 7.817888687133179e-03 7.836146761975143e-03 7.532493552417549e-03 7.551616693368604e-03 7.513337589194567e-03 7.800891804697011e-03 -7.901014230206324e-05 -1.382616244066720e-04 5.021830669939850e-04 4.026183100329295e-03 3.640151441312801e-03 2.232729256958705e-03 5.545829657776883e-03 5.702853223149226e-03 4.312669995252713e-03 2.644497401317811e-03 1.916560247234118e-03 1.043149032040618e-03 1.311546435403915e-03 2.388306813905513e-03 3.215055583280710e-03 7.753373186110057e-03 5.871367323404629e-03 4.397080204598265e-03 5.233828660926297e-03 6.812967892047573e-03 8.368413010014515e-03 7.519477981640648e-03 7.196607601279359e-03 1.047066560200281e-02 9.417062368112935e-03 6.138590598746998e-03 6.502427975155935e-03 2.673983352267536e-03 6.058419787168512e-03 5.063333411457512e-03 6.381735476841074e-03 7.409803569415524e-03 3.654870304725674e-03 1.674265507415037e-02 2.300116229888941e-02 2.098936743571344e-02 5.848681577715033e-03 6.749497252509217e-03 6.118084503104295e-03 6.275605170810879e-03 5.608179841751906e-03 6.150846934599461e-03 3.461545938597634e-03 1.757425648292803e-03 3.725235444292888e-03 4.527631002076349e-03 2.291981037415712e-03 4.258202716723008e-03 4.256795863653484e-03 3.600918440473980e-03 3.560955648315136e-03 -1.639508751604131e-04 1.545172718598602e-04 -3.811792832418058e-04 5.180322315384614e-03 5.573803550782812e-03 4.797833889295520e-03 9.791223122118251e-03 7.915434634570432e-03 9.385110568010545e-03 9.597772061018927e-03 7.871621294852336e-03 9.820944906593640e-03 1.023500945754888e-02 8.525269892819655e-03 1.054570971516853e-02 3.290162627081640e-03 2.393183690379080e-03 4.080239468124547e-03 4.096085486190693e-03 2.378000754193537e-03 3.769506549021324e-03 3.407388807462710e-03 1.918042151416856e-03 2.721200376363089e-03 3.110550675271542e-03 1.903535386551171e-03 3.422364823562445e-03 5.611077711960900e-03 6.952789737296175e-03 1.565622643359347e-03 2.289801824114268e-03 6.813874429521118e-03 6.446960322927977e-03 6.024150769581166e-03 5.238651533364460e-03 8.356959620342238e-03 5.996069682932855e-03 5.902412745030079e-03 3.779208307107268e-03 7.737159903430794e-03 4.406237227053513e-03 5.167853678057677e-03 3.112127951240766e-03 5.080714578356216e-03 5.137492544182876e-03 5.682279549631954e-03 1.574136427310292e-02 1.064283048221320e-02 8.039878769856392e-03 7.069864293728462e-03 8.439320177667312e-03 9.053956068517471e-03 7.834246677773044e-03 8.774369489703563e-03 7.495046012517463e-03 9.458822384670197e-03 7.839305049890506e-03 7.439192090658615e-03 5.108468361327290e-03 7.061275158654011e-03 8.464033001367787e-03 1.029925108313389e-02 8.380891928689778e-03 7.928516860412019e-03 5.941940609567781e-03 8.353706565826718e-03 3.693769996796144e-06 2.524435494942513e-06 -1.057817704455831e-06 1.675331019067508e-02 1.540113400999382e-02 1.570528700420081e-02 1.632554516192518e-02 1.331684460418865e-02 1.621897629384723e-02 4.381082433408413e-03 4.155599460507481e-03 4.169822256931702e-03 3.561716483428036e-03 3.576768549166237e-03 2.973319672386681e-03 1.705218476177193e-03 1.709243168872611e-03 1.444777149998366e-03 5.806034602226325e-03 5.608998104392213e-03 6.274248269573016e-03 6.256007800989722e-03 6.108760624305667e-03 5.835144134111182e-03 1.512744390203275e-03 1.660995850169628e-03 1.470203197170371e-03 6.304073245282168e-03 6.090453262846108e-03 6.273103891197020e-03 3.086846425661077e-03 3.582518980423858e-03 3.858084087915525e-03 1.042046384622956e-02 6.185306665309193e-03 1.128521710678660e-02 1.260407158050699e-02 7.586969462639639e-03 1.182493267225661e-02 1.925265109312036e-03 2.939145227704319e-03 2.521886587435475e-03 2.963626774592143e-06 8.030211921880151e-07 1.851940112356135e-06 4.825600419896888e-03 4.500000236554511e-03 4.477435664538392e-03 4.278497883807448e-03 4.616054403612545e-03 4.614267842503129e-03 4.635865436097435e-03 4.574555569410263e-03 4.830839610529697e-03 4.582177675183941e-07 9.921005954316920e-07 -1.385008056100249e-07 4.423647621443005e-06 -2.926779942023803e-05 7.711889345943800e-06 4.921809975256316e-03 4.700313092728353e-03 5.005947589883038e-03 4.803291457678400e-03 5.569548616655951e-03 5.151635315043101e-03 1.546641748847835e-03 1.638716135809336e-03 1.580572762563881e-03 1.933776822668605e-03 1.692843341438525e-03 1.568676688165051e-03 1.575126218819674e-03 1.664864386785165e-03 1.927340459327938e-03 1.090720005447610e-02 1.050316181483697e-02 1.074649107087731e-02 9.704152982329222e-03 9.697536438350649e-03 1.032041731073946e-02 1.282522877651847e-09 -1.553851832172219e-08 -2.621379002626337e-08 7.740967695559097e-10 -1.720395962485669e-08 1.463628549959605e-09 5.426061751503362e-03 6.061407268826404e-03 8.071045642643970e-03 8.329784810503626e-03 6.174826145120447e-03 5.509981101005225e-03 3.577469179653335e-03 3.080601412440677e-03 2.634890944718499e-03 2.640203182787853e-03 2.968632958200628e-03 3.571406864114213e-03 5.178702681501820e-03 5.559173266022232e-03 5.760214305098286e-03 5.752015666292042e-03 5.526209891973304e-03 5.597597555140459e-03 3.344617667543200e-03 6.064057724895568e-03 4.071707296605466e-03 4.775711132443473e-03 6.862790291997484e-03 3.964252612603855e-03 9.671496625023835e-03 2.068440722108891e-03 1.065307105742174e-02 -2.007520226711910e-07 6.843296708878537e-07 3.171894535090781e-06 3.418311285035764e-06 4.738858172957713e-06 -3.579455864390151e-07 5.298081142619314e-03 5.462781822490997e-03 4.799563396815774e-03 4.795052446347793e-03 5.458899660093038e-03 4.505467781634354e-03 2.634544126985018e-03 5.988104010545965e-03 -1.697103186497348e-04 2.862634087162332e-03 2.207872482158207e-03 1.997876632293920e-03 2.753641195581458e-03 5.016854273960187e-03 1.424044425452208e-03 8.100367114990419e-03 8.064633259624266e-03 7.675125327045312e-03 6.997650931658357e-03 7.583035732870803e-03 7.515856960760275e-03 2.112840097522573e-03 6.326000905487142e-03 3.726075725327968e-03 1.530983790515458e-02 1.933148233139154e-02 2.355921644590727e-02 1.013790438352381e-02 1.985028543773025e-02 1.459763003273967e-02 1.271393601747856e-03 -2.577585736538840e-04 4.541681831455156e-04 6.167026294687455e-04 -2.857432164283343e-04 1.288023650230962e-03 2.235381985957035e-03 1.996163404122050e-03 1.681327606630971e-03 -6.330909738007301e-05 -1.981424385182111e-05 -7.573940625654535e-05 5.081325332885601e-03 5.327716311326311e-03 5.014210039813518e-03 4.999311489330421e-03 4.790867041144111e-03 5.100057477554535e-03 2.510867159463309e-03 5.982302443486654e-03 2.702695701154933e-03 3.677751026560889e-03 7.338680820084183e-03 3.406887421801597e-03 -8.660627023815647e-08 4.182365842781638e-07 -1.611959249736683e-07 9.419548147742818e-03 7.554035181106458e-03 8.992932074383266e-03 9.048433547617189e-03 7.503621960491304e-03 7.089288384165770e-03 9.788996342318152e-03 8.453703040792354e-03 1.024321890883146e-02 7.960568457130203e-03 8.403159728140361e-03 9.852992013082588e-03 5.763728441834294e-03 5.699838678673682e-03 6.358243168694840e-03 1.287825000671425e-02 2.353507223437458e-02 1.526185868574312e-02 1.958637049235677e-02 2.366233401747262e-02 1.277108164132147e-02 2.741455325354878e-03 1.958389286379981e-03 4.091106072743972e-03 4.548757178385897e-03 6.783285297864617e-03 4.091033309633987e-03 4.118358464089499e-03 1.924628264121742e-03 4.486008429804926e-03 3.354044067389553e-03 1.493808555101866e-03 2.184085318464567e-03 3.349214552473515e-03 5.832559936492425e-03 3.743089484264583e-03 3.685130519912628e-03 1.459801168125017e-03 3.380351124450652e-03 5.896020615200408e-03 1.359799463932839e-02 1.700872578711989e-03 7.622943801891839e-07 -2.740049716762148e-07 3.402763763362079e-07 5.959429584859567e-07 7.580653269003207e-07 1.308207759961066e-06 1.004100318167408e-02 1.392474342727023e-02 2.347986263552845e-03 2.336562599993644e-03 1.391162266597675e-02 4.576315196969074e-03 -8.156283454245987e-04 4.214098870302201e-04 -3.604176907267627e-04 4.129872351638988e-03 4.152058685922159e-03 4.340881101301066e-03 4.286866859496576e-03 3.873292655429994e-03 3.442052240261513e-03 4.283694853714557e-03 4.357462121358594e-03 4.874860290452117e-03 3.438140341080470e-03 4.331530268967161e-03 4.296810167550623e-03 2.790891119395721e-03 2.752805230940510e-03 4.175839951513128e-03 2.775803075488659e-03 4.682403355296233e-03 3.556086654241464e-03 4.202691837015072e-03 4.683413611866107e-03 2.775866669711377e-03 -6.499119255943788e-05 -1.241901002078032e-04 1.692885668530180e-05 2.282811483682640e-03 1.614217609517490e-03 2.266773377301396e-03 2.315878267010275e-03 2.934344557150771e-03 1.930607574109935e-03 1.941032475753165e-03 1.624060099160178e-03 2.279857487786580e-03 -4.701196155503958e-04 1.604484408599987e-03 -1.202361195937663e-03 4.540554881887969e-03 5.151073412468715e-03 4.506919273101760e-03 6.858616177655915e-03 5.537421510031649e-03 6.188995024978902e-03 1.545529997557244e-03 1.726777002885918e-03 1.960285541625566e-03 1.959894833839649e-03 1.631300633547157e-03 1.544564370371192e-03 7.652768415959325e-04 3.552193430310623e-03 3.141067414778808e-04 3.319376026080496e-03 3.799725362489915e-03 6.830750240792052e-04 4.489016359922626e-03 5.056430656192444e-03 5.284027851966422e-03 1.022796328617222e-02 1.055728568740684e-02 1.054713359786507e-02 9.952000834223280e-03 9.774802869246039e-03 9.448140545715205e-03 3.929220698908543e-04 -2.494814457815873e-04 -3.378056369069243e-04 -1.281069374838438e-04 -