<?xml version="1.0"?>
<VTKFile type="UnstructuredGrid" version="0.1" byte_order="LittleEndian">
<UnstructuredGrid>
<Piece NumberOfPoints="6444" NumberOfCells="2148">
<Points>
<DataArray type="Float64" NumberOfComponents="3" format="ascii">
0.0736345888316307 0.0637333048655595 0 0 0 0 0.105263157894484 0 0 0 0.102040816326531 0 0 0 0 0.0736345888316307 0.0637333048655595 0 0.105847738327952 0.150895293579407 0 0 0.204081632653061 0 0 0.102040816326531 0 0.105847738327952 0.150895293579407 0 0 0.102040816326531 0 0.0736345888316307 0.0637333048655595 0 0.0736345888316307 0.0637333048655595 0 0.157062047935717 0.0657304144218603 0 0.105847738327952 0.150895293579407 0 0.105263157894484 0 0 0.157062047935717 0.0657304144218603 0 0.0736345888316307 0.0637333048655595 0 0.157062047935717 0.0657304144218603 0 0.210526315788968 0 0 0.245859050062934 0.0615708420060463 0 0.105263157894484 0 0 0.210526315788968 0 0 0.157062047935717 0.0657304144218603 0 0.222741758606036 0.141984576675053 0 0.157062047935717 0.0657304144218603 0 0.245859050062934 0.0615708420060463 0 0.222741758606036 0.141984576675053 0 0.105847738327952 0.150895293579407 0 0.157062047935717 0.0657304144218603 0 0.245859050062934 0.0615708420060463 0 0.322030541746038 0.113556493866926 0 0.222741758606036 0.141984576675053 0 0.245859050062934 0.0615708420060463 0 0.210526315788968 0 0 0.315789473683452 0 0 0.315789473683452 0 0 0.322030541746038 0.113556493866926 0 0.245859050062934 0.0615708420060463 0 0.28395937666824 0.336326657262323 0 0.19912213507756 0.241701131057856 0 0.306529038486018 0.218453285118224 0 0.222741758606036 0.141984576675053 0 0.322030541746038 0.113556493866926 0 0.306529038486018 0.218453285118224 0 0.306529038486018 0.218453285118224 0 0.19912213507756 0.241701131057856 0 0.222741758606036 0.141984576675053 0 0.105847738327952 0.150895293579407 0 0.222741758606036 0.141984576675053 0 0.19912213507756 0.241701131057856 0 0.19912213507756 0.241701131057856 0 0.28395937666824 0.336326657262323 0 0.170994783200652 0.334188745583958 0 0.0963260944161509 0.273811510294367 0 0.19912213507756 0.241701131057856 0 0.170994783200652 0.334188745583958 0 0.0963260944161509 0.273811510294367 0 0.105847738327952 0.150895293579407 0 0.19912213507756 0.241701131057856 0 0.0963260944161509 0.273811510294367 0 0 0.204081632653061 0 0.105847738327952 0.150895293579407 0 0 0.306122448979592 0 0 0.204081632653061 0 0.0963260944161509 0.273811510294367 0 0 0.306122448979592 0 0.0798863474723025 0.392675045642543 0 0 0.408163265306122 0 0.0963260944161509 0.273811510294367 0 0.0798863474723025 0.392675045642543 0 0 0.306122448979592 0 0.0798863474723025 0.392675045642543 0 0.099581482345634 0.49355644173514 0 0 0.408163265306122 0 0.0798863474723025 0.392675045642543 0 0.19230207234368 0.422678825965969 0 0.099581482345634 0.49355644173514 0 0.0798863474723025 0.392675045642543 0 0.0963260944161509 0.273811510294367 0 0.170994783200652 0.334188745583958 0 0.0798863474723025 0.392675045642543 0 0.170994783200652 0.334188745583958 0 0.19230207234368 0.422678825965969 0 0 0.612244897959184 0 0 0.510204081632653 0 0.0636610927580281 0.559357934802157 0 0.0788823051552232 0.670851705018505 0 0 0.612244897959184 0 0.0636610927580281 0.559357934802157 0 0.099581482345634 0.49355644173514 0 0 0.510204081632653 0 0 0.408163265306122 0 0.0636610927580281 0.559357934802157 0 0 0.510204081632653 0 0.099581482345634 0.49355644173514 0 0.099581482345634 0.49355644173514 0 0.222058877190937 0.510857644422808 0 0.124792039049303 0.598138423871711 0 0.124792039049303 0.598138423871711 0 0.0788823051552232 0.670851705018505 0 0.0636610927580281 0.559357934802157 0 0.0636610927580281 0.559357934802157 0 0.099581482345634 0.49355644173514 0 0.124792039049303 0.598138423871711 0 0.124792039049303 0.598138423871711 0 0.222058877190937 0.510857644422808 0 0.235802928303382 0.611564357809131 0 0.19230207234368 0.422678825965969 0 0.222058877190937 0.510857644422808 0 0.099581482345634 0.49355644173514 0 0.298455345785692 0.447563908098048 0 0.314543409362701 0.549165380872091 0 0.222058877190937 0.510857644422808 0 0.235802928303382 0.611564357809131 0 0.222058877190937 0.510857644422808 0 0.314543409362701 0.549165380872091 0 0.335916026949355 0.661311993908121 0 0.235802928303382 0.611564357809131 0 0.314543409362701 0.549165380872091 0 0.19230207234368 0.422678825965969 0 0.170994783200652 0.334188745583958 0 0.28395937666824 0.336326657262323 0 0.19230207234368 0.422678825965969 0 0.298455345785692 0.447563908098048 0 0.222058877190937 0.510857644422808 0 0.19230207234368 0.422678825965969 0 0.28395937666824 0.336326657262323 0 0.298455345785692 0.447563908098048 0 0.28395937666824 0.336326657262323 0 0.399803174487431 0.298440986856889 0 0.377510554953585 0.391263936876735 0 0.406811536593169 0.484911194529197 0 0.298455345785692 0.447563908098048 0 0.377510554953585 0.391263936876735 0 0.28395937666824 0.336326657262323 0 0.377510554953585 0.391263936876735 0 0.298455345785692 0.447563908098048 0 0.377510554953585 0.391263936876735 0 0.498523341233396 0.389076937637219 0 0.406811536593169 0.484911194529197 0 0.399803174487431 0.298440986856889 0 0.500986724861322 0.250629842679194 0 0.498523341233396 0.389076937637219 0 0.399803174487431 0.298440986856889 0 0.498523341233396 0.389076937637219 0 0.377510554953585 0.391263936876735 0 0.420597075781915 0.595854369448944 0 0.335916026949355 0.661311993908121 0 0.314543409362701 0.549165380872091 0 0.298455345785692 0.447563908098048 0 0.406811536593169 0.484911194529197 0 0.314543409362701 0.549165380872091 0 0.420597075781915 0.595854369448944 0 0.314543409362701 0.549165380872091 0 0.406811536593169 0.484911194529197 0 0.509931573480221 0.522280814579519 0 0.420597075781915 0.595854369448944 0 0.406811536593169 0.484911194529197 0 0.517751522887305 0.649204659932698 0 0.420597075781915 0.595854369448944 0 0.509931573480221 0.522280814579519 0 0.587686537066514 0.464126045476426 0 0.613945404707068 0.570990073651732 0 0.509931573480221 0.522280814579519 0 0.517751522887305 0.649204659932698 0 0.509931573480221 0.522280814579519 0 0.613945404707068 0.570990073651732 0 0.500986724861322 0.250629842679194 0 0.581885168833657 0.302392759021642 0 0.498523341233396 0.389076937637219 0 0.406811536593169 0.484911194529197 0 0.498523341233396 0.389076937637219 0 0.509931573480221 0.522280814579519 0 0.509931573480221 0.522280814579519 0 0.498523341233396 0.389076937637219 0 0.587686537066514 0.464126045476426 0 0.614047778589085 0.387795898525738 0 0.587686537066514 0.464126045476426 0 0.498523341233396 0.389076937637219 0 0.581885168833657 0.302392759021642 0 0.614047778589085 0.387795898525738 0 0.498523341233396 0.389076937637219 0 0.581885168833657 0.302392759021642 0 0.672697639570897 0.28766618318192 0 0.614047778589085 0.387795898525738 0 0.581885168833657 0.302392759021642 0 0.500986724861322 0.250629842679194 0 0.611102057161856 0.196335598991703 0 0.581885168833657 0.302392759021642 0 0.611102057161856 0.196335598991703 0 0.672697639570897 0.28766618318192 0 0.611102057161856 0.196335598991703 0 0.500986724861322 0.250629842679194 0 0.513101370826361 0.134129492815744 0 0.513101370826361 0.134129492815744 0 0.500986724861322 0.250629842679194 0 0.412014556344116 0.189798498882905 0 0.594439451232812 0.0887178408363477 0 0.611102057161856 0.196335598991703 0 0.513101370826361 0.134129492815744 0 0.526315789472444 0 0 0.631578947367022 0 0 0.594439451232812 0.0887178408363477 0 0.526315789472444 0 0 0.594439451232812 0.0887178408363477 0 0.513101370826361 0.134129492815744 0 0.513101370826361 0.134129492815744 0 0.420915352533358 0.074985042685528 0 0.526315789472444 0 0 0.420915352533358 0.074985042685528 0 0.513101370826361 0.134129492815744 0 0.412014556344116 0.189798498882905 0 0.526315789472444 0 0 0.420915352533358 0.074985042685528 0 0.421052631577937 0 0 0.322030541746038 0.113556493866926 0 0.315789473683452 0 0 0.420915352533358 0.074985042685528 0 0.420915352533358 0.074985042685528 0 0.315789473683452 0 0 0.421052631577937 0 0 0.412014556344116 0.189798498882905 0 0.322030541746038 0.113556493866926 0 0.420915352533358 0.074985042685528 0 0.412014556344116 0.189798498882905 0 0.306529038486018 0.218453285118224 0 0.322030541746038 0.113556493866926 0 0.412014556344116 0.189798498882905 0 0.399803174487431 0.298440986856889 0 0.306529038486018 0.218453285118224 0 0.306529038486018 0.218453285118224 0 0.399803174487431 0.298440986856889 0 0.28395937666824 0.336326657262323 0 0.412014556344116 0.189798498882905 0 0.500986724861322 0.250629842679194 0 0.399803174487431 0.298440986856889 0 0.295350406939813 1.24878144427625 0 0.246522554351683 1.16362252184999 0 0.352853207783426 1.1463879991198 0 0.295350406939813 1.24878144427625 0 0.181863964367382 1.24890101842418 0 0.246522554351683 1.16362252184999 0 0.246522554351683 1.16362252184999 0 0.283487779541101 1.08170937477947 0 0.352853207783426 1.1463879991198 0 0.283487779541101 1.08170937477947 0 0.246522554351683 1.16362252184999 0 0.202239780457393 1.08245817859136 0 0.156022104484688 1.15671384061775 0 0.202239780457393 1.08245817859136 0 0.246522554351683 1.16362252184999 0 0.156022104484688 1.15671384061775 0 0.246522554351683 1.16362252184999 0 0.181863964367382 1.24890101842418 0 0.156022104484688 1.15671384061775 0 0.181863964367382 1.24890101842418 0 0.0769912270182558 1.21550350972786 0 0.0769912270182558 1.21550350972786 0 0 1.22448979591837 0 0 1.12244897959184 0 0 1.12244897959184 0 0.0938420895696505 1.07913022382781 0 0.0769912270182558 1.21550350972786 0 0.156022104484688 1.15671384061775 0 0.0938420895696505 1.07913022382781 0 0.202239780457393 1.08245817859136 0 0.0769912270182558 1.21550350972786 0 0.0938420895696505 1.07913022382781 0 0.156022104484688 1.15671384061775 0 0.0938420895696505 1.07913022382781 0 0.156323146912265 0.989428081563376 0 0.202239780457393 1.08245817859136 0 0.156323146912265 0.989428081563376 0 0.0938420895696505
[...]
<PointData Scalars="conc_conc," Vectors="" Tensors="">
<DataArray type="Float64" Name="conc_conc" format="ascii">
0.00381456761133746 0.00366079254625878 0.00384527178202099 0.00375212072479437 0.00367085597769408 0.00381469498065845 0.00397129721238154 0.00382098121273376 0.00374610209349477 0.00397985116660965 0.00374191030946892 0.00382721007383007 0.00381458281881177 0.00410907128759316 0.00399446186714293 0.00385448360089673 0.00410651613352038 0.00381526352260051 0.00411676682351644 0.00428120606032148 0.00451356269697579 0.00385022267509189 0.00428043383254152 0.00410776407634878 0.00452905895733347 0.00411870535789572 0.00451734347495362 0.00452286959981305 0.00399375538372355 0.00412053730537345 0.00451437102652228 0.00491792782676714 0.00453901225490028 0.00450902587496878 0.00429144971201113 0.00471298761624632 0.004698603462763 0.00490835586117194 0.00452113718117908 0.00515421198674253 0.00455316037509339 0.00505695414048757 0.00453998072328527 0.0049188029269678 0.00504921344567523 0.0050548572715321 0.00455273044083082 0.00452523532693193 0.00398962780097122 0.00452560548463406 0.004535659505402 0.00454240734049071 0.00515248129477152 0.00450635428306332 0.00407348135803199 0.00453744242980281 0.0045011900943096 0.00408061192659083 0.00399685346451227 0.00452619418298701 0.00406778971251517 0.00380840793561677 0.00399074399783245 0.00390120613123666 0.00382792010514411 0.00405242313877278 0.00390730998979153 0.00410525439999264 0.00397752629816085 0.00406883979149692 0.00411551238087573 0.00388969116029129 0.00411704153176003 0.00424838113587839 0.00396715979836538 0.00409949524978242 0.00472244243323419 0.00426469800844972 0.00411331685704632 0.00408044397426448 0.0044952045143023 0.00409924426034297 0.00450869287291738 0.00472623679116158 0.00410298222330781 0.0040457138643549 0.00417750491102472 0.00430328146601249 0.00408907530307338 0.00419157808002651 0.00423362219264905 0.00403778630243686 0.0039770691755078 0.00418574887007486 0.00402770511942035 0.00425036881570641 0.00425674803564538 0.00503980047867585 0.00450049935484795 0.00448775513342361 0.00430939157766354 0.00418668096708089 0.0041839053868284 0.00426933361203509 0.00449439638865412 0.00449284724319552 0.00505607180168385 0.0052876700865416 0.0047428444723179 0.00504051495410648 0.0042587032286823 0.00542404104682884 0.00569324857479339 0.00506551849256441 0.00530319827488274 0.00505602863545108 0.00569884694307125 0.00601635840739552 0.00531308344268122 0.00569095636519066 0.00474364197777388 0.00450331175120842 0.00515735291354079 0.00474198370450811 0.00542898729011293 0.00505537144936204 0.00475108027909124 0.00515633524759674 0.00542239350517301 0.00519115629418028 0.00545577418050305 0.00560781309270098 0.00585299641870919 0.00544701781860328 0.00559954193735453 0.00516524809216421 0.00561451189574932 0.00543154622897235 0.00563136819606858 0.00548563502229102 0.00585265499483697 0.00546251558125319 0.00515789521606312 0.00546476420818008 0.00543344733438018 0.00549076911601375 0.00562274647219133 0.00610983096785054 0.00603137825247101 0.00571174256655964 0.00543900723822615 0.0058628198349074 0.00571188323016226 0.00609391830417822 0.005733192096225 0.00583435327816723 0.00569242516725705 0.00609402065499571 0.00585594039110534 0.00589417645977316 0.00611706260516999 0.00565610153325656 0.00496613695833012 0.00492270346055539 0.00567504737055587 0.00587972855146866 0.00566967880826129 0.00493400103635725 0.00515680027975991 0.00475294488670042 0.00545256415158816 0.00587344603855403 0.00544174856890145 0.00567368721378102 0.00565837545677827 0.00545429834788279 0.00499225628044302 0.00462421043518873 0.00498245325461902 0.00547518602895905 0.00473169443453659 0.00462325353728904 0.00547099984656846 0.00474511359747275 0.00390468508240963 0.00460936256300216 0.00474350133530891 0.00517320326566038 0.00434309807343279 0.00473942249764769 0.00432802076607738 0.00391091110551901 0.00436484921328936 0.0051584084376409 0.00486220278193142 0.00487370277098812 0.00515725752384874 0.00524162123854477 0.00428138170016018 0.00435300492978117 0.00487009898120955 0.00458266364683027 0.00389719621377115 0.00427336672677406 0.00455638513503041 0.00429112243690607 0.00485760012268758 0.00486741199042165 0.00500134360353947 0.0045653602864586 0.00497920498101748 0.00489047329307158 0.00522790660066519 0.00458927747196743 0.00497887199449585 0.00486403146296201 0.00491814861816206 0.00470317091089458 0.0049981856022302 0.00497737267995188 0.0047247537276834 0.00486431722288795 0.00522196232872723 0.00493080860804612 0.00498823814811358 0.00523682012147323 0.0050634777191766 0.00490835539958694 0.00522957439833921 0.00544531046671379 0.00507047194730368 0.00504187989492218 0.00546380475331904 0.00518254307267116 0.00521473052064778 0.00517409686766417 0.00544913486115099 0.00687641158174464 0.00622324266949539 0.00714362538102153 0.00686091997080924 0.00553351684687985 0.00619199960609239 0.00621998103036272 0.00643038927916454 0.00714406717346373 0.00644376349412218 0.00619558848859095 0.00560396807242042 0.0051661918012258 0.00559705411627573 0.00618222828801407 0.00516078898647398 0.0061860956344642 0.00552295543770226 0.00517369764402013 0.00549325200721056 0.00445866575757113 0.00445447012523108 0.00424780372659668 0.00423300935222709 0.00419716026344139 0.00455491524030009 0.00448086021247227 0.00516265798835629 0.00455007469518303 0.00557751749703183 0.00448459725959 0.0045730377734162 0.00515048403179015 0.00455583752744917 0.00505664292447924 0.00557403457076644 0.00503049834025627 0.00456508376983706 0.00441676646852424 0.00452224259911591 0.00421833475221417 0.00421946875129527 0.00454310039179993 0.00420295696698088 0.00443293088298097 0.00422403895119407 0.00420237865702263 0.00441049314049027 0.00458722937469167 0.00502933251483509 0.00442285231783216 0.00505359315767256 0.00559591325944158 0.00604219497173216 0.00504624745105473 0.00604743635317775 0.00559673891505437 0.00604733760111648 0.00643847831030181 0.00561003914699908 0.00684104847411006 0.0064415817022426 0.00605727207149166 0.0068291910419431 0.00606873853060567 0.0063979061445246 0.00560250429994386 0.00641209290903604 0.00605364085784515 0.00600395955231356 0.0064059742845243 0.0056109229320624 0.0052157847644163 0.00547648538010888 0.00600529684233264 0.00600963297213653 0.00559766485664618 0.00521274775886784 0.00557855103750761 0.00504897797351543 0.00456454119764731 0.00557878929076798 0.00456857136800962 0.00521568123090578 0.00452681653972647 0.00418550469927997 0.00415960700699792 0.00442629704973726 0.00416731123496354 0.00455570753305238 0.00412939632472528 0.00450620228177331 0.00455191279938405 0.00458130199593415 0.00451209455737018 0.00519732109861914 0.00415074658007684 0.00412272161715256 0.00447364353336415 0.0043169575350288 0.0044850718877012 0.00411673565318904 0.00409898725335321 0.00429366870868007 0.00413586093220091 0.00478016178018917 0.00429866403262455 0.00450063791111791 0.00477909666367703 0.00450758579830204 0.00429643084802489 0.00529917707349269 0.00547051204913704 0.0047987310427621 0.00448619808268941 0.00529074654862059 0.00479573832452625 0.00479587459348355 0.00546599847839868 0.00450553718407375 0.0045010536865166 0.00547059506442804 0.00520605737765239 0.00601807149793389 0.00550547686578448 0.00636213550590051 0.00529989468939661 0.00602550713248413 0.00550213771633779 0.00604269149043311 0.00628277895908045 0.00634832786301105 0.00601369323961588 0.00635280968401049 0.00551721954783872 0.00637138664265756 0.00624550797217791 0.0063808807472819 0.00605547267706533 0.00607710049340734 0.00627016328735751 0.00626180683600024 0.00609432967369159 0.00591267089813611 0.00636097709821078 0.0062707351734615 0.00589037101407864 0.0051242635268132 0.00589692632031325 0.00490155473025877 0.00577651023275953 0.00588922192606449 0.00513177203386835 0.00510751970965107 0.0046263363091588 0.00578387428457354 0.0063740179240706 0.00579603511525956 0.00634204161435561 0.00637196066902149 0.00586187160677717 0.00579439677121218 0.00568113782384449 0.00578933917113081 0.00462240099549888 0.00576690922242725 0.00569293426012894 0.00635299837112406 0.00567240366326168 0.00557472661846295 0.00654204772764344 0.00671094089917551 0.00635275486541237 0.00654350833452388 0.0065287703701526 0.00635405449033346 0.00569566330096294 0.0065626627826584 0.00693765687648937 0.00668342157351205 0.00635532940616318 0.00669948981850314 0.00634594486218268 0.00638896936174007 0.00667376852378759 0.00636782796155674 0.00604320969145601 0.00632496317046911 0.00668697343140538 0.00642522145899819 0.00603274779153147 0.00670152859944579 0.00645475899800905 0.00665667091230094 0.00694025623160492 0.00695976267288291 0.00683270484935812 0.00642904685696287 0.00714092887833213 0.00683784310159499 0.00717830286177523 0.00712663771961921 0.00644977205640969 0.00682764449710919 0.00672207668447528 0.00715964240490183 0.00694168036392568 0.0069155257836702 0.00716009792623041 0.00685804049713952 0.00670393190820174 0.00696499368069654 0.00651865604439362 0.00653217246337834 0.00558747620292497 0.00669733060972717 0.00594717307420306 0.00671690049482851 0.00555320837908544 0.00679406107269663 0.00669746782037434 0.00595869392214796 0.00667461348932459 0.00681169890638989 0.00719043919613692 0.00734345976726007 0.00679151780511607 0.00697043106529365 0.00682903670850928 0.00732999705021426 0.00716979227713589 0.00697598815931013 0.00681084748747373 0.00555420614535384 0.00554317343154988 0.00681410533838536 0.00592802258096576 0.00568634468869053 0.0070080458801473 0.00550460105791802 0.00699334411601396 0.00767438183778197 0.00731973571011672 0.00764160100630079 0.00715605074371318 0.00737205037633624 0.00713820646814941 0.00735512010939297 0.0071745239710752 0.00709353520982262 0.00766807379418944 0.00692198808469251 0.00170838173991555 0.00147918584237667 0.00223414223407507 0.00176353541662484 0.00169231303607296 0.00240871274210202 0.00167953013040973 0.00225723340575488 0.00242842962937884 0.00337867573239798 0.00243356981330503 0.00362287562731134 0.00243772036395855 0.00225759794651362 0.00361644392235404 0.00550221813940066 0.00362573388276148 0.00405979523642438 0.00403584543639114 0.00363963024578554 0.00223708391457008 0.00564267824819039 0.00550903817292255 0.00406525407300965 0.00470672923153732 0.00363452889298869 0.00549452461639396 0.00363685831745992 0.00469673700955664 0.00337020283710398 0.00337586519152842 0.00469187041311918 0.00388358800628146 0.00554087545654885 0.00472615248935741 0.00594104227692188 0.00551143955994584 0.00594802087595768 0.00471801038634575 0.00470934088522871 0.00555421556216889 0.00388643206196065 0.00337415477697568 0.0038713256073944 0.00255586537911366 0.00385621913130795 0.00277720276109087 0.00256665042927993 0.00336590650373592 0.00256919748822028 0.00244496705041302 0.00173811127544066 0.00243105491561609 0.00256038297972477 0.00185519864399055 0.00175589389737065 0.00253674163313417 0.00184397332006183 0.00274321939135346 0.00200728098804592 0.0019878900933611 0.00150277233906981 0.00184479514236242 0.00276468969767587 0.0031791548474209 0.0019718032589019 0.00182714167147561 0.00255699717638191 0.00276139904843242 0.00387202622228438 0.00428558776953886 0.00276370136863703 0.00554727295265237 0.00428944697824035 0.00389008572865632 0.00554593701098918 0.00569858644838422 0.00431138994734024 0.00459815075668261 0.00431530756877437 0.00569147925039571 0.00460665210800242 0.0032037879458731 0.00428979679400538 0.00427566985351652 0.00320561481799411 0.00277288199317873 0.00320887524416515 0.00459866632184458 0.0035516086592722 0.00355409766384237 0.00460031170594159 0.00432166751004935 0.00461136307733162 0.00511578836260637 0.00432082706213816 0.00432668334897616 0.00511280917920967 0.00489922092833146 0.00431862346507334 0.0037179023345217 0.00355587282489203 0.00288891288774015 0.00214864557560892 0.0025127205190812 0.00353994743288239 0.00289971303465336 0.00251602919919244 0.00354484436862998 0.00251218922514207 0.00319475711334212 0.00198272857234438 0.00317354126567224 0.00253066444440719 0.00162198221700386 0.00199560360529813 0.00248298842980916 0.0021698441740438 0.00162310520915674 0.00248703466127555 0.00164075145716995 0.00163504171422336 0.00160300780637104 0.00157885493561007 0.001976439566597 0.00166825701038105 0.00164095153333308 0.00159745707635133 0.00157281788143546 0.00161693466460758 0.00161786915829851 0.00162500413938823 0.0022342441902484 0.00163286359428525 0.00159834046564888 0.00229798116982951 0.00226385187246259 0.00329944850838795 0.0022635980903265 0.00295931382529514 0.00330538765960775 0.00229541614067856 0.00330831490712831 0.00295851834954181 0.00231136442349552 0.0029441160765021 0.00193543361965622 0.00229231702249644 0.00161720043153655 0.00226459229877879 0.00194537581969296 0.00162228509427716 0.00228779105838468 0.00167890458238927 0.00196104052176578 0.00250670266022413 0.00296863019591956 0.00363526246853966 0.00252689966383864 0.00192909234012303 0.00294437886994998 0.00252515134152235 0.00363993230533672 0.00325578024870225 0.00252061138122074 0.00228358550845829 0.00253602993231782 0.00324154396460956 0.00228208225853315 0.00166635968443821 0.00251609476201594 0.00150895095555029 0.001599097997417 0.00167368390165024 0.00151512544678003 0.00166375805088833 0.00147206698718365 0.00155350988492441 0.00163378645522117 0.00158586824397535 0.00193823540242826 0.00169227664542422 0.00157346900904724 0.00158096962635322 0.00165523407369111 0.00193490369331265 0.00152452071347194 0.00156739027197752 0.00157894728328854 0.0019705239235932 0.00157866418551756 0.00151560512766201 0.00153508097136249 0.00146745114228706 0.00182457759717193 0.00184520607648148 0.0014472654838776 0.00175033601291501 0.0014821207407693 0.00142543005610736 0.00172588140617141 0.0014286684849119 0.00147250777425601 0.00169217948837187 0.00140757905372109 0.00172637674142694 0.0016510399080891 0.00170340415745104 0.00171510597604503 0.00144871055681244 0.00173181569750933 0.00168823418948158 0.00227189760220223 0.00229710379570307 0.00266373364016134 0.00171180208948907 0.00227779663919565 0.00324767213701323 0.00267982920643462 0.00219691245224338 0.00269203271371423 0.00325421238028846 0.00219498218522931 0.00165659378405128 0.00173481412666981 0.00266372648795218 0.00220379452589056 0.00170693793625085 0.00240442350249588 0.00163398842137554 0.00221455107010374 0.00363304998887593 0.00241225109686859 0.00327805299175743 0.00242235668218889 0.00219336145068927 0.00325303266122354 0.0036293703187214 0.00261199959451741 0.00241245926522195 0.00169642006498568 0.00242959957424731 0.00259707704205759 0.00239375424939601 0.00171258531180264 0.00164224536591639 0.00135422742936909 0.00167447999193193 0.00139015212789893 0.00166332440283167 0.00168860753557903 0.0013354128611366 0.0014371517159425 0.00163049438669501 0.00136720098540954 0.00168297724023382 0.00175428190068651 0.00140222734041105 0.00138502790727802 0.0016623001954309 0.00143064758579676 0.00168955555307334 0.0013718693307046 0.00148757202150056 0.00206761784627902 0.00213522046626194 0.00272338303001891 0.00291834898499559 0.00273993407763156 0.00212730985666348 0.0029156810435373 0.00212885965444201 0.00213226968973594 0.00211533855569876 0.00212683621861593 0.0016522294822054 0.00210923996695968 0.0016933186070785 0.00166506714681485 0.00212343719307694 0.00207407801965144 0.00167877425487169 0.00242716730037244 0.00185921503966519 0.0020755383179412 0.00187231111759152 0.00168485142275893 0.00207097293579197 0.00186261201786129 0.00217748174312246 0.00167959085540182 0.00242732970140073 0.00220010387429528 0.00185954832506479 0.00299821460223285 0.00218990214029726 0.00243279377381751 0.00244304991957578 0.00206819721666587 0.00272636404948392 0.00242996872867251 0.00273765344627174 0.00341386510874722 0.00243270585010177 0.00340932108388576 0.00300745649285902 0.00388585261875332 0.00301093057397214 0.0034178885722911 0.00428454244331206 0.00387475759274633 0.00343683607994788 0.00343574883672743 0.00433329869607888 0.00429312734700754 0.00339744514788261 0.00389853779149798 0.0043378743319967 0.00433390593400172 0.00342280459858271 0.00339908524435664 0.0033916256228806 0.00342461471530811 0.0027365566143155 0.00292875460351953 0.00338923860371961 0.00273547285491358 0.00339432594601026 0.00292814594268849 0.00388774157875072 0.00325218611506057 0.00461103708122312 0.00389201444485231 0.00402132154528084 0.00461898673124209 0.00324467838400021 0.00497850392379629 0.00461106647178775 0.00403293258203295 0.00401142335104589 0.0032406722057249 0.00283005764956446 0.00324345023934941 0.00388975387588568 0.00292495979655153 0.00490599789802483 0.00372261208716502 0.00432144743775798 0.0040161597657161 0.00372666921987863 0.00489995423935176 0.00489973256856254 0.00498152499547188 0.00403121447202018 0.00371402368855346 0.00401780853066286 0.00282327209450999 0.00282688606011642 0.00289907712240348 0.00370694677119322 0.00371623828736767 0.00289436632520741 0.00354861539410275 0.00282889576957677 0.00214664522736572 0.00289225916426814 0.00248299007928089 0.00191738918692562 0.00280898773941308 0.00280236776613422 0.0019170976380041 0.00215414112994374 0.00160530347615071 0.00213530931340125 0.00194683505395418 0.00212723776916666 0.00161076172020197 0.00165023648947565 0.00321816677501997 0.00293431887371792 0.0021209947586614 0.00282609128942943 0.00322991866991404 0.00247099550407163 0.00247544996831129 0.0032141479376509 0.00212223570298222 0.00213716975192387 0.0019325567490803 0.00247370089428125 0.00154758049477959 0.00192829774692554 0.00211019799725392 0.00167736826236377 0.00156475446206101 0.00209178187613461 0.00157727880307386 0.00163958677597984 0.00167491424981897 0.00191057408807707 0.00158249148006744 0.00163208621629481 0.0019646866918561 0.00163485628031666 0.00154711745851085 0.00154959119221177 0.00172380394153009 0.00196769671823822 0.00163236126049762 0.00159231517751238 0.00162877522201437 0.00162245234956063 0.00162056222269193 0.00163126071971057 0.00162464545305542 0.00162233150119269 0.00192163888596669 0.00163419229555309 0.00161928550941631 0.00161191314925237 0.00160794468705838 0.00162209072898967 0.00217546804123262 0.00224995533856906 0.00158134437868627 0.00221266721387827 0.00161527576845788 0.00202240927825743 0.00218784255821011 0.00286715193163143 0.00220978037098187 0.00199960290394707 0.00323508423157529 0.00219881275095102 0.00289427210521309 0.00294334557270404 0.00227300436229084 0.00220786297661009 0.00294925340992513 0.00219527646416209 0.00323465597328429 0.00224024740676161 0.00199936777066092 0.00168362368450025 0.00287283533516102 0.00199488554720349 0.00266130418142408 0.00265387771421794 0.00200470520881861 0.00226597136539259 0.00225669662347969 0.00307255636978203 0.00265788384744419 0.00193373804522316 0.00262497579562669 0.00226124506132411 0.00264563564473116 0.0030699250058395 0.00226103914301377 0.00193892532531008 0.00219194169947337 0.00262182443878029 0.00166839991437011 0.00216820748494566 0.00194232562364143 0.00168494497163636 0.00195934833699499 0.00224088485973462 0.00168027081583145 0.00163977637163628 0.00163459982611569 0.00160663298306459 0.00192950320581351 0.00169498836765046 0.00192603384753626 0.00161334633299201 0.00169761112325281 0.00166460093240917 0.0016220288869106 0.00165305663523728 0.00161355915921061 0.00166203149947171 0.00168329528631129 0.00167745645356784 0.00161252476283548 0.00161081976894274 0.00159556865209228 0.00184817791440789 0.00170529389110982 0.00184550596926521 0.00159280869847572 0.00168598004089453 0.00162828985228302 0.00166070545194752 0.00166108458399666 0.00160546086676426 0.00173521217745205 0.00167644017312707 0.00160682653764383 0.00163801565948014 0.00173725360085862 0.00201477558211824 0.00217040307158209 0.00174299823958225 0.00174700531206664 0.00161613565765583 0.00199568391551472 0.00174867283486824 0.00216071158505448 0.001674063549462