<?xml version="1.0"?>
<VTKFile type="UnstructuredGrid" version="0.1" byte_order="LittleEndian">
<UnstructuredGrid>
<Piece NumberOfPoints="6444" NumberOfCells="2148">
<Points>
<DataArray type="Float64" NumberOfComponents="3" format="ascii">
0.0736345888316307 0.0637333048655595 0 0 0 0 0.105263157894484 0 0 0 0.102040816326531 0 0 0 0 0.0736345888316307 0.0637333048655595 0 0.105847738327952 0.150895293579407 0 0 0.204081632653061 0 0 0.102040816326531 0 0.105847738327952 0.150895293579407 0 0 0.102040816326531 0 0.0736345888316307 0.0637333048655595 0 0.0736345888316307 0.0637333048655595 0 0.157062047935717 0.0657304144218603 0 0.105847738327952 0.150895293579407 0 0.105263157894484 0 0 0.157062047935717 0.0657304144218603 0 0.0736345888316307 0.0637333048655595 0 0.157062047935717 0.0657304144218603 0 0.210526315788968 0 0 0.245859050062934 0.0615708420060463 0 0.105263157894484 0 0 0.210526315788968 0 0 0.157062047935717 0.0657304144218603 0 0.222741758606036 0.141984576675053 0 0.157062047935717 0.0657304144218603 0 0.245859050062934 0.0615708420060463 0 0.222741758606036 0.141984576675053 0 0.105847738327952 0.150895293579407 0 0.157062047935717 0.0657304144218603 0 0.245859050062934 0.0615708420060463 0 0.322030541746038 0.113556493866926 0 0.222741758606036 0.141984576675053 0 0.245859050062934 0.0615708420060463 0 0.210526315788968 0 0 0.315789473683452 0 0 0.315789473683452 0 0 0.322030541746038 0.113556493866926 0 0.245859050062934 0.0615708420060463 0 0.28395937666824 0.336326657262323 0 0.19912213507756 0.241701131057856 0 0.306529038486018 0.218453285118224 0 0.222741758606036 0.141984576675053 0 0.322030541746038 0.113556493866926 0 0.306529038486018 0.218453285118224 0 0.306529038486018 0.218453285118224 0 0.19912213507756 0.241701131057856 0 0.222741758606036 0.141984576675053 0 0.105847738327952 0.150895293579407 0 0.222741758606036 0.141984576675053 0 0.19912213507756 0.241701131057856 0 0.19912213507756 0.241701131057856 0 0.28395937666824 0.336326657262323 0 0.170994783200652 0.334188745583958 0 0.0963260944161509 0.273811510294367 0 0.19912213507756 0.241701131057856 0 0.170994783200652 0.334188745583958 0 0.0963260944161509 0.273811510294367 0 0.105847738327952 0.150895293579407 0 0.19912213507756 0.241701131057856 0 0.0963260944161509 0.273811510294367 0 0 0.204081632653061 0 0.105847738327952 0.150895293579407 0 0 0.306122448979592 0 0 0.204081632653061 0 0.0963260944161509 0.273811510294367 0 0 0.306122448979592 0 0.0798863474723025 0.392675045642543 0 0 0.408163265306122 0 0.0963260944161509 0.273811510294367 0 0.0798863474723025 0.392675045642543 0 0 0.306122448979592 0 0.0798863474723025 0.392675045642543 0 0.099581482345634 0.49355644173514 0 0 0.408163265306122 0 0.0798863474723025 0.392675045642543 0 0.19230207234368 0.422678825965969 0 0.099581482345634 0.49355644173514 0 0.0798863474723025 0.392675045642543 0 0.0963260944161509 0.273811510294367 0 0.170994783200652 0.334188745583958 0 0.0798863474723025 0.392675045642543 0 0.170994783200652 0.334188745583958 0 0.19230207234368 0.422678825965969 0 0 0.612244897959184 0 0 0.510204081632653 0 0.0636610927580281 0.559357934802157 0 0.0788823051552232 0.670851705018505 0 0 0.612244897959184 0 0.0636610927580281 0.559357934802157 0 0.099581482345634 0.49355644173514 0 0 0.510204081632653 0 0 0.408163265306122 0 0.0636610927580281 0.559357934802157 0 0 0.510204081632653 0 0.099581482345634 0.49355644173514 0 0.099581482345634 0.49355644173514 0 0.222058877190937 0.510857644422808 0 0.124792039049303 0.598138423871711 0 0.124792039049303 0.598138423871711 0 0.0788823051552232 0.670851705018505 0 0.0636610927580281 0.559357934802157 0 0.0636610927580281 0.559357934802157 0 0.099581482345634 0.49355644173514 0 0.124792039049303 0.598138423871711 0 0.124792039049303 0.598138423871711 0 0.222058877190937 0.510857644422808 0 0.235802928303382 0.611564357809131 0 0.19230207234368 0.422678825965969 0 0.222058877190937 0.510857644422808 0 0.099581482345634 0.49355644173514 0 0.298455345785692 0.447563908098048 0 0.314543409362701 0.549165380872091 0 0.222058877190937 0.510857644422808 0 0.235802928303382 0.611564357809131 0 0.222058877190937 0.510857644422808 0 0.314543409362701 0.549165380872091 0 0.335916026949355 0.661311993908121 0 0.235802928303382 0.611564357809131 0 0.314543409362701 0.549165380872091 0 0.19230207234368 0.422678825965969 0 0.170994783200652 0.334188745583958 0 0.28395937666824 0.336326657262323 0 0.19230207234368 0.422678825965969 0 0.298455345785692 0.447563908098048 0 0.222058877190937 0.510857644422808 0 0.19230207234368 0.422678825965969 0 0.28395937666824 0.336326657262323 0 0.298455345785692 0.447563908098048 0 0.28395937666824 0.336326657262323 0 0.399803174487431 0.298440986856889 0 0.377510554953585 0.391263936876735 0 0.406811536593169 0.484911194529197 0 0.298455345785692 0.447563908098048 0 0.377510554953585 0.391263936876735 0 0.28395937666824 0.336326657262323 0 0.377510554953585 0.391263936876735 0 0.298455345785692 0.447563908098048 0 0.377510554953585 0.391263936876735 0 0.498523341233396 0.389076937637219 0 0.406811536593169 0.484911194529197 0 0.399803174487431 0.298440986856889 0 0.500986724861322 0.250629842679194 0 0.498523341233396 0.389076937637219 0 0.399803174487431 0.298440986856889 0 0.498523341233396 0.389076937637219 0 0.377510554953585 0.391263936876735 0 0.420597075781915 0.595854369448944 0 0.335916026949355 0.661311993908121 0 0.314543409362701 0.549165380872091 0 0.298455345785692 0.447563908098048 0 0.406811536593169 0.484911194529197 0 0.314543409362701 0.549165380872091 0 0.420597075781915 0.595854369448944 0 0.314543409362701 0.549165380872091 0 0.406811536593169 0.484911194529197 0 0.509931573480221 0.522280814579519 0 0.420597075781915 0.595854369448944 0 0.406811536593169 0.484911194529197 0 0.517751522887305 0.649204659932698 0 0.420597075781915 0.595854369448944 0 0.509931573480221 0.522280814579519 0 0.587686537066514 0.464126045476426 0 0.613945404707068 0.570990073651732 0 0.509931573480221 0.522280814579519 0 0.517751522887305 0.649204659932698 0 0.509931573480221 0.522280814579519 0 0.613945404707068 0.570990073651732 0 0.500986724861322 0.250629842679194 0 0.581885168833657 0.302392759021642 0 0.498523341233396 0.389076937637219 0 0.406811536593169 0.484911194529197 0 0.498523341233396 0.389076937637219 0 0.509931573480221 0.522280814579519 0 0.509931573480221 0.522280814579519 0 0.498523341233396 0.389076937637219 0 0.587686537066514 0.464126045476426 0 0.614047778589085 0.387795898525738 0 0.587686537066514 0.464126045476426 0 0.498523341233396 0.389076937637219 0 0.581885168833657 0.302392759021642 0 0.614047778589085 0.387795898525738 0 0.498523341233396 0.389076937637219 0 0.581885168833657 0.302392759021642 0 0.672697639570897 0.28766618318192 0 0.614047778589085 0.387795898525738 0 0.581885168833657 0.302392759021642 0 0.500986724861322 0.250629842679194 0 0.611102057161856 0.196335598991703 0 0.581885168833657 0.302392759021642 0 0.611102057161856 0.196335598991703 0 0.672697639570897 0.28766618318192 0 0.611102057161856 0.196335598991703 0 0.500986724861322 0.250629842679194 0 0.513101370826361 0.134129492815744 0 0.513101370826361 0.134129492815744 0 0.500986724861322 0.250629842679194 0 0.412014556344116 0.189798498882905 0 0.594439451232812 0.0887178408363477 0 0.611102057161856 0.196335598991703 0 0.513101370826361 0.134129492815744 0 0.526315789472444 0 0 0.631578947367022 0 0 0.594439451232812 0.0887178408363477 0 0.526315789472444 0 0 0.594439451232812 0.0887178408363477 0 0.513101370826361 0.134129492815744 0 0.513101370826361 0.134129492815744 0 0.420915352533358 0.074985042685528 0 0.526315789472444 0 0 0.420915352533358 0.074985042685528 0 0.513101370826361 0.134129492815744 0 0.412014556344116 0.189798498882905 0 0.526315789472444 0 0 0.420915352533358 0.074985042685528 0 0.421052631577937 0 0 0.322030541746038 0.113556493866926 0 0.315789473683452 0 0 0.420915352533358 0.074985042685528 0 0.420915352533358 0.074985042685528 0 0.315789473683452 0 0 0.421052631577937 0 0 0.412014556344116 0.189798498882905 0 0.322030541746038 0.113556493866926 0 0.420915352533358 0.074985042685528 0 0.412014556344116 0.189798498882905 0 0.306529038486018 0.218453285118224 0 0.322030541746038 0.113556493866926 0 0.412014556344116 0.189798498882905 0 0.399803174487431 0.298440986856889 0 0.306529038486018 0.218453285118224 0 0.306529038486018 0.218453285118224 0 0.399803174487431 0.298440986856889 0 0.28395937666824 0.336326657262323 0 0.412014556344116 0.189798498882905 0 0.500986724861322 0.250629842679194 0 0.399803174487431 0.298440986856889 0 0.295350406939813 1.24878144427625 0 0.246522554351683 1.16362252184999 0 0.352853207783426 1.1463879991198 0 0.295350406939813 1.24878144427625 0 0.181863964367382 1.24890101842418 0 0.246522554351683 1.16362252184999 0 0.246522554351683 1.16362252184999 0 0.283487779541101 1.08170937477947 0 0.352853207783426 1.1463879991198 0 0.283487779541101 1.08170937477947 0 0.246522554351683 1.16362252184999 0 0.202239780457393 1.08245817859136 0 0.156022104484688 1.15671384061775 0 0.202239780457393 1.08245817859136 0 0.246522554351683 1.16362252184999 0 0.156022104484688 1.15671384061775 0 0.246522554351683 1.16362252184999 0 0.181863964367382 1.24890101842418 0 0.156022104484688 1.15671384061775 0 0.181863964367382 1.24890101842418 0 0.0769912270182558 1.21550350972786 0 0.0769912270182558 1.21550350972786 0 0 1.22448979591837 0 0 1.12244897959184 0 0 1.12244897959184 0 0.0938420895696505 1.07913022382781 0 0.0769912270182558 1.21550350972786 0 0.156022104484688 1.15671384061775 0 0.0938420895696505 1.07913022382781 0 0.202239780457393 1.08245817859136 0 0.0769912270182558 1.21550350972786 0 0.0938420895696505 1.07913022382781 0 0.156022104484688 1.15671384061775 0 0.0938420895696505 1.07913022382781 0 0.156323146912265 0.989428081563376 0 0.202239780457393 1.08245817859136 0 0.156323146912265 0.989428081563376 0 0.0938420895696505
[...]
<PointData Scalars="conc_conc," Vectors="" Tensors="">
<DataArray type="Float64" Name="conc_conc" format="ascii">
0.000417421422914204 0.000389998802976139 0.000410485081004322 0.000420449079591508 0.000390016018711947 0.000418649321362051 0.000458809412673045 0.000453975191155869 0.000420037002057269 0.000459702580525803 0.00041960648035738 0.000420446209033986 0.000418951459394727 0.000453103408271633 0.000461538080945347 0.000410495348608525 0.000452119822528304 0.000418601623591496 0.000453555386544235 0.000457711437929456 0.000497518131968042 0.00041103025224168 0.00045871564232504 0.000450976561612355 0.0005227644335655 0.000454210289898654 0.000498651402016144 0.000522051011350746 0.000461657930815714 0.000454345170562554 0.000498044940549371 0.000560269259841376 0.00052432542426683 0.000495884992420752 0.000459899194873765 0.0005065851895191 0.000503665799278122 0.000558435968300664 0.000498692696370583 0.000665199781603313 0.000556010272004129 0.000611798617674834 0.000524354454597891 0.000560735403222102 0.000609814944468145 0.000610976032180228 0.000555923876754624 0.000522127155657001 0.000460910624383319 0.000522770896461527 0.000552976622363004 0.00055417644945883 0.000665419432962216 0.000579675220594315 0.000504648638372255 0.000554050498625363 0.000578572150466182 0.000505447574923839 0.000461348573363793 0.00055203958856075 0.000503286045702678 0.000452569992066105 0.000461221965473664 0.000491213837458061 0.000454693755000954 0.000501741526369222 0.000491866306700728 0.000543855175804757 0.000530979435736598 0.000504061315180391 0.000544914753756003 0.000489816935864466 0.000545703558816377 0.000596689263998941 0.000529570428563965 0.000542949481229557 0.000639575602461115 0.000599446384834556 0.000545078664977526 0.000505165192757247 0.000577982771807989 0.000543325673475299 0.000580077706425721 0.000639667861219735 0.000616504762102877 0.000572994404526104 0.000609519742130577 0.00066992395023792 0.00061453803691783 0.000611645235265163 0.000594782981792875 0.000571886836055237 0.000530750354941612 0.000610705760120716 0.000570465571317798 0.000597529105301266 0.000598056880454267 0.000719479580498526 0.000673236661113518 0.000671178159603839 0.000671132295512715 0.000610749332263406 0.000610546432242681 0.000600153106538028 0.000671890196000302 0.000672491860953904 0.0007221401767573 0.000800404189353437 0.000642689299001425 0.000718920934196819 0.000598894140136073 0.000748461921636674 0.000832911344700307 0.000723430416708124 0.00080328597237188 0.000721476466117884 0.000834532074660584 0.000940304003276984 0.000805227286010148 0.000833618688243975 0.000642596873239108 0.000579065499421574 0.000666906363596395 0.000642240572035044 0.000748949954106907 0.000721476375564985 0.000644045272981264 0.000666863054973846 0.00074723373054635 0.000671438327060552 0.000691962928872992 0.000749477565547341 0.000826145245844552 0.000751624679032511 0.000748818873725105 0.00066763119697084 0.000750746073600293 0.000748913088584899 0.000753381146077418 0.000732843151332799 0.000825754304316896 0.000692608989653764 0.000635992285505983 0.000729006829634597 0.000688686246963523 0.000733378408173746 0.000751902292635559 0.0009209799893318 0.000943195811778131 0.000836348833930207 0.000750226257812229 0.000828185665383704 0.000836130862945624 0.000917690765988427 0.00083991959645927 0.000824090994546678 0.00082160327845 0.000917474489039041 0.000827316137913246 0.000915665889338658 0.00092181546249616 0.000815702164211659 0.000691343950317947 0.000729694096421393 0.000818805987886614 0.000911962254451309 0.000818855813163054 0.000731432476008215 0.000636215018992322 0.000603144015965594 0.000726799322485183 0.000829261685274021 0.000726314733050827 0.000818336193882724 0.000815534005399244 0.000728853162412259 0.000695808491164186 0.000615864117888556 0.000694271073633128 0.000731523949289996 0.000599864852988533 0.00061594136366301 0.000729971065926041 0.000602121307718792 0.00049001662426399 0.000613022425382717 0.000601640924732248 0.000637865799939059 0.000517919740794757 0.000600742150508267 0.000516494476471214 0.000491357609181426 0.000521293772546323 0.00063523622590152 0.000561377205810369 0.000562282827684379 0.000635572877059554 0.000624492317972175 0.00048023193417468 0.00051978154234918 0.000561824415622216 0.000493132225270951 0.000418530174088556 0.000477638001779875 0.000488715928289155 0.000481373577238972 0.000559485702284141 0.000560934068094876 0.000557192253942335 0.000489410229248922 0.00055544846748677 0.000564469484562448 0.000622380986102298 0.000493521529588441 0.000552557335415106 0.000524100560225056 0.000559845127439714 0.000503801097499485 0.000556860605210946 0.000552395184878434 0.000507591212206881 0.000524114414574318 0.00062162468297582 0.00056190820842208 0.000556541185319569 0.000623893852189336 0.000612103968040862 0.000559005095996744 0.000623324892898507 0.000689535724808147 0.000613186349192651 0.0006091751528993 0.000692572755438363 0.000669958712143521 0.000621310097380502 0.000638256642926547 0.000690306720600362 0.00152824921522259 0.00131236925008391 0.00149577289103609 0.00152421680215597 0.00122560075024495 0.001305313659188 0.00131212788982031 0.0012911783909145 0.00149448087507322 0.00129476741422836 0.00130529348391055 0.00112232955530184 0.00107978704547456 0.00112079409098073 0.00130187915126574 0.00107771358981366 0.00130418176150662 0.00122193558491396 0.00108132804065206 0.00121367502610266 0.000960759953430838 0.000959009703342172 0.000918315894515513 0.000860462184522022 0.000853316372007645 0.000905104087908397 0.000964378075361723 0.00107803806052077 0.000903511920899776 0.00111712142432006 0.00096636987479781 0.000907793589785738 0.00107538671349094 0.0009058973420571 0.000955159850976528 0.0011148879543941 0.000950001404489723 0.000907081674040417 0.000825661001530674 0.000897964713028778 0.000857704086779832 0.000806667708412016 0.000901764640436732 0.000803785751829865 0.000829258724966485 0.000807824485064981 0.000756267191956549 0.000824658751020628 0.000809860278066266 0.00094880038972207 0.000827261102842542 0.000955506895211347 0.00100635197057229 0.00115035619579227 0.000953013651413943 0.00115283722178988 0.00112021524905492 0.00115246824911799 0.00129266117960885 0.00112430563221711 0.00133728416459185 0.00129374391885252 0.00115396486073433 0.0013337279983455 0.00115698146552866 0.00117164108513023 0.00100717259845698 0.00117438955692554 0.0011531709366959 0.0010335205843803 0.00117211899709177 0.00100953158401531 0.0008867721640098 0.000889539705167062 0.00103279424196965 0.00103462130986768 0.00100620254962545 0.000885740269159332 0.0010031475166603 0.000953261428417224 0.00080546732029946 0.00100202110268065 0.000807329254739424 0.000886770134818771 0.000798779211295362 0.000753463493736996 0.000704316697360975 0.000827481960881093 0.000750113412627157 0.00080461904285384 0.000699673640869451 0.000738202986281379 0.00080252559869091 0.000809159649479056 0.000738181727540061 0.000883044540698503 0.000703283134698024 0.00065739950861246 0.000732363987040696 0.000672784578149422 0.000733897238241838 0.000656683784598416 0.000615862520329775 0.000668811462388754 0.000659708122844436 0.000749248672546918 0.000669870174113432 0.000673129820631689 0.000749457435118159 0.000738015481898802 0.000669324001960082 0.000803288636814525 0.000887589943860804 0.000752964524454292 0.000670736113901829 0.000801729949407267 0.0007521730376746 0.000751907132107825 0.000887532750546026 0.000738270979674795 0.000737063296351319 0.000889158585925942 0.000884390692648683 0.00103538331936018 0.000894330823670404 0.00105270872319509 0.000802403701181138 0.000942792266349038 0.000893986240490884 0.000945900291870272 0.000996564480624166 0.00104967231644686 0.000941358215520666 0.00105022216284152 0.000897016420391173 0.00105446763717997 0.00099017014286622 0.00105849609381476 0.000947928605171758 0.00091591930664521 0.000994162092524676 0.000992809518044216 0.000918717721877675 0.000919285505289683 0.00105427715182839 0.000994653587687334 0.000915432337168175 0.000803905035594182 0.000915642051478941 0.000725447446716074 0.000952437856914538 0.000915634334561297 0.000805066781860425 0.0008008626719705 0.000758599352185791 0.000953625827890829 0.00105754442757767 0.000956239827234134 0.0010977633357638 0.00105614049275041 0.000910647035396467 0.000956291828665599 0.000991692425599847 0.000955754600505072 0.000757004832463928 0.000950927534488056 0.000995667829839534 0.00109980240945788 0.000991224768575491 0.00103566160202434 0.0011889354245746 0.00118220284662724 0.0011001550577958 0.00118932460166745 0.00118591479247742 0.0011009107768723 0.000996109380630252 0.0011932216110154 0.00130532173866773 0.00117744240022586 0.00110074598382983 0.00117932912537576 0.00105240966597207 0.00106023719187797 0.00117389615901314 0.00105405739248258 0.00104065675134783 0.00104648665180221 0.00117670711983856 0.00117624284780513 0.00103822661367017 0.00118047173666135 0.00118269680575919 0.00117253487752849 0.00130592901741855 0.00131085096046682 0.00133475791327056 0.00117727150227231 0.00149352722503907 0.00133657468381419 0.00143695525035009 0.00148985980887295 0.00129583639849858 0.00133495452117362 0.00129542837814271 0.00143172686605344 0.00130781423758758 0.00130236393515859 0.00143235679348562 0.00134089365919601 0.00129129845403591 0.00131172702942217 0.00118448783615534 0.00118828130820091 0.0010379456960904 0.00128858433198136 0.0011749639702286 0.00129346516297037 0.00103003626294039 0.00138874539638739 0.0012909384699635 0.00117767912682964 0.00128531397466383 0.00139331180176617 0.00143906762950773 0.00155331017188511 0.00138863439334059 0.00152532747912036 0.00139715966083859 0.00154973788616607 0.0014355942170062 0.00152404804921875 0.00139465937512028 0.00116279615139493 0.00116113377521423 0.00139382445367351 0.00117046932454067 0.00129362701836349 0.00153291250868505 0.0011495927697907 0.00153135652683855 0.00172215854492287 0.00154859558254069 0.00171356992690452 0.00149789855271809 0.0015604228912999 0.00142845060176197 0.00155606969654554 0.00150186809003836 0.00148366802614398 0.00172045200534019 0.00154053277034759 0.000350855844207206 0.000330890686799023 0.000480188005625541 0.000340681442294017 0.000348427054287028 0.000482546415627415 0.000345337352449275 0.000485627858168869 0.000487604651116046 0.000662458803219645 0.000488285086217642 0.000748743639212343 0.000487740965734823 0.000488262097219953 0.000748271061124787 0.00115184262682329 0.000749847650928465 0.000888389232161449 0.000880889104022912 0.000754634067839976 0.000483387288150405 0.00127932933619985 0.00115484052630308 0.000890071468649467 0.000925369850724641 0.00075418968403989 0.00114728236324388 0.000753939483419931 0.00092301145446357 0.000659484583465262 0.000661758369052924 0.000920238322421687 0.000719704934528186 0.00102906638006657 0.000930100955332465 0.00117272642843667 0.00115219041682634 0.00117536906040363 0.000927196274311377 0.000925103274258284 0.00103184758253823 0.000720131975920552 0.000660503679621761 0.000718326537190907 0.000483225547914861 0.000713645111891621 0.00049009548884185 0.000486052755527659 0.0006588710256592 0.000484832905083885 0.000490981716064538 0.000336526439641511 0.000486827898553052 0.000484160912252124 0.000333601144938159 0.000340477533189722 0.000478295114775384 0.000332940469219732 0.000484343272056315 0.000337813008068905 0.00033530883521116 0.000264339588632362 0.000332211075475824 0.000488487581126872 0.000529897621965339 0.000332516885341625 0.000329236654004607 0.000482153493232625 0.000488937213565128 0.000716741399218016 0.000752010997038138 0.000488871986251815 0.00102794696575607 0.000751118952521393 0.000722072891375711 0.00102760734835309 0.00099732032835421 0.000756110201843087 0.000752228625823866 0.00075785203076767 0.000993672180964034 0.000755638652752273 0.000534018750654511 0.000750876045070003 0.000748231665205469 0.000533166811417031 0.000491709072027151 0.000535778043348344 0.00075242472262635 0.000554066422203691 0.0005551674060576 0.000752223899302651 0.000666573699324555 0.000755196565422406 0.000802289670465023 0.000665787174212579 0.000667287869148365 0.000801397252811507 0.000726044794056417 0.000665537276277082 0.000549817807877782 0.000555781231526672 0.000434134961175638 0.000320238323734994 0.000398476423071685 0.000552568690002685 0.000435467637008815 0.000400034863303274 0.000554206443824932 0.000398976041073666 0.000531737424576183 0.000335280525937574 0.000527737942565117 0.000401621338704598 0.000255389008102192 0.000336393936421432 0.000393901125578958 0.000323777712467453 0.000256548436240199 0.000393607641110812 0.00025859844682757 0.000240278563984105 0.000247281715808191 0.000265068016626212 0.000332396641671868 0.000263086743567682 0.000258752230698193 0.000263234262926902 0.000263959295086581 0.000266443412394221 0.000254978564848974 0.000250750369735669 0.000359158788284524 0.000269852560856905 0.000246015804866627 0.000385937703405969 0.000363879042949035 0.000543655325749326 0.000364423735159706 0.000465004271452417 0.000544203761293443 0.000385458737548005 0.000545735266945087 0.000512777962781977 0.000387661575784447 0.000510228280247771 0.0003344523577106 0.000384366356906727 0.000267209907967902 0.000364637590767301 0.000335771311758067 0.000267470126549117 0.000383760273384871 0.000306278912743382 0.000338248380369177 0.000454406495009293 0.000514514943246102 0.000655828936681687 0.00045940352605281 0.000332966399353249 0.000510883891797968 0.000458036278132386 0.000657713911544685 0.000618318830501806 0.000457589768043875 0.000433458511301203 0.00045990563336137 0.000615197256251748 0.00043237450988811 0.000303351090526347 0.000457021045353281 0.000265112519655893 0.000274198039908205 0.000304315624304166 0.000266024446853869 0.000302730396292326 0.000275829294050553 0.000260636992688797 0.000269410037935125 0.000271773718237594 0.00033461244586765 0.000308126253530286 0.000269549195820996 0.000271003320213999 0.000272906261422673 0.000333726288222206 0.000268059154280031 0.000262963724166908 0.000270602035548606 0.00033187256790983 0.000264772907140423 0.000266758463351485 0.000269692253027917 0.000274984912678775 0.000328497953962181 0.000332749426576152 0.000271011063056572 0.000338321982194159 0.000277324824338728 0.000285549440735871 0.000333557839502971 0.000286298260103616 0.000275416499120671 0.000332374706919754 0.000281854037573065 0.000339679687061131 0.000346189164871798 0.00031034227326742 0.000336542291566655 0.000271308886224135 0.000340855014529448 0.000306730406378975 0.00043052686304141 0.000435702203334886 0.0005278939701372 0.000337236332314649 0.000431786962233676 0.000617492644557141 0.000531765469418948 0.000450982866829893 0.0005341153635304 0.000679172698684193 0.000450159997778058 0.000348104457442482 0.000340681540475229 0.000528623109087885 0.000452051950396941 0.000335442498926635 0.000522501026162261 0.000343218487111985 0.000454739825563472 0.000808394162680759 0.00052624672124982 0.000686067577821616 0.000528047648970658 0.000449183291646262 0.00068023049791469 0.00080917137103519 0.000607000259277493 0.000524301390218741 0.000380008838760453 0.000529792791880719 0.000601453548467976 0.000521006975776588 0.000383688943628226 0.000343836154993563 0.000289571131488513 0.000374248196699125 0.000314108811342151 0.000349481351876804 0.000377068456634162 0.000285959424607522 0.000287499773441823 0.000342042769981208 0.000293061250946719 0.000345434689136562 0.000339735012634332 0.000280610092096683 0.000296920466737984 0.000341188030988431 0.000286096607650137 0.000347369104341152 0.000293948030478737 0.00033189186449513 0.000236724558116719 0.000259263383809474 0.000318176260986057 0.000361078987504193 0.000320512386952145 0.000258339386861558 0.000361339742597819 0.000257878497742905 0.000277843059239338 0.000274458759651327 0.000258339289659753 0.000206117609953915 0.000255667300353395 0.00019696169491596 0.000207854850277992 0.000257248697814042 0.000237942245285823 0.000195504632664393 0.000269431063462791 0.000205053689440276 0.000238031460720346 0.000206645362637033 0.000196412416231008 0.000237399807191444 0.000204644486911744 0.000232087561080507 0.000179148244923076 0.000268831047902163 0.000234015147709004 0.000205137304522855 0.000320740425081728 0.000233354225188345 0.000268995974500598 0.000271405558000089 0.000237176149662957 0.000318201885668886 0.000269499961342556 0.000320086825806127 0.000385731690535816 0.000270177621534821 0.000384028209033441 0.000320967052600315 0.000417278989890114 0.000322104085327548 0.000384338072821656 0.000480229727566478 0.000414826746422303 0.000388494012678581 0.000388440349160717 0.000516247373119478 0.000482271082868963 0.000405816237128898 0.000489113353756708 0.000517867997178645 0.00051640858269136 0.000386497350951438 0.000406338223507883 0.000404976275366363 0.000387406648420764 0.000320084428811767 0.000362892191678224 0.000404814084134806 0.000319515407567742 0.000405516974601886 0.000363125248445248 0.00048719643594036 0.000431860828796556 0.000612976258597611 0.000488329948130221 0.000562124631677519 0.000615407182846358 0.000429827072736009 0.000693477175850754 0.000614275021645946 0.000564625545309702 0.00056032264070071 0.00042905159763538 0.000401536892831483 0.000429885893437569 0.000488075333980698 0.000362200553291299 0.000727039802453277 0.000550714840126301 0.000666139784497281 0.000561193618237502 0.000551999629071631 0.0007246619910755 0.00072462484889363 0.000694473481872456 0.000563844867770732 0.000548873617704777 0.000562433096934429 0.000399821336263195 0.000399586884446647 0.000435813653324572 0.000547824985991257 0.000550149180340971 0.000434958046245827 0.000553931668695538 0.000400768079927458 0.00032060926481583 0.000434233192157817 0.000337413138698829 0.000266741670663645 0.000397241536456314 0.000396631873550518 0.000266201158066393 0.000321318963532466 0.000235985559860135 0.000317509346291335 0.000271153444408116 0.000316812854345251 0.000236232204926687 0.000260716269525073 0.000425237882686574 0.000364215199449671 0.000276440277351865 0.000400234559832544 0.000428096752243712 0.000335628990365757 0.00033620330834242 0.000425467027041843 0.000275638870492582 0.000277762325582735 0.000269071960661285 0.000335800534066439 0.000207908724030871 0.000267945002881126 0.00027447999639909 0.000208978086805724 0.00021045969729595 0.000271445168920323 0.000211958349505788 0.000204244354499845 0.000215203567236497 0.000265482564076986 0.000212416877735788 0.000229627658571153 0.000271554966242262 0.000234938956806076 0.000207452751468769 0.000208157574442008 0.000221643405439657 0.000271388796608236 0.000229670547695161 0.000213835428464588 0.000233890514875965 0.000233012402008998 0.00023816308798686 0.000229517739781134 0.000228469821482389 0.000238568766786762 0.000267383846606188 0.000234725712236182 0.000249779936206799 0.000236852354044131 0.000248621279838909 0.000232489099692507 0.00032456692037987 0.000361049907924431 0.000244368730636527 0.000330843308205643 0.00023220347399386 0.000279954756908919 0.00032573952429721 0.000412524794583924 0.000330069454034565 0.000275802144839239 0.000489565906027752 0.000328806666361682 0.000416988116601189 0.000461799845371108 0.000365830922419775 0.000328894673941315 0.000462726715566874 0.000327426308896147 0.000490095550239651 0.000292349933174104 0.000276028663384808 0.000216315285713148 0.000412901566043433 0.000275825527959269 0.00036428200814813 0.000362796898872908 0.000277492865567895 0.000295462832079661 0.000294247693184009 0.000406929619411202 0.000363481634873557 0.000237597592502417 0.000326803204325465 0.000294958898439396 0.000329291255450508 0.000405816461255479 0.000295450135752725 0.000238716349192467 0.000254881965118339 0.000325676260300927 0.000194695829508119 0.00025236692593747 0.000238713090567517 0.000216909615629282 0.000240894841087724 0.000291907847708245 0.000215835394863657 0.000204287464999197 0.00019928500843