<?xml version="1.0"?>
<VTKFile type="UnstructuredGrid" version="0.1" byte_order="LittleEndian">
<UnstructuredGrid>
<Piece NumberOfPoints="6444" NumberOfCells="2148">
<Points>
<DataArray type="Float64" NumberOfComponents="3" format="ascii">
1.8542219899 4.9190573204 0.0000000000 1.8947368421 5.0000000000 0.0000000000 1.7894736842 5.0000000000 0.0000000000 1.7617279742 4.8902941373 0.0000000000 1.8542219899 4.9190573204 0.0000000000 1.7894736842 5.0000000000 0.0000000000 0.0912692111 4.7474378747 0.0000000000 0.0000000000 4.7959183673 0.0000000000 0.0000000000 4.6938775510 0.0000000000 0.0000000000 0.3061224490 0.0000000000 0.0000000000 0.2040816327 0.0000000000 0.0963260944 0.2738115103 0.0000000000 2.0000000000 4.6938775510 0.0000000000 2.0000000000 4.7959183673 0.0000000000 1.8861800738 4.7428922875 0.0000000000 2.0000000000 0.1020408163 0.0000000000 2.0000000000 0.2040816327 0.0000000000 1.9168260657 0.1638313780 0.0000000000 1.7617279742 4.8902941373 0.0000000000 1.7894736842 5.0000000000 0.0000000000 1.6842105263 5.0000000000 0.0000000000 1.6713792382 4.3555658260 0.0000000000 1.6569725195 4.2649936595 0.0000000000 1.7423629103 4.2746866125 0.0000000000 0.3359160269 0.6613119939 0.0000000000 0.3652595892 0.7545548493 0.0000000000 0.2363841735 0.7296874935 0.0000000000 0.9142174725 4.7123675458 0.0000000000 1.0431039833 4.6868230062 0.0000000000 0.9872800728 4.8105423685 0.0000000000 1.7645878445 0.5512456518 0.0000000000 1.6674635938 0.5611131761 0.0000000000 1.6892110015 0.4529014916 0.0000000000 1.1649623330 4.7086890731 0.0000000000 1.0431039833 4.6868230062 0.0000000000 1.1205456800 4.5978508418 0.0000000000 1.1649623330 4.7086890731 0.0000000000 1.2863160018 4.7133643438 0.0000000000 1.2177211740 4.7957991113 0.0000000000 1.5643258840 4.4035530682 0.0000000000 1.6713792382 4.3555658260 0.0000000000 1.6849313191 4.4505946664 0.0000000000 0.4205970758 0.5958543694 0.0000000000 0.3359160269 0.6613119939 0.0000000000 0.3145434094 0.5491653809 0.0000000000 0.9872800728 4.8105423685 0.0000000000 1.0431039833 4.6868230062 0.0000000000 1.0962860399 4.7879400823 0.0000000000 1.3646462625 4.5924150666 0.0000000000 1.4591304181 4.5201242912 0.0000000000 1.4868984501 4.6234692527 0.0000000000 0.9731998290 0.5704471432 0.0000000000 0.8715730992 0.5999589335 0.0000000000 0.9025964010 0.4820800936 0.0000000000 1.1721553793 0.6712425757 0.0000000000 1.0727392020 0.7413529384 0.0000000000 1.0581699578 0.6325564284 0.0000000000 0.7694604708 0.2730531643 0.0000000000 0.8638861567 0.2417663345 0.0000000000 0.8676639121 0.3629112902 0.0000000000 0.7466817711 0.3879264348 0.0000000000 0.7694604708 0.2730531643 0.0000000000 0.8676639121 0.3629112902 0.0000000000 1.3646462625 4.5924150666 0.0000000000 1.2863160018 4.7133643438 0.0000000000 1.2404496712 4.6009065999 0.0000000000 1.1205456800 4.5978508418 0.0000000000 1.1729860791 4.4909184405 0.0000000000 1.2404496712 4.6009065999 0.0000000000 1.5643258840 4.4035530682 0.0000000000 1.6849313191 4.4505946664 0.0000000000 1.5721840690 4.5235230049 0.0000000000 0.4205970758 0.5958543694 0.0000000000 0.3145434094 0.5491653809 0.0000000000 0.4068115366 0.4849111945 0.0000000000 1.1721553793 0.6712425757 0.0000000000 1.0581699578 0.6325564284 0.0000000000 1.1675562122 0.5444613864 0.0000000000 1.0215092046 4.3064579650 0.0000000000 0.9249760607 4.2406861373 0.0000000000 1.0388249272 4.1932155298 0.0000000000 0.6140477786 0.3877958985 0.0000000000 0.5876865371 0.4641260455 0.0000000000 0.4985233412 0.3890769376 0.0000000000 0.8505257455 4.3047427941 0.0000000000 0.9249760607 4.2406861373 0.0000000000 0.9136899431 4.3665288514 0.0000000000 1.2177211740 4.7957991113 0.0000000000 1.2863160018 4.7133643438 0.0000000000 1.3308933361 4.8021000795 0.0000000000 1.4067918922 4.7129583822 0.0000000000 1.2863160018 4.7133643438 0.0000000000 1.3646462625 4.5924150666 0.0000000000 1.4067918922 4.7129583822 0.0000000000 1.5203496477 4.7259348941 0.0000000000 1.4445468781 4.8057293208 0.0000000000 1.0539768044 0.5111783380 0.0000000000 1.0581699578 0.6325564284 0.0000000000 0.9731998290 0.5704471432 0.0000000000 0.9457540055 4.4799906641 0.0000000000 0.9632120590 4.5931874799 0.0000000000 0.8488186930 4.5544616562 0.0000000000 0.9457540055 4.4799906641 0.0000000000 0.9136899431 4.3665288514 0.0000000000 1.0140583229 4.4099747412 0.0000000000 0.7146634246 0.2040887190 0.0000000000 0.7694604708 0.2730531643 0.0000000000 0.6726976396 0.2876661832 0.0000000000 0.5818851688 0.3023927590 0.0000000000 0.6726976396 0.2876661832 0.0000000000 0.6140477786 0.3877958985 0.0000000000 1.0140583229 4.4099747412 0.0000000000 1.1020330403 4.3887740569 0.0000000000 1.0520864966 4.5079338898 0.0000000000 0.4209153525 0.0749850427 0.0000000000 0.3157894737 0.0000000000 0.0000000000 0.4210526316 0.0000000000 0.0000000000 0.1691353032 4.6302975964 0.0000000000 0.0894262835 4.6200933061 0.0000000000 0.1385973800 4.5264005134 0.0000000000 0.0000000000 4.5918367347 0.0000000000 0.0000000000 4.4897959184 0.0000000000 0.0627266698 4.5331077434 0.0000000000 0.0627266698 4.5331077434 0.0000000000 0.0894262835 4.6200933061 0.0000000000 0.0000000000 4.5918367347 0.0000000000 1.7996967683 0.3849467769 0.0000000000 1.6892110015 0.4529014916 0.0000000000 1.6863561734 0.3249782898 0.0000000000 1.6863561734 0.3249782898 0.0000000000 1.6892110015 0.4529014916 0.0000000000 1.5877281981 0.3856392649 0.0000000000 1.7695539057 4.3718569104 0.0000000000 1.6713792382 4.3555658260 0.0000000000 1.7423629103 4.2746866125 0.0000000000 0.2358029283 0.6115643578 0.0000000000 0.3359160269 0.6613119939 0.0000000000 0.2363841735 0.7296874935 0.0000000000 1.8071346920 4.5702681128 0.0000000000 1.6972487080 4.5556273721 0.0000000000 1.7892345150 4.4695284389 0.0000000000 0.1923020723 0.4226788260 0.0000000000 0.2984553458 0.4475639081 0.0000000000 0.2220588772 0.5108576444 0.0000000000 0.7368421053 0.0000000000 0.0000000000 0.8421052632 0.0000000000 0.0000000000 0.8134038824 0.0822309285 0.0000000000 0.8134038824 0.0822309285 0.0000000000 0.6999406202 0.1067243555 0.0000000000 0.7368421053 0.0000000000 0.0000000000 0.8699020698 0.1407413631 0.0000000000 0.8638861567 0.2417663345 0.0000000000 0.7831450483 0.1701005194 0.0000000000 0.7146634246 0.2040887190 0.0000000000 0.6999406202 0.1067243555 0.0000000000 0.7831450483 0.1701005194 0.0000000000 0.7146634246 0.2040887190 0.0000000000 0.6726976396 0.2876661832 0.0000000000 0.6111020572 0.1963355990 0.0000000000 0.0842247865 4.4495977675 0.0000000000 0.0000000000 4.4897959184 0.0000000000 0.0000000000 4.3877551020 0.0000000000 0.0627266698 4.5331077434 0.0000000000 0.0000000000 4.4897959184 0.0000000000 0.0842247865 4.4495977675 0.0000000000 0.7232972107 4.5643444708 0.0000000000 0.8488186930 4.5544616562 0.0000000000 0.7954056448 4.6677182161 0.0000000000 0.3359160269 0.6613119939 0.0000000000 0.4205970758 0.5958543694 0.0000000000 0.4340919746 0.6820283443 0.0000000000 0.3359160269 0.6613119939 0.0000000000 0.4340919746 0.6820283443 0.0000000000 0.3652595892 0.7545548493 0.0000000000 1.6674635938 0.5611131761 0.0000000000 1.7645878445 0.5512456518 0.0000000000 1.7412968726 0.6448960048 0.0000000000 1.6674635938 0.5611131761 0.0000000000 1.7412968726 0.6448960048 0.0000000000 1.6404899713 0.6685845231 0.0000000000 0.4275337368 4.2780092509 0.0000000000 0.4934995245 4.3496771208 0.0000000000 0.3988324836 4.4001896994 0.0000000000 1.4926643318 4.3044384839 0.0000000000 1.5643258840 4.4035530682 0.0000000000 1.4396242152 4.4106740758 0.0000000000 1.3813163683 4.3255789998 0.0000000000 1.4926643318 4.3044384839 0.0000000000 1.4396242152 4.4106740758 0.0000000000 1.1020330403 4.3887740569 0.0000000000 1.0140583229 4.4099747412 0.0000000000 1.0215092046 4.3064579650 0.0000000000 1.7695539057 4.3718569104 0.0000000000 1.7892345150 4.4695284389 0.0000000000 1.6849313191 4.4505946664 0.0000000000 1.6713792382 4.3555658260 0.0000000000 1.7695539057 4.3718569104 0.0000000000 1.6849313191 4.4505946664 0.0000000000 0.2358029283 0.6115643578 0.0000000000 0.2220588772 0.5108576444 0.0000000000 0.3145434094 0.5491653809 0.0000000000 0.3359160269 0.6613119939 0.0000000000 0.2358029283 0.6115643578 0.0000000000 0.3145434094 0.5491653809 0.0000000000 1.5837473472 0.4899242488 0.0000000000 1.5877281981 0.3856392649 0.0000000000 1.6892110015 0.4529014916 0.0000000000 1.6674635938 0.5611131761 0.0000000000 1.5837473472 0.4899242488 0.0000000000 1.6892110015 0.4529014916 0.0000000000 0.9142174725 4.7123675458 0.0000000000 0.8237187828 4.7949831038 0.0000000000 0.7954056448 4.6677182161 0.0000000000 1.1649623330 4.7086890731 0.0000000000 1.2177211740 4.7957991113 0.0000000000 1.0962860399 4.7879400823 0.0000000000 1.1649623330 4.7086890731 0.0000000000 1.0962860399 4.7879400823 0.0000000000 1.0431039833 4.6868230062 0.0000000000 0.9142174725 4.7123675458 0.0000000000 0.9632120590 4.5931874799 0.0000000000 1.0431039833 4.6868230062 0.0000000000 0.8638861567 0.2417663345 0.0000000000 0.8699020698 0.1407413631 0.0000000000 0.9538932622 0.1662268310 0.0000000000 1.1649623330 4.7086890731 0.0000000000 1.1205456800 4.5978508418 0.0000000000 1.2404496712 4.6009065999 0.0000000000 1.1649623330 4.7086890731 0.0000000000 1.2404496712 4.6009065999 0.0000000000 1.2863160018 4.7133643438 0.0000000000 1.4067918922 4.7129583822 0.0000000000 1.4445468781 4.8057293208 0.0000000000 1.3308933361 4.8021000795 0.0000000000 1.2863160018 4.7133643438 0.0000000000 1.4067918922 4.7129583822 0.0000000000 1.3308933361 4.8021000795 0.0000000000 0.9457540055 4.4799906641 0.0000000000 1.0140583229 4.4099747412 0.0000000000 1.0520864966 4.5079338898 0.0000000000 0.9457540055 4.4799906641 0.0000000000 1.0520864966 4.5079338898 0.0000000000 0.9632120590 4.5931874799 0.0000000000 1.0215092046 4.3064579650 0.0000000000 1.0140583229 4.4099747412 0.0000000000 0.9136899431 4.3665288514 0.0000000000 1.0215092046 4.3064579650 0.0000000000 0.9136899431 4.3665288514 0.0000000000 0.9249760607 4.2406861373 0.0000000000 0.5876865371 0.4641260455 0.0000000000 0.61404777
[...]
<PointData Scalars="conc_conc," Vectors="" Tensors="">
<DataArray type="Float64" Name="conc_conc" format="ascii">
-0.0000003921 0.0000001063 -0.0000003698 0.0000050305 -0.0000010615 -0.0000016670 0.0000043247 -0.0000020584 0.0000014539 0.0000227571 0.0000202993 0.0000230031 0.0000002535 -0.0000025419 0.0000054664 0.0000190911 0.0000214579 0.0000211352 0.0000047454 -0.0000016209 -0.0000035515 0.0099235830 0.0098608849 0.0037563200 0.0000503067 0.0000582175 0.0000491689 0.0000004114 -0.0000001490 -0.0000001756 0.0000404794 0.0000450121 0.0000384857 0.0000004898 -0.0000004248 0.0000007465 -0.0000008120 0.0000087654 -0.0000007964 0.0193708971 0.0099049625 0.0109757716 0.0000480074 0.0000503545 0.0000427616 -0.0000000291 -0.0000000949 -0.0000000429 -0.0016424712 0.0047495296 0.0056908341 0.0000120819 0.0000163804 0.0000134019 0.0000195302 0.0000149380 0.0000129863 0.0000165760 0.0000116546 0.0000131485 0.0000203213 0.0000167219 0.0000130897 -0.0002898006 0.0000246055 0.0000378333 0.0000022377 0.0000025017 0.0000026533 0.0191752857 0.0113055295 0.0267929757 0.0000477873 0.0000429614 0.0000411507 0.0000196005 0.0000129360 0.0000171433 0.0000030339 -0.0000027731 0.0000015424 0.0000296002 0.0000343565 0.0000352334 -0.0000327666 -0.0000036956 0.0000052795 -0.0000023712 0.0000126303 0.0000174851 -0.0003305144 0.0000516095 -0.0003499025 -0.0006214781 0.0024384649 -0.0006948289 0.0000118406 0.0000132000 0.0000121251 0.0000019132 -0.0000003682 0.0000047901 0.0000026988 0.0000005186 0.0000011609 0.0000181741 0.0000166638 0.0000225111 0.0000280527 0.0000226642 0.0000294272 0.0000006176 0.0000018966 0.0000001121 0.0000236443 0.0000212871 0.0000220240 -0.0001655614 0.0000212676 -0.0001232921 0.0000048975 0.0000040802 -0.0000045611 -0.0000045560 -0.0000001460 0.0000057445 0.0000314723 0.0000383678 0.0000327623 0.0000326725 0.0000386015 0.0000366686 0.0016393105 0.0098212047 0.0037173999 0.0000419340 0.0000503747 0.0000489589 -0.0011929221 0.0041407140 0.0003514922 0.0000312002 0.0000368297 0.0000362594 0.0000134119 0.0000097318 0.0000114801 0.0000115629 0.0000165839 0.0000133995 0.0000103246 0.0000117316 0.0000140591 0.0000181428 0.0000167759 0.0000141526 0.0000181880 0.0000226115 0.0000232061 -0.0000385032 0.0000086979 -0.0000072067 -0.0000059680 0.0000102907 -0.0000419424 -0.0001106855 0.0000187582 0.0000175827 0.0000506632 0.0000477323 0.0000535907 0.0000505574 0.0000537438 0.0000581854 0.0000451451 0.0000403963 0.0000468093 0.0000449880 0.0000470106 0.0000527236 0.0121867383 0.0115792503 0.0160728379 0.0086602091 0.0178456464 0.0039623282 0.0008631183 0.0082627039 0.0039153219 0.0000019274 0.0000005833 0.0000020812 0.0017134655 -0.0004928577 0.0084726399 0.0101589599 0.0013370513 0.0093607261 0.0000419850 0.0000362635 0.0000426745 0.0000501858 0.0000421150 0.0000426297 0.0000419754 0.0000365388 0.0000388095 0.0000450978 0.0000421480 0.0000386339 0.0000013054 0.0000055246 0.0000011488 -0.0000000450 -0.0000003488 -0.0000001450 0.0000000541 -0.0000001430 -0.0000001016 0.0000005253 0.0000002756 -0.0000002425 0.0000116249 0.0000103913 0.0000086169 0.0000017767 0.0000006721 0.0000040871 0.0000028088 0.0000043409 0.0000042208 -0.0002654473 -0.0001558530 0.0000726409 0.0000318957 -0.0002389831 0.0000589314 0.0000015182 0.0000009545 -0.0000001655 0.0000013378 -0.0000001132 0.0000000565 0.0000017790 0.0000010616 0.0000003857 0.0000032071 0.0000003470 -0.0000035527 0.0000343143 0.0000295248 0.0000280224 0.0034523198 0.0256069565 0.0077119998 0.0000198229 0.0000131326 0.0000166060 0.0000278636 0.0000295872 0.0000205795 0.0000277692 0.0000205291 0.0000200921 0.0000025120 0.0000013949 0.0000000581 0.0000019936 0.0000003189 0.0000022173 0.0000166404 0.0000181418 0.0000141146 0.0000165431 0.0000141720 0.0000116943 -0.0015232597 -0.0009650799 0.0046917379 0.0053981543 -0.0026871352 0.0060922204 -0.0001193076 -0.0003028569 0.0000413614 -0.0000877216 0.0000126706 0.0000170232 -0.0003827461 -0.0001845543 0.0000945071 -0.0011585983 -0.0005434358 0.0039115529 0.0000312117 0.0000272047 0.0000314495 0.0000313039 0.0000314442 0.0000367088 0.0000279239 0.0000296071 0.0000351207 0.0000291121 0.0000280996 0.0000349300 0.0000117191 0.0000137890 0.0000168245 0.0000131598 0.0000117088 0.0000167946 0.0000207048 0.0000294222 0.0000225782 0.0000205777 0.0000225734 0.0000166065 0.0000052270 0.0000082713 -0.0000080365 0.0000056506 -0.0000087957 -0.0000006588 0.0000279636 0.0000231334 0.0000227408 0.0000069511 0.0000011291 -0.0001076148 0.0000116170 0.0000103551 0.0000140488 0.0000115237 0.0000141460 0.0000166927 0.0000368073 0.0000425521 0.0000363833 0.0000368872 0.0000413643 0.0000427296 0.0058205879 0.0087460233 -0.0008275762 -0.0038346187 0.0362848322 0.0052523163 0.0082036330 0.0292782184 0.0086550994 0.0000322552 0.0000290911 0.0000350518 0.0497556551 0.0111301633 0.0028319295 0.0262911682 0.0437692997 0.0075972780 0.0078159116 0.0367654792 0.0302177630 0.0329889974 -0.0068247416 0.0084920708 0.0069907808 -0.0082032784 0.0352040211 0.0183994604 0.0123638224 0.0575498153 0.0160300151 0.0515552606 0.0133404648 0.0000320396 0.0000286484 0.0000310792 -0.0000055469 0.0000098091 -0.0000375014 0.0000300910 0.0000336520 0.0000338036 0.0000406670 0.0000378535 0.0000424042 0.0000396061 0.0000355509 0.0000403210 -0.0000635209 -0.0000392431 -0.0000669245 -0.0000000082 0.0000000116 0.0000000130 0.0000174942 0.0000134693 0.0000165779 0.0000231094 0.0000167140 0.0000182179 -0.0000081096 0.0000143770 0.0000134103 0.0000103111 -0.0000042928 -0.0000043212 0.0001319037 0.0000796156 -0.0002897087 0.0055967892 0.0079439145 -0.0058190103 0.0000029837 0.0000013730 0.0000025451 0.0000022116 0.0000018396 0.0000083315 -0.0000005152 -0.0000009957 0.0000003705 0.0000055178 -0.0000021922 -0.0000015467 0.0000201324 0.0000202680 0.0000180848 0.0000230538 0.0000202134 0.0000202418 0.0000222366 0.0000218213 0.0000252403 0.0001025690 0.0000781635 0.0000582093 0.0000635070 0.0000755616 0.0001000731 0.0001042491 0.0001031440 0.0000831717 0.0004551589 0.0001276327 0.0000432471 0.0001308338 0.0001759565 0.0003222014 0.0002866432 0.0001468870 0.0001074736 0.0000802447 0.0000955156 0.0001671770 0.0001875793 0.0001101090 0.0000952855 0.0044361747 0.0032571320 0.0024713992 0.0022472877 0.0012961563 0.0010432141 0.0011743336 0.0014521588 0.0023091454 0.0001668380 0.0001851476 0.0001649062 0.0001648130 0.0001489681 0.0001666551 0.0001758772 0.0001940501 0.0001663434 0.0001665354 0.0001499330 0.0001752990 -0.0000300028 -0.0000524820 0.0001605660 0.0000592739 0.0000489355 0.0000322620 0.0000615634 0.0000574802 0.0000436246 0.0001164436 0.0000942887 0.0000441684 0.0000522789 0.0001089081 0.0001309960 0.0004993271 0.0004240220 0.0002873963 0.0003153497 0.0004523342 0.0004922601 0.0005923382 0.0006598884 0.0009201863 0.0009003328 0.0006128156 0.0005563321 0.0005762849 0.0012691694 0.0011564349 0.0013368734 0.0014237569 0.0007264927 0.0077078422 0.0122073193 0.0096645726 0.0000811144 0.0000928233 0.0000760074 0.0000711988 0.0000639489 0.0000763774 0.0003062242 0.0001440538 0.0002936258 0.0003289517 0.0001735905 0.0003473653 0.0000230762 0.0000210330 0.0000181907 -0.0003323601 0.0003686213 -0.0006572253 0.0000636629 0.0000635810 0.0000541074 0.0006265661 0.0005075182 0.0005454007 0.0006979902 0.0005045477 0.0006295186 0.0005477344 0.0005000082 0.0006419168 0.0001328777 0.0001102353 0.0001831233 0.0001843788 0.0001090036 0.0001894384 0.0001655484 0.0000953755 0.0001186036 0.0001692060 0.0000941147 0.0001667651 0.0014427802 0.0020340323 0.0004188868 0.0005751225 0.0017947751 0.0015140411 0.0003249707 0.0003165323 0.0004893819 0.0003231627 0.0002799466 0.0001911405 0.0004955493 0.0002891046 0.0003019076 0.0001705015 0.0002612170 0.0003002111 0.0026720857 0.0074807570 0.0045217118 0.0002793021 0.0002189638 0.0002644636 0.0002583249 0.0002243656 0.0002815357 0.0004169633 0.0005482492 0.0005025051 0.0004135167 0.0002615011 0.0003438913 0.0004962037 0.0005499226 0.0004298730 0.0003559008 0.0002806073 0.0004276579 0.0000075852 0.0000133129 -0.0000073056 0.0051963320 0.0045693893 0.0042275025 0.0043809566 0.0036111567 0.0050401708 0.0000521931 0.0000471173 0.0000524765 0.0000182310 0.0000208986 0.0000158282 0.0000183704 0.0000209657 0.0000163611 0.0000614922 0.0000639696 0.0000710779 0.0000708165 0.0000622732 0.0000618083 0.0000153433 0.0000179049 0.0000166335 0.0000695878 0.0000620353 0.0000710521 0.0000196089 0.0000209556 0.0000250166 0.0024402723 0.0012943589 0.0022701033 0.0023265727 0.0014540147 0.0025410295 0.0000189970 0.0000292629 0.0000270343 0.0000042447 -0.0000028757 0.0000106268 0.0000255484 0.0000214903 0.0000232227 0.0000205875 0.0000222363 0.0000237636 0.0000240137 0.0000219252 0.0000255458 0.0000101564 -0.0000127200 0.0000254930 0.0000682889 -0.0000500718 0.0000261999 0.0000243395 0.0000210864 0.0000238940 0.0000542234 0.0000634266 0.0000538783 0.0000145768 0.0000148980 0.0000154236 0.0000190940 0.0000182217 0.0000152955 0.0000153841 0.0000150877 0.0000190298 0.0007060065 0.0006412799 0.0007378398 0.0007082574 0.0006202070 0.0007245807 0.0000000371 -0.0000000272 -0.0000000231 0.0000000223 -0.0000000416 0.0000000314 0.0003038103 0.0003714073 0.0004627927 0.0004407609 0.0003492101 0.0002848640 0.0000209423 0.0000195259 0.0000150782 0.0000151387 0.0000158047 0.0000208546 0.0000410724 0.0000421531 0.0000486768 0.0000486731 0.0000418725 0.0000453743 0.0001158862 0.0002221845 0.0001618494 0.0001754011 0.0002322722 0.0001272968 0.0046137012 0.0009161367 0.0045698872 -0.0000032620 -0.0000010100 0.0000113644 0.0000113869 0.0000088755 -0.0000036886 0.0000420167 0.0000485653 0.0000402941 0.0000402114 0.0000486054 0.0000406674 0.0016470015 0.0034383636 -0.0001413830 0.0000208462 0.0000170818 0.0000135507 0.0005833847 0.0011512533 0.0003410641 0.0001657865 0.0001502392 0.0001458087 0.0001415741 0.0001511525 0.0001657809 0.0004646418 0.0013320373 0.0007309811 0.0079224577 0.0089579291 0.0125436345 0.0048200277 0.0091626558 0.0076210425 0.0004971004 -0.0001049437 0.0001784939 0.0001942022 -0.0000968154 0.0004934840 0.0000138648 0.0000135643 0.0000101522 -0.0000435970 -0.0000032770 -0.0000361453 0.0000306281 0.0000363979 0.0000321459 0.0000320069 0.0000273832 0.0000307199 0.0004845344 0.0012495375 0.0005834048 0.0007319170 0.0014059046 0.0006086623 -0.0000000002 -0.0000004629 -0.0000001531 0.0005445556 0.0004212089 0.0004602249 0.0004619243 0.0004179780 0.0003430355 0.0004617360 0.0004342585 0.0005456634 0.0003553363 0.0004311719 0.0004637231 0.0000526188 0.0000573372 0.0000629162 0.0065875264 0.0124852619 0.0070475099 0.0112985010 0.0126311845 0.0065628491 0.0001663963 0.0001339092 0.0002678720 0.0003294542 0.0004515503 0.0002665703 0.0002703234 0.0001309781 0.0003231662 0.0002380642 0.0001105173 0.0001431552 0.0002365104 0.0004219050 0.0002942171 0.0002879302 0.0001073033 0.0002405573 0.0031390104 0.0081524023 0.0010084117 -0.0000002813 0.0000000448 -0.0000004656 -0.0000015299 0.0000040553 -0.0000011399 0.0048264691 0.0073469510 0.0011775724 0.0011189438 0.0073734909 0.0025925722 -0.0006574870 0.0002278589 -0.0002502658 0.0000422893 0.0000470620 0.0000459447 0.0000206811 0.0000173546 0.0000168137 0.0000206880 0.0000232861 0.0000246367 0.0000168157 0.0000230915 0.0000207992 0.0000715986 0.0000631300 0.0001003837 0.0000707161 0.0001248950 0.0001005164 0.0001012053 0.0001244511 0.0000713267 -0.0000815755 -0.0000363296 -0.0000384465 0.0000215036 0.0000147953 0.0000198504 0.0000216915 0.0000291986 0.0000190972 0.0000191542 0.0000147884 0.0000214774 -0.0004937880 0.0018549536 -0.0014661359 0.0000251685 0.0000313474 0.0000272370 0.0001039435 0.0000833740 0.0000856868 0.0000100497 0.0000104048 0.0000133324 0.0000133642 0.0000118499 0.0000100039 0.0003575870 0.0016008263 0.0001277873 0.0016579344 0.0017044127 0.0003288412 0.0000348706 0.0000363151 0.0000418214 0.0005460581 0.0006431708 0.0005977498 0.0006116681 0.0006254150 0.0005476729 0.0001480272 -0.0002140982 -0.0001880607 -0.0001220351 -0.0001350089 0.0000333468 0.0001589609 0.0000784348 0.0001693569 0.0001605613 0.0002825634 0.0001430582 0.0001898117 0.0000934808 0.0001810078 0.0001667809 0.0003100092 0.0001824280 -0.0004860866 0.0000655000 -0.0001708818 0.0000312297 0.0000361207 0.0000298088 0.0000198351 0.0000249077 0.0000300757 0.0000529352 0.0000468597 0.0000544372 0.0000587788 0.0000529424 0.0000627843 -0.0000373520 0.0000100927 -0.0000537784 -0.0000474630 0.0000067306 -0.0000104959 -0.0000713351 -0.0000500456 -0.0000392400 0.0000195301 0.0000250914 0.0000242074 0.0000337796 0.0000377946 0.0000375509 0.0000377344 0.0000377016 0.0000407083 0.0104831277 0.0185800598 0.0140763209 0.0149645337 0.0176827158 0.0094455739 0.0141180244 0.0097316097 0.0103369523 0.0000315063 0.0000251276 0.0000302917 0.0086223783 0.0030203688 0.0096421178 0.0094275096 0.0031989822 0.0049560244 0.0001455315 0.0001501183 0.0001328535 0.0000691504 0.0000601503 0.0000573673 0.0000691096 0.0000575538 0.0000625069 0.0000151470 0.0000194039 0.0000140206 0.0111745697 0.0099737706 0.0139312396 0.0000297503 0.0000361771 0.0000348831 0.0000311342 0.0000298616 0.0000348061 0.0000101924 0.0000109924 0.0000138247 0.0000462352 0.0000468961 0.0000523260 0.0000540279 0.0000462160 0.0000524944 0.0000299657 0.0000159658 -0.0000786883 0.0000316976 0.0000255775 -0.0000641591 0.0000207024 0.0000175475 0.0000205320 0.0000204708 0.0000207402 0.0000245021 0.0000402832 0.0000886938 0.0000605090 0.0000686290 0.0000977924 0.0000457629 0.0000808451 0.0000705973 0.0000770168 0.0000809367 0.0000771021 0.0000924196 0.0000832261 0.0000820499 0.0000705171 0.0000829238 0.0000707396 0.0000696528 0.0076217707 0.0047189278 0.0046784194 0.0076958964 0.0046560414 0.0076044834 0.0004940940 0.0003665252 0.0010367781 0.0012562051 0.0004858399 0.0010633147 0.0012730311 0.0024258153 0.0011552622 0.0011666308 0.0004675487 0.0006185866 0.0011902655 0.0006129083 0.0014098729 0.0013396419 0.0025317335 0.0014249417 0.0020595515 0.0022365658 0.0010756467 0.0012124595 0.0022897080 0.0020835513 0.0026297926 0.0022784039 0.0020276798 0.0020540720 0.0023130259 0.0024442811 0.0002391273 0.0001411294 0.0002854828 0.0004195889 0.0002387249 0.0002879338 0.0003129394 0.0001648931 0.0002687819 0.0003148203 0.0002687462 0.0004489266 0.0001186592 0.0001145419 0.0001333750 0.0003126646 0.0002907814 0.0005552161 0.0005960920 0.0003091887 0.0005620936 0.0005923925 0.0003259000 0.0003544023 0.0005985795 0.0003515064 0.0006431433 0.0001605982 0.0001698299 0.0002997547 0.0002852674 0.0001590036 0.0003024979 0.0003231210 0.0001900360 0.0001829705 0.0003258035 0.0001815256 0.0003122574 0.0006068658 0.0005529414 0.0005134606 0.0005007128 0.0005515039 0.0005922581 0.0000633466 0.0000542308 0.0000523481 0.0013820463 0.0004575304 0.0003194904 0.0013885870 0.0003187302 0.0011675747 0.0004502003 0.0006062377 0.0014603195 0.0013462226 0.0004461192 0.0014740129 0.0000617000 0.0000539678 0.0000636127 0.0000638480 0.0000802085 0.0000764641 0.0000635451 0.0000639514 0.0000762788 0.0006277781 0.0006078236 0.0007162778 0.0006988799 0.0005920611 0.0006485071 0.0001837687 0.0001918760 0.0002781380 0.0002592163 0.0001714517 0.0001662804 0.0000347568 0.0000419306 0.0000402331 0.0000216151 0.0000197842 0.0000300672 0.0000215885 0.0000302053 0.0000293404 0.0000387399 0.0000376806 0.0000270334 0.0000294418 0.0000385833 0.0000271633 0.0004418892 0.0005213216 0.0003500092 0.0003724028 0.0005479127 0.0004636164 0.0003286056 0.0004884321 0.0004323616 0.0003283233 0.0004301057 0.0002773573 0.0004182562 0.0004941667 0.0003052636 0.0002584937 0.0004155043 0.0003053876 0.0000154751 0.0000147065 0.0000153592 0.0000152996 0.0000155677 0.0000179830 0.0000250705 0.0000314693 0.0000243146 -0.0000546120 -0.0000090936 -0.0001297408 -0.0000858860 -0.0001433115 -0.0000363959 -0.0001153569 0.0000182972 -0.0000596721 0.0001410400 0.0001112408 0.0000647654 0.0000805443 0.0001338866 0.0001644423 0.0001256132 0.0001364752 0.0001568578 0.0002304744 0.0001574703 0.0001890407 0.0001840414 0.0001597509 0.0001343616 0.0001469555 0.0001270639 0.0001170945 0.0001771315 0.0001474817 0.0002184941 0.0001250324 0.0001497297 0.0001724362 0.0000586970 0.0002208154 0.0002451158 0.0003029105 0.0002688369 0.0000839994 0.0002530638 0.0002155628 0.0004840241 0.0005438338 0.0002632754 0.0003128424 0.0020695200 0.0020546540 0.0017951571 0.0020321387 0.0020861548 0.0024132934 0.0017655998 0.0021849729 0.0020494779 0.0025888676 0.0020664340 0.0021653233 0.0000228698 0.0000257754 0.0000189566 0.0000349870 0.0000262906 0.0000224370 0.0002650260 0.0000895576 0.0002547390 0.0003133605 0.0001289438 0.0003321066 0.0020457058 0.0017062080 0.0017944354 0.0017680264 0.0017112969 0.0021704430 0.0000672604 0.0000919963 0.0001277322 0.0000681335 0.0001271511 0.0000995679 0.0001165264 0.0000811372 0.0000590578 0.0000905907 0.0001160292 0.0000598576 0.0000210902 0.0000230979 0.0000266566 0.0000267667 0.0000230072 0.0000275061 0.0000274502 0.0000319122 0.0000268710 0.0041086650 0.0042954360 0.0064334947 0.0075540931 0.0065479215 0.0050140503 0.0017914092 0.0013061775 0.0020601906 0.0012184602 0.0020723188 0.0012913956 0.0020346112 0.0012177810 0.0017636542 0.0012038808 0.0020445367 0.0010859516 0.0035503606 0.0044052624 0.0025160869 0.0035755207 0.0043252886 0.0044662958 0.0001762191 0.0002895808 0.0002335274 0.0002239588 0.0002783669 0.0001623793 0.0000128937 0.0000111007 0.0000093245 0.0000180114 0.0000129344 0.0000171465 0.0000128161 0.0000181399 0.0000157960 0.0000128901 0.0000156994 0.0000111759 0.0004196068 0.0009549761 0.0007787980 0.0003741968 0.0004292582 0.0007652904 0.0007215089 0.0008849737 0.0004035506 0.0007087184 0.0004062758 0.0003102294 -0.0000011671 0.0000028914 -0.0000025004 -0.0000015841 -0.0000008216 0.0000040298 0.0002323482 0.0003021461 0.0003265935 0.0002678374 0.0002336471 0.0003253833 0.0001355639 0.0001471733 0.0001824868 0.0003000965 0.0002324410 0.0001893846 0.0001838369 0.0001859326 0.0001452451 0.0001709262 0.0001368638 0.0001262145 0.0001773027 0.0002205398 0.0002857679 0.0001350195 0.0001742233 0.0001716263 0.0003147904 0.0002878993 0.0002201559 0.0003136701 0.0002214020 0.0002572334 0.0000360720 0.0000319192 0.0000365987 0.0000365781 0.0000419602 0.0000361596 0.0000303746 0.0000320435 0.0000359674 0.0000616124 0.0000432774 0.0000433125 0.0001462131 0.0001750421 0.0001512357 0.0001661143 0.0001764041 0.0001441677 0.0000895249 0.0000997494 0.0001149087 -0.0001521278 0.0002061037 -0.0005370788 0.0000292293 0.0000291811 0.0000471553 0.0000486870 0.0000541564 0.0000268567 0.0001065538 0.0000553104 0.0000487886 0.0000397111 0.0000291124 0.0000293030 0.0000267958 0.0000461442 0.0000412378 0.0000410964 0.0000474773 0.0000918929 -0.0000283822 0.0001408968 0.0001806588 -0.0000172407 0.0000654547 0.0001354738 -0.0008888364 -0.0017294032 0.0027021152 0.0004061181 0.0016645214 0.0012316579 0.0019163005 0.0015270514 0.0031085334 0.0015121205 0.0018983519 0.0005631630 0.0014897147 0.0005952860 0.0003918986 -0.0000686785 -0.0000305091 0.0001154049 0.0000524368 0.0000583445 0.0000596455 0.0000522186 0.0000598451 0.0000525677 0.0000638091 0.0000602157 0.0000796989 0.0000634293 0.0000522465 0.0000603051 -0.0000449291 0.0000011516 0.0001668600 -0.0000593867 0.0001864576 0.0001383806 0.0000740360 0.0000671014 0.0000773897 0.0001029336 0.0001024618 0.0000781690 0.0000785177 0.0000831317 0.0001025914 0.0003578392 0.0000622952 -0.0000075732 0.0003412947 0.0003912251 -0.0000281954 0.0003520060 0.0016570733 0.0015286219 0.0016367473 0.0003614784 0.0003311389 0.0018951670 0.0012609495 0.0005759465 0.0003260923 0.0005883476 0.0012109096 0.0000794937 0.0000718080 0.0000793005 0.0000893394 0.0000801870 0.0000788113 0.0004305958 0.0010590528 0.0016472290 0.0010227160 0.0004503530 0.0003295448 0.0002089248 0.0001493115 0.0001426855 0.0001337569 0.0001401933 0.0001988965 0.0001402854 0.0001158536 0.0001261850 0.0001576081 0.0001425885 0.0001246728 0.0001176241 0.0001081412 0.0001315012 0.0001161627 0.0001337255 0.0001477004 0.0001823865 0.0001484911 0.0001608998 0.0001496052 0.0001381658 0.0001702439 0.0002740993 0.0002012071 0.000196