<?xml version="1.0"?>
<VTKFile type="UnstructuredGrid" version="0.1" byte_order="LittleEndian">
<UnstructuredGrid>
<Piece NumberOfPoints="6" NumberOfCells="3">
<Points>
<DataArray type="Float64" NumberOfComponents="3" format="ascii">
0.000000000000000e+00 0.000000000000000e+00 0.000000000000000e+00 3.000000000000000e+00 0.000000000000000e+00 0.000000000000000e+00 0.000000000000000e+00 3.000000000000000e+00 0.000000000000000e+00 0.000000000000000e+00 0.000000000000000e+00 3.000000000000000e+00 3.000000000000000e+00 0.000000000000000e+00 3.000000000000000e+00 0.000000000000000e+00 3.000000000000000e+00 3.000000000000000e+00 
</DataArray>
</Points>
<Cells>
<DataArray type="Int32" Name="connectivity" format="ascii">
0 1 2 4 0 2 3 4 2 3 4 5 
</DataArray>
<DataArray type="Int32" Name="offsets" format="ascii">
4 8 12 
</DataArray>
<DataArray type="UInt8" Name="types" format="ascii">
10 10 10 
</DataArray>
</Cells>
<CellData Scalars="A_conc,B_conc,C_conc,D_conc,E_conc,F_conc," Vectors="">
<DataArray type="Float64" Name="A_conc" format="ascii">
1.000000000000003e-02 1.000000000000000e-02 1.000000000000003e-02 
</DataArray>
<DataArray type="Float64" Name="B_conc" format="ascii">
7.590968110524682e-02 7.590968110524680e-02 7.590968110524680e-02 
</DataArray>
<DataArray type="Float64" Name="C_conc" format="ascii">
3.000000000000003e-02 3.000000000000000e-02 3.000000000000003e-02 
</DataArray>
<DataArray type="Float64" Name="D_conc" format="ascii">
1.148698354997036e-02 1.148698354997035e-02 1.148698354997035e-02 
</DataArray>
<DataArray type="Float64" Name="E_conc" format="ascii">
5.000000000000000e-02 5.000000000000000e-02 5.000000000000000e-02 
</DataArray>
<DataArray type="Float64" Name="F_conc" format="ascii">
3.260333534478287e-02 3.260333534478286e-02 3.260333534478286e-02 
</DataArray>
</CellData>
</Piece>
</UnstructuredGrid>
</VTKFile>
