<?xml version="1.0"?>
<VTKFile type="UnstructuredGrid" version="0.1" byte_order="LittleEndian">
<UnstructuredGrid>
<Piece NumberOfPoints="3000" NumberOfCells="1000">
<Points>
<DataArray type="Float64" NumberOfComponents="3" format="ascii">
0 0 0 0.050000000000207989 0 0 0.049939053252714832 0.049939053252714458 0 0 0 0 0.049939053252714832 0.049939053252714458 0 0 0.049999999999907327 0 0.049939053252714832 0.049939053252714458 0 0 0.049999999999907327 0 0.039985702861277832 0.089949139945122158 0 0 0.049999999999907327 0 0 0.099999999999778932 0 0.039985702861277832 0.089949139945122158 0 0 0.099999999999778932 0 0.039985702861277832 0.089949139945122158 0 0.048933028806049127 0.13057565049041919 0 0.039985702861277832 0.089949139945122158 0 0.085251322751361422 0.085251322751267455 0 0.048933028806049127 0.13057565049041919 0 0.049939053252714832 0.049939053252714458 0 0.039985702861277832 0.089949139945122158 0 0.085251322751361422 0.085251322751267455 0 0.085251322751361422 0.085251322751267455 0 0.048933028806049127 0.13057565049041919 0 0.099367351689118713 0.1361030878308033 0 0.085251322751361422 0.085251322751267455 0 0.099367351689118713 0.1361030878308033 0 0.1314881773984512 0.1001917167814514 0 0.085251322751361422 0.085251322751267455 0 0.12985070150919131 0.049695285177636293 0 0.1314881773984512 0.1001917167814514 0 0.085251322751361422 0.085251322751267455 0 0.089949139945056739 0.039985702861083668 0 0.12985070150919131 0.049695285177636293 0 0.1000000000004161 0 0 0.089949139945056739 0.039985702861083668 0 0.12985070150919131 0.049695285177636293 0 0.050000000000207989 0 0 0.049939053252714832 0.049939053252714458 0 0.089949139945056739 0.039985702861083668 0 0.050000000000207989 0 0 0.1000000000004161 0 0 0.089949139945056739 0.039985702861083668 0 0.049939053252714832 0.049939053252714458 0 0.085251322751361422 0.085251322751267455 0 0.089949139945056739 0.039985702861083668 0 0.040902071848020333 0.21695619809520539 0 0.078062755696984454 0.2243517123855911 0 0.054921602787359823 0.26676981456789323 0 0 0.24999999999934711 0 0.040902071848020333 0.21695619809520539 0 0.054921602787359823 0.26676981456789323 0 0 0.24999999999934711 0 0 0.19999999999948739 0 0.040902071848020333 0.21695619809520539 0 0 0.19999999999948739 0 0.040902071848020333 0.21695619809520539 0 0.033277316611033107 0.17565576449548501 0 0.040902071848020333 0.21695619809520539 0 0.033277316611033107 0.17565576449548501 0 0.076551482401096119 0.18074697389267991 0 0.033277316611033107 0.17565576449548501 0 0.048933028806049127 0.13057565049041919 0 0.076551482401096119 0.18074697389267991 0 0 0.19999999999948739 0 0.033277316611033107 0.17565576449548501 0 0 0.1499999999996332 0 0.033277316611033107 0.17565576449548501 0 0 0.1499999999996332 0 0.048933028806049127 0.13057565049041919 0 0 0.099999999999778932 0 0 0.1499999999996332 0 0.048933028806049127 0.13057565049041919 0 0.048933028806049127 0.13057565049041919 0 0.099367351689118713 0.1361030878308033 0 0.076551482401096119 0.18074697389267991 0 0.099367351689118713 0.1361030878308033 0 0.1209343611071495 0.17289717132638771 0 0.1468441295610933 0.1441280232407802 0 0.099367351689118713 0.1361030878308033 0 0.1209343611071495 0.17289717132638771 0 0.076551482401096119 0.18074697389267991 0 0.1209343611071495 0.17289717132638771 0 0.076551482401096119 0.18074697389267991 0 0.1080954158735314 0.20728557537219169 0 0.076551482401096119 0.18074697389267991 0 0.1080954158735314 0.20728557537219169 0 0.078062755696984454 0.2243517123855911 0 0.040902071848020333 0.21695619809520539 0 0.076551482401096119 0.18074697389267991 0 0.078062755696984454 0.2243517123855911 0 0.1080954158735314 0.20728557537219169 0 0.1098432055749146 0.24999999999998551 0 0.14765003828931139 0.2107336584867868 0 0.1080954158735314 0.20728557537219169 0 0.1098432055749146 0.24999999999998551 0 0.078062755696984454 0.2243517123855911 0 0.1098432055749146 0.24999999999998551 0 0.078062755696984454 0.2243517123855911 0 0.054921602787359823 0.26676981456789323 0 0.14765003828931139 0.2107336584867868 0 0.19817473867912619 0.22966033767512689 0 0.15305993590804801 0.25099769163161822 0 0.1098432055749146 0.24999999999998551 0 0.14765003828931139 0.2107336584867868 0 0.15305993590804801 0.25099769163161822 0 0.1209343611071495 0.17289717132638771 0 0.1080954158735314 0.20728557537219169 0 0.14765003828931139 0.2107336584867868 0 0.14765003828931139 0.2107336584867868 0 0.1719527938089627 0.1757485956097096 0 0.19817473867912619 0.22966033767512689 0 0.1209343611071495 0.17289717132638771 0 0.14765003828931139 0.2107336584867868 0 0.1719527938089627 0.1757485956097096 0 0.1209343611071495 0.17289717132638771 0 0.1719527938089627 0.1757485956097096 0 0.1468441295610933 0.1441280232407802 0 0.099367351689118713 0.1361030878308033 0 0.1468441295610933 0.1441280232407802 0 0.1314881773984512 0.1001917167814514 0 0.1468441295610933 0.1441280232407802 0 0.19992572628195029 0.13298089525159801 0 0.1679024884561762 0.1120037836267631 0 0.1719527938089627 0.1757485956097096 0 0.1468441295610933 0.1441280232407802 0 0.19992572628195029 0.13298089525159801 0 0.19992572628195029 0.13298089525159801 0 0.24349705814113851 0.1559941710220436 0 0.24885392191016831 0.1095680955199838 0 0.24349705814113851 0.1559941710220436 0 0.21314711753641541 0.18140124357578011 0 0.24853472249852021 0.20625671876095891 0 0.19992572628195029 0.13298089525159801 0 0.24349705814113851 0.1559941710220436 0 0.21314711753641541 0.18140124357578011 0 0.1719527938089627 0.1757485956097096 0 0.19992572628195029 0.13298089525159801 0 0.21314711753641541 0.18140124357578011 0 0.1719527938089627 0.1757485956097096 0 0.21314711753641541 0.18140124357578011 0 0.19817473867912619 0.22966033767512689 0 0.21314711753641541 0.18140124357578011 0 0.24853472249852021 0.20625671876095891 0 0.19817473867912619 0.22966033767512689 0 0.24853472249852021 0.20625671876095891 0 0.19817473867912619 0.22966033767512689 0 0.2489962798508365 0.25045589276658847 0 0.17764503390253311 0.036200094650033432 0 0.12985070150919131 0.049695285177636293 0 0.17964494368028161 0.075566965457818339 0 0.17764503390253311 0.036200094650033432 0 0.15000000000062411 0 0 0.20000000000083221 0 0 0.17764503390253311 0.036200094650033432 0 0.15000000000062411 0 0 0.12985070150919131 0.049695285177636293 0 0.1000000000004161 0 0 0.15000000000062411 0 0 0.12985070150919131 0.049695285177636293 0 0.12985070150919131 0.049695285177636293 0 0.1314881773984512 0.1001917167814514 0 0.17964494368028161 0.075566965457818339 0 0.1468441295610933 0.1441280232407802 0 0.1314881773984512 0.1001917167814514 0 0.1679024884561762 0.1120037836267631 0 0.1679024884561762 0.1120037836267631 0 0.17964494368028161 0.075566965457818339 0 0.21108251132115291 0.096302202119862179 0 0.1314881773984512 0.1001917167814514 0 0.1679024884561762 0.1120037836267631 0 0.17964494368028161 0.075566965457818339 0 0.17964494368028161 0.075566965457818339 0 0.21108251132115291 0.096302202119862179 0 0.2287295243217361 0.055738222614712521 0 0.19992572628195029 0.13298089525159801 0 0.1679024884561762 0.1120037836267631 0 0.21108251132115291 0.096302202119862179 0 0.19992572628195029 0.13298089525159801 0 0.21108251132115291 0.096302202119862179 0 0.24885392191016831 0.1095680955199838 0 0.21108251132115291 0.096302202119862179 0 0.24885392191016831 0.1095680955199838 0 0.2287295243217361 0.055738222614712521 0 0.17764503390253311 0.036200094650033432 0 0.17964494368028161 0.075566965457818339 0 0.2287295243217361 0.055738222614712521 0 0.17764503390253311 0.036200094650033432 0 0.2287295243217361 0.055738222614712521 0 0.20000000000083221 0 0 0.2287295243217361 0.055738222614712521 0 0.20000000000083221 0 0 0.25000000000102929 0 0 0.25000000000102929 0 0 0.28535787966508452 0.040997434039757918 0 0.30000000000069338 0 0 0.2287295243217361 0.055738222614712521 0 0.28535787966508452 0.040997434039757918 0 0.28711665878673959 0.086204954276461576 0 0.2287295243217361 0.055738222614712521 0 0.25000000000102929 0 0 0.28535787966508452 0.040997434039757918 0 0.28535787966508452 0.040997434039757918 0 0.30000000000069338 0 0 0.32610588992015749 0.032704233892765708 0 0.30000000000069338 0 0 0.32610588992015749 0.032704233892765708 0 0.3500000000003467 0 0 0.28535787966508452 0.040997434039757918 0 0.32610588992015749 0.032704233892765708 0 0.32676672825558623 0.070988923897011683 0 0.32610588992015749 0.032704233892765708 0 0.37061662151835162 0.049361608679257957 0 0.32676672825558623 0.070988923897011683 0 0.37061662151835162 0.049361608679257957 0 0.3500000000003467 0 0 0.39999999999999991 0 0 0.32610588992015749 0.032704233892765708 0 0.37061662151835162 0.049361608679257957 0 0.3500000000003467 0 0 0.36634396548604953 0.098619481206936005 0 0.33086126932634818 0.10790307783024911 0 0.35183211661870822 0.14068636747866661 0 0.37061662151835162 0.049361608679257957 0 0.36634396548604953 0.098619481206936005 0 0.32676672825558623 0.070988923897011683 0 0.32676672825558623 0.070988923897011683 0 0.33086126932634818 0.10790307783024911 0 0.28711665878673959 0.086204954276461576 0 0.36634396548604953 0.098619481206936005 0 0.32676672825558623 0.070988923897011683 0 0.33086126932634818 0.10790307783024911 0 0.33086126932634818 0.10790307783024911 0 0.28711665878673959 0.086204954276461576 0 0.29952489760380191 0.13061147298307579 0 0.28535787966508452 0.040997434039757918 0 0.32676672825558623 0.070988923897011683 0 0.28711665878673959 0.086204954276461576 0 0.24885392191016831 0.1095680955199838 0 0.2287295243217361 0.055738222614712521 0 0.28711665878673959 0.086204954276461576 0 0.24885392191016831 0.1095680955199838 0 0.28711665878673959 0.086204954276461576 0 0.29952489760380191 0.13061147298307579 0 0.24349705814113851 0.1559941710220436 0 0.24885392191016831 0.1095680955199838 0 0.29952489760380191 0.13061147298307579 0 0.24349705814113851 0.1559941710220436 0 0.28323795321842432 0.1800458652760705 0 0.299524897603801
[...]
<PointData Scalars="A_conc," Vectors="" Tensors="">
<DataArray type="Float64" Name="A_conc" format="ascii">
1.0325088478364528e-10 -1.1180557128289288e-09 -4.3100205749533095e-10 1.2860561736108332e-10 -5.6863786115228337e-10 1.28605812181085e-10 -5.2652344009799865e-10 -2.6377099532894258e-11 -1.0870601634535388e-10 4.0642911419650214e-11 4.0642967195245878e-11 -1.7586652849534829e-10 9.1380990147671063e-11 -3.8472308963123477e-10 -4.9020841243276709e-10 -7.6313540242918771e-10 2.3484216720057341e-10 -9.9223468344962228e-10 -9.1018346215999529e-10 -5.2917506346626907e-10 6.5370741848824812e-10 8.49428723213688e-10 -2.8833227462535046e-09 2.2737415708445176e-10 -1.4261803733025762e-09 -1.2603331815739521e-09 1.2490762267705006e-08 -7.162383056812564e-09 1.4781276560961197e-08 1.5554259993283143e-08 -7.6781859714558738e-10 -1.5423743587118007e-09 1.1645395170356073e-08 -1.6813570115364433e-09 -1.6391998681888507e-09 1.2968185651466096e-08 -1.6394576623468619e-09 -7.2791079727589072e-10 -1.2838193513983921e-10 -3.9105686139915368e-09 -4.6330894799087187e-10 7.2038810911446726e-10 -2.0182506987845437e-09 1.1164112483438399e-09 2.2171346303116493e-10 -1.8254992436323322e-10 3.1820712047804852e-11 -6.8996336974542067e-10 2.0925954743779209e-11 -8.8380202659087608e-11 -5.252736374180748e-10 2.7429351690470866e-11 2.7429379280296897e-11 -1.179562452608832e-10 1.3609144208501931e-11 -1.611410744358224e-10 -5.9981940999897247e-11 -3.537050413115055e-10 -2.3122153629185955e-10 2.5812094366129132e-10 -2.3453853081065237e-10 -8.0440998037978719e-10 4.1545255137448248e-10 1.2411735725338222e-11 -5.2790695763304498e-11 1.2411702749463222e-11 -2.1561600868783675e-11 4.6390371390135615e-11 -5.1034481930021129e-10 9.6955742451061851e-11 9.6956195485503219e-11 -4.2620737301877997e-10 -2.1251852892383777e-09 8.0414764396883604e-10 6.3410922719970461e-10 -4.0680522187260742e-09 7.6911660911884892e-09 2.0253517603619596e-08 3.225126252836357e-10 8.0042684359904345e-09 -1.0075096375377937e-09 8.7903857614177206e-09 -2.3748840431923301e-09 2.8075382610545801e-09 1.6875434236060354e-10 3.0210918867969237e-09 -5.1774088878623833e-10 -8.0551087250034561e-10 5.0386877781874859e-10 -5.4573485917530792e-11 1.8408876145873794e-09 1.7623183887735034e-10 1.7920539954814575e-08 3.4406145110193303e-09 2.1911621449285308e-09 -1.2354272257712383e-09 1.8556896011714316e-09 -1.0932366639322199e-10 -1.6949668226984341e-09 1.3513845263199146e-08 8.3633826224386238e-08 1.3609451442051652e-08 -4.562573516982251e-09 2.0213537253595612e-08 2.0015007377319938e-08 8.4762355815625246e-09 -1.7693729102917583e-10 1.9925319388618158e-08 4.6844089947413238e-09 5.7269231692807675e-08 9.3373171678722706e-08 -2.8063683512193809e-10 1.7941868942135418e-08 5.5101624273416808e-08 -1.156351490898543e-09 5.6892478260521246e-08 1.8905654669860074e-08 -7.9752779612812732e-09 2.0852224550231245e-08 1.3887358335530007e-08 5.1984167671269501e-09 1.3126378294277221e-07 5.0030526204759893e-08 4.8718364543388302e-08 -1.0406731629905575e-09 1.3137642140655865e-07 5.1713901589736321e-08 3.8897596137965107e-07 5.2461080343680572e-07 3.9644241530164463e-07 1.4464613132216325e-07 3.7600232484559552e-07 1.1797888299015704e-07 3.7340996477886832e-07 1.693736157934282e-07 3.0408112193488344e-08 1.3642872326347271e-07 1.7856005480999131e-07 4.424488588335725e-08 1.7228506921775697e-07 9.1542373966268998e-08 1.67895584233271e-07 3.4931720283255998e-07 6.8356347015152673e-08 3.8077790908791793e-07 2.3917672982716774e-08 2.9251404169247406e-07 9.0047023869606802e-08 -1.6977504890747076e-08 9.1880522384439284e-08 8.233826670251444e-08 2.3797980953459487e-09 1.6431654220556749e-07 8.2842115666495513e-08 2.6020703810145268e-08 3.2427610183976553e-09 -1.013168831718059e-08 2.8251191781434256e-08 1.3528909603872874e-08 6.562545456120955e-09 7.5730268074570627e-09 8.2081165516067325e-08 1.944815699571801e-08 9.5451037832932483e-09 5.2882265134117117e-08 4.2424473463555435e-08 8.8000777557201546e-08 2.0526483807657379e-07 -5.3245001053798297e-09 5.6295101413639359e-08 9.2685476644874259e-08 4.6347398338090983e-08 2.1320314872916798e-07 3.5302721995089163e-07 1.3263826370879381e-07 2.6028658366064453e-08 2.1902429863284636e-07 1.0240039832308939e-07 2.0860927844491551e-07 4.8886796489846419e-07 1.8440193773251753e-07 5.3180689900368054e-07 3.5669672091501218e-07 6.819247761599046e-08 6.983646975120832e-08 3.2764520460782133e-07 4.7215811243052815e-08 3.5247452622440262e-07 1.59976781927885e-07 3.5213997682878976e-07 1.0226787562353168e-07 5.9948786003738141e-07 4.330765722663832e-07 1.250872807763927e-06 1.7998011870512388e-06 7.7012698742548938e-08 1.3399811732611611e-06 1.2703203522872319e-06 2.6183290191390953e-07 5.8000393094240549e-07 1.2324478816298306e-06 1.1425190671190866e-06 1.7841893698099031e-06 2.8279283563356381e-06 1.5129327620004546e-06 2.7930397680846148e-06 4.697019121076307e-06 1.0324149316892198e-06 2.9934320646270554e-06 2.8722481988232368e-06 2.8327598138853146e-06 6.2231773576279232e-06 2.6882329061506534e-06 6.4369794428507067e-06 4.1881273200012618e-06 1.1587526240959238e-05 2.496847788188448e-06 6.5960921417677511e-06 4.7398356793585417e-06 5.5553180805651077e-06 2.6107316260035664e-06 3.9894423098233367e-06 6.6253784330361642e-06 5.8845756942216606e-06 2.3192703559527669e-06 2.8692987867749482e-06 2.9115216751292352e-06 9.7531514816799279e-07 5.4430138753433963e-06 2.7534656121207096e-06 2.8018011348787117e-06 2.7087076512206575e-06 1.1602421968067846e-06 1.4559990223702453e-06 1.2745348091686661e-06 2.7112026520393047e-06 1.1910412484042391e-06 5.0344024024140395e-07 2.8169879066126332e-07 1.1711744537978314e-06 3.684773144310606e-07 1.2493242124850348e-06 1.5007421313790359e-06 3.1096904822826609e-07 4.8092725846235104e-07 1.3140176310308624e-06 2.2403079377518067e-07 8.6336293059036371e-07 1.403385011447278e-06 3.7584129214663155e-07 3.5042048155858121e-07 8.2335486392561864e-07 7.7922603157069191e-07 1.4025171414103266e-06 2.0500279696478281e-06 3.5440538261510854e-07 8.9333826592178211e-07 2.4664768470329661e-07 2.6794446561039322e-07 8.6288372616729893e-07 1.011476073336099e-06 7.8860983528793292e-07 9.3450198742341739e-07 1.9628724813224454e-06 6.6344591704415063e-07 2.6231398140634654e-06 2.3517354539332567e-06 8.3891024022217368e-07 2.5183973249994933e-06 1.9855641315219727e-06 2.2336777249385493e-06 1.6870841117754555e-06 5.195450708426166e-06 1.9556285786550602e-06 5.3505737348712588e-06 5.0701203136763764e-06 2.541579379077981e-06 4.7928668904959609e-06 2.2341659625722048e-06 2.7213981377426597e-06 1.2231071861238087e-06 4.0585132683656146e-06 1.1943849840279435e-06 1.92048051315264e-06 3.7831050951798308e-06 1.6298428863703656e-06 3.8124252523621318e-06 5.4582636345169111e-06 5.4845824236438825e-06 3.6822477926610099e-06 9.0726173425571374e-06 3.4503116963415579e-06 9.2600547345035924e-06 5.2849295641941756e-06 9.2839069736384171e-06 4.8108687528125868e-06 1.3304714510365614e-05 7.8360209606203693e-06 1.3102317292917222e-05 2.562390750799382e-05 5.1954229167061146e-06 4.8827964998237465e-06 9.4964738273556154e-06 1.3676185810745848e-05 1.0244901839010028e-05 2.2559939536929005e-05 4.1068379900978926e-06 1.386197323891907e-05 1.0765968883580585e-05 4.31299447165116e-06 9.5372822745776138e-06 1.3936352144287417e-05 9.4726847832521485e-06 2.3517714503260653e-05 1.3883648016102247e-05 2.2058541644861122e-05 8.7567964966923645e-06 5.2344456910527241e-05 1.0686105889373095e-05 2.4876588249927421e-05 3.3689274602402261e-05 2.2189603591919861e-05 3.0033947248896118e-05 5.9633425860554553e-05 1.9725490970677357e-05 6.0817436618151787e-05 6.2458131279760382e-05 1.2089305959984493e-05 2.5844907500795192e-05 3.2536152118996519e-05 2.2653876077928692e-05 7.5996430157363419e-05 7.0039349332558118e-05 1.5492343170368434e-05 7.578064754237585e-05 8.1935362607978089e-05 1.8673705982025676e-05 2.5564026659900403e-05 7.4301140738431914e-05 2.0569419647325891e-05 3.1507492177775432e-05 7.3552744995321865e-05 2.523826699817138e-05 3.6055639674789808e-05 1.0901867689710267e-05 3.5265973297888799e-05 2.8925036381330611e-05 1.1535236927531771e-05 2.1841707780806277e-05 8.9130789461680418e-05 8.9559309622343634e-05 2.7226483470323417e-05 2.5069602160163109e-05 8.6835147761040197e-05 2.5104126278741704e-05 9.703954239665712e-05 6.9095572612877661e-05 2.5608625257402073e-05 3.1178829762720148e-05 6.8146965192830602e-05 2.8449398559391231e-05 1.4317368919696206e-05 1.3223203574162085e-05 2.7708666013849261e-05 1.3515983787889198e-05 1.0595746242925222e-05 2.8359007480281149e-05 3.2925862556074486e-05 1.1515205816894632e-05 5.9273065300438617e-06 1.4135084606438432e-05 1.1716958497719511e-05 5.2352365526838587e-06 1.4888480884507518e-05 1.39366867781844e-05 6.3324378591222505e-06 5.4547690273490532e-06 1.321283130555608e-05 4.8450765677833325e-06 9.4272352166166578e-06 1.4096583136450692e-05 8.3988950158825706e-06 2.4752235822495635e-05 1.386233258386551e-05 1.3446459569118124e-06 6.7497455749973824e-06 2.0682425641575051e-06 2.1227823147141782e-06 2.3470692741745211e-06 7.9472856125580039e-07 1.816766447789521e-06 8.9768785258696353e-07 4.9108813233077493e-07 1.8588879580308397e-06 1.0667139770904539e-06 4.5206037520871731e-07 9.1841452747323089e-07 5.7026790567781102e-07 5.7603882413485366e-07 9.2429367462145549e-07 5.5580657343374001e-07 1.0642440813275437e-06 1.867157007530976e-06 1.0206146747242478e-06 2.362424582902498e-06 2.3624578250496014e-06 7.9828217406923655e-07 2.9350256291553174e-06 9.6511754001718945e-07 2.3426612670789712e-06 8.6934575705220322e-07 1.5513185128577336e-06 2.3663881311229216e-06 9.1084521757601527e-06 1.6589752283889271e-06 5.0683364167960316e-06 8.9257421955699412e-06 1.8290740285699244e-06 2.2979260430171167e-05 1.1770842941251835e-05 1.1722361799627116e-06 1.7285967681366088e-06 6.2387594890272145e-06 1.1959646763874452e-06 6.2207975550328932e-06 6.8375135893823695e-06 2.2589732053475118e-06 3.9622600674198533e-06 2.2536254845257279e-05 2.6614367838690543e-06 3.0729154180681748e-05 2.5624753601192229e-05 1.2980562792048075e-05 3.4896799073059033e-06 3.0185941899063014e-05 7.813547397737762e-06 4.929915366096901e-05 3.9452235145186865e-05 1.5594817987804289e-05 6.2606034532601386e-06 5.3252077160555102e-06 6.454527453900065e-06 5.3576301747535375e-05 5.2013526448134955e-05 9.0434827913357976e-06 7.9653145706265095e-06 4.8441319617831915e-05 1.5821128046848864e-05 1.3871798423587275e-05 5.2974775833771857e-06 4.2440352177150488e-06 1.3796025169262324e-05 4.8641597578650692e-06 1.3710914000019149e-05 4.9084126531991581e-06 5.7478997860655802e-06 5.7273050834131337e-06 2.577469975358989e-06 1.928039667568833e-06 4.8574322164912624e-06 5.7540969379032487e-06 1.9225987026288959e-06 7.2759349059026838e-06 6.1595291674667809e-06 1.9674798378776632e-06 5.77604573918475e-06 6.407322400605197e-06 2.4471321177611965e-06 6.080112353144712e-06 2.5878972417644912e-06 2.2057239994689986e-06 2.8945365097641539e-06 2.6202981344822378e-06 9.2829377967564055e-07 2.2979063619480786e-06 1.0896790345710653e-06 8.7360917688260772e-07 1.0994697796060936e-06 7.6007859917411335e-07 2.3065311766766805e-06 2.8368343290490254e-06 1.0234766656357391e-06 2.3261612293573892e-06 1.1674981428504053e-06 7.9064102351120031e-07 3.6600979842343112e-07 1.1609211649741272e-06 3.5470848976372594e-07 5.2274807603867066e-07 4.8025602146286851e-06 2.0445089455657886e-06 2.0980447681018966e-06 2.026596851021941e-06 2.3828943696761672e-06 9.8622018905314501e-07 8.2243905360411317e-07 2.236911682554776e-06 1.1190710690894541e-06 8.2229464036421695e-07 1.9987061563579006e-06 1.0804613934106271e-06 8.9344612808938657e-07 3.6002233597537413e-07 2.2614765998215649e-07 9.0909955376815785e-07 1.1306762103325948e-06 3.0296216955468888e-07 8.9391956998983632e-07 1.1900498254098386e-06 2.2130177177373749e-07 4.1955780413339287e-07 2.7992774100323128e-07 5.8061617735643731e-07 4.1993866050832384e-07 1.6033384757597519e-07 2.9412589847389254e-07 7.8727283110103354e-07 3.3181823654530332e-07 4.1630615437406147e-07 3.6269442736456874e-07 4.3119892231936065e-07 1.5319634165988529e-07 3.5677964260971954e-07 1.726759188356074e-07 8.2756402130791912e-08 1.9262631932716805e-07 2.9649600742810835e-07 1.0777862055131895e-07 1.3742115460569807e-07 5.6165888407166381e-08 1.2342662891173087e-07 2.7293726821420378e-07 1.2620183422664523e-07 1.1336220878041834e-07 2.751689068840837e-07 3.9403967403985749e-07 1.0828384581574474e-07 5.6900947718210006e-07 3.4906140506646127e-07 9.3060063496055718e-07 2.6530250891924454e-07 5.8197399322452747e-07 3.7337936053173545e-07 3.3000226253653054e-07 9.4617691300496821e-07 6.1497047111728851e-07 1.1879778847558798e-06 4.8531105600138438e-07 9.9918411283768474e-07 6.1133552370623953e-07 2.7467582606651715e-07 5.9390741891671438e-07 6.0114640788055189e-07 2.485334570516192e-07 2.9360291063126714e-07 4.0898531374157708e-07 6.3721137503623627e-07 2.4227100660832716e-07 2.7454618840202007e-07 3.3607157081704724e-07 1.5224704104004165e-07 2.7234944587232681e-07 1.2727847635809545e-07 1.633090981896222e-07 4.1113788127046795e-07 2.6253109305074559e-07 8.7779203822973999e-08 1.3547237805703478e-07 5.4906545402723503e-08 1.6629819079843729e-07 4.2212010691572793e-08 7.0545722729956622e-08 1.6841912091693472e-08 4.2431668302947189e-08 9.7480119477618051e-09 2.1913722816802858e-08 4.3611096385363645e-08 2.0507213826728771e-08 1.0076445008861846e-08 1.3307858516616894e-07 3.340041898165856e-08 6.4424782771884898e-08 1.3426463889685193e-07 3.6730004003166666e-08 6.3833629075837949e-08 6.2511862614107608e-08 1.2153461875050137e-07 3.9946695804044423e-08 1.2258735937714453e-07 4.1825552760833676e-08 5.0348461612847832e-08 4.6966055565079925e-08 9.4475756338203828e-09 5.4205111863855531e-08 4.5177845359600191e-08 1.8753528672488265e-08 1.5104943623521014e-08 6.7520287262032985e-08 4.5968416648303783e-08 1.3678953635011226e-08 4.3781376118057507e-08 6.6117403695069547e-08 1.3415648665801178e-08 2.0203915784702624e-08 1.7124654306648329e-08 -8.3946421311807536e-10 1.7198428460485607e-08 1.6834626186603026e-09 8.5818427861688237e-09 1.9045490327876743e-08 3.0672865023693437e-09 7.5843463865755993e-10 1.5104671539937367e-09 1.3148804866432228e-08 3.9726722517196423e-09 2.827254290953324e-09 -1.7667871159065859e-09 4.4335008790146768e-09 1.3320393069536876e-08 2.3093717238994661e-08 1.1019684812925871e-09 2.1345554941189892e-08 -2.6541278821060542e-09 1.2989828837287414e-08 9.1122201787450295e-08 1.2925133377691203e-07 2.0389751401353604e-08 4.1016860700539624e-07 2.7641079279154296e-07 8.6906654820793231e-08 7.4017588610382023e-08 2.7257128469435395e-07 1.2322638680555583e-07 3.4170053663217418e-07 1.0768407343691491e-07 9.8454729224302398e-08 1.1584296412465379e-07 2.1477403590007123e-08 2.9791574599279843e-08 1.2293847355140747e-07 1.1624098383414095e-07 8.6288233989176845e-09 1.0173252032976821e-07 5.6511772270853022e-08 1.8126813957281132e-08 1.9341953765650523e-07 1.2067198393498827e-07 3.2329060762226153e-08 1.8451550992282252e-07 1.0071877211207578e-07 4.5029457767347888e-08 5.9045150274897064e-08 -1.368743261037822e-09 3.1126013922174813e-08 1.4338937939340695e-08 5.1334575892362554e-08 1.3385624287787473e-09 3.2475088706196739e-09 8.7196382662044245e-09 -2.3512247879455114e-09 8.2704342026630534e-09 3.0294751575009704e-08 2.2086349497088589e-09 9.8757015812320919e-09 5.3885155612614905e-09 5.0193705708441153e-10 3.0095835290961301e-08 3.7618992126555264e-08 -8.8160783336077423e-09 -1.1906113250404091e-09 2.8296016650537309e-09 1.6456794251369594e-08 3.5546263472122169e-08 -1.7940034048526661e-09 1.6500441700238895e-08 8.918219281118137e-08 3.2161607365682259e-08 8.18332420231558e-09 2.1777273408532879e-09 -1.4946779689335002e-09 -2.5197939638615048e-09 1.7542560285643418e-09 3.8383411221969704e-09 -2.8661531994600763e-09 4.761765247634478e-09 -1.5369425952073919e-09 2.0108776936842751e-09 -2.6934995298782677e-10 -6.7925012355440706e-11 -8.805447482266991e-10 -4.722717199619111e-10 -4.5424794948698018e-10 2.0562773442821887e-09 -2.2398346875501489e-10 1.8467542559247026e-09 4.494375728398502e-10 8.2749331167706781e-09 1.2671336681285607e-09 -7.9958147934984609e-10 1.1959541424879955e-10 4.5289193680615265e-10 -8.1484270974694614e-10 -1.5616714226223353e-10 3.6159061119379819e-11 3.6159061119404292e-11 -2.0030694828090839e-10 1.4787643240613816e-11 -3.5748581780030724e-11 9.3723127749867979e-12 -3.9725368020453614e-11 9.3723209516805527e-12 6.5881792034414652e-11 -2.8299364517392499e-10 -1.1253461700937641e-10 -1.4651538300023133e-10 -1.4922832231309454e-10 -6.2091975813303405e-10 -8.2509649516814788e-11 7.4372367822533331e-11 -4.9272421295553894e-10 9.2955316539935985e-11 9.2955870917031092e-11 -4.0827891330422803e-10 2.5175328752097705e-11 2.7502973978159564e-10 -4.4464688758717739e-10 -4.123693141819916e-11 -1.5153345461942291e-10 -2.9886783667457136e-10 1.0550216557893764e-10 -6.7658898047648648e-10 -7.133772724600731e-11 2.5384545045935625e-09 -3.5194863862987908e-10 -3.9959356287149515e-10 2.5514315855490702e-09 -3.8911174084155749e-10 -1.1226901128440624e-10 4.3907881404677647e-09 2.9548288358742394e-09 -1.9248929300505192e-09 3.8228914044903887e-09 -3.2943004454871266e-10 -8.0384812073612816e-10 9.8058667439221953e-11 -8.5402844866318123e-10 4.2457838154099238e-11 1.5393755123863104e-10 -1.2954656840474262e-10 -2.065548415900295e-10 -2.9798484945913982e-10 -3.9526319109271017e-11 -2.2298307652974899e-10 -1.7999244913418793e-10 -1.1694836927175277e-10 3.6039766089036383e-11 -2.9021164937503122e-11 -5.4102918149026008e-12 -1.1866901870008625e-10 -4.2871545687958234e-11 1.0105443301081557e-11 1.0105465673083122e-11 2.4314759508886006e-11 -1.1732459864968078e-10 2.9869732117626605e-11 -9.5567034727781452e-11 2.8602483621007343e-11 -2.0339827837819105e-10 -0.020479476505474253 -0.020479476505474194 -0.0016220863464654716 -0.0077261094030290738 0.017311866664185178 -0.0066498147028996035 0.011222881211005396 -0.0040302873520672976 -0.004942271061653623 -4.1905508668735232e-05 7.3124955560354544e-05 -3.9711921349342855e-05 0.010953030978307363 -0.0073522908363566645 0.023339021956668111 -0.0038999689825648478 0.014479725179294621 -0.0061266380333315452 8.5037329971781079e-05 -9.8337330152038484e-05 -1.633764064023754e-06 0.010645455248811945 0.0051970711568023664 0.017789131642336871 0.016079341231376412 -0.0080954098230882204 0.0078233711829460845 0.0056695001138234689 -0.0042898564237671905 0.0022014751610471973 0.0038167835974042257 -0.0027415724715258425 -0.0023763327741710156 -0.0070232874964000639 0.0064986132252737843 -0.0044310694101099756 -0.0095396555613537111 -0.0079317988861080952 2.8110334291655806e-05 -1.8326339806023286e-05 -0.00025510007302308646 -1.8326339483714625e-05 -0.00026046004991018629 -5.0803001443711417e-05 -5.5734375083162404e-05 2.3228084046685392e-07 2.3228089476236634e-07 -7.8500626140099862e-05 -4.962360329285543e-06 2.3085063859999366e-06 -8.2373332257749287e-05 4.9508841047464372e-07 -4.4077428560876889e-06 4.9508841048288991e-07 -1.19513916832365e-05 -9.6610223758636076e-05 9.7332926317704236e-06 9.3098117702207376e-07 9.309811770221844e-07 -1.0922287801112997e-05 -5.6816486903944592e-06 -9.7558196348870427e-07 -1.2971714136126848e-05 -1.3242307229511828e-05 -2.0819501731615214e-05 1.0829594558677886e-05 -4.6820974074264698e-05 4.5670151003795976e-05 -2.8962165965552873e-05 -5.1698590882013605e-05 6.5740367385328462e-05 1.3656298151487106e-05 0.00015414015602123365 -7.2820304933400983e-05 -3.4579980223254029e-05 5.6407799079119866e-05 -2.9397716513162001e-05 0.00052001418522512177 5.5548579024526938e-05 -4.6078495152103023e-05 4.2141829421116826e-05 3.4467216691815188e-05 0.00027845989384431795 1.6227210096494288e-05 -0.0015440923035859636 -2.9692072768300533e-05 -0.0010408332109296688 -8.624587734900795e-05 -0.00021677327010661616 -0.0010772438548773153 -0.0051798321898196501 0.00096727871733193497 0.015220239841684845 0.0046897126230477371 0.016841502794454555 0.0