<?xml version="1.0"?>
<VTKFile type="UnstructuredGrid" version="0.1" byte_order="LittleEndian">
<UnstructuredGrid>
<Piece NumberOfPoints="316" NumberOfCells="724">
<Points>
<DataArray type="Float64" NumberOfComponents="3" format="ascii">
0 0.69999999999999996 0 0.59999999999999998 0.69999999999999996 0 0 1.6319639930219929 0 0.68142292217753131 2.106313194182027 0 1.299999999998378 1.8499999999973351 0 1.243750000001385 0.69999999999999996 0 0.94999999999923723 1.2749999999987469 0 0 3.7000000000000002 0 0 3.1141786369756268 0 0.45714634023723411 3.4614941897304652 0 0.70993008501830757 2.9054181396964478 0 0 2.430303940964651 0 1.186467289461244 2.488259157846338 0 1.451787781083937 3.11022608666643 0 1.013301616169622 3.6128741719811099 0 2.08333333333292 3.599999999997022 0 2 3 0 1.649999999999066 2.4249999999984651 0 2.2687831884271348 2.397628317379688 0 2.8857059848027808 2.304389417342541 0 2.6000000000000818 2.8399999999999781 0 2.9420158813362729 3.5139475164392531 0 2.4236693135559251 3.5256579194055688 0 2.23284951060374 1.369095413116082 0 1.887500000003292 0.69999999999999996 0 1.626949751997165 1.3978044304614949 0 1.942890303101708 1.90249985684108 0 2.5341028426591712 1.9138806300960609 0 3.16379900756549 1.750659825629856 0 3.047698899035677 1.175177397439602 0 2.730231246675086 1.4599417336750831 0 2.5312500000049418 0.69999999999999996 0 3.1750000000065048 0.69999999999999996 0 3.638214240926366 1.265285427893069 0 3.8187500000045098 0.69999999999999996 0 4.2198317920941601 1.108273596938623 0 4.7733688274428578 1.2511819424194319 0 4.4625000000026009 0.69999999999999996 0 4.6250000000004974 1.8500000000004651 0 4.25 1.5 0 4.0559490150232032 2.028653202947901 0 3.757799744899315 1.759341836734688 0 3.5028943452390711 2.1825773809523441 0 3.2000000000001432 2.679999999999962 0 3.2848100522576571 3.06994577157805 0 3.8000000000002032 2.5199999999999458 0 3.412636880282601 3.6134558579332841 0 3.8190056356267248 3.2454749759848052 0 3.874999999992375 3.7500000000050839 0 4.25 3.5 0 4.5652883261780408 3.549611461603364 0 4.3536256774790401 3.0337160882464551 0 4.75 2.7999999999999998 0 4.4000000000001336 2.3599999999999639 0 5.5 2.7999999999999998 0 5.2499999999996163 2.499999999999539 0 5.0000000000002984 3.5999999999995218 0 4.9131042795799686 3.1639526813742029 0 5.5486111111111649 3.4166666666664391 0 5.2500000000003251 3.1999999999994801 0 5.9166666666663046 3.1999999999996529 0 6.3333333333330009 3.5999999999996799 0 6 3.7999999999999998 0 5.75 2.5 0 6.3749999999999796 2.350000000000005 0 5.8758020027701336 1.829281458631685 0 6.1230253171455891 1.2440604005832661 0 5.75 0.69999999999999996 0 5.5000000000008269 1.1999999999983459 0 5.1062500000012143 0.69999999999999996 0 5 2.2000000000000002 0 5.4251604005540912 2.1458562917259631 0 5.2500000000007052 1.6999999999985891 0 5.3819444444444393 5.7444444444444036 0 4.8969907407407627 5.6240740740739659 0 5 6.2999999999999998 0 5.1289108351881252 6.943051186131636 0 5.5 6.3500000000000014 0 6 6.4000000000000004 0 6.0367063492063266 5.8849206349206353 0 6.25 5.5 0 6.2822169506114909 4.9442489896720572 0 5.75 5.25 0 6.3749999999999352 3.899999999999983 0 6.249999999989754 4.333333333340164 0 5.7499999999897531 4.6666666666734979 0 5.7901785714252867 4.1543650793672633 0 5.6250000000000648 3.899999999999983 0 5.25 4 0 5.2812499999974998 4.480555555557217 0 5.25 5 0 4.8333333333337283 5.2333333333331122 0 4.4166666666668641 5.4666666666665567 0 4.75 4.7000000000000002 0 4.25 4.7999999999999998 0 4.75 4 0 4.7500000000003384 4.3999999999997286 0 4.1250000000089333 4 0 3.625000000001803 4.4499999999997977 0 3.2187500000011142 4.5624999999995248 0 3.5 4 0 3.749999999999261 5.3499999999989658 0 3.5 5 0 3.4166666666672652 5.4000000000003077 0 3.3999999999985642 5.8000000000002396 0 3.6250000000072249 5.9999999999942197 0 4 5.7000000000000002 0 4.25 6.2000000000000011 0 4.4999999999995417 5.9999999999997264 0 4.5 6.6999999999999993 0 3.833430775055819 6.5641729053027689 0 3.25 6.2999999999999998 0 3.3303561509924351 6.9830522680580502 0 2.580520851116443 6.6244224184663167 0 2.799999999997127 5.9000000000004791 0 2.1999999999956921 6.0000000000007194 0 1.599999999997112 6.1000000000004819 0 1.646932375870239 6.6136900344172886 0 2.75 4 0 3.1249999999889848 4 0 3.0833333333345938 4.2666666666658593 0 2.6666666666680592 4.5333333333324424 0 2.8333333333331181 5.0999999999998904 0 2.227678571427079 5.4095242619018373 0 1.75 5 0 2.25 4.7999999999999998 0 1.6874999999994109 4.5249999999997117 0 2.1666666666662731 4.1999999999971616 0 1.1249999999964171 4.2499999999982494 0 1.593428957229921 3.8897035774451321 0 1.042857142856084 4.9670058772507648 0 0 5.1095205703790167 0 0.54607142857014845 4.5325429890369104 0 0 4.3611884975573796 0 0.56249999999824107 3.9749999999991399 0 1.532738095236533 5.6571455714099397 0 1 6.2000000000000002 0 0.59593253968210291 5.8008707178522592 0 0 5.9564815289107864 0 0 6.9150707591630427 0 0.93837900218741932 7.1804089820132404 0 1.1705225977355731 8 0 0 8 0 2.644109419022838 7.3867316522664499 0 1.8128190395187029 7.3536930984991047 0 2.2707825856939472 8 0 4.2771317171003211 8 0 4.75 7.2000000000000002 0 4.045228499335253 7.2019851637643439 0 3.3049975410581078 8 0 6.049840683362258 8 0 5.1909118800994873 8 0 5.8367197674990106 7.1166649360427767 0 6.4684217593582272 7.3531189884776698 0 7.2585497534189534 7.2378318565328508 0 7.616117101574889 8 0 6.8572107462251504 8 0 9 8 0 9.4363260705848777 7.4358468248574452 0 8.8779286709583509 7.1321289214782846 0 8.5625 7.5 0 7.9700743397311431 7.5609350974516802 0 8.3294684777734691 8 0 10.58712006499414 8 0 10.11683562520899 7.1952376222900778 0 9.7322767000115658 8 0 12.75 8 0 11.58504501385041 8 0 12.75 6.9437741439064196 0 12.75 6.038988862336077 0 12.186383928571081 5.6739548845775634 0 11.574999999999131 5.6499999999963926 0 11.9 7 0 11.73749999999942 6.3249999999975941 0 11.09889622188336 7.0112522472967331 0 10.44528068387236 6.4182408893442124 0 11.14723036767284 6.2469725545514123 0 10.917277223084589 5.4813827249950968 0 10.75003341587618 5.9107455977173604 0 10.318895127649739 5.6829040483701769 0 9.75 5.5 0 9.6816900032536655 6.1509933969218187 0 9.9618211858937151 6.6596055842737263 0 10.249999999999989 4.0999999999999979 0 9.75 4 0 9.9378319844489287 4.5341095853144147 0 10.058566397584119 5.1088423539901608 0 10.5 4.7999999999999998 0 10.680373124719701 5.0996881878923999 0 10.875 4.5499999999999998 0 10.462566396889811 4.436821917062888 0 10.75000000000014 4.2000000000000286 0 11.25 4.2999999999999998 0 11.749999999999741 4.3999999999999488 0 11.625000000000339 3.9999999999997291 0 11.412499999999749 4.9749999999989596 0 12.096269132652781 5.0089836801012728 0 12.75 5.2639308761360883 0 12.24999999999979 4.4999999999999574 0 12.75 4.5999999999999996 0 12.75 4.0003174080232462 0 12 3.7000000000000002 0 12.75 3.321597619569264 0 12.75 2.5534237251028711 0 12.044687057114441 2.397006001356599 0 12.143679596734311 3.0238066578277132 0 11.55235714707381 2.7530147867259149 0 11.47885376845919 3.3750712564560699 0 12.75 0.69999999999999996 0 12.01693014330492 1.5940258229091431 0 12.75 1.684005592221304 0 11.44640120743219 2.1177712645927089 0 11.166666666666989 1.49999999999966 0 11.67768621522576 0.69999999999999996 0 11.550000000000001 1.1000000000000001 0 10.730243372206591 0.69999999999999996 0 10.382627631995829 1.3873204946718609 0 10.78333333333231 1.9000000000010699 0 10.106350669919401 1.9180519417420421 0 9.7536823278228866 1.476350104461625 0 9.8931307966635327 0.69999999999999996 0 10.518069334214999 3.694433421516421 0 11.03749999999963 3.7999999999991241 0 10.82499999999963 3.2999999999991241 0 11.09116063133933 2.9444106525201019 0 10.98709224116409 2.4939672194195301 0 10.4 2.2999999999999998 0 10.36597949429223 3.0810719490983871 0 10.612499999999949 2.7999999999998741 0 9.9333333333295304 2.4333333333344198 0 9.9181425014481057 2.833188223635065 0 9.9242224243089208 3.5053525499705862 0 9.3125000000000018 3.6250000000000022 0 8.8750000000000036 3.2500000000000022 0 9.4186530900934855 3.112704842739701 0 9.1699287288289124 2.374148078484497 0 9.4666666666644659 2.5666666666672948 0 9 2.7000000000000002 0 8.4375000000000018 2.8750000000000009 0 8.4999999999999503 2.5999999999999899 0 8 2.5 0 8.25 3.7000000000000002 0 8.7499999999999556 3.7999999999999909 0 8.412499999999941 3.345000000000117 0 9.1535002593721142 0.69999999999999996 0 9.294553589509567 1.3214674021148729 0 8.816324129544423 1.139459074151014 0 8.8002334655075174 1.6758279686386801 0 9.3851273930358641 2.0113077179832741 0 8.8279208556153161 2.2186179292874191 0 8.1666666666661811 1.900000000001745 0 8.3333333333329112 1.3000000000015179 0 8.5 0.69999999999999996 0 7.8125000000000018 0.69999999999999996 0 7.6227778138185824 1.133263353986153 0 7.6816945906127989 1.5894745186858981 0 7.75 2.25 0 7.5 2 0 7 2.2000000000000002 0 6.6325887022434813 1.7109098098422979 0 7.1647318986115511 1.809291393235446 0 7.1613611451472012 1.37684225124335 0 6.6841764304611262 1.174631096497762 0 6.4375000000000027 0.69999999999999996 0 7.1250000000000044 0.69999999999999996 0 7.5 3.7000000000000002 0 7.749999999999754 3.1000000000005912 0 7.4999999999999769 2.349999999999993 0 7.1682741769546334 2.9476245590829571 0 6.4676238242209063 2.8855733497101581 0 6.7300925925924284 3.401388888888814 0 6.75 4 0 6.6887757623921971 4.5124976540268094 0 7.2499999999897531 4.3333333333265021 0 7.749999999989754 4.666666666659836 0 7.9282200727472034 4.1620177469108377 0 7.6417937536871419 5.1654402589958011 0 7.8750000000136362 4.9000000000036366 0 7.5 4.7999999999999998 0 7.2802004846459853 5.1175278771156387 0 7.0073846965074598 5.2778944676064459 0 6.936160960427304 4.89683078406033 0 6.5 5.2999999999999998 0 6.75 5.75 0 6.6249999999998499 6.2000000000000481 0 6.8750000000007789 5.6500000000007269 0 6.518953214484978 6.7704843776901313 0 7.0801824727701241 6.5807936507936633 0 7.6875 6.5 0 7.3577684192630528 5.5086946
[...]
<CellData Scalars="A_conc,B_conc,region_id," Vectors="" Tensors="">
<DataArray type="Float64" Name="A_conc" format="ascii">
0.46579050845606618 0.47340787723577471 0.44802001716937623 0.57242463906177954 0.59534834050025054 0.57826519742314109 0.58595092708725804 0.65971661352835098 0.67920289773858467 0.67068011265395788 0.026628958219373985 0.01729753899814734 0.029171196071887298 0.0089124565736033428 0.67631267311664645 0.70033869091789969 0.66209141520701298 0.70430852368394281 0.67340772094651591 0.71701161787649892 0.66852335653825712 0.66571206567431795 0.68152149786928273 0.73883043701458095 0.72593224414605972 0.72789243465676867 0.74937702247664584 0.43450485914379616 0.76208013775265449 0.7821281276457549 0.57933120367417001 0.7950443105530286 0.532855746578623 0.40631561983253023 0.80864672396264803 0.75850047764073913 0.74890337658733808 0.26275813145955174 0.48191186524336771 0.58543398858457529 0.71963022815577793 0.81749875266889083 0.63530710222341003 0.67132366361272588 0.5607894938590029 0.51752823768647216 0.55493291237037368 0.069244466271137117 0.047304628625171402 0.055658206797340175 0.084404946669567202 0.1731733632752428 0.098874821683180486 0.23472188307895764 0.12601840116048174 0.166208526035933 0.34288174954081763 0.4813364933132096 0.41403716596968038 0.23263894888681796 0.26488949529687722 0.1191004981226626 0.097090488245882262 0.070442112284940267 0.08944872261762235 0.10435216236422044 0.29399079213752077 0.12299396339197041 0.045422614584630712 0.37567180421005386 0.40882189028196875 0.053921680720219946 0.013138271617037792 0.82879727805965397 0.7839820597649354 0.43438378028724822 0.69899301641594869 0.67888173517086692 0.65147450235189575 0.76061310209934185 0.6272876574350309 0.72081928748933699 0.45176313919142896 0.40641757662413125 0.54351689397394831 0.64103801535279148 0.82199041628312486 0.69062896387696104 0.71111029488328081 0.66276354833217965 0.63643361572347135 0.63585611892109539 0.60050202971336186 0.70322666235463382 0.71965056383340142 0.77450496837597105 0.70361029929471641 0.76933884407410258 0.76242625651370122 0.72980670396541258 0.78361983235802546 0.8191900845923239 0.81284434946479001 0.80358223632601633 0.77301829412868406 0.8254532244123084 0.71085187296882513 0.74743014073869507 0.68972115779404275 0.71140348167154199 0.82327216077439669 0.68738333313673594 0.66500028880882978 0.73864764196682287 0.88731243220519718 0.84063514011822593 0.83487192189967296 0.88250824011204843 0.8787669886799665 0.67466880384584349 0.65361871968189833 0.89407821060981263 0.0011223716433068 0.81142986394761452 0.83378948670643616 0.84378252903536344 0.85545797098020282 0.013582537964430604 0.050058585388429361 0.021588229577358498 0.0043419976827053924 0.058536968513798096 0.91940339245538505 0.14490103318570324 0.12593115202625191 0.56334713012711501 0.70474105280341659 0.25962724579581276 0.93383850655459022 0.27284576631090307 0.94390410322552543 0.67695129130207421 0.51284058286323875 0.7140620813826376 0.8059060194181622 0.94884925610839188 0.73858587486258764 0.73263656685357192 0.7080281279484455 0.32389897521014643 0.050715646373664401 0.023736207368332467 0.044785276998538022 0.29231667798010263 0.11386804915301306 0.011374268198819877 0.021878136412657737 0.064056135721635016 0.30141417187802944 0.21801338221234934 0.79340839797164242 0.40713515700692227 0.52715855133874645 0.63423872083399702 0.26157556089975686 0.55316663102643915 0.067541825725959931 0.095661615056878008 0.061761784839003561 0.1477241384771994 0.081890016249054801 0.15184616898262532 0.70600862785035168 0.21370492253578216 0.73660547471733495 0.21424733242151733 0.17825913825119377 0.76319813233069134 0.14419854814775063 0.1106708829281759 0.074737193778786237 0.23862290005452561 0.32787432461419541 0.35731224458656569 0.87128763035615941 0.80945039826461351 0.49726492690678537 0.81162567720233136 0.76242071322534155 0.90070514515837719 0.87290368745042146 0.84631371451760962 0.94386174759936803 0.82772991306797161 0.79481634222307407 0.88356920140552608 0.87701258448073327 0.83852252851608644 0.8987090107302389 0.82253291661876049 0.80328804338143356 0.85574663576794707 0.75773696068373808 0.65152314810928436 0.46040838628320863 0.29773903441294214 0.93461948979800913 0.74977974735700736 0.4398839989324087 0.73382297751540171 0.30055129297534477 0.20729526431288459 0.45702271458800997 0.89433975300723567 0.4153311994113047 0.70152910991577588 0.88935035312458188 0.71993626712184411 0.67190734249883899 0.77589078421795621 0.75872989382728573 0.74076608992590565 0.81940856470447887 0.80730627508545605 0.73759445674465618 0.74193858164779725 0.65989068188132016 0.65062327828443323 0.72070315189162626 0.061329615777775501 0.6308413404981823 0.33669489509017236 0.26757675566991229 0.63464059775934789 0.67549033280591786 0.16338295559389909 0.22409161047574755 0.73796740911812075 0.59876994694741881 0.56486438717268628 0.39547949116287689 0.45766795018119888 0.69357012526975836 0.78421961433543896 0.78876603363831344 0.23463475602419287 0.74781225834901544 0.71042592908444513 0.31899882146594527 0.62563277531091543 0.22266725640781926 0.87759308565786331 0.63065102068332379 0.083571816458945791 0.34558955158219751 0.66338567529460024 0.2471576125427089 0.0073296317094596556 0.016748151385813419 0.21301405054928774 0.16477869346461349 0.057387725963575109 0.086658266648033916 0.021943904729908478 0.015593358988595579 0.32749237633571454 0.43489265407183109 0.21309669750192856 0.31141754972772318 0.61932735026375973 0.57210464339511502 0.77038122256277075 0.68973415265736615 0.61249985849079125 0.75394242612101159 0.6538423227479524 0.70756382519497119 0.6623259238519118 0.7321305145900121 0.56783011884851908 0.36505326334232457 0.42739738112169656 0.49000582902297246 0.24477870313921513 0.28421720217562735 0.075653535390412308 0.61173624085010325 0.60045142712229327 0.56920627600570706 0.70367508799846312 0.66301961927113862 0.53130449783596401 0.7564275750894669 0.60668463345177726 0.57025274545045046 0.7692559772139399 0.63843205234463662 0.61007520741861487 0.61441507200540002 0.60242327763370551 0.59124154279967867 0.34411525523020581 0.72094829443401232 0.75346494485840831 0.71259725871645418 0.71715037460849218 0.75870582161497913 0.77563752685354892 0.70465683434086612 0.68511953936939629 0.70052756947568495 0.69836803664037617 0.7087384923765403 0.5856388384021578 0.56594484330971118 0.60122051102403973 0.58537881517132706 0.58752574152156334 0.57270663850318426 0.53876254518758759 0.52091475957987265 0.55463260938288861 0.55248532799662375 0.57701333305500579 0.56046537294709875 0.33813316460635362 0.66787917824905962 0.68952207052648806 0.69404447667490277 0.67362107698912244 0.6515227672301962 0.57000085415408885 0.53423667669844743 0.53491938129884842 0.23304624054436401 0.12789899786485581 0.14381376724339273 0.0026810117808470924 0.0041988587045144986 0.044768534233428241 0.18612533861391076 0.053165722415209386 0.011024920228283303 0.01713597807512364 0.0060912902958463952 0.0056629214199593195 0.028341682942714219 0.037655175244919452 0.019439632795320461 0.043514819131161307 0.10003850955248036 0.059346374044297115 0.17977701032497603 0.12126979992925208 0.60783947777933534 0.23043965070115366 0.39666428002571896 0.97126175267795145 0.96980748739831579 0.97714358454242278 0.96752403060748393 0.95714396192311602 0.85311493152542495 0.93949317776324526 0.93539625033887364 0.8345846483838214 0.49069437859120357 0.70127854176555104 0.98522958609154798 0.98838608453593957 0.97981137877294633 0.98197301522782865 0.97065466709708526 0.99192480536502892 0.99405169605518662 0.99715084123837472 0.99567012562765345 0.99211499729378727 0.99265107613320203 0.99746241199977081 0.96608391949656514 0.9785523840226884 0.9894955911232225 0.97283946911707253 0.98379124674797858 0.98090682241617433 0.98055063799595987 0.97504917466463858 0.9764869635101715 0.96494658432769598 0.95992836420119554 0.95280721629769027 0.9567419361965146 0.94899673897206926 0.94234171184539584 0.93763453056124191 0.9530936612078118 0.97048313088755311 0.97306713022772362 0.95324773095225468 0.98356674675984457 0.97835276022983875 0.98095447910682698 0.99443929173910495 0.97588039365937673 0.96649091443910173 0.95366457132031224 0.94817880479782968 0.95353570842009316 0.9718693993919123 0.97338774660514205 0.97002270449561845 0.95393060613606351 0.96122645652705496 0.96721277804731076 0.99017129466903975 0.99107730594010435 0.98122064410288057 0.98219915208238628 0.98810477917786455 0.99511792803145116 0.98243636463966122 0.98744289870194479 0.99090077750331207 0.99556862012541891 0.98691683100136607 0.99414228297962537 0.98245100845590683 0.99003387121239483 0.9810532997118192 0.99864089657500998 0.97418274153396656 0.97253905505651317 0.98616951502016992 0.99207867563548735 0.97618085385648923 0.96897055468346383 0.98883337801201798 0.99143635785628237 0.98798118745291219 0.99440620484090458 0.99733659596429991 0.99508445563138181 0.99497583304795367 0.99310922845772376 0.99279240190827589 0.99922043354684142 0.99787353581617211 0.99963958213380222 0.99705554025301224 0.99476478352722919 0.99757653660973888 0.99462527208573959 0.9923225261918851 0.98913345492832017 0.98936304336641268 0.98680323503912648 0.98389470640263865 0.98682480953376484 0.98660356071660904 0.99044704273382678 0.98424523103469241 0.99253884902647926 0.99735400692117071 0.99362300109786428 0.99716446070464759 0.99414388931659614 0.99168984098859192 0.98807726044998945 0.99006251542143087 0.98904926130281612 0.99264954460946497 0.98068031624606966 0.98225252308200239 0.98676532827749408 0.96685786210583258 0.9751496443465234 0.97773984108983381 0.98516811982924168 0.98302962725238952 0.97456419855541843 0.954142656966531 0.97992331866863025 0.95078701085588169 0.91377642503034451 0.90961798444850439 0.95003024098930156 0.9736965088199 0.96423920765741322 0.95361232284000708 0.98133526733569743 0.98615707837563737 0.99191812721038586 0.97997548156822933 0.98388078204864848 0.98022228490118413 0.98131696740995511 0.98768542755083621 0.97758821200957047 0.98980127727424039 0.98458888695178426 0.97549887121040801 0.95437631751780105 0.9836087740937951 0.96520318776435343 0.89184346736539211 0.93717367313098987 0.98264340550033491 0.92892882163635382 0.95685877897214189 0.96763273802839944 0.97422565998784538 0.97553102299499317 0.9703312443314398 0.95985245216658543 0.97520763844068559 0.98990048657956642 0.98058734150135518 0.95673934875755307 0.9716330715696887 0.98294785885850455 0.93864021364940797 0.9142574743099936 0.90697196878018338 0.98130047357254768 0.82554761332218818 0.87101734131258368 0.78485407123191553 0.70984155331974996 0.84003864880550205 0.8794492084893204 0.97325240074692454 0.79403461156168387 0.97719882586089435 0.96634495154272182 0.72727708565827298 0.47895768134255218 0.96183199407521158 0.56117843018812685 0.87484474850205718 0.84327748241244604 0.93461374159946087 0.95416180766790193 0.95487226637616662 0.9186301752652315 0.93625427653485982 0.81178722069462439 0.88740316552273146 0.91785517263574379 0.7937679800840205 0.83714569023428775 0.89219521682964786 0.81944771654802517 0.74619449240570201 0.56851438068418603 0.62456331565587297 0.18735110439083302 0.3876024934324851 0.24872338090386548 0.19113072360655536 0.56018636784032405 0.71472142874673372 0.25434614305162573 0.71665085123581429 0.37581675265082415 0.084237243548152152 0.11518629588610316 0.17122401963851253 0.13557530441454912 0.10234800373724817 0.47837992197133883 0.40097581979199104 0.49578178112106963 0.52021393696791174 0.88581107007331461 0.86027453443515545 0.80452194949013811 0.87830986987307513 0.95318967196053883 0.75896851192518144 0.77231411160942742 0.95160844913199205 0.37641483975984535 0.26918556233021285 0.24603948044345902 0.064570503475445962 0.043450240698431987 0.063984722512492515 0.83320447596230429 0.83606224291562947 0.83322864678237563 0.83707240226281954 0.91881267358199536 0.92086728382235361 0.9544340357198573 0.93152826677639045 0.93345534221785487 0.9042329274782821 0.90723850256965155 0.78923033237535423 0.87761959583664773 0.84698602235945541 0.75117082289250126 0.80154804899292631 0.74080766009993315 0.71090391516936879 0.44562136966718202 0.6278108593061329 0.91186286974407182 0.94427700421049976 0.94843128669000243 0.88536042098758305 0.87201960329851036 0.91481543143038857 0.77119840336195178 0.90916787198731253 0.95135724164866176 0.80779599062918572 0.9623563971896606 0.92592465893071452 0.93734009034742161 0.87741321709338527 0.9268155224645831 0.93243592425734889 0.92950672592890782 0.94779160853615485 0.95211111315358066 0.92909067777269594 0.93391228300751483 0.9316096699764469 0.91596458224187416 0.92672566968133541 0.92056546484793778 0.91494854798691949 0.89123130057897293 0.89618814497770916 0.90535020957869539 0.90888876618339709 0.89716950929227146 0.88055588037353494 0.79082587674916227 0.49221620256446835 0.81615642819501799 0.84759873578477984 0.25371118628804423 0.78708359857391641 0.51973436434451092 0.43191558625958554 0.60240114750967311 0.83048241996323213 0.76342367662666399 0.68908172421192493 0.3163313371326294 0.36493895490464645 0.31755831762422021 0.64110673858398703 0.47310949807038344 0.64596099467334889 0.75963158287424104 0.87893450637131154 0.90085573570408783 0.82983894694034743 0.66698914447566771 0.75930561523691997 0.74571502623597752 0.85842089325075677 0.76586223388417451 0.74870517919086632 0.79784560470340327 0.80535838362533174 0.84107618891109204 0.65815045316371767 0.76756883034220436 0.88325837981353494 0.90066136029559485 0.71460477769323671 0.68834201876865153 0.89195224176127552 0.92501174941228481 0.93610110087998277 0.91787699375929621 0.9478250128793787 0.94907309972412091 0.90075123320124129 0.91598702623915851 0.92832315805565502 0.92773510538237669 0.92935865015394548 0.9192736959201746 0.94932246852423141 0.88543538882661887 0.8555904418516076 0.93738719271981763 0.84785777978969801 0.7778581036516502 0.33232289018039907 0.94906837586695769 0.96595739064412145 0.9886911329295347 0.99343993560391075 0.98433164425072917 0.97538546731222153 0.97467565565408587 0.96758753903128025 0.95899683481783726 0.99221684499730767 0.95971874396106038 0.94388879009073068 0.93262328848718457 0.91840478227128508 0.96786761748751504 0.92416401819858585 0.95716179601746743 0.95267459736979898 0.88510313686967224 0.85226035729648653 0.7347685834402703 0.95778868825882413 0.82524662024513695 0.4589734094577923 0.78305671410626032 0.9476347059042951 0.99023626443039903 0.93661862557690645 
</DataArray>
<DataArray type="Float64" Name="B_conc" format="ascii">