<?xml version="1.0"?>
<VTKFile type="UnstructuredGrid" version="0.1" byte_order="LittleEndian">
<UnstructuredGrid>
<Piece NumberOfPoints="316" NumberOfCells="724">
<Points>
<DataArray type="Float64" NumberOfComponents="3" format="ascii">
0 0.69999999999999996 0 0.59999999999999998 0.69999999999999996 0 0 1.6319639930219929 0 0.68142292217753131 2.106313194182027 0 1.299999999998378 1.8499999999973351 0 1.243750000001385 0.69999999999999996 0 0.94999999999923723 1.2749999999987469 0 0 3.7000000000000002 0 0 3.1141786369756268 0 0.45714634023723411 3.4614941897304652 0 0.70993008501830757 2.9054181396964478 0 0 2.430303940964651 0 1.186467289461244 2.488259157846338 0 1.451787781083937 3.11022608666643 0 1.013301616169622 3.6128741719811099 0 2.08333333333292 3.599999999997022 0 2 3 0 1.649999999999066 2.4249999999984651 0 2.2687831884271348 2.397628317379688 0 2.8857059848027808 2.304389417342541 0 2.6000000000000818 2.8399999999999781 0 2.9420158813362729 3.5139475164392531 0 2.4236693135559251 3.5256579194055688 0 2.23284951060374 1.369095413116082 0 1.887500000003292 0.69999999999999996 0 1.626949751997165 1.3978044304614949 0 1.942890303101708 1.90249985684108 0 2.5341028426591712 1.9138806300960609 0 3.16379900756549 1.750659825629856 0 3.047698899035677 1.175177397439602 0 2.730231246675086 1.4599417336750831 0 2.5312500000049418 0.69999999999999996 0 3.1750000000065048 0.69999999999999996 0 3.638214240926366 1.265285427893069 0 3.8187500000045098 0.69999999999999996 0 4.2198317920941601 1.108273596938623 0 4.7733688274428578 1.2511819424194319 0 4.4625000000026009 0.69999999999999996 0 4.6250000000004974 1.8500000000004651 0 4.25 1.5 0 4.0559490150232032 2.028653202947901 0 3.757799744899315 1.759341836734688 0 3.5028943452390711 2.1825773809523441 0 3.2000000000001432 2.679999999999962 0 3.2848100522576571 3.06994577157805 0 3.8000000000002032 2.5199999999999458 0 3.412636880282601 3.6134558579332841 0 3.8190056356267248 3.2454749759848052 0 3.874999999992375 3.7500000000050839 0 4.25 3.5 0 4.5652883261780408 3.549611461603364 0 4.3536256774790401 3.0337160882464551 0 4.75 2.7999999999999998 0 4.4000000000001336 2.3599999999999639 0 5.5 2.7999999999999998 0 5.2499999999996163 2.499999999999539 0 5.0000000000002984 3.5999999999995218 0 4.9131042795799686 3.1639526813742029 0 5.5486111111111649 3.4166666666664391 0 5.2500000000003251 3.1999999999994801 0 5.9166666666663046 3.1999999999996529 0 6.3333333333330009 3.5999999999996799 0 6 3.7999999999999998 0 5.75 2.5 0 6.3749999999999796 2.350000000000005 0 5.8758020027701336 1.829281458631685 0 6.1230253171455891 1.2440604005832661 0 5.75 0.69999999999999996 0 5.5000000000008269 1.1999999999983459 0 5.1062500000012143 0.69999999999999996 0 5 2.2000000000000002 0 5.4251604005540912 2.1458562917259631 0 5.2500000000007052 1.6999999999985891 0 5.3819444444444393 5.7444444444444036 0 4.8969907407407627 5.6240740740739659 0 5 6.2999999999999998 0 5.1289108351881252 6.943051186131636 0 5.5 6.3500000000000014 0 6 6.4000000000000004 0 6.0367063492063266 5.8849206349206353 0 6.25 5.5 0 6.2822169506114909 4.9442489896720572 0 5.75 5.25 0 6.3749999999999352 3.899999999999983 0 6.249999999989754 4.333333333340164 0 5.7499999999897531 4.6666666666734979 0 5.7901785714252867 4.1543650793672633 0 5.6250000000000648 3.899999999999983 0 5.25 4 0 5.2812499999974998 4.480555555557217 0 5.25 5 0 4.8333333333337283 5.2333333333331122 0 4.4166666666668641 5.4666666666665567 0 4.75 4.7000000000000002 0 4.25 4.7999999999999998 0 4.75 4 0 4.7500000000003384 4.3999999999997286 0 4.1250000000089333 4 0 3.625000000001803 4.4499999999997977 0 3.2187500000011142 4.5624999999995248 0 3.5 4 0 3.749999999999261 5.3499999999989658 0 3.5 5 0 3.4166666666672652 5.4000000000003077 0 3.3999999999985642 5.8000000000002396 0 3.6250000000072249 5.9999999999942197 0 4 5.7000000000000002 0 4.25 6.2000000000000011 0 4.4999999999995417 5.9999999999997264 0 4.5 6.6999999999999993 0 3.833430775055819 6.5641729053027689 0 3.25 6.2999999999999998 0 3.3303561509924351 6.9830522680580502 0 2.580520851116443 6.6244224184663167 0 2.799999999997127 5.9000000000004791 0 2.1999999999956921 6.0000000000007194 0 1.599999999997112 6.1000000000004819 0 1.646932375870239 6.6136900344172886 0 2.75 4 0 3.1249999999889848 4 0 3.0833333333345938 4.2666666666658593 0 2.6666666666680592 4.5333333333324424 0 2.8333333333331181 5.0999999999998904 0 2.227678571427079 5.4095242619018373 0 1.75 5 0 2.25 4.7999999999999998 0 1.6874999999994109 4.5249999999997117 0 2.1666666666662731 4.1999999999971616 0 1.1249999999964171 4.2499999999982494 0 1.593428957229921 3.8897035774451321 0 1.042857142856084 4.9670058772507648 0 0 5.1095205703790167 0 0.54607142857014845 4.5325429890369104 0 0 4.3611884975573796 0 0.56249999999824107 3.9749999999991399 0 1.532738095236533 5.6571455714099397 0 1 6.2000000000000002 0 0.59593253968210291 5.8008707178522592 0 0 5.9564815289107864 0 0 6.9150707591630427 0 0.93837900218741932 7.1804089820132404 0 1.1705225977355731 8 0 0 8 0 2.644109419022838 7.3867316522664499 0 1.8128190395187029 7.3536930984991047 0 2.2707825856939472 8 0 4.2771317171003211 8 0 4.75 7.2000000000000002 0 4.045228499335253 7.2019851637643439 0 3.3049975410581078 8 0 6.049840683362258 8 0 5.1909118800994873 8 0 5.8367197674990106 7.1166649360427767 0 6.4684217593582272 7.3531189884776698 0 7.2585497534189534 7.2378318565328508 0 7.616117101574889 8 0 6.8572107462251504 8 0 9 8 0 9.4363260705848777 7.4358468248574452 0 8.8779286709583509 7.1321289214782846 0 8.5625 7.5 0 7.9700743397311431 7.5609350974516802 0 8.3294684777734691 8 0 10.58712006499414 8 0 10.11683562520899 7.1952376222900778 0 9.7322767000115658 8 0 12.75 8 0 11.58504501385041 8 0 12.75 6.9437741439064196 0 12.75 6.038988862336077 0 12.186383928571081 5.6739548845775634 0 11.574999999999131 5.6499999999963926 0 11.9 7 0 11.73749999999942 6.3249999999975941 0 11.09889622188336 7.0112522472967331 0 10.44528068387236 6.4182408893442124 0 11.14723036767284 6.2469725545514123 0 10.917277223084589 5.4813827249950968 0 10.75003341587618 5.9107455977173604 0 10.318895127649739 5.6829040483701769 0 9.75 5.5 0 9.6816900032536655 6.1509933969218187 0 9.9618211858937151 6.6596055842737263 0 10.249999999999989 4.0999999999999979 0 9.75 4 0 9.9378319844489287 4.5341095853144147 0 10.058566397584119 5.1088423539901608 0 10.5 4.7999999999999998 0 10.680373124719701 5.0996881878923999 0 10.875 4.5499999999999998 0 10.462566396889811 4.436821917062888 0 10.75000000000014 4.2000000000000286 0 11.25 4.2999999999999998 0 11.749999999999741 4.3999999999999488 0 11.625000000000339 3.9999999999997291 0 11.412499999999749 4.9749999999989596 0 12.096269132652781 5.0089836801012728 0 12.75 5.2639308761360883 0 12.24999999999979 4.4999999999999574 0 12.75 4.5999999999999996 0 12.75 4.0003174080232462 0 12 3.7000000000000002 0 12.75 3.321597619569264 0 12.75 2.5534237251028711 0 12.044687057114441 2.397006001356599 0 12.143679596734311 3.0238066578277132 0 11.55235714707381 2.7530147867259149 0 11.47885376845919 3.3750712564560699 0 12.75 0.69999999999999996 0 12.01693014330492 1.5940258229091431 0 12.75 1.684005592221304 0 11.44640120743219 2.1177712645927089 0 11.166666666666989 1.49999999999966 0 11.67768621522576 0.69999999999999996 0 11.550000000000001 1.1000000000000001 0 10.730243372206591 0.69999999999999996 0 10.382627631995829 1.3873204946718609 0 10.78333333333231 1.9000000000010699 0 10.106350669919401 1.9180519417420421 0 9.7536823278228866 1.476350104461625 0 9.8931307966635327 0.69999999999999996 0 10.518069334214999 3.694433421516421 0 11.03749999999963 3.7999999999991241 0 10.82499999999963 3.2999999999991241 0 11.09116063133933 2.9444106525201019 0 10.98709224116409 2.4939672194195301 0 10.4 2.2999999999999998 0 10.36597949429223 3.0810719490983871 0 10.612499999999949 2.7999999999998741 0 9.9333333333295304 2.4333333333344198 0 9.9181425014481057 2.833188223635065 0 9.9242224243089208 3.5053525499705862 0 9.3125000000000018 3.6250000000000022 0 8.8750000000000036 3.2500000000000022 0 9.4186530900934855 3.112704842739701 0 9.1699287288289124 2.374148078484497 0 9.4666666666644659 2.5666666666672948 0 9 2.7000000000000002 0 8.4375000000000018 2.8750000000000009 0 8.4999999999999503 2.5999999999999899 0 8 2.5 0 8.25 3.7000000000000002 0 8.7499999999999556 3.7999999999999909 0 8.412499999999941 3.345000000000117 0 9.1535002593721142 0.69999999999999996 0 9.294553589509567 1.3214674021148729 0 8.816324129544423 1.139459074151014 0 8.8002334655075174 1.6758279686386801 0 9.3851273930358641 2.0113077179832741 0 8.8279208556153161 2.2186179292874191 0 8.1666666666661811 1.900000000001745 0 8.3333333333329112 1.3000000000015179 0 8.5 0.69999999999999996 0 7.8125000000000018 0.69999999999999996 0 7.6227778138185824 1.133263353986153 0 7.6816945906127989 1.5894745186858981 0 7.75 2.25 0 7.5 2 0 7 2.2000000000000002 0 6.6325887022434813 1.7109098098422979 0 7.1647318986115511 1.809291393235446 0 7.1613611451472012 1.37684225124335 0 6.6841764304611262 1.174631096497762 0 6.4375000000000027 0.69999999999999996 0 7.1250000000000044 0.69999999999999996 0 7.5 3.7000000000000002 0 7.749999999999754 3.1000000000005912 0 7.4999999999999769 2.349999999999993 0 7.1682741769546334 2.9476245590829571 0 6.4676238242209063 2.8855733497101581 0 6.7300925925924284 3.401388888888814 0 6.75 4 0 6.6887757623921971 4.5124976540268094 0 7.2499999999897531 4.3333333333265021 0 7.749999999989754 4.666666666659836 0 7.9282200727472034 4.1620177469108377 0 7.6417937536871419 5.1654402589958011 0 7.8750000000136362 4.9000000000036366 0 7.5 4.7999999999999998 0 7.2802004846459853 5.1175278771156387 0 7.0073846965074598 5.2778944676064459 0 6.936160960427304 4.89683078406033 0 6.5 5.2999999999999998 0 6.75 5.75 0 6.6249999999998499 6.2000000000000481 0 6.8750000000007789 5.6500000000007269 0 6.518953214484978 6.7704843776901313 0 7.0801824727701241 6.5807936507936633 0 7.6875 6.5 0 7.3577684192630528 5.5086946
[...]
<CellData Scalars="A_conc,B_conc,region_id," Vectors="" Tensors="">
<DataArray type="Float64" Name="A_conc" format="ascii">
0.46579050845465592 0.47340787723433425 0.44802001716800904 0.57242463906001473 0.59534834049841823 0.57826519742134963 0.58595092708544427 0.65971661352627953 0.67920289773644937 0.67068011265185745 0.026628958219596481 0.017297538998319404 0.029171196072163369 0.0089124565736949778 0.67631267311468735 0.70033869091842471 0.66209141520512316 0.70430852368173058 0.67340772094451617 0.71701161787422141 0.66852335653614658 0.6657120656722415 0.68152149786711602 0.73883043701216633 0.72593224414370028 0.72789243465443898 0.7493770224742361 0.43450485914409426 0.76208013775019112 0.78212812764316708 0.57933120367388857 0.79504431055039571 0.53285574657861001 0.40631561983149678 0.80864672395990866 0.75850047763823103 0.74890337658486594 0.26275813145910781 0.48191186524201846 0.58543398858240103 0.71963022815430255 0.81749875266611172 0.63530710222268971 0.67132366361170326 0.5607894938586111 0.51752823768631573 0.55493291237025344 0.069244466271734265 0.047304628625605895 0.055658206797826265 0.084404946670260106 0.17317336327500976 0.098874821683043068 0.23472188307870276 0.12601840116157736 0.16620852603730921 0.34288174954016426 0.48133649331257428 0.4140371659689473 0.23263894888870623 0.264889495298888 0.11910049812365833 0.097090488246694251 0.07044211228547366 0.089448722618324497 0.10435216236506913 0.29399079213975499 0.12299396339277269 0.045422614584329037 0.37567180421093627 0.40882189028247451 0.053921680719758773 0.013138271617010895 0.8287972780564995 0.78398205976205604 0.43438378028742108 0.69899301641392508 0.67888173516885897 0.65147450235008797 0.760613102096799 0.62728765743321613 0.72081928748699675 0.45176313919285244 0.4064175766257781 0.54351689397329761 0.64103801535045268 0.82199041628036085 0.69062896387516703 0.7111102948820176 0.66276354833122619 0.6364336157230327 0.63585611892031635 0.60050202971271638 0.70322666235408027 0.71965056383274439 0.77450496837535054 0.7036102992952995 0.7693388440745399 0.76242625651420826 0.72980670396594349 0.7836198323573782 0.81919008459198561 0.81284434946444484 0.80358223632641845 0.77301829412914391 0.82545322440945768 0.71085187296744923 0.74743014073617198 0.68972115779288168 0.71140348167021838 0.82327216077362486 0.68738333313586064 0.66500028880814943 0.73864764196664645 0.88731243220402944 0.84063514011735974 0.83487192189883974 0.88250824011108986 0.87876698867902181 0.67466880384450612 0.65361871967844642 0.89407821060868942 0.001122371643290596 0.8114298639480424 0.83378948670629871 0.84378252903515705 0.85545797098012988 0.013582537963008647 0.0500585853838049 0.021588229577073063 0.0043419976825990478 0.05853696851063829 0.91940339245457126 0.14490103317323522 0.12593115201765057 0.56334713011912807 0.7047410528060456 0.25962724578489155 0.93383850655444678 0.27284576628770302 0.94390410322466212 0.67695129130347009 0.51284058285740253 0.71406208138398397 0.80590601941924389 0.94884925610750326 0.73858587486176241 0.73263656685202538 0.70802812794695047 0.32389897520853139 0.050715646374239545 0.023736207368836408 0.044785276999333032 0.29231667797859129 0.11386804915281741 0.011374268199115408 0.021878136412615552 0.064056135721743346 0.30141417187800401 0.21801338220900091 0.79340839796832885 0.40713515700569869 0.52715855133764766 0.63423872083283772 0.26157556089849326 0.55316663102548491 0.067541825725977556 0.095661615056731458 0.061761784838692345 0.14772413847639229 0.081890016248289219 0.15184616898118744 0.70600862785251339 0.21370492253488962 0.73660547471930005 0.21424733241984689 0.17825913824920706 0.76319813233211931 0.14419854815066588 0.11067088292892481 0.074737193780752761 0.2386229000564809 0.3278743246169224 0.35731224458877858 0.87128763035658963 0.80945039826410503 0.49726492690555235 0.81162567720192658 0.762420713225201 0.90070514515803424 0.87290368744982816 0.84631371451747228 0.94386174759937014 0.82772991306713573 0.79481634222273401 0.88356920140478268 0.87701258448020236 0.8385225285159964 0.898709010730108 0.82253291661846606 0.80328804338122706 0.85574663576760135 0.75773696068403129 0.65152314811107448 0.460408386282392 0.29773903441430327 0.93461948979797205 0.74977974735676356 0.43988399893117985 0.73382297751492598 0.30055129297435146 0.20729526431320625 0.45702271459532468 0.89433975300798541 0.41533119941833757 0.70152910991605866 0.8893503531254553 0.71993626712224956 0.67190734249894424 0.77589078421965652 0.75872989382893796 0.74076608992630522 0.81940856470684686 0.80730627508715813 0.73759445674580004 0.7419385816494164 0.65989068188187661 0.65062327828511335 0.72070315189316037 0.061329615777679231 0.63084134049920426 0.33669489509064948 0.26757675566870892 0.63464059775920112 0.67549033280653459 0.16338295559342303 0.22409161047491205 0.73796740911981717 0.59876994694704966 0.56486438717152698 0.39547949115979886 0.45766795017854639 0.69357012527061279 0.78421961433719589 0.78876603364009501 0.23463475602368747 0.74781225835073883 0.71042592908521529 0.31899882146543518 0.62563277531323924 0.22266725641046109 0.87759308565901317 0.63065102068295642 0.083571816458609227 0.3455895515772886 0.66338567529678039 0.24715761254576196 0.0073296317092756327 0.016748151385503843 0.21301405054928577 0.16477869346451784 0.057387725961458753 0.086658266645474269 0.021943904728930021 0.015593358987812713 0.32749237633331429 0.43489265406952893 0.21309669749935609 0.31141754972501307 0.61932735026380792 0.57210464339481626 0.77038122256448749 0.68973415265886284 0.61249985849102551 0.75394242612245876 0.65384232274945409 0.70756382519639249 0.66232592385243183 0.73213051459142231 0.56783011884874179 0.3650532633402469 0.42739738112183467 0.49000582902311524 0.24477870313948899 0.28421720217525404 0.075653535390475188 0.6117362408505127 0.60045142712319144 0.56920627600635587 0.70367508800005651 0.66301961927270625 0.53130449783474665 0.75642757509120317 0.6066846334511411 0.57025274544954008 0.76925597721575356 0.63843205234599587 0.61007520741992571 0.6144150720053555 0.60242327763483772 0.59124154279929586 0.34411525523027497 0.72094829443215791 0.75346494485608995 0.71259725871707214 0.71715037460650433 0.75870582161260391 0.77563752685112486 0.7046568343414128 0.6851195393674232 0.70052756947364681 0.69836803663845659 0.70873849237714392 0.58563883840252706 0.5659448433100901 0.60122051102490415 0.58537881517171464 0.58752574152285808 0.57270663850405878 0.53876254518820854 0.52091475958047806 0.55463260938333836 0.5524853279970755 0.57701333305543467 0.56046537294627452 0.33813316460442477 0.66787917824896104 0.68952207052670322 0.69404447667431945 0.67362107698937423 0.65152276723048441 0.57000085415488166 0.53423667669773112 0.53491938129839245 0.23304624054339848 0.12789899786381551 0.14381376724222755 0.0026810117807007051 0.0041988587043055728 0.044768534232948867 0.18612533861148761 0.053165722414746791 0.011024920228064583 0.017135978074819661 0.0060912902955693677 0.00566292141982804 0.028341682942312041 0.037655175244461214 0.019439632795176284 0.043514819130931283 0.10003850955222436 0.059346374044051256 0.17977701032452556 0.12126979992887801 0.60783947777815672 0.23043965070053685 0.39666428002467463 0.97126175267792769 0.96980748739830935 0.97714358454262473 0.96752403060710257 0.95714396192328088 0.85311493152513929 0.93949317776275754 0.93539625033844231 0.83458464838282587 0.49069437858997228 0.70127854176495652 0.9852295860917728 0.98838608453615251 0.97981137877316882 0.98197301522807445 0.97065466709668924 0.99192480536530325 0.99405169605544919 0.99715084123838105 0.99567012562765222 0.99211499729374653 0.99265107613322501 0.99746241199982555 0.96608391949541861 0.97855238402148659 0.9894955911232427 0.97283946911588637 0.98379124674673057 0.98090682241259852 0.9805506379947313 0.97504917466398799 0.97648696350897235 0.96494658432630243 0.95992836419999683 0.95280721629660414 0.9567419361952616 0.94899673897085723 0.94234171184412996 0.9376345305599918 0.95309366120672201 0.97048313088687932 0.97306713022708735 0.95324773095107074 0.98356674675951761 0.97835276022780471 0.98095447910642875 0.99443929173900014 0.97588039365898915 0.96649091443705559 0.95366457131865001 0.94817880479666217 0.95353570841891744 0.97186939938993144 0.97338774660334959 0.97002270449384931 0.9539306061352214 0.96122645652623528 0.96721277804676009 0.99017129466887566 0.99107730593981092 0.98122064410091736 0.98219915207984954 0.98810477917755035 0.995117928031373 0.98243636463969064 0.98744289870176638 0.99090077750342076 0.99556862012563452 0.98691683100141503 0.99414228297977103 0.98245100845583833 0.9900338712122122 0.98105329971212241 0.9986408965752549 0.97418274153338935 0.97253905505586924 0.98616951502034056 0.99207867563540031 0.97618085385507036 0.96897055468197768 0.98883337801219084 0.99143635785626993 0.98798118745293806 0.9944062048410397 0.99733659596435364 0.9950844556314512 0.99497583304791815 0.99310922845767946 0.99279240190831486 0.99922043354703582 0.99787353581621441 0.9996395821339128 0.99705554025303622 0.99476478352722009 0.99757653660978951 0.99462527208582219 0.99232252619195926 0.98913345492831728 0.98936304336630443 0.98680323503906242 0.98389470640261445 0.98682480953380647 0.98660356071655253 0.99044704273377249 0.98424523103498651 0.99253884902645029 0.99735400692119913 0.99362300109793955 0.99716446070455844 0.99414388931643782 0.99168984098837754 0.9880772604498137 0.99006251542150803 0.98904926130288828 0.99264954460956145 0.98068031624628715 0.98225252308212996 0.98676532827757368 0.96685786210569824 0.97514964434656259 0.97773984108980427 0.98516811982900998 0.98302962725237442 0.9745641985532405 0.95414265696545164 0.97992331866855931 0.95078701085517814 0.91377642503034029 0.90961798444825281 0.95003024098919042 0.97369650882007341 0.9642392076574513 0.95361232283997199 0.98133526733570409 0.98615707837545907 0.99191812721026684 0.97997548156828851 0.98388078204857765 0.98022228490106489 0.98131696741008667 0.98768542755089539 0.97758821200963053 0.98980127727429701 0.98458888695176316 0.97549887121023104 0.95437631751854279 0.98360877409318948 0.96520318776465175 0.89184346736623132 0.93717367313210043 0.98264340549964546 0.92892882163704393 0.95685877897222904 0.9676327380284836 0.97422565998774235 0.97553102299518113 0.97033124433178652 0.95985245216712023 0.97520763844117142 0.9899004865795803 0.98058734150126003 0.9567393487585375 0.97163307156998213 0.98294785885804403 0.93864021364986905 0.91425747431024529 0.9069719687807335 0.98130047357209715 0.82554761332529281 0.87101734131380382 0.78485407123602702 0.70984155332490673 0.84003864880565982 0.87944920848977748 0.97325240074673158 0.79403461156127575 0.97719882586050455 0.96634495154250732 0.72727708565752347 0.47895768134563615 0.96183199407494735 0.5611784301977758 0.87484474850614802 0.84327748241419886 0.93461374160443089 0.95416180767338665 0.95487226638031319 0.9186301752675945 0.93625427653651727 0.81178722069425457 0.88740316552273502 0.91785517263584204 0.79376798008344907 0.83714569023352881 0.89219521682977798 0.81944771655184112 0.74619449240611779 0.56851438068745352 0.62456331565635126 0.1873511043920644 0.38760249343472075 0.2487233809014992 0.19113072360774905 0.56018636783894271 0.71472142874594202 0.25434614304800018 0.71665085123473449 0.37581675264593173 0.084237243547874735 0.1151862958838281 0.17122401963582723 0.13557530441646234 0.10234800373907736 0.47837992197332507 0.40097581979495089 0.49578178112320725 0.52021393697006846 0.88581107007346271 0.86027453443230639 0.80452194948963662 0.87830986987318282 0.95318967195998783 0.75896851192444637 0.77231411160857955 0.95160844913113707 0.37641483976249873 0.26918556233189883 0.24603948044489871 0.064570503475987556 0.043450240698490211 0.063984722512361175 0.83320447596564196 0.83606224292082221 0.83322864678765518 0.83707240226685031 0.91881267358283558 0.92086728382297511 0.9544340357194554 0.93152826677952161 0.93345534222238791 0.90423292747888362 0.9072385025703833 0.78923033237786722 0.87761959583742322 0.84698602236049725 0.7511708228952696 0.8015480489963478 0.74080766010450694 0.7109039151740133 0.44562136964474797 0.62781085929739566 0.91186286974414821 0.94427700421075333 0.94843128668999033 0.88536042098742451 0.87201960329852046 0.91481543143045263 0.77119840336817824 0.90916787198718907 0.9513572416484658 0.80779599063494167 0.96235639718908683 0.92592465893078102 0.93734009034733368 0.87741321709897002 0.92681552247043408 0.93243592426315458 0.92950672593896966 0.94779160853549904 0.9521111131525567 0.92909067777334209 0.93391228300760043 0.93160966997675909 0.91596458224218025 0.92672566968162529 0.9205654648513919 0.91494854799040648 0.89123130058133648 0.89618814497848343 0.90535020958211021 0.90888876618428682 0.89716950929243489 0.88055588037399291 0.79082587675069005 0.49221620256273324 0.81615642819621437 0.84759873578517742 0.25371118629405232 0.78708359857474886 0.51973436434347176 0.43191558627132287 0.60240114751423524 0.83048241996690686 0.76342367662735922 0.68908172421713787 0.31633133713016892 0.36493895490334227 0.3175583176237467 0.64110673858283584 0.47310949806949365 0.64596099467265355 0.75963158287390731 0.87893450637041293 0.9008557357035315 0.82983894694433702 0.6669891444802527 0.75930561523916507 0.74571502623569963 0.8584208932501648 0.7658622338858625 0.74870517919077184 0.79784560470599908 0.80535838362795342 0.84107618891515101 0.65815045316452259 0.76756883034212398 0.88325837981264388 0.90066136029460397 0.71460477769364883 0.68834201876920331 0.89195224176043075 0.92501174941131259 0.93610110087895737 0.91787699375822818 0.94782501287822307 0.9490730997231287 0.9007512332002463 0.91598702623804429 0.92832315805447707 0.9277351053811802 0.92935865015260843 0.91927369591883457 0.94932246852259639 0.88543538880944128 0.8555904418419138 0.93738719271838011 0.8478577797890251 0.77785810365211017 0.33232289018096384 0.94906837586588622 0.96595739064319652 0.98869113292904554 0.99343993560378174 0.9843316442501634 0.97538546731170117 0.97467565565403624 0.96758753903085137 0.95899683481680809 0.99221684499741958 0.95971874396067736 0.94388879009536897 0.93262328849171094 0.91840478227621258 0.96786761748662375 0.92416401819920035 0.95716179601633367 0.95267459736916182 0.88510313687368447 0.85226035729522898 0.73476858343906748 0.95778868825894037 0.82524662023802653 0.4589734094603643 0.78305671410423427 0.94763470590385601 0.99023626443044499 0.93661862557596931 
</DataArray>
<DataArray type="Float64" Name="B_conc" format="ascii">