<?xml version="1.0"?>
<VTKFile type="UnstructuredGrid" version="0.1" byte_order="LittleEndian">
<UnstructuredGrid>
<Piece NumberOfPoints="316" NumberOfCells="724">
<Points>
<DataArray type="Float64" NumberOfComponents="3" format="ascii">
0 0.69999999999999996 0 0 8 0 0 3.7000000000000002 0 1.243750000001385 0.69999999999999996 0 0.68142292217753131 2.106313194182027 0 0 1.6319639930219929 0 0 2.430303940964651 0 0.70993008501830757 2.9054181396964478 0 0 3.1141786369756268 0 0.45714634023723411 3.4614941897304652 0 1.013301616169622 3.6128741719811099 0 1.451787781083937 3.11022608666643 0 1.186467289461244 2.488259157846338 0 0.56249999999824107 3.9749999999991399 0 0.59999999999999998 0.69999999999999996 0 2.2687831884271348 2.397628317379688 0 2.4236693135559251 3.5256579194055688 0 2.9420158813362729 3.5139475164392531 0 2.8857059848027808 2.304389417342541 0 3.16379900756549 1.750659825629856 0 2.5341028426591712 1.9138806300960609 0 1.942890303101708 1.90249985684108 0 2.23284951060374 1.369095413116082 0 1.626949751997165 1.3978044304614949 0 1.887500000003292 0.69999999999999996 0 2.5312500000049418 0.69999999999999996 0 2.730231246675086 1.4599417336750831 0 3.047698899035677 1.175177397439602 0 3.1750000000065048 0.69999999999999996 0 0.94999999999923723 1.2749999999987469 0 1 6.2000000000000002 0 1.1249999999964171 4.2499999999982494 0 3.8187500000045098 0.69999999999999996 0 3.638214240926366 1.265285427893069 0 3.5028943452390711 2.1825773809523441 0 3.757799744899315 1.759341836734688 0 4.0559490150232032 2.028653202947901 0 4.7733688274428578 1.2511819424194319 0 4.2198317920941601 1.108273596938623 0 4.4625000000026009 0.69999999999999996 0 5.1062500000012143 0.69999999999999996 0 6.1230253171455891 1.2440604005832661 0 5.8758020027701336 1.829281458631685 0 5.4251604005540912 2.1458562917259631 0 1.299999999998378 1.8499999999973351 0 5.5486111111111649 3.4166666666664391 0 4.9131042795799686 3.1639526813742029 0 4.5652883261780408 3.549611461603364 0 4.3536256774790401 3.0337160882464551 0 3.2848100522576571 3.06994577157805 0 3.8190056356267248 3.2454749759848052 0 3.412636880282601 3.6134558579332841 0 1.75 5 0 1.6874999999994109 4.5249999999997117 0 1.599999999997112 6.1000000000004819 0 1.649999999999066 2.4249999999984651 0 3.625000000001803 4.4499999999997977 0 3.2187500000011142 4.5624999999995248 0 4.1250000000089333 4 0 5.2812499999974998 4.480555555557217 0 5.7901785714252867 4.1543650793672633 0 6.2822169506114909 4.9442489896720572 0 2 3 0 2.25 4.7999999999999998 0 4.8969907407407627 5.6240740740739659 0 2.08333333333292 3.599999999997022 0 2.1666666666662731 4.1999999999971616 0 2.1999999999956921 6.0000000000007194 0 5.3819444444444393 5.7444444444444036 0 6.0367063492063266 5.8849206349206353 0 5.1289108351881252 6.943051186131636 0 3.833430775055819 6.5641729053027689 0 3.3303561509924351 6.9830522680580502 0 2.6000000000000818 2.8399999999999781 0 2.580520851116443 6.6244224184663167 0 1.646932375870239 6.6136900344172886 0 2.6666666666680592 4.5333333333324424 0 2.75 4 0 2.227678571427079 5.4095242619018373 0 2.799999999997127 5.9000000000004791 0 2.8333333333331181 5.0999999999998904 0 1.042857142856084 4.9670058772507648 0 1.593428957229921 3.8897035774451321 0 0.54607142857014845 4.5325429890369104 0 0 4.3611884975573796 0 0 5.1095205703790167 0 3.0833333333345938 4.2666666666658593 0 3.1249999999889848 4 0 0 5.9564815289107864 0 0.59593253968210291 5.8008707178522592 0 1.532738095236533 5.6571455714099397 0 0 6.9150707591630427 0 3.2000000000001432 2.679999999999962 0 3.25 6.2999999999999998 0 1.1705225977355731 8 0 0.93837900218741932 7.1804089820132404 0 1.8128190395187029 7.3536930984991047 0 3.4166666666672652 5.4000000000003077 0 3.3999999999985642 5.8000000000002396 0 3.5 5 0 3.5 4 0 2.644109419022838 7.3867316522664499 0 2.2707825856939472 8 0 3.6250000000072249 5.9999999999942197 0 3.749999999999261 5.3499999999989658 0 3.8000000000002032 2.5199999999999458 0 3.874999999992375 3.7500000000050839 0 4 5.7000000000000002 0 4.25 3.5 0 4.25 4.7999999999999998 0 4.25 1.5 0 4.25 6.2000000000000011 0 4.4999999999995417 5.9999999999997264 0 4.4166666666668641 5.4666666666665567 0 4.6250000000004974 1.8500000000004651 0 4.4000000000001336 2.3599999999999639 0 4.75 7.2000000000000002 0 4.5 6.6999999999999993 0 4.75 4 0 4.75 4.7000000000000002 0 4.7500000000003384 4.3999999999997286 0 4.75 2.7999999999999998 0 5 6.2999999999999998 0 4.8333333333337283 5.2333333333331122 0 5 2.2000000000000002 0 5.0000000000002984 3.5999999999995218 0 5.25 5 0 5.5000000000008269 1.1999999999983459 0 5.25 4 0 5.5 6.3500000000000014 0 5.2500000000003251 3.1999999999994801 0 5.2500000000007052 1.6999999999985891 0 5.2499999999996163 2.499999999999539 0 5.5 2.7999999999999998 0 5.7499999999897531 4.6666666666734979 0 5.75 0.69999999999999996 0 5.75 5.25 0 5.6250000000000648 3.899999999999983 0 5.75 2.5 0 5.9166666666663046 3.1999999999996529 0 6.3749999999999796 2.350000000000005 0 6 3.7999999999999998 0 6 6.4000000000000004 0 4.2771317171003211 8 0 3.3049975410581078 8 0 4.045228499335253 7.2019851637643439 0 6.3749999999999352 3.899999999999983 0 6.249999999989754 4.333333333340164 0 6.3333333333330009 3.5999999999996799 0 6.25 5.5 0 5.1909118800994873 8 0 6.049840683362258 8 0 5.8367197674990106 7.1166649360427767 0 6.4684217593582272 7.3531189884776698 0 6.6249999999998499 6.2000000000000481 0 6.8572107462251504 8 0 6.5 5.2999999999999998 0 7.616117101574889 8 0 7.2585497534189534 7.2378318565328508 0 6.75 4 0 7.9700743397311431 7.5609350974516802 0 8.8779286709583509 7.1321289214782846 0 9.4363260705848777 7.4358468248574452 0 6.75 5.75 0 8.3294684777734691 8 0 6.8750000000007789 5.6500000000007269 0 7 2.2000000000000002 0 7.2499999999897531 4.3333333333265021 0 7.25 6 0 7.5 3.7000000000000002 0 7.4999999999999769 2.349999999999993 0 7.5 4.7999999999999998 0 7.5 2 0 7.6500000000000004 6.2000000000000002 0 7.75 2.25 0 7.749999999999754 3.1000000000005912 0 7.749999999989754 4.666666666659836 0 7.6875 6.5 0 7.75 5.5 0 7.8750000000136362 4.9000000000036366 0 8.125 7 0 8 2.5 0 8.1666666666661811 1.900000000001745 0 8.3333333333329112 1.3000000000015179 0 8 5.25 0 8.25 5 0 8.25 3.7000000000000002 0 8.4375000000000018 2.8750000000000009 0 8.4999999999999503 2.5999999999999899 0 8.5625 7.5 0 8.5 0.69999999999999996 0 8.7499999999999982 4.6666666666666679 0 8.7499999999999556 3.7999999999999909 0 8.625 5.25 0 8.75 5.166666666666667 0 9 8 0 8.8750000000000036 3.2500000000000022 0 9 5.5 0 9 2.7000000000000002 0 9.25 5.333333333333333 0 9.25 4.3333333333333339 0 10.58712006499414 8 0 9.3125000000000018 3.6250000000000022 0 9.2500000000000728 3.900000000000015 0 9.7322767000115658 8 0 10.11683562520899 7.1952376222900778 0 9.4666666666644659 2.5666666666672948 0 11.58504501385041 8 0 12.75 6.9437741439064196 0 9.75 5.5 0 9.9333333333295304 2.4333333333344198 0 9.75 4 0 12.186383928571081 5.6739548845775634 0 12.75 6.038988862336077 0 12.75 5.2639308761360883 0 12.096269132652781 5.0089836801012728 0 12.75 4.0003174080232462 0 10.680373124719701 5.0996881878923999 0 10.462566396889811 4.436821917062888 0 9.9378319844489287 4.5341095853144147 0 10.058566397584119 5.1088423539901608 0 10.249999999999989 4.0999999999999979 0 9.6816900032536655 6.1509933969218187 0 10.318895127649739 5.6829040483701769 0 10.917277223084589 5.4813827249950968 0 11.14723036767284 6.2469725545514123 0 10.75003341587618 5.9107455977173604 0 10.44528068387236 6.4182408893442124 0 11.09889622188336 7.0112522472967331 0 9.9618211858937151 6.6596055842737263 0 9.5164239722228405 6.8348750909827052 0 10.4 2.2999999999999998 0 10.5 4.7999999999999998 0 9.1030890763140047 6.5321818396608462 0 9.3303864350508938 5.6813923661908907 0 8.970242172000809 5.9226351006993019 0 8.4972876044463757 5.8311422148541041 0 8.0796282337786849 6.311844367667188 0 8.6126164010124153 6.4595270667143572 0 10.75000000000014 4.2000000000000286 0 10.612499999999949 2.7999999999998741 0 6.518953214484978 6.7704843776901313 0 7.0801824727701241 6.5807936507936633 0 7.3577684192630528 5.5086946576740887 0 7.9635986863599726 5.855288607768216 0 7.612180670462922 5.8137861955531047 0 10.875 4.5499999999999998 0 10.82499999999963 3.2999999999991241 0 11.03749999999963 3.7999999999991241 0 10.78333333333231 1.9000000000010699 0 7.6417937536871419 5.1654402589958011 0 7.2802004846459853 5.1175278771156387 0 7.0073846965074598 5.2778944676064459 0 6.936160960427304 4.89683078406033 0 6.6887757623921971 4.5124976540268094 0 7.9282200727472034 4.1620177469108377 0 8.6312122071040278 4.1551278659605089 0 8.2402653769809682 4.5238773148127134 0 8.180981048467725 5.4477384704370531 0 9.3812574935583886 4.9465914098774082 0 11.166666666666989 1.49999999999966 0 11.550000000000001 1.1000000000000001 0 11.412499999999749 4.9749999999989596 0 11.25 4.2999999999999998 0 9.4186530900934855 3.112704842739701 0 9.1699287288289124 2.374148078484497 0 8.412499999999941 3.345000000000117 0 6.7300925925924284 3.401388888888814 0 7.1682741769546334 2.9476245590829571 0 6.4676238242209063 2.8855733497101581 0 11.9 7 0 11.749999999999741 4.3999999999999488 0 11.625000000000339 3.9999999999997291 0 11.73749999999942 6.3249999999975941 0 11.574999999999131 5.6499999999963926 0 7.6816945906127989 1.5894745186858981 0 6.6325887022434813 1.7109098098422979 0 7.1647318986115511 1.809291393235446 0 7.1613611451472012 1.37684225124335 0 6.6841764304611262 1.174631096497762 0 6.4375000000000027 0.69999999999999996 0 7.1250000000000044 0.69999999999999996 0 7.6227778138185824 1.133263353986153 0 7.8125000000000018 0.69999999999999996 0 8.8002334655075174 1.6758279686386801 0 8.8279208556153161 2.2186179292874191 0 9.3851273930358641 2.0113077179832741 0 9.294553589509567 1.3214674021148729 0 8.816324129544423 1.139459074151014 0 9.1535002593721142 0.69999999999999996 0 12.24999999999979 4.4999999999999574 0 9.8931307966635327 0.69999999999999996 0 12.75 8 0 12 3.7000000000000002 0 9.75368232782
[...]
<CellData Scalars="A_conc,B_conc,region_id," Vectors="" Tensors="">
<DataArray type="Float64" Name="A_conc" format="ascii">
0.15526046362259482 0.00032216709790186375 0.00088189993900124829 5.7585381760654574e-14 1.7554291366549839e-11 1.1398195458815922e-12 0.00703336227793848 2.6064794456856066e-12 0.029701577877478281 0.012347561522797085 0.0021066276841939483 0.00059470990319896832 0.0015880591593876619 0.00032428247149277436 0.00033337176397246651 7.0499161411882535e-05 6.3452379158173406e-05 0.00021782122082809928 0.0011531873063882275 0.0033475751877663548 0.0097402708366101376 0.012418765572128329 0.0052330977798823505 0.033265368616867019 0.0026268026957844371 2.3509749823178772e-06 2.7308845339049889e-05 0.066831916382987661 0.076854846554037293 0.026425938796975024 0.00028392789822520906 0.0075267081578146433 0.0021541585944807088 0.0047313356350614389 0.00076934694087669086 0.00019227349251593769 3.8719113017741317e-05 0.017295176969759234 0.062039661067196217 0.00016616153810218424 0.00098504437648262266 8.3038690736854663e-05 1.3233140467772237e-05 6.5461489859081426e-07 7.6801125944302747e-08 1.8322939771508393e-06 1.7855632475140802e-07 1.8222087683241234e-08 1.207845616661301e-09 5.4068602402909396e-11 6.8130898154491862e-10 8.3326788935445943e-09 2.5798900327163555e-10 3.0758898370291605e-09 2.4533965471606515e-07 3.4185186298416117e-08 3.6808319987417893e-06 1.1080578796383102e-07 0.016606228836884413 8.9880067462341655e-07 5.0810601419591171e-06 0.16613681634887531 3.0660523781945694e-05 1.652131073159051e-05 0.00011924303182503086 0.00045710886226180326 0.019358829345757441 0.0022433252687868717 0.00057028528151888114 0.012993824253405013 0.0047550298830657325 0.051517102237317883 0.12203559175904194 0.0051206415247956969 0.0017841063789258362 0.00047152223091853342 9.2259659771659651e-06 2.7622199621192134e-08 4.9142716811434643e-05 2.5618561863034244e-07 4.7726904041421046e-06 1.0578219168527177e-07 1.0952472669744805e-05 7.069838645622235e-07 0.001824857124770323 0.0048248675211970708 0.050208174886619043 0.06784796467213583 0.042035914615493421 0.0052625319832405731 0.0082939032191935609 0.00061966520988648941 0.012841263939855905 0.003147966375350089 0.019029494967302232 0.055996906379235205 0.17631776305215768 0.062573461702445543 0.088228476522407645 0.14467603296593609 0.10837486477049052 0.29337353183604209 0.056027343323285156 0.020655427667024454 0.013742027524791959 0.0030337191356916366 0.0011999085991229717 0.00061516518977963513 0.0004645962152228414 0.0023726802960364942 0.0037855678595875675 0.0089142369837964044 4.9807401858186667e-05 1.2121541287859255e-07 3.5770346444913703e-06 4.5385455864721927e-05 2.3339885494751616e-06 0.11032416675954751 0.062088076714742854 5.2545437494513409e-09 0.032603926448283936 0.01838645425034879 0.0068581227525565079 0.011412009928315908 0.0098827754826327635 0.030929947319769481 0.018704333117447212 0.044904325418732238 0.05839128945170069 0.087450381240858216 0.053402872900641635 0.049083953339972494 0.025649781510891527 0.0095641194282086121 0.014019901582564843 0.0040633987112980241 0.072109189390803463 0.00084983728531813217 0.003250664064048836 0.0048478254841916677 0.0013566875508961257 0.00046048104126139913 7.5544529477544959e-05 0.15664623566950159 0.0024453156817162607 0.18492236711597232 0.13086617464871914 2.2259492353765923e-08 0.0069071573376193497 0.0029628116167502712 0.0013245880257073861 0.00048695879462194952 1.5443238617701132e-07 1.6579096672418801e-06 0.0029828096675575478 0.00052096527321956695 0.0023479323483073487 0.0082060980962838856 0.08405852142537415 0.019239472087547133 0.043926624243841028 0.015769704679727114 0.033944968975203285 0.046886356566264636 0.084929795314670847 0.071149340001125189 0.032815108628895084 0.073070269119038966 0.21755823618343589 0.25691206312734738 0.17925681305326113 0.3470818721804555 0.060554659711694936 0.021370182294998458 0.060889913378417024 0.023129476094748486 0.0068031835016537385 0.010495519520955666 0.045620209091638803 4.1216133579930137e-05 0.0056865215918646111 0.0055953924317612026 2.6738359886587606e-05 5.085658893497604e-06 0.16759994179156207 0.049827834346351269 0.051347883844082468 0.098815004352499652 0.23282603184099016 0.16321176089153414 3.4640842053287333e-07 4.0191792754972344e-08 5.3424138462641111e-08 8.9271979300632197e-06 6.5319411660130235e-05 8.6643714888844157e-05 1.4990028325832759e-06 1.1753311901554931e-07 5.437895131483997e-07 4.2973191427186639e-05 7.2936563879206617e-06 5.5707653017805344e-06 2.180649665569342e-05 2.2706036958299897e-06 1.598193898663685e-07 3.7672153671479561e-07 2.6120281813570188e-05 0.00025294759177642778 8.1594552671107292e-06 1.1211590707229409e-06 0.021067844551938136 0.0070401437494808147 0.00048307553602534989 3.9542457567505249e-07 0.011726476764159445 0.04229487369830244 0.2355768868910102 1.3470122750046792e-06 0.13659790670731728 0.19607973419408073 0.050988068585141696 0.0025933370605875617 0.0096328555940860539 4.8092296077045849e-06 0.24836001684390546 0.000264931312483567 2.3247329694849156e-05 0.3274555278042528 0.0013395251209080495 0.0037577678514211037 0.021246124537043776 0.059520413066046385 0.081189238532336089 0.037675684251472878 0.092366838980316002 0.06110162040003999 0.029919807760007161 0.077727791116120021 0.10755316297278913 0.046372223338852644 0.043157675371645006 1.4394045614596254e-05 0.00031299885789491238 7.0368720364754055e-05 0.00011375759380431852 1.1072422950805009e-06 1.7992742760970044e-08 1.845814897602526e-05 0.00012221540482261373 1.9486927257198588e-06 0.02456527690098528 0.035822148983036373 0.010794355785486182 0.068568920842051462 0.023723270281124267 0.016318885616988965 1.1499907025100692e-06 0.34692637884754485 0.27592953676434684 0.0070316030543039979 0.0056099525141231751 7.4551736727262609e-05 0.31480596417353246 0.0296268269011449 0.034932963224051886 0.0036967674816382298 0.0019534696466218708 0.00061597947876696141 0.020279031150931631 0.034246297852882787 0.021908794926546991 0.018279997054595321 0.0030140552119791338 0.0016443175901734359 0.0045284882904496043 0.0012860923908841514 0.010260693910780806 0.048267149904333784 0.025610083352663938 0.013537828650489192 0.038918981400499389 0.001114994133263921 0.0045198182948873698 0.0016662757952649195 0.31308014164616027 2.6881113095876304e-06 2.4178097814300758e-05 0.038162559770768371 0.00023640625623313707 0.00037070053731486796 0.00012325047101816874 5.9458506455464026e-07 3.7892891415445598e-06 5.3316292902144544e-05 5.1439029996731238e-08 6.6721973336137425e-09 0.35129234583405022 1.5003011290777697e-05 1.2048462392922453e-05 0.36112333972901234 0.17541735377468057 0.00044582332079261006 0.0013389146836869092 0.00028488885681832176 0.5365996647679725 0.34324306702951723 0.043548849308077009 0.0012320333083770849 0.36732265207364501 0.55088340970043681 3.5103770463962304e-06 0.075195187173361072 0.00029069648538035202 0.032047800824590918 0.21269532206330599 0.56018293623167814 0.00030094231928172086 0.16288440627741352 0.0073360768806803468 0.05794938503487046 0.1749458059519815 0.00042401571457873714 0.068772398294966494 0.42079167269173479 0.00066956678831352103 5.5028692885119115e-05 0.00039424551064731696 0.32965725716819183 0.6117884627417367 0.43905539676414596 0.41665593857938787 1.1886382460623242e-06 0.50456673392602458 0.0013293318593411729 0.010510461473056057 0.53326073891741155 0.00069762023348803449 0.52094035409500195 0.028619021857052139 0.63837128565203605 0.0024791554610067391 2.3569233653060967e-11 2.9679195404160286e-07 3.5391529953309176e-10 3.2795145538669943e-09 0.60740383304036061 3.4535180507328983e-08 1.9647201998294598e-07 1.4805122909963194e-09 9.6213528411908394e-11 2.632726216668796e-08 3.1274489236869808e-07 0.6440570832691408 0.5389341189560013 0.08735849362591952 0.0006291374074819259 0.011410199027936597 0.65402936470953876 1.0326073490995463e-07 7.4639140402751715e-09 1.6497272504979934e-05 1.3579214410506904e-06 0.00020425737045271877 0.0022150733917770532 7.0583068460950679e-05 0.00070376057829033261 0.0053985165323850205 0.041646625069160531 0.13165165319831057 0.31916255714527608 0.17721985504947035 0.13582573958408931 0.019174161160034314 0.0010532181724984581 0.66222337557504574 0.0048980297932437805 0.0015384751679280342 0.69993492726708606 0.021293664463680702 0.55168206444042101 0.32835403021552917 0.0044528905961675469 0.10244877258278237 0.095219336573124175 0.41497910796747639 0.56145789651459332 0.33736515600704864 0.41909534352546551 0.52024077444576577 0.73549155014625911 0.67227917693856565 0.68976562098896177 9.4018756871031527e-06 5.0954618041386962e-05 0.67863889508693309 0.015429949437322014 1.1052863319161843e-05 0.2896576467084393 0.73037519830297271 0.86293560237277322 0.27080727602320254 0.0050211282934452921 0.54797090949119842 0.040387238514763134 0.010306052175916397 0.88791966325614924 0.018388532391489864 0.63697315914266173 0.78103280716024881 0.024006671953292816 0.84480296443377867 0.83850283869527975 0.90369173817939685 0.57204147615748102 0.57876901656690094 0.45893816952630273 0.20633888502777842 0.74680405457504584 0.871888813236121 0.95587123825799214 0.97539707521184804 0.99138641644222192 0.98315188172772205 0.59329599240706088 0.94413775400076516 0.7175221014249461 0.60444721263673107 0.89214732957478882 0.35371561673927521 0.2066432681934543 0.95335555088084134 0.99685562622390611 0.98585203199235449 0.99125425136785184 0.99650830100345433 0.99765439139112155 0.98134309806814901 0.99021744393683631 0.97852121266315528 0.97463706787601201 0.60381237022305079 0.94662830722467239 0.41846688555642403 0.79388025366154147 0.89025198233144753 0.95352955294764219 0.86100620645480075 0.25923979422069909 0.91508447023194772 0.61331620843045087 0.18915348643379409 0.12012876150606822 0.40050966812707417 0.4682045514626455 0.30092229942510623 0.86659365152750378 0.8738628319523648 0.80679944393952063 0.68006256215525118 0.81833713421982779 0.83673520503071352 0.65543442564551535 0.5748877316295995 0.72008945512242928 0.62880800753394062 0.46053826206188542 0.29431781520912192 0.41979780498036329 0.12195999602637639 0.16179526948296852 0.1587584225843568 0.059366474454462602 0.043149446853852025 0.056760796064725498 0.070123168212503723 0.12750503278630143 0.19273774690760037 0.10528991326122361 0.37899960641574182 0.44826895047009374 0.30619571659607303 0.1034739971612284 0.091623579942000613 0.22371052164593375 0.27584101874059003 0.80934138263977551 0.92400218889217833 0.6759327675621819 0.75044529582252506 0.047938261840506813 0.023641558640902682 0.011165645252335005 0.057558643416545895 0.024890520761275452 0.021089486927263805 0.026019838952954434 0.014535619917989647 0.0058759020806219142 0.012441916241429991 0.001994155749695331 0.0047462607217035827 0.016610084122556074 0.0044023547136129012 0.01072528606554151 0.0033203618890250879 0.0030716456792649225 0.010646268148899579 0.00035203974549294511 0.0014810418160827322 0.0013354957299954631 0.00013881906647708652 3.8586411064318793e-05 3.9398188291505351e-06 2.9753436336434904e-05 7.1861256370828153e-05 0.00022849218458097803 0.00020630874582489061 1.6902795194133351e-05 0.016822742314187865 0.0050033571986059112 0.10685443173925038 0.00059756733532192173 0.17436216694468087 0.00089581264327708845 0.088472797116391388 0.0021395280779235005 0.10683745746101816 0.23002958778530297 0.20454888292815002 0.23168070003489818 0.90410163487537354 0.85887667457849881 0.87814049534796312 0.92711613448118246 0.4201561098104446 0.44403544992306798 0.38282888960249117 0.59190647017476605 0.62653283418810402 0.45938556014316156 0.43628427799801156 0.38399955778325601 0.27020107250974035 0.31352728494804838 0.25142886475203896 0.16275431871257509 0.19911296923318389 0.11090945617914962 0.081491097362463905 0.073268860341560854 0.17844963387543999 0.29853108948380846 0.12524724388200137 0.22619005028495898 0.42576886530282099 0.0071768143590881274 0.34514919943382361 0.017183080939728985 0.3927754708738167 0.4906567739985549 0.015702134544367179 0.16050510693154751 0.087323847025835205 0.19338229419422248 0.044326259610485752 0.03635293760943694 0.63821316259371808 0.15309063361197503 0.40574327604112748 0.37612483381412376 5.5832726160779684e-05 0.09606646794421056 0.036291566654637737 0.077698663759632663 0.053490708937512441 0.000781484452626259 0.0031526256681083924 0.11710167775499222 0.25440543777405594 0.15227032350101674 0.31806965805991971 0.4943814394640208 0.47158305141135637 0.73548226738128819 0.55908208223859668 0.44904724186315337 0.34255817219449858 0.99573015007781551 0.5710072034754673 0.55358448653504078 0.4518772632061554 0.27608485130211485 0.058676886321379608 0.021982894701788668 0.03532335750760221 0.081081166053515563 0.063089104627578038 0.014316079132956478 0.033752662407564929 0.012536248786411942 0.0042749295996208619 0.0013672452345460037 0.00035026067640762682 0.00085172493719312778 0.093751170249030485 0.081940039291127351 0.071078461484457317 0.13989896978284436 0.19026731820119658 0.14671062385996603 0.26737572685323074 0.034875581707884698 0.032418962206035268 0.065316355355817646 0.006815296898610386 0.0029232358242179345 0.045967206634045972 0.0072745339004421945 0.027661498538458819 0.018041201750178072 0.037693660581150076 0.082808880416381098 0.17891478488080581 0.18877977522574513 0.30721636929273927 0.31697872756956047 0.53028636188724865 0.61379045218280859 0.70374082081805889 0.16491967000220498 0.049659785186105455 0.024385718460083021 0.012689499846312319 0.0042472405988744823 0.083638875206711066 0.13938232536854162 0.045213156070930835 0.094307122846202879 0.001442387147931005 0.00033617993193306922 8.9714006565711044e-05 3.8797601714938847e-06 2.213308661895799e-07 1.1839426466308237e-06 1.1993683081685861e-07 4.4519576871534699e-06 3.3724610688062393e-05 0.00012291768694199363 6.8053883743016742e-07 1.3520931096840211e-06 0.00018482419376404413 0.00018578439256027523 0.00049324099318547856 0.066639379054554082 0.0026503135143551271 0.0014309830889957455 0.00014185609478202857 0.0022123915598904857 0.0050148134803470711 0.042878155633869028 0.0080164874932605965 0.00078184519652047522 0.00090556469926203367 0.0042199740728564739 0.012688123362404439 0.99902667590184957 0.048716881017648775 0.11728351292448903 0.27724713017467517 0.8179035219718096 0.59420915081589065 0.12974659898185048 0.74388319466026243 0.30108920717619542 0.63410338722675474 0.45796393929372081 0.071129968796678558 0.16426962518338195 0.04283085015925242 0.012184845507933445 0.088668999657636693 0.10798141601179814 0.16461055967537874 0.41389680075012114 0.28794470462177901 0.47730503068927643 0.07846773479738052 0.14537740888083667 0.14880879965478927 0.3089809706119937 0.4588239355632513 0.42484187518562877 0.28157081276429219 0.63114365311023668 0.47473664489202239 0.7589174969861342 0.68270991052198249 0.53338848335659783 0.471104066028107 0.70648194284449506 0.33070147918957671 0.82805194507875657 0.99961733958353771 0.91446624529312504 0.97128126206115328 0.90558487056183956 0.82836008131380168 0.68346631295726334 0.81594248428731642 0.94717225740158373 0.97465261326368702 0.98897370450209154 0.99548386664415789 0.99712244840812925 0.98789764553873338 0.99592588853043118 0.98311355257547972 0.95910296914808635 0.86446323592304752 0.89018089527862898 0.96741810190512667 0.92611819146237462 0.97464988479837977 0.99656002911222663 
</DataArray>
<DataArray type="Float64" Name="B_conc" format="ascii">