<?xml version="1.0"?>
<VTKFile type="UnstructuredGrid" version="0.1" byte_order="LittleEndian">
<UnstructuredGrid>
<Piece NumberOfPoints="316" NumberOfCells="724">
<Points>
<DataArray type="Float64" NumberOfComponents="3" format="ascii">
0 0.69999999999999996 0 0 8 0 0 3.7000000000000002 0 1.243750000001385 0.69999999999999996 0 0.68142292217753131 2.106313194182027 0 0 1.6319639930219929 0 0 2.430303940964651 0 0.70993008501830757 2.9054181396964478 0 0 3.1141786369756268 0 0.45714634023723411 3.4614941897304652 0 1.013301616169622 3.6128741719811099 0 1.451787781083937 3.11022608666643 0 1.186467289461244 2.488259157846338 0 0.56249999999824107 3.9749999999991399 0 0.59999999999999998 0.69999999999999996 0 2.2687831884271348 2.397628317379688 0 2.4236693135559251 3.5256579194055688 0 2.9420158813362729 3.5139475164392531 0 2.8857059848027808 2.304389417342541 0 3.16379900756549 1.750659825629856 0 2.5341028426591712 1.9138806300960609 0 1.942890303101708 1.90249985684108 0 2.23284951060374 1.369095413116082 0 1.626949751997165 1.3978044304614949 0 1.887500000003292 0.69999999999999996 0 2.5312500000049418 0.69999999999999996 0 2.730231246675086 1.4599417336750831 0 3.047698899035677 1.175177397439602 0 3.1750000000065048 0.69999999999999996 0 0.94999999999923723 1.2749999999987469 0 1 6.2000000000000002 0 1.1249999999964171 4.2499999999982494 0 3.8187500000045098 0.69999999999999996 0 3.638214240926366 1.265285427893069 0 3.5028943452390711 2.1825773809523441 0 3.757799744899315 1.759341836734688 0 4.0559490150232032 2.028653202947901 0 4.7733688274428578 1.2511819424194319 0 4.2198317920941601 1.108273596938623 0 4.4625000000026009 0.69999999999999996 0 5.1062500000012143 0.69999999999999996 0 6.1230253171455891 1.2440604005832661 0 5.8758020027701336 1.829281458631685 0 5.4251604005540912 2.1458562917259631 0 1.299999999998378 1.8499999999973351 0 5.5486111111111649 3.4166666666664391 0 4.9131042795799686 3.1639526813742029 0 4.5652883261780408 3.549611461603364 0 4.3536256774790401 3.0337160882464551 0 3.2848100522576571 3.06994577157805 0 3.8190056356267248 3.2454749759848052 0 3.412636880282601 3.6134558579332841 0 1.75 5 0 1.6874999999994109 4.5249999999997117 0 1.599999999997112 6.1000000000004819 0 1.649999999999066 2.4249999999984651 0 3.625000000001803 4.4499999999997977 0 3.2187500000011142 4.5624999999995248 0 4.1250000000089333 4 0 5.2812499999974998 4.480555555557217 0 5.7901785714252867 4.1543650793672633 0 6.2822169506114909 4.9442489896720572 0 2 3 0 2.25 4.7999999999999998 0 4.8969907407407627 5.6240740740739659 0 2.08333333333292 3.599999999997022 0 2.1666666666662731 4.1999999999971616 0 2.1999999999956921 6.0000000000007194 0 5.3819444444444393 5.7444444444444036 0 6.0367063492063266 5.8849206349206353 0 5.1289108351881252 6.943051186131636 0 3.833430775055819 6.5641729053027689 0 3.3303561509924351 6.9830522680580502 0 2.6000000000000818 2.8399999999999781 0 2.580520851116443 6.6244224184663167 0 1.646932375870239 6.6136900344172886 0 2.6666666666680592 4.5333333333324424 0 2.75 4 0 2.227678571427079 5.4095242619018373 0 2.799999999997127 5.9000000000004791 0 2.8333333333331181 5.0999999999998904 0 1.042857142856084 4.9670058772507648 0 1.593428957229921 3.8897035774451321 0 0.54607142857014845 4.5325429890369104 0 0 4.3611884975573796 0 0 5.1095205703790167 0 3.0833333333345938 4.2666666666658593 0 3.1249999999889848 4 0 0 5.9564815289107864 0 0.59593253968210291 5.8008707178522592 0 1.532738095236533 5.6571455714099397 0 0 6.9150707591630427 0 3.2000000000001432 2.679999999999962 0 3.25 6.2999999999999998 0 1.1705225977355731 8 0 0.93837900218741932 7.1804089820132404 0 1.8128190395187029 7.3536930984991047 0 3.4166666666672652 5.4000000000003077 0 3.3999999999985642 5.8000000000002396 0 3.5 5 0 3.5 4 0 2.644109419022838 7.3867316522664499 0 2.2707825856939472 8 0 3.6250000000072249 5.9999999999942197 0 3.749999999999261 5.3499999999989658 0 3.8000000000002032 2.5199999999999458 0 3.874999999992375 3.7500000000050839 0 4 5.7000000000000002 0 4.25 3.5 0 4.25 4.7999999999999998 0 4.25 1.5 0 4.25 6.2000000000000011 0 4.4999999999995417 5.9999999999997264 0 4.4166666666668641 5.4666666666665567 0 4.6250000000004974 1.8500000000004651 0 4.4000000000001336 2.3599999999999639 0 4.75 7.2000000000000002 0 4.5 6.6999999999999993 0 4.75 4 0 4.75 4.7000000000000002 0 4.7500000000003384 4.3999999999997286 0 4.75 2.7999999999999998 0 5 6.2999999999999998 0 4.8333333333337283 5.2333333333331122 0 5 2.2000000000000002 0 5.0000000000002984 3.5999999999995218 0 5.25 5 0 5.5000000000008269 1.1999999999983459 0 5.25 4 0 5.5 6.3500000000000014 0 5.2500000000003251 3.1999999999994801 0 5.2500000000007052 1.6999999999985891 0 5.2499999999996163 2.499999999999539 0 5.5 2.7999999999999998 0 5.7499999999897531 4.6666666666734979 0 5.75 0.69999999999999996 0 5.75 5.25 0 5.6250000000000648 3.899999999999983 0 5.75 2.5 0 5.9166666666663046 3.1999999999996529 0 6.3749999999999796 2.350000000000005 0 6 3.7999999999999998 0 6 6.4000000000000004 0 4.2771317171003211 8 0 3.3049975410581078 8 0 4.045228499335253 7.2019851637643439 0 6.3749999999999352 3.899999999999983 0 6.249999999989754 4.333333333340164 0 6.3333333333330009 3.5999999999996799 0 6.25 5.5 0 5.1909118800994873 8 0 6.049840683362258 8 0 5.8367197674990106 7.1166649360427767 0 6.4684217593582272 7.3531189884776698 0 6.6249999999998499 6.2000000000000481 0 6.8572107462251504 8 0 6.5 5.2999999999999998 0 7.616117101574889 8 0 7.2585497534189534 7.2378318565328508 0 6.75 4 0 7.9700743397311431 7.5609350974516802 0 8.8779286709583509 7.1321289214782846 0 9.4363260705848777 7.4358468248574452 0 6.75 5.75 0 8.3294684777734691 8 0 6.8750000000007789 5.6500000000007269 0 7 2.2000000000000002 0 7.2499999999897531 4.3333333333265021 0 7.25 6 0 7.5 3.7000000000000002 0 7.4999999999999769 2.349999999999993 0 7.5 4.7999999999999998 0 7.5 2 0 7.6500000000000004 6.2000000000000002 0 7.75 2.25 0 7.749999999999754 3.1000000000005912 0 7.749999999989754 4.666666666659836 0 7.6875 6.5 0 7.75 5.5 0 7.8750000000136362 4.9000000000036366 0 8.125 7 0 8 2.5 0 8.1666666666661811 1.900000000001745 0 8.3333333333329112 1.3000000000015179 0 8 5.25 0 8.25 5 0 8.25 3.7000000000000002 0 8.4375000000000018 2.8750000000000009 0 8.4999999999999503 2.5999999999999899 0 8.5625 7.5 0 8.5 0.69999999999999996 0 8.7499999999999982 4.6666666666666679 0 8.7499999999999556 3.7999999999999909 0 8.625 5.25 0 8.75 5.166666666666667 0 9 8 0 8.8750000000000036 3.2500000000000022 0 9 5.5 0 9 2.7000000000000002 0 9.25 5.333333333333333 0 9.25 4.3333333333333339 0 10.58712006499414 8 0 9.3125000000000018 3.6250000000000022 0 9.2500000000000728 3.900000000000015 0 9.7322767000115658 8 0 10.11683562520899 7.1952376222900778 0 9.4666666666644659 2.5666666666672948 0 11.58504501385041 8 0 12.75 6.9437741439064196 0 9.75 5.5 0 9.9333333333295304 2.4333333333344198 0 9.75 4 0 12.186383928571081 5.6739548845775634 0 12.75 6.038988862336077 0 12.75 5.2639308761360883 0 12.096269132652781 5.0089836801012728 0 12.75 4.0003174080232462 0 10.680373124719701 5.0996881878923999 0 10.462566396889811 4.436821917062888 0 9.9378319844489287 4.5341095853144147 0 10.058566397584119 5.1088423539901608 0 10.249999999999989 4.0999999999999979 0 9.6816900032536655 6.1509933969218187 0 10.318895127649739 5.6829040483701769 0 10.917277223084589 5.4813827249950968 0 11.14723036767284 6.2469725545514123 0 10.75003341587618 5.9107455977173604 0 10.44528068387236 6.4182408893442124 0 11.09889622188336 7.0112522472967331 0 9.9618211858937151 6.6596055842737263 0 9.5164239722228405 6.8348750909827052 0 10.4 2.2999999999999998 0 10.5 4.7999999999999998 0 9.1030890763140047 6.5321818396608462 0 9.3303864350508938 5.6813923661908907 0 8.970242172000809 5.9226351006993019 0 8.4972876044463757 5.8311422148541041 0 8.0796282337786849 6.311844367667188 0 8.6126164010124153 6.4595270667143572 0 10.75000000000014 4.2000000000000286 0 10.612499999999949 2.7999999999998741 0 6.518953214484978 6.7704843776901313 0 7.0801824727701241 6.5807936507936633 0 7.3577684192630528 5.5086946576740887 0 7.9635986863599726 5.855288607768216 0 7.612180670462922 5.8137861955531047 0 10.875 4.5499999999999998 0 10.82499999999963 3.2999999999991241 0 11.03749999999963 3.7999999999991241 0 10.78333333333231 1.9000000000010699 0 7.6417937536871419 5.1654402589958011 0 7.2802004846459853 5.1175278771156387 0 7.0073846965074598 5.2778944676064459 0 6.936160960427304 4.89683078406033 0 6.6887757623921971 4.5124976540268094 0 7.9282200727472034 4.1620177469108377 0 8.6312122071040278 4.1551278659605089 0 8.2402653769809682 4.5238773148127134 0 8.180981048467725 5.4477384704370531 0 9.3812574935583886 4.9465914098774082 0 11.166666666666989 1.49999999999966 0 11.550000000000001 1.1000000000000001 0 11.412499999999749 4.9749999999989596 0 11.25 4.2999999999999998 0 9.4186530900934855 3.112704842739701 0 9.1699287288289124 2.374148078484497 0 8.412499999999941 3.345000000000117 0 6.7300925925924284 3.401388888888814 0 7.1682741769546334 2.9476245590829571 0 6.4676238242209063 2.8855733497101581 0 11.9 7 0 11.749999999999741 4.3999999999999488 0 11.625000000000339 3.9999999999997291 0 11.73749999999942 6.3249999999975941 0 11.574999999999131 5.6499999999963926 0 7.6816945906127989 1.5894745186858981 0 6.6325887022434813 1.7109098098422979 0 7.1647318986115511 1.809291393235446 0 7.1613611451472012 1.37684225124335 0 6.6841764304611262 1.174631096497762 0 6.4375000000000027 0.69999999999999996 0 7.1250000000000044 0.69999999999999996 0 7.6227778138185824 1.133263353986153 0 7.8125000000000018 0.69999999999999996 0 8.8002334655075174 1.6758279686386801 0 8.8279208556153161 2.2186179292874191 0 9.3851273930358641 2.0113077179832741 0 9.294553589509567 1.3214674021148729 0 8.816324129544423 1.139459074151014 0 9.1535002593721142 0.69999999999999996 0 12.24999999999979 4.4999999999999574 0 9.8931307966635327 0.69999999999999996 0 12.75 8 0 12 3.7000000000000002 0 9.75368232782
[...]
<CellData Scalars="A_conc,B_conc,region_id," Vectors="" Tensors="">
<DataArray type="Float64" Name="A_conc" format="ascii">
0.9304319189407857 0.77272173591828142 0.77612720514660061 0.37295541715052438 0.42548092549295935 0.40094419756311778 0.86062372050154323 0.5080536743277998 0.90885592417021521 0.90570262850431393 0.85589814649317142 0.87157866957287888 0.91006631877941624 0.91017593531329433 0.9218886624092002 0.91619771624798385 0.91461860173645304 0.91751556995691574 0.92490971963678115 0.92758473044228562 0.93253926871843851 0.92804851166595648 0.91362163315020273 0.93141729735678147 0.75127127788151937 0.84149821157440385 0.87796477334943912 0.93410728898143081 0.94065606177420158 0.93579491560402916 0.88238488067768295 0.90473622165608236 0.89738215740550875 0.91347875671547274 0.90105552347016915 0.90187587050804452 0.89558367530023941 0.92000921258517887 0.92921577782748377 0.88794484481731495 0.90418962748508591 0.87710301186078798 0.86706229955302194 0.72209272137062985 0.65593574360559925 0.85639442116030362 0.79786519309618997 0.78342842501683463 0.71982351372704012 0.58752651449164395 0.60784543542223723 0.63792426694172122 0.45251962061061674 0.47793308233361231 0.52606348221020127 0.50577072097481812 0.71766939216130599 0.45032663983821503 0.85309941176210824 0.48333835348188503 0.50913501188648924 0.93124469571697732 0.54197383760984286 0.72837781594574391 0.81773921651816806 0.88681899343452564 0.92603278674533795 0.91063180121232157 0.83003455142254967 0.91964883879729964 0.91474965327028657 0.93452069920314318 0.94035253193061275 0.81353036658616462 0.80248604402391133 0.78877689830844477 0.48389586595314499 0.5282778671659405 0.52368349700308514 0.59259253201918005 0.67019064341494272 0.64760049585296331 0.81392965529103889 0.82737082925271555 0.85907814057282672 0.87071201863188108 0.9407399335357195 0.94034794371505259 0.93677216575528499 0.90217656002092794 0.92723900875876586 0.84709608434327321 0.90614917579317988 0.75975693650693832 0.82017405040783464 0.91128803471607611 0.93201772576722774 0.93929132146175842 0.94019929980315675 0.95828385619181067 0.95703294549530982 0.96592234482239048 0.93136726802779257 0.93229357842820493 0.94890787732510273 0.94001030192041768 0.93680229959224703 0.75012105877739244 0.78068821699487789 0.93860944338252883 0.85899308932707874 0.86802157887764331 0.68773702845339546 0.30486896253073881 0.54755929637528011 0.60573733723119305 0.42135301710705575 0.9546750965675167 0.95238910770307761 0.1867590618654639 0.93595346277518265 0.92731560020141268 0.92665304871222598 0.92789143379115524 0.94370387682361068 0.95101530446080507 0.94970944939872082 0.92853946911068008 0.95461727389872708 0.92245148570617164 0.92820458218210478 0.93173335039523919 0.92391900719812248 0.91877275813504178 0.92057941333007387 0.91225346451632738 0.92793376673925276 0.90803501829079791 0.91393469602273292 0.94196776473168464 0.93146676252673144 0.92877772234282663 0.91791499477420335 0.94411747378152422 0.92394721709290173 0.93270691908738534 0.93676681623443359 0.61867361889214356 0.92699040433010471 0.92464667253007582 0.91807165202430452 0.91611297377865186 0.77813067939330538 0.80168979598515278 0.92031840125063802 0.91813519007437938 0.92386211224526571 0.92859536350196814 0.89429796045383525 0.93163651585474394 0.94455479084501082 0.92951994901150992 0.93222635282592414 0.91396650402397528 0.91681722459101223 0.94869055004245784 0.94549612136869765 0.95614375833012422 0.96287952613825978 0.96604704151128806 0.96508177144520779 0.97014218153556486 0.95916179789816525 0.9516682044379885 0.95824809881146789 0.95446357628360334 0.94896884524326952 0.9535979151538031 0.96179244578068568 0.89512925595942916 0.94605264969920022 0.93911132232080963 0.87197748717283474 0.87697180085685544 0.90679538797860948 0.91434161205274145 0.93567998843081412 0.94012027504203077 0.9472391407319728 0.94416533866838459 0.81917472374131306 0.79141674450849964 0.80549105090547601 0.8871294381203827 0.90392382833116502 0.90678995414480135 0.86467567912613319 0.82788635116552833 0.83629876621213439 0.88224528810786906 0.88483981240748544 0.86342503833520512 0.86024432756947822 0.83140879315545702 0.77885226384935113 0.47704326203020864 0.47496774941808984 0.55802905343582931 0.82376587810808832 0.80193274081061605 0.8368783821517447 0.81835192142719104 0.91755560778335687 0.72912048393240336 0.81535505268585173 0.83655447500531488 0.9462634609935191 0.82124161269485096 0.93924804995588618 0.94492041272136129 0.92578287633969114 0.76358661801624006 0.85244556518027848 0.43401469590992098 0.94704199730118988 0.67546466226464674 0.90028383099844977 0.94499570713871983 0.76278805586258347 0.79081502469665488 0.92127134047831927 0.93460898502516288 0.94096331508729891 0.93408376482302657 0.93863921862073729 0.92750994674479426 0.92195759146907919 0.92856146484620283 0.94020731810720881 0.93152553649532988 0.93505998441854687 0.89786030834249875 0.90786436380902669 0.9028852358481041 0.91071944991206899 0.85741810083250414 0.68763443113486811 0.8824377388898903 0.89147555673668344 0.86989302499458332 0.92910628215884172 0.93574071027606442 0.92743058230956332 0.9178071027659449 0.92526299386136035 0.92737517336617503 0.82872243226483522 0.94731566133612199 0.9492012702544852 0.92442449615642353 0.926761379001803 0.90436891553509169 0.94936125975756391 0.91709727036029598 0.91658509058643323 0.92323109428233485 0.92297380847409449 0.91963091363484506 0.91369871858903573 0.91458308016226653 0.91044264780218209 0.91125226678660809 0.9104654332188824 0.92304059470942956 0.91374651569907117 0.92284506943976341 0.93405034473715187 0.93871228051332989 0.93674630434349537 0.89078867517344618 0.93567662986005207 0.78161103415451283 0.88618628131492427 0.89360807383677487 0.95044073101572546 0.85254920564537495 0.53520775742977622 0.92081170948936331 0.90823300825113229 0.62840479587903519 0.5557642966583336 0.44258584555085345 0.47419227475432657 0.65524020308049624 0.47385681926247336 0.42646630443076516 0.95140737368066708 0.84455661209148913 0.80817252296323194 0.95197367794082743 0.94150365587257623 0.92329836298454016 0.61208867469536743 0.92140571006260075 0.9685539747404095 0.95147955106337301 0.77933519842136145 0.92713618509218376 0.95249028672990721 0.97119292552855918 0.5008903169446518 0.94616974123234998 0.92800250280605345 0.92370070296623807 0.95275678171004508 0.97229938831505391 0.89717290948060446 0.94281723969183862 0.8722104263728192 0.93662855599276473 0.95628098063919609 0.78158978866670825 0.91802660604075137 0.96894960095032701 0.93514655175209371 0.75802005399227967 0.9186099018070184 0.96658377104942517 0.97793342041584863 0.97023358064939358 0.96554111827009437 0.74301901614741417 0.97660523869648896 0.93958397875168953 0.92460572957768639 0.97305054815968262 0.92284118961566297 0.97762053814225958 0.92934174807400027 0.97982541502645271 0.94293519208935117 0.60963368835907428 0.5124050711652639 0.67314320759905266 0.71017694890928529 0.97716456537464669 0.75339338694612668 0.77406966412940759 0.83047232615507371 0.78416426167379538 0.86996033296253628 0.89200777669137565 0.97978370417130178 0.9785639794711547 0.93693014492981663 0.92264036325293852 0.95218939574170069 0.98100857208044234 0.87725376282413248 0.84397790801158079 0.92110352803659468 0.90229694151888507 0.93628678599470305 0.95221857431210288 0.92822207892207087 0.94279158586933653 0.95463516086891897 0.9657939234470323 0.97384708595248237 0.9796700118548225 0.9757828856836791 0.97468741181979568 0.94754664232718122 0.93116130029715061 0.98190435871020498 0.94545519548467105 0.95197246271795533 0.98425790952545644 0.93032332386070338 0.97927743635666675 0.9688126163203854 0.95786729445254293 0.95957595415859975 0.9543993518835161 0.97455366379914166 0.979847216030312 0.97253040608781571 0.9746644476663292 0.98109666869617673 0.98610207799349681 0.98243233183304257 0.982439461376723 0.90252834258950299 0.88415544833867876 0.98262904865955769 0.96335389982398456 0.91691441098310889 0.97388631177669871 0.98524735338768643 0.99217907194530253 0.95449284686477731 0.95221316035134362 0.98290780338541706 0.96833723406084304 0.95508678900542643 0.99345680369842593 0.82659756213045221 0.98431586312087205 0.98845895381229887 0.95846578027612739 0.99191433985885913 0.99042360034170818 0.99441253344641356 0.98411936831054792 0.98395849017902404 0.9820363690795213 0.9759699342054704 0.98685642362894577 0.98966656004488951 0.9928165490292995 0.9947091354125942 0.99746616799232979 0.99614885301340228 0.984980305750081 0.99298545480038813 0.98628077159413485 0.98368842703387882 0.99065408442427616 0.9782671608290554 0.9742606274957375 0.99346260299794475 0.99774347646164563 0.99502473027695104 0.99562825748082528 0.99763155815183224 0.99810916246922599 0.99387083124058639 0.99553160006070085 0.99358887405615448 0.9929538021340516 0.98438182914124672 0.99113378542070474 0.97974607702447836 0.98769250328697578 0.99006455799206206 0.99238182449199874 0.98930573166142 0.97588312082141115 0.99525974654885507 0.98573683911522403 0.97245897129755177 0.96940335874354866 0.97784211885248129 0.97983029865651239 0.97575891379961799 0.99160024268001856 0.99217377160951026 0.98881019970792705 0.9851756599362691 0.98931293602523074 0.98985216952957766 0.98476118634128795 0.98266427703968406 0.98625703120596164 0.98426163688527024 0.98061757390885029 0.97576507231557907 0.97873309325883429 0.96808578316624372 0.9699645504712846 0.97053910203989058 0.96562997459268152 0.96428416945376427 0.96714456084732325 0.9683419864739562 0.97130202300963286 0.97374470679160718 0.9700517306425972 0.97940011214495226 0.98060289878811879 0.97794980296479772 0.96928717550078558 0.96919042460819749 0.97614120725824005 0.97793643390965657 0.99111647679014769 0.995825159526738 0.98554273045623475 0.98924259935017866 0.96745768425853063 0.96416929166520859 0.96026448230856976 0.96729608531175804 0.96205263386328355 0.9622645468062605 0.9622634250546146 0.9601816109308996 0.95714988964447933 0.95959398677089536 0.95506982835377308 0.95740277202365731 0.91614744820566119 0.91636815520692849 0.91215489849058717 0.9347069408882136 0.9565582882656366 0.96161252937186092 0.9379841317669475 0.95485605893061631 0.93551754452118074 0.93691481632443274 0.92580311261839932 0.91230296672459033 0.91609263100143734 0.90963024370887591 0.92784828725113178 0.91541458157247602 0.89190428759068863 0.95787001091463453 0.95344683275742792 0.95490359270521175 0.9417956746734093 0.95469469822623965 0.93416643155509171 0.94049097734145803 0.93268639192082059 0.94062405677733052 0.9492748544526094 0.94800229688806392 0.95669802363183742 0.99495701722255525 0.99299066998558816 0.99237128952946085 0.99621809213122581 0.98061882030614655 0.97521897881635689 0.97367281007222006 0.97922234868472668 0.98066251414137784 0.97572888074497199 0.97501363913760319 0.97367084189499664 0.97094878641263138 0.97204550847714921 0.97063560803424942 0.96838229571614409 0.96923444563982974 0.96642480559698907 0.96535564863337786 0.96353999205774743 0.96711207238122832 0.97094928177757511 0.96325703939851315 0.96626317340583334 0.97250938568593714 0.94800774011022915 0.97091245166869733 0.95160909161553364 0.97368776569276005 0.97676442294008947 0.95776164372615313 0.96998966324976821 0.96666996037795228 0.97274270904735383 0.96346572049655144 0.96315184751708371 0.98084755882363417 0.94608373078190688 0.96455808263089871 0.96824759971475527 0.92470666522585043 0.96846530927575458 0.96475018512660671 0.96831892243767803 0.9654931665698302 0.94710845670309141 0.95252165936369382 0.96899342336216654 0.97524171631216583 0.97198956136347103 0.97643051947473292 0.98085753769039108 0.98032371420372022 0.98697211339788238 0.98329115838552961 0.98048215404449102 0.97805661491788487 0.99879147508475152 0.98227781003181858 0.98311407363384773 0.97945610914663295 0.9738818230086681 0.96566086689170516 0.96092353296483679 0.96117778762025141 0.95794699992116317 0.95426712704119221 0.94534731239854719 0.95055962712855813 0.95698833770648972 0.95275484011794287 0.94879903642728025 0.94416565391007612 0.93130627104683716 0.87837106296768708 0.95557408489621154 0.95949462142460029 0.96807909819856586 0.96664768975239146 0.96818828374269961 0.97362809919870985 0.95481798154332775 0.95412354125987187 0.95342353610368014 0.94320675530850395 0.9403235416427862 0.91297230735586576 0.94317507398153411 0.94885235520245925 0.9472616600156345 0.95413637532930151 0.95904645396443966 0.96463493244236331 0.96512338429186695 0.96913901727482643 0.9718704719749609 0.98224966226358079 0.98415646005783342 0.9860714901680141 0.96369436529908037 0.9181457653931695 0.91232087874906498 0.90799711996264731 0.89623723968161018 0.95157404335959428 0.96235183913982369 0.94414679724347561 0.9462988987115788 0.8891010133747681 0.87423377561277049 0.86528172070311682 0.84216970263437196 0.84929896856555342 0.86187526138972714 0.88266411669016343 0.86991509693363689 0.87105660686002639 0.88048307905300283 0.89357584832324499 0.9050215641597612 0.94315976324318429 0.94304299775729694 0.89211927630565313 0.90474114285931118 0.9363448265978489 0.93871266953523724 0.93493373769853849 0.95150168516135381 0.94577244979449671 0.95302808650753412 0.95697734251836453 0.9480840441032512 0.94926651008835383 0.95583859241936175 0.96010102015149645 0.99930691604004007 0.96727982433278448 0.97178947968696483 0.97743310393040828 0.98822309629178473 0.98420745249839536 0.97275095649959642 0.98680053503259857 0.97829716608952588 0.98489577112537408 0.9821292780926324 0.96847152871267561 0.9691733731868768 0.96635635010195386 0.95913490505789978 0.96211828705361724 0.96059195803644104 0.96851644519443858 0.9776380571494907 0.97344880460659433 0.98026967037936497 0.96528033493844645 0.97081272186758572 0.97188442980063916 0.97689391822584093 0.98021285446523854 0.97923891900554672 0.97546695023761587 0.98422069471724072 0.98219214435821067 0.98814019587130519 0.985653891709108 0.98336970648909816 0.9823945397577899 0.98671028952394324 0.9800506889798235 0.98825698145628993 0.99967958916216593 0.99053629290673051 0.99317065496154888 0.99033184085830528 0.98827618060461542 0.98566629149648999 0.98807911673368021 0.99150144217323688 0.99336319802157036 0.99534381387740378 0.99738153521952289 0.99784499171480245 0.9952196723267035 0.9974784313166245 0.99479129514710496 0.99260747422666706 0.9893912867995367 0.99025665832456355 0.99346152676302446 0.99115891137723711 0.99432768609141187 0.99764704609432098 
</DataArray>
<DataArray type="Float64" Name="B_conc" format="ascii">