<?xml version="1.0"?>
<VTKFile type="UnstructuredGrid" version="0.1" byte_order="LittleEndian">
<UnstructuredGrid>
<Piece NumberOfPoints="316" NumberOfCells="724">
<Points>
<DataArray type="Float64" NumberOfComponents="3" format="ascii">
0 0.69999999999999996 0 0 8 0 0 3.7000000000000002 0 1.243750000001385 0.69999999999999996 0 0.68142292217753131 2.106313194182027 0 0 1.6319639930219929 0 0 2.430303940964651 0 0.70993008501830757 2.9054181396964478 0 0 3.1141786369756268 0 0.45714634023723411 3.4614941897304652 0 1.013301616169622 3.6128741719811099 0 1.451787781083937 3.11022608666643 0 1.186467289461244 2.488259157846338 0 0.56249999999824107 3.9749999999991399 0 0.59999999999999998 0.69999999999999996 0 2.2687831884271348 2.397628317379688 0 2.4236693135559251 3.5256579194055688 0 2.9420158813362729 3.5139475164392531 0 2.8857059848027808 2.304389417342541 0 3.16379900756549 1.750659825629856 0 2.5341028426591712 1.9138806300960609 0 1.942890303101708 1.90249985684108 0 2.23284951060374 1.369095413116082 0 1.626949751997165 1.3978044304614949 0 1.887500000003292 0.69999999999999996 0 2.5312500000049418 0.69999999999999996 0 2.730231246675086 1.4599417336750831 0 3.047698899035677 1.175177397439602 0 3.1750000000065048 0.69999999999999996 0 0.94999999999923723 1.2749999999987469 0 1 6.2000000000000002 0 1.1249999999964171 4.2499999999982494 0 3.8187500000045098 0.69999999999999996 0 3.638214240926366 1.265285427893069 0 3.5028943452390711 2.1825773809523441 0 3.757799744899315 1.759341836734688 0 4.0559490150232032 2.028653202947901 0 4.7733688274428578 1.2511819424194319 0 4.2198317920941601 1.108273596938623 0 4.4625000000026009 0.69999999999999996 0 5.1062500000012143 0.69999999999999996 0 6.1230253171455891 1.2440604005832661 0 5.8758020027701336 1.829281458631685 0 5.4251604005540912 2.1458562917259631 0 1.299999999998378 1.8499999999973351 0 5.5486111111111649 3.4166666666664391 0 4.9131042795799686 3.1639526813742029 0 4.5652883261780408 3.549611461603364 0 4.3536256774790401 3.0337160882464551 0 3.2848100522576571 3.06994577157805 0 3.8190056356267248 3.2454749759848052 0 3.412636880282601 3.6134558579332841 0 1.75 5 0 1.6874999999994109 4.5249999999997117 0 1.599999999997112 6.1000000000004819 0 1.649999999999066 2.4249999999984651 0 3.625000000001803 4.4499999999997977 0 3.2187500000011142 4.5624999999995248 0 4.1250000000089333 4 0 5.2812499999974998 4.480555555557217 0 5.7901785714252867 4.1543650793672633 0 6.2822169506114909 4.9442489896720572 0 2 3 0 2.25 4.7999999999999998 0 4.8969907407407627 5.6240740740739659 0 2.08333333333292 3.599999999997022 0 2.1666666666662731 4.1999999999971616 0 2.1999999999956921 6.0000000000007194 0 5.3819444444444393 5.7444444444444036 0 6.0367063492063266 5.8849206349206353 0 5.1289108351881252 6.943051186131636 0 3.833430775055819 6.5641729053027689 0 3.3303561509924351 6.9830522680580502 0 2.6000000000000818 2.8399999999999781 0 2.580520851116443 6.6244224184663167 0 1.646932375870239 6.6136900344172886 0 2.6666666666680592 4.5333333333324424 0 2.75 4 0 2.227678571427079 5.4095242619018373 0 2.799999999997127 5.9000000000004791 0 2.8333333333331181 5.0999999999998904 0 1.042857142856084 4.9670058772507648 0 1.593428957229921 3.8897035774451321 0 0.54607142857014845 4.5325429890369104 0 0 4.3611884975573796 0 0 5.1095205703790167 0 3.0833333333345938 4.2666666666658593 0 3.1249999999889848 4 0 0 5.9564815289107864 0 0.59593253968210291 5.8008707178522592 0 1.532738095236533 5.6571455714099397 0 0 6.9150707591630427 0 3.2000000000001432 2.679999999999962 0 3.25 6.2999999999999998 0 1.1705225977355731 8 0 0.93837900218741932 7.1804089820132404 0 1.8128190395187029 7.3536930984991047 0 3.4166666666672652 5.4000000000003077 0 3.3999999999985642 5.8000000000002396 0 3.5 5 0 3.5 4 0 2.644109419022838 7.3867316522664499 0 2.2707825856939472 8 0 3.6250000000072249 5.9999999999942197 0 3.749999999999261 5.3499999999989658 0 3.8000000000002032 2.5199999999999458 0 3.874999999992375 3.7500000000050839 0 4 5.7000000000000002 0 4.25 3.5 0 4.25 4.7999999999999998 0 4.25 1.5 0 4.25 6.2000000000000011 0 4.4999999999995417 5.9999999999997264 0 4.4166666666668641 5.4666666666665567 0 4.6250000000004974 1.8500000000004651 0 4.4000000000001336 2.3599999999999639 0 4.75 7.2000000000000002 0 4.5 6.6999999999999993 0 4.75 4 0 4.75 4.7000000000000002 0 4.7500000000003384 4.3999999999997286 0 4.75 2.7999999999999998 0 5 6.2999999999999998 0 4.8333333333337283 5.2333333333331122 0 5 2.2000000000000002 0 5.0000000000002984 3.5999999999995218 0 5.25 5 0 5.5000000000008269 1.1999999999983459 0 5.25 4 0 5.5 6.3500000000000014 0 5.2500000000003251 3.1999999999994801 0 5.2500000000007052 1.6999999999985891 0 5.2499999999996163 2.499999999999539 0 5.5 2.7999999999999998 0 5.7499999999897531 4.6666666666734979 0 5.75 0.69999999999999996 0 5.75 5.25 0 5.6250000000000648 3.899999999999983 0 5.75 2.5 0 5.9166666666663046 3.1999999999996529 0 6.3749999999999796 2.350000000000005 0 6 3.7999999999999998 0 6 6.4000000000000004 0 4.2771317171003211 8 0 3.3049975410581078 8 0 4.045228499335253 7.2019851637643439 0 6.3749999999999352 3.899999999999983 0 6.249999999989754 4.333333333340164 0 6.3333333333330009 3.5999999999996799 0 6.25 5.5 0 5.1909118800994873 8 0 6.049840683362258 8 0 5.8367197674990106 7.1166649360427767 0 6.4684217593582272 7.3531189884776698 0 6.6249999999998499 6.2000000000000481 0 6.8572107462251504 8 0 6.5 5.2999999999999998 0 7.616117101574889 8 0 7.2585497534189534 7.2378318565328508 0 6.75 4 0 7.9700743397311431 7.5609350974516802 0 8.8779286709583509 7.1321289214782846 0 9.4363260705848777 7.4358468248574452 0 6.75 5.75 0 8.3294684777734691 8 0 6.8750000000007789 5.6500000000007269 0 7 2.2000000000000002 0 7.2499999999897531 4.3333333333265021 0 7.25 6 0 7.5 3.7000000000000002 0 7.4999999999999769 2.349999999999993 0 7.5 4.7999999999999998 0 7.5 2 0 7.6500000000000004 6.2000000000000002 0 7.75 2.25 0 7.749999999999754 3.1000000000005912 0 7.749999999989754 4.666666666659836 0 7.6875 6.5 0 7.75 5.5 0 7.8750000000136362 4.9000000000036366 0 8.125 7 0 8 2.5 0 8.1666666666661811 1.900000000001745 0 8.3333333333329112 1.3000000000015179 0 8 5.25 0 8.25 5 0 8.25 3.7000000000000002 0 8.4375000000000018 2.8750000000000009 0 8.4999999999999503 2.5999999999999899 0 8.5625 7.5 0 8.5 0.69999999999999996 0 8.7499999999999982 4.6666666666666679 0 8.7499999999999556 3.7999999999999909 0 8.625 5.25 0 8.75 5.166666666666667 0 9 8 0 8.8750000000000036 3.2500000000000022 0 9 5.5 0 9 2.7000000000000002 0 9.25 5.333333333333333 0 9.25 4.3333333333333339 0 10.58712006499414 8 0 9.3125000000000018 3.6250000000000022 0 9.2500000000000728 3.900000000000015 0 9.7322767000115658 8 0 10.11683562520899 7.1952376222900778 0 9.4666666666644659 2.5666666666672948 0 11.58504501385041 8 0 12.75 6.9437741439064196 0 9.75 5.5 0 9.9333333333295304 2.4333333333344198 0 9.75 4 0 12.186383928571081 5.6739548845775634 0 12.75 6.038988862336077 0 12.75 5.2639308761360883 0 12.096269132652781 5.0089836801012728 0 12.75 4.0003174080232462 0 10.680373124719701 5.0996881878923999 0 10.462566396889811 4.436821917062888 0 9.9378319844489287 4.5341095853144147 0 10.058566397584119 5.1088423539901608 0 10.249999999999989 4.0999999999999979 0 9.6816900032536655 6.1509933969218187 0 10.318895127649739 5.6829040483701769 0 10.917277223084589 5.4813827249950968 0 11.14723036767284 6.2469725545514123 0 10.75003341587618 5.9107455977173604 0 10.44528068387236 6.4182408893442124 0 11.09889622188336 7.0112522472967331 0 9.9618211858937151 6.6596055842737263 0 9.5164239722228405 6.8348750909827052 0 10.4 2.2999999999999998 0 10.5 4.7999999999999998 0 9.1030890763140047 6.5321818396608462 0 9.3303864350508938 5.6813923661908907 0 8.970242172000809 5.9226351006993019 0 8.4972876044463757 5.8311422148541041 0 8.0796282337786849 6.311844367667188 0 8.6126164010124153 6.4595270667143572 0 10.75000000000014 4.2000000000000286 0 10.612499999999949 2.7999999999998741 0 6.518953214484978 6.7704843776901313 0 7.0801824727701241 6.5807936507936633 0 7.3577684192630528 5.5086946576740887 0 7.9635986863599726 5.855288607768216 0 7.612180670462922 5.8137861955531047 0 10.875 4.5499999999999998 0 10.82499999999963 3.2999999999991241 0 11.03749999999963 3.7999999999991241 0 10.78333333333231 1.9000000000010699 0 7.6417937536871419 5.1654402589958011 0 7.2802004846459853 5.1175278771156387 0 7.0073846965074598 5.2778944676064459 0 6.936160960427304 4.89683078406033 0 6.6887757623921971 4.5124976540268094 0 7.9282200727472034 4.1620177469108377 0 8.6312122071040278 4.1551278659605089 0 8.2402653769809682 4.5238773148127134 0 8.180981048467725 5.4477384704370531 0 9.3812574935583886 4.9465914098774082 0 11.166666666666989 1.49999999999966 0 11.550000000000001 1.1000000000000001 0 11.412499999999749 4.9749999999989596 0 11.25 4.2999999999999998 0 9.4186530900934855 3.112704842739701 0 9.1699287288289124 2.374148078484497 0 8.412499999999941 3.345000000000117 0 6.7300925925924284 3.401388888888814 0 7.1682741769546334 2.9476245590829571 0 6.4676238242209063 2.8855733497101581 0 11.9 7 0 11.749999999999741 4.3999999999999488 0 11.625000000000339 3.9999999999997291 0 11.73749999999942 6.3249999999975941 0 11.574999999999131 5.6499999999963926 0 7.6816945906127989 1.5894745186858981 0 6.6325887022434813 1.7109098098422979 0 7.1647318986115511 1.809291393235446 0 7.1613611451472012 1.37684225124335 0 6.6841764304611262 1.174631096497762 0 6.4375000000000027 0.69999999999999996 0 7.1250000000000044 0.69999999999999996 0 7.6227778138185824 1.133263353986153 0 7.8125000000000018 0.69999999999999996 0 8.8002334655075174 1.6758279686386801 0 8.8279208556153161 2.2186179292874191 0 9.3851273930358641 2.0113077179832741 0 9.294553589509567 1.3214674021148729 0 8.816324129544423 1.139459074151014 0 9.1535002593721142 0.69999999999999996 0 12.24999999999979 4.4999999999999574 0 9.8931307966635327 0.69999999999999996 0 12.75 8 0 12 3.7000000000000002 0 9.7536823278228866 1.476350104461625 0 10.730243372206591 0.69999999999999996 0 10.382627631995829 1.3873204946718609 0 10.106350669919401 1.9180519417420421 0 9.9181425014481057 2.833188223635065 0 9.9242224243089208 3.5053525499705862 0 10.518069334214999 3.694433421516421 0 11.09116063133933 2.9444106525201019 0 10.36597949429223 3.0810719490983871 0 10.98709224116409 2.4939672194195301 0 12.75 0.69999999999999996 0 12.75 4.5999999999999996 0 11.55235714707381 2.7530147867259149 0 11.47885376845919 3.3750712564560699 0 12.75 3.321597619569264 0 12.143679596734311 3.0238066578277132 0 12.044687057114441 2.397006001356599 0 12.75 2.5534237251028711 0 12.75 1.684005592221304 0 12.01693014330492 1.5940258229091431 0 11.44640120743219 2.1177712645927089 0 11.67768621522576 0.69999999999999996 0 
</DataArray>
</Points>
<Cells>
<DataArray type="UInt32" Name="connectivity" format="ascii">
2 13 0 5 14 14 5 29 3 14 29 23 24 3 29 23 3 4 44 29 44 23 29 44 12 55 44 4 12 5 4 29 6 4 5 4 6 7 8 7 6 9 7 8 2 9 8 9 2 13 9 13 10 7 9 10 10 11 7 11 10 82 12 7 11 7 12 4 55 12 11 14 29 15 55 62 73 15 62 55 11 62 11 65 62 82 65 11 16 66 65 16 62 73 65 62 16 73 17 16 16 17 77 17 51 87 87 77 17 73 49 17 49 73 92 15 73 18 18 73 92 34 19 18 18 19 20 20 19 26 26 22 20 20 15 18 20 21 15 21 55 15 55 21 44 21 23 44 22 23 21 22 21 20 22 24 23 24 22 25 25 26 27 22 26 25 27 26 19 25 27 28 29 44 27 33 28 28 33 32 13 31 32 33 38 33 27 19 33 19 35 35 19 34 36 34 105 35 34 36 35 110 33 36 114 110 35 36 110 114 36 115 114 115 124 37 110 114 38 110 37 110 38 33 32 38 39 40 39 37 39 38 37 37 127 40 127 37 131 40 127 135 135 127 41 280 135 41 42 41 127 276 41 42 140 276 42 140 42 138 43 138 42 43 131 124 132 43 124 42 127 131 131 43 42 131 37 114 131 114 124 44 55 31 53 30 54 132 121 124 130 121 132 46 121 130 133 130 132 138 132 133 43 132 138 140 269 138 138 269 139 138 139 133 139 133 45 45 141 139 148 139 269 141 148 139 148 141 146 45 137 141 128 45 125 128 137 45 45 133 130 45 130 125 46 130 125 47 46 125 125 118 128 125 118 47 58 47 118 108 58 106 58 108 47 48 108 50 46 47 48 47 108 48 115 121 48 48 121 46 124 121 115 48 105 115 115 36 105 105 48 50 50 49 105 34 92 105 18 92 34 49 92 105 49 51 17 49 50 51 50 108 106 50 106 51 106 100 51 51 100 87 54 67 100 86 56 53 63 55 62 100 86 87 56 58 100 106 58 100 57 99 56 86 57 56 80 97 99 99 97 104 99 109 56 109 99 104 104 113 109 109 113 123 64 113 123 119 109 123 120 109 119 58 56 109 120 58 109 118 58 120 128 118 120 59 128 120 120 119 59 128 59 60 60 137 128 137 60 141 60 147 141 141 147 146 61 134 147 60 59 134 60 134 147 136 134 61 134 136 126 136 61 149 61 156 149 136 68 126 59 126 134 59 119 126 119 123 126 64 126 68 64 123 126 63 52 66 63 65 66 73 62 62 65 64 68 122 122 112 64 68 129 122 136 69 68 163 69 149 69 136 149 69 154 142 69 142 129 68 69 129 129 152 142 152 241 142 152 129 70 70 129 122 70 122 117 116 70 117 116 117 145 117 71 145 71 117 111 112 117 122 112 111 117 112 113 64 113 112 107 107 113 104 107 111 112 71 111 103 111 107 103 97 98 107 104 97 107 107 98 103 97 79 98 98 93 103 93 72 71 93 71 103 71 72 145 67 79 72 74 101 76 63 63 80 93 74 72 96 74 75 75 74 67 54 75 67 90 54 67 67 78 90 78 67 79 74 79 67 74 93 79 98 79 93 80 79 97 63 78 80 80 78 79 76 63 80 57 80 99 76 80 57 86 76 57 77 86 76 87 86 77 77 76 66 77 66 16 66 76 63 66 53 63 65 82 66 82 53 66 53 52 63 52 78 63 78 52 90 77 87 80 97 92 73 90 52 81 90 81 89 86 76 79 98 52 53 81 53 31 81 82 31 53 82 10 31 10 13 31 31 83 81 31 13 83 2 84 13 13 84 83 85 83 84 85 89 81 83 85 81 89 85 88 30 89 88 90 30 54 90 89 30 30 95 75 30 75 54 75 95 96 30 91 95 30 88 91 105 92 87 100 95 1 94 103 93 100 86 1 95 91 94 96 95 96 94 102 101 96 102 101 74 96 144 72 101 144 101 102 98 107 104 107 99 104 97 107 107 103 100 106 117 111 107 112 107 113 115 105 111 107 106 108 124 115 113 123 116 117 109 120 112 122 114 110 120 128 123 126 126 119 124 114 118 128 125 118 130 125 131 124 124 121 124 132 122 129 127 131 126 136 133 130 126 134 132 133 137 128 135 127 133 138 129 142 133 139 141 137 136 149 138 140 139 148 134 147 142 154 143 145 144 72 144 145 143 116 145 143 150 116 141 146 150 70 116 70 150 152 151 153 152 151 152 150 153 241 152 241 153 158 146 159 140 166 148 159 149 163 165 156 147 159 153 155 158 155 153 151 157 160 158 158 155 157 160 180 158 189 180 160 160 157 164 164 189 160 189 164 195 161 189 180 161 230 162 204 195 162 161 162 195 161 195 189 168 165 163 168 159 167 154 168 168 177 167 176 173 168 166 170 175 181 177 180 172 174 169 175 171 179 170 181 174 181 178 184 181 188 176 185 179 185 181 187 182 183 181 182 184 185 180 189 183 190 192 186 187 196 191 185 185 193 185 194 188 198 189 195 194 199 200 191 193 197 203 192 196 202 199 209 202 211 211 203 211 200 198 206 205 201 204 162 205 204 230 205 162 205 228 201 201 228 207 270 207 228 292 207 270 270 208 292 213 208 273 206 210 273 208 270 270 228 273 273 228 225 212 273 274 225 274 273 274 225 226 213 273 212 214 213 212 214 212 215 305 215 290 214 215 305 216 305 290 293 290 271 216 290 293 271 290 215 272 293 271 263 248 272 272 271 263 246 263 262 263 271 262 215 262 271 274 215 212 215 274 262 262 274 224 211 221 210 231 217 262 224 224 223 217 217 220 232 217 232 246 246 262 217 239 263 246 248 239 263 248 300 239 300 221 239 221 239 218 246 218 239 246 232 218 232 219 218 218 219 221 219 211 221 200 211 219 219 220 259 232 220 219 209 220 223 217 223 220 220 209 259 223 222 209 209 222 234 223 227 222 223 224 226 274 226 224 227 226 225 223 226 227 227 228 205 228 227 225 229 227 205 222 227 229 229 230 222 205 230 229 231 249 240 247 221 239 246 232 231 240 161 233 230 233 161 238 235 233 238 233 222 230 234 222 235 222 233 235 234 199 209 197 199 234 235 236 197 197 234 235 236 238 237 235 238 236 258 193 236 236 193 197 236 244 258 236 237 244 180 237 238 238 161 180 158 180 177 180 177 237 237 177 173 177 168 242 242 158 177 158 242 241 242 154 241 142 241 154 168 154 242 163 168 154 163 154 69 156 163 149 156 165 163 165 243 168 165 168 163 245 168 243 168 173 177 173 168 245 173 244 237 245 244 173 178 258 244 178 244 245 178 245 243 248 263 247 248 263 246 239 263 249 260 178 250 184 178 243 250 179 184 250 176 185 179 176 179 171 250 171 179 171 250 251 251 253 171 251 250 243 251 243 252 252 243 165 253 251 252 252 156 253 165 156 252 61 253 156 253 61 254 254 167 253 254 61 147 254 147 159 146 147 159 159 169 167 159 167 254 255 167 169 253 167 171 167 176 171 176 167 255 255 186 256 255 256 257 191 257 256 255 257 176 257 185 176 179 185 184 193 258 185 185 258 184 184 258 178 185 194 193 191 185 257 191 194 185 259 194 191 199 194 259 194 197 193 194 199 197 259 209 199 200 219 259 259 191 200 256 200 191 203 200 256 203 256 192 203 211 200 272 263 262 274 263 262 263 271 202 211 203 260 261 202 203 192 196 202 192 264 202 299 264 196 202 264 206 198 265 286 206 206 198 265 198 188 285 265 198 285 196 264 198 198 187 196 188 187 198 181 187 188 188 181 182 181 187 175 266 175 187 186 175 266 196 192 266 187 196 266 266 192 186 256 186 192 255 169 186 175 186 169 175 169 268 267 169 159 159 148 267 148 146 159 267 148 269 267 268 169 267 269 268 140 166 269 166 268 269 170 268 166 268 170 175 175 170 181 174 170 181 274 273 273 270 293 272 172 170 174 182 172 174 182 275 172 275 277 172 278 277 275 172 277 166 172 166 170 277 276 166 166 276 140 276 277 278 278 279 276 276 279 41 280 41 279 280 279 281 279 278 281 281 282 283 281 278 282 275 282 278 282 275 183 283 282 183 190 283 183 288 183 190 288 284 183 182 183 275 182 174 181 285 188 182 285 182 284 284 182 183 284 287 286 284 286 285 285 286 265 286 287 294 287 284 288 190 289 288 288 289 287 289 291 287 271 290 287 291 294 294 291 296 291 295 296 295 261 260 295 260 296 249 297 296 249 260 314 296 260 249 314 303 249 249 303 231 249 231 297 297 231 210 296 297 294 286 294 297 297 210 286 286 210 206 298 210 206 298 240 231 231 210 298 302 240 298 298 206 264 298 264 299 299 202 211 221 299 211 221 300 299 302 299 300 299 302 298 302 300 247 307 248 247 247 300 248 301 307 247 303 301 240 301 247 240 240 302 247 231 303 240 306 303 314 290 305 306 314 310 306 310 309 309 307 306 306 307 301 301 303 306 272 248 307 307 293 272 307 309 293 309 308 293 308 216 293 309 311 308 310 311 309 312 311 310 312 310 313 313 310 314 313 314 260 261 313 260 315 313 261 315 261 295 304 313 315 313 304 312 
</DataArray>
<DataArray type="UInt32" Name="offsets" format="ascii">
2 5 8 11 14 17 20 23 26 29 32 35 38 41 44 47 50 53 56 59 62 65 68 71 73 76 79 82 85 88 91 94 97 100 103 106 109 112 115 118 121 124 127 130 133 136 139 142 145 148 151 154 157 160 163 166 169 172 174 177 180 182 185 188 191 194 197 200 203 206 209 212 215 218 221 224 227 230 233 236 239 242 245 248 251 254 257 260 263 266 269 272 275 278 281 283 285 287 290 293 296 299 302 305 308 311 314 317 320 323 326 329 332 335 338 341 344 347 350 353 356 359 362 365 368 371 374 377 380 383 386 389 392 395 398 401 404 407 410 413 416 419 422 424 427 429 431 434 437 440 443 446 449 452 455 458 461 464 467 470 473 476 479 482 485 488 491 494 497 500 503 506 509 512 515 518 521 524 527 530 533 536 539 542 545 547 549 551 553 555 558 561 564 567 570 573 576 579 582 585 588 591 594 597 600 603 606 609 612 615 618 621 624 627 630 633 636 639 642 645 648 651 654 657 659 662 664 666 669 672 675 678 681 684 687 690 693 696 699 702 705 708 711 714 717 720 723 726 729 732 735 738 741 744 747 750 752 754 756 759 762 764 766 769 772 775 778 781 784 787 790 793 796 799 802 805 808 811 814 817 820 823 826 829 831 833 836 838 840 843 846 849 852 855 858 861 863 865 867 869 871 873 875 877 879 881 883 885 887 889 891 893 895 897 899 901 903 905 907 909 911 913 915 917 919 921 923 925 927 929 931 933 935 937 939 941 943 945 947 949 951 954 957 960 963 965 968 971 974 977 980 983 985 987 989 991 993 995 998 1001 1004 1007 1010 1013 1016 1019 1022 1025 1028 1031 1034 1037 1039 1041 1043 1045 1047 1049 1051 1053 1055 1057 1059 1061 1063 1065 1067 1069 1071 1073 1075 1077 1079 1081 1083 1085 1087 1089 1091 1093 1095 1097 1099 1101 1103 1105 1107 1109 1111 1113 1115 1117 1119 1121 1124 1127 1130 1133 1136 1139 1142 1145 1148 1150 1153 1156 1159 1162 1165 1168 1171 1174 1177 1180 1183 1186 1189 1192 1195 1198 1201 1204 1207 1210 1213 1216 1219 1222 1224 1226 1229 1232 1235 1238 1241 1244 1247 1250 1253 1256 1259 1262 1265 1268 1271 1274 1277 1280 1283 1286 1289 1292 1295 1298 1301 1304 1307 1310 1313 1316 1319 1322 1325 1328 1330 1332 1334 1336 1338 1341 1344 1347 1350 1353 1356 1359 1362 1365 1368 1371 1374 1377 1380 1383 1386 1389 1392 1395 1398 1401 1404 1407 1410 1413 1416 1419 1422 1425 1428 1431 1434 1437 1440 1443 1446 1449 1452 1455 1458 1461 1463 1465 1467 1469 1471 1474 1477 1480 1483 1486 1489 1492 1495 1498 1501 1504 1507 1510 1513 1516 1519 1522 1525 1528 1531 1534 1537 1540 1543 1546 1549 1552 1555 1558 1561 1564 1567 1570 1573 1576 1579 1582 1585 1588 1591 1594 1597 1600 1603 1606 1609 1612 1615 1618 1620 1622 1624 1626 1629 1631 1634 1637 1640 1643 1646 1649 1652 1655 1658 1661 1664 1667 1670 1673 1676 1679 1682 1685 1688 1691 1694 1697 1700 1703 1706 1709 1712 1715 1718 1721 1724 1727 1730 1733 1736 1739 1741 1743 1745 1748 1751 1754 1757 1760 1763 1766 1769 1772 1775 1778 1781 1784 1787 1790 1793 1796 1799 1802 1805 1808 1811 1814 1817 1820 1823 1826 1829 1832 1835 1838 1841 1844 1847 1850 1853 1855 1858 1861 1864 1867 1870 1873 1876 1879 1882 1885 1888 1891 1894 1897 1900 1903 1906 1909 1912 1915 1918 1921 1924 1927 1930 1933 1936 1939 1942 1945 1948 1951 1954 1957 1960 1963 1965 1968 1971 1974 1977 1980 1983 1986 1989 1992 1995 1998 2001 2004 2007 2010 2013 2016 2019 2022 2025 2028 
</DataArray>
<DataArray type="UInt32" Name="types" format="ascii">
3 5 5 5 5 5 5 5 5 5 5 5 5 5 5 5 5 5 5 5 5 5 5 5 3 5 5 5 5 5 5 5 5 5 5 5 5 5 5 5 5 5 5 5 5 5 5 5 5 5 5 5 5 5 5 5 5 5 3 5 5 3 5 5 5 5 5 5 5 5 5 5 5 5 5 5 5 5 5 5 5 5 5 5 5 5 5 5 5 5 5 5 5 5 5 3 3 3 5 5 5 5 5 5 5 5 5 5 5 5 5 5 5 5 5 5 5 5 5 5 5 5 5 5 5 5 5 5 5 5 5 5 5 5 5 5 5 5 5 5 5 5 5 3 5 3 3 5 5 5 5 5 5 5 5 5 5 5 5 5 5 5 5 5 5 5 5 5 5 5 5 5 5 5 5 5 5 5 5 5 5 5 5 5 5 3 3 3 3 3 5 5 5 5 5 5 5 5 5 5 5 5 5 5 5 5 5 5 5 5 5 5 5 5 5 5 5 5 5 5 5 5 5 5 3 5 3 3 5 5 5 5 5 5 5 5 5 5 5 5 5 5 5 5 5 5 5 5 5 5 5 5 5 5 5 5 3 3 3 5 5 3 3 5 5 5 5 5 5 5 5 5 5 5 5 5 5 5 5 5 5 5 5 5 3 3 5 3 3 5 5 5 5 5 5 5 3 3 3 3 3 3 3 3 3 3 3 3 3 3 3 3 3 3 3 3 3 3 3 3 3 3 3 3 3 3 3 3 3 3 3 3 3 3 3 3 3 3 3 3 3 5 5 5 5 3 5 5 5 5 5 5 3 3 3 3 3 3 5 5 5 5 5 5 5 5 5 5 5 5 5 5 3 3 3 3 3 3 3 3 3 3 3 3 3 3 3 3 3 3 3 3 3 3 3 3 3 3 3 3 3 3 3 3 3 3 3 3 3 3 3 3 3 3 5 5 5 5 5 5 5 5 5 3 5 5 5 5 5 5 5 5 5 5 5 5 5 5 5 5 5 5 5 5 5 5 5 5 3 3 5 5 5 5 5 5 5 5 5 5 5 5 5 5 5 5 5 5 5 5 5 5 5 5 5 5 5 5 5 5 5 5 5 5 3 3 3 3 3 5 5 5 5 5 5 5 5 5 5 5 5 5 5 5 5 5 5 5 5 5 5 5 5 5 5 5 5 5 5 5 5 5 5 5 5 5 5 5 5 5 3 3 3 3 3 5 5 5 5 5 5 5 5 5 5 5 5 5 5 5 5 5 5 5 5 5 5 5 5 5 5 5 5 5 5 5 5 5 5 5 5 5 5 5 5 5 5 5 5 5 5 5 5 5 3 3 3 3 5 3 5 5 5 5 5 5 5 5 5 5 5 5 5 5 5 5 5 5 5 5 5 5 5 5 5 5 5 5 5 5 5 5 5 5 5 5 3 3 3 5 5 5 5 5 5 5 5 5 5 5 5 5 5 5 5 5 5 5 5 5 5 5 5 5 5 5 5 5 5 5 5 5 5 5 5 3 5 5 5 5 5 5 5 5 5 5 5 5 5 5 5 5 5 5 5 5 5 5 5 5 5 5 5 5 5 5 5 5 5 5 5 5 3 5 5 5 5 5 5 5 5 5 5 5 5 5 5 5 5 5 5 5 5 5 
</DataArray>
</Cells>
<CellData Scalars="A_conc,B_conc,region_id," Vectors="" Tensors="">
<DataArray type="Float64" Name="A_conc" format="ascii">
0 0 0 0 0 0 0 0 0 0 0 0 0 0 0 0 0 0 0 0 0 0 0 0 0 0 0 0 0 0 0 0 0 0 0 0 0 0 0 0 0 0 0 0 0 0 0 0 0 0 0 0 0 0 0 0 0 0 0 0 0 0 0 0 0 0 0 0 0 0 0 0 0 0 0 0 0 0 0 0 0 0 0 0 0 0 0 0 0 0 0 0 0 0 0 0 0 0 0 0 0 0 0 0 0 0 0 0 0 0 0 0 0 0 0 0 0 0 0 0 0 0 0 0 0 0 0 0 0 0 0 0 0 0 0 0 0 0 0 0 0 0 0 0 0 0 0 0 0 0 0 0 0 0 0 0 0 0 0 0 0 0 0 0 0 0 0 0 0 0 0 0 0 0 0 0 0 0 0 0 0 0 0 0 0 0 0 0 0 0 0 0 0 0 0 0 0 0 0 0 0 0 0 0 0 0 0 0 0 0 0 0 0 0 0 0 0 0 0 0 0 0 0 0 0 0 0 0 0 0 0 0 0 0 0 0 0 0 0 0 0 0 0 0 0 0 0 0 0 0 0 0 0 0 0 0 0 0 0 0 0 0 0 0 0 0 0 0 0 0 0 0 0 0 0 0 0 0 0 0 0 0 0 0 0 0 0 0 0 0 0 0 0 0 0 0 0 0 0 0 0 0 0 0 0 0 0 0 0 0 0 0 0 0 0 0 0 0 0 0 0 0 0 0 0 0 0 0 0 0 0 0 0 0 0 0 0 0 0 0 0 0 0 0 0 0 0 0 0 0 0 0 0 0 0 0 0 0 0 0 0 0 0 0 0 0 0 0 0 0 0 0 0 0 0 0 0 0 0 0 0 0 0 0 0 0 0 0 0 0 0 0 0 0 0 0 0 0 0 0 0 0 0 0 0 0 0 0 0 0 0 0 0 0 0 0 0 0 0 0 0 0 0 0 0 0 0 0 0 0 0 0 0 0 0 0 0 0 0 0 0 0 0 0 0 0 0 0 0 0 0 0 0 0 0 0 0 0 0 0 0 0 0 0 0 0 0 0 0 0 0 0 0 0 0 0 0 0 0 0 0 0 0 0 0 0 0 0 0 0 0 0 0 0 0 0 0 0 0 0 0 0 0 0 0 0 0 0 0 0 0 0 0 0 0 0 0 0 0 0 0 0 0 0 0 0 0 0 0 0 0 0 0 0 0 0 0 0 0 0 0 0 0 0 0 0 0 0 0 0 0 0 0 0 0 0 0 0 0 0 0 0 0 0 0 0 0 0 0 0 0 0 0 0 0 0 0 0 0 0 0 0 0 0 0 0 0 0 0 0 0 0 0 0 0 0 0 0 0 0 0 0 0 0 0 0 0 0 0 0 0 0 0 0 0 0 0 0 0 0 0 0 0 0 0 0 0 0 0 0 0 0 0 0 0 0 0 0 0 0 0 0 0 0 0 0 0 0 0 0 0 0 0 0 0 0 0 0 0 0 0 0 0 0 0 0 0 0 0 0 0 0 0 0 0 0 0 0 0 0 0 0 0 0 0 0 0 0 0 0 0 0 0 0 0 0 0 0 0 0 0 0 0 0 0 0 0 0 0 0 0 0 0 0 0 0 0 0 0 0 0 0 0 0 
</DataArray>
<DataArray type="Float64" Name="B_conc" format="ascii">
0 0 0 0 0 0 0 0 0 0 0 0 0 0 0 0 0 0 0 0 0 0 0 0 0 0 0 0 0 0 0 0 0 0 0 0 0 0 0 0 0 0 0 0 0 0 0 0 0 0 0 0 0 0 0 0 0 0 0 0 0 0 0 0 0 0 0 0 0 0 0 0 0 0 0 0 0 0 0 0 0 0 0 0 0 0 0 0 0 0 0 0 0 0 0 0 0 0 0 0 0 0 0 0 0 0 0 0 0 0 0 0 0 0 0 0 0 0 0 0 0 0 0 0 0 0 0 0 0 0 0 0 0 0 0 0 0 0 0 0 0 0 0 0 0 0 0 0 0 0 0 0 0 0 0 0 0 0 0 0 0 0 0 0 0 0 0 0 0 0 0 0 0 0 0 0 0 0 0 0 0 0 0 0 0 0 0 0 0 0 0 0 0 0 0 0 0 0 0 0 0 0 0 0 0 0 0 0 0 0 0 0 0 0 0 0 0 0 0 0 0 0 0 0 0 0 0 0 0 0 0 0 0 0 0 0 0 0 0 0 0 0 0 0 0 0 0 0 0 0 0 0 0 0 0 0 0 0 0 0 0 0 0 0 0 0 0 0 0 0 0 0 0 0 0 0 0 0 0 0 0 0 0 0 0 0 0 0 0 0 0 0 0 0 0 0 0 0 0 0 0 0 0 0 0 0 0 0 0 0 0 0 0 0 0 0 0 0 0 0 0 0 0 0 0 0 0 0 0 0 0 0 0 0 0 0 0 0 0 0 0 0 0 0 0 0 0 0 0 0 0 0 0 0 0 0 0 0 0 0 0 0 0 0 0 0 0 0 0 0 0 0 0 0 0 0 0 0 0 0 0 0 0 0 0 0 0 0 0 0 0 0 0 0 0 0 0 0 0 0 0 0 0 0 0 0 0 0 0 0 0 0 0 0 0 0 0 0 0 0 0 0 0 0 0 0 0 0 0 0 0 0 0 0 0 0 0 0 0 0 0 0 0 0 0 0 0 0 0 0 0 0 0 0 0 0 0 0 0 0 0 0 0 0 0 0 0 0 0 0 0 0 0 0 0 0 0 0 0 0 0 0 0 0 0 0 0 0 0 0 0 0 0 0 0 0 0 0 0 0 0 0 0 0 0 0 0 0 0 0 0 0 0 0 0 0 0 0 0 0 0 0 0 0 0 0 0 0 0 0 0 0 0 0 0 0 0 0 0 0 0 0 0 0 0 0 0 0 0 0 0 0 0 0 0 0 0 0 0 0 0 0 0 0 0 0 0 0 0 0 0 0 0 0 0 0 0 0 0 0 0 0 0 0 0 0 0 0 0 0 0 0 0 0 0 0 0 0 0 0 0 0 0 0 0 0 0 0 0 0 0 0 0 0 0 0 0 0 0 0 0 0 0 0 0 0 0 0 0 0 0 0 0 0 0 0 0 0 0 0 0 0 0 0 0 0 0 0 0 0 0 0 0 0 0 0 0 0 0 0 0 0 0 0 0 0 0 0 0 0 0 0 0 0 0 0 0 0 0 0 0 0 0 0 0 0 0 0 0 0 0 0 0 0 0 0 0 0 0 0 0 0 0 0 0 0 0 0 0 0 0 0 0 0 0 0 0 0 0 0 0 0 0 0 
</DataArray>
<DataArray type="Float64" Name="region_id" format="ascii">
1 4 4 4 4 4 4 4 4 4 4 4 4 4 4 4 4 4 4 4 4 4 4 4 1 4 4 4 4 4 4 4 4 4 4 4 4 4 4 4 4 4 4 4 4 4 4 4 4 4 4 4 4 4 4 4 4 4 1 4 4 1 4 4 4 4 4 4 4 4 4 4 4 4 4 4 4 4 4 4 4 4 4 4 4 4 4 4 4 4 4 4 4 4 4 1 1 1 4 4 4 4 4 4 4 4 4 4 4 4 4 4 4 4 4 4 4 4 4 4 4 4 4 4 4 4 4 4 4 4 4 4 4 4 4 4 4 4 4 4 4 4 4 1 4 1 1 4 4 4 4 4 4 4 4 4 4 4 4 4 4 4 4 4 4 4 4 4 4 4 4 4 4 4 4 4 4 4 4 4 4 4 4 4 4 1 1 1 1 1 4 4 4 4 4 4 4 4 4 4 4 4 4 4 4 4 4 4 4 4 4 4 4 4 4 4 4 4 4 4 4 4 4 4 1 4 1 1 4 4 4 4 4 4 4 4 4 4 4 4 4 4 4 4 4 4 4 4 4 4 4 4 4 4 4 4 1 1 1 4 4 1 1 4 4 4 4 4 4 4 4 4 4 4 4 4 4 4 4 4 4 4 4 4 1 1 4 1 1 4 4 4 4 4 4 4 1 1 1 1 1 1 1 1 1 1 1 1 1 1 1 1 1 1 1 1 1 1 1 1 1 1 1 1 1 1 1 1 1 1 1 1 1 1 1 1 1 1 1 1 1 4 4 4 4 1 4 4 4 4 4 4 1 1 1 1 1 1 4 4 4 4 4 4 4 4 4 4 4 4 4 4 1 1 1 1 1 1 1 1 1 1 1 1 1 1 1 1 1 1 1 1 1 1 1 1 1 1 1 1 1 1 1 1 1 1 1 1 1 1 1 1 1 1 4 4 4 4 4 4 4 4 4 1 4 4 4 4 4 4 4 4 4 4 4 4 4 4 4 4 4 4 4 4 4 4 4 4 1 1 4 4 4 4 4 4 4 4 4 4 4 4 4 4 4 4 4 4 4 4 4 4 4 4 4 4 4 4 4 4 4 4 4 4 1 1 1 1 1 4 4 4 4 4 4 4 4 4 4 4 4 4 4 4 4 4 4 4 4 4 4 4 4 4 4 4 4 4 4 4 4 4 4 4 4 4 4 4 4 4 1 1 1 1 1 4 4 4 4 4 4 4 4 4 4 4 4 4 4 4 4 4 4 4 4 4 4 4 4 4 4 4 4 4 4 4 4 4 4 4 4 4 4 4 4 4 4 4 4 4 4 4 4 4 1 1 1 1 4 1 4 4 4 4 4 4 4 4 4 4 4 4 4 4 4 4 4 4 4 4 4 4 4 4 4 4 4 4 4 4 4 4 4 4 4 4 1 1 1 4 4 4 4 4 4 4 4 4 4 4 4 4 4 4 4 4 4 4 4 4 4 4 4 4 4 4 4 4 4 4 4 4 4 4 4 1 4 4 4 4 4 4 4 4 4 4 4 4 4 4 4 4 4 4 4 4 4 4 4 4 4 4 4 4 4 4 4 4 4 4 4 4 1 4 4 4 4 4 4 4 4 4 4 4 4 4 4 4 4 4 4 4 4 4 
</DataArray>
</CellData>
</Piece>
</UnstructuredGrid>
</VTKFile>
