<?xml version="1.0"?>
<VTKFile type="UnstructuredGrid" version="0.1" byte_order="LittleEndian">
<UnstructuredGrid>
<Piece NumberOfPoints="316" NumberOfCells="724">
<Points>
<DataArray type="Float64" NumberOfComponents="3" format="ascii">
0 0.69999999999999996 0 0.59999999999999998 0.69999999999999996 0 0 1.6319639930219929 0 0.68142292217753131 2.106313194182027 0 1.299999999998378 1.8499999999973351 0 1.243750000001385 0.69999999999999996 0 0.94999999999923723 1.2749999999987469 0 0 3.7000000000000002 0 0 3.1141786369756268 0 0.45714634023723411 3.4614941897304652 0 0.70993008501830757 2.9054181396964478 0 0 2.430303940964651 0 1.186467289461244 2.488259157846338 0 1.451787781083937 3.11022608666643 0 1.013301616169622 3.6128741719811099 0 2.08333333333292 3.599999999997022 0 2 3 0 1.649999999999066 2.4249999999984651 0 2.2687831884271348 2.397628317379688 0 2.8857059848027808 2.304389417342541 0 2.6000000000000818 2.8399999999999781 0 2.9420158813362729 3.5139475164392531 0 2.4236693135559251 3.5256579194055688 0 2.23284951060374 1.369095413116082 0 1.887500000003292 0.69999999999999996 0 1.626949751997165 1.3978044304614949 0 1.942890303101708 1.90249985684108 0 2.5341028426591712 1.9138806300960609 0 3.16379900756549 1.750659825629856 0 3.047698899035677 1.175177397439602 0 2.730231246675086 1.4599417336750831 0 2.5312500000049418 0.69999999999999996 0 3.1750000000065048 0.69999999999999996 0 3.638214240926366 1.265285427893069 0 3.8187500000045098 0.69999999999999996 0 4.2198317920941601 1.108273596938623 0 4.7733688274428578 1.2511819424194319 0 4.4625000000026009 0.69999999999999996 0 4.6250000000004974 1.8500000000004651 0 4.25 1.5 0 4.0559490150232032 2.028653202947901 0 3.757799744899315 1.759341836734688 0 3.5028943452390711 2.1825773809523441 0 3.2000000000001432 2.679999999999962 0 3.2848100522576571 3.06994577157805 0 3.8000000000002032 2.5199999999999458 0 3.412636880282601 3.6134558579332841 0 3.8190056356267248 3.2454749759848052 0 3.874999999992375 3.7500000000050839 0 4.25 3.5 0 4.5652883261780408 3.549611461603364 0 4.3536256774790401 3.0337160882464551 0 4.75 2.7999999999999998 0 4.4000000000001336 2.3599999999999639 0 5.5 2.7999999999999998 0 5.2499999999996163 2.499999999999539 0 5.0000000000002984 3.5999999999995218 0 4.9131042795799686 3.1639526813742029 0 5.5486111111111649 3.4166666666664391 0 5.2500000000003251 3.1999999999994801 0 5.9166666666663046 3.1999999999996529 0 6.3333333333330009 3.5999999999996799 0 6 3.7999999999999998 0 5.75 2.5 0 6.3749999999999796 2.350000000000005 0 5.8758020027701336 1.829281458631685 0 6.1230253171455891 1.2440604005832661 0 5.75 0.69999999999999996 0 5.5000000000008269 1.1999999999983459 0 5.1062500000012143 0.69999999999999996 0 5 2.2000000000000002 0 5.4251604005540912 2.1458562917259631 0 5.2500000000007052 1.6999999999985891 0 5.3819444444444393 5.7444444444444036 0 4.8969907407407627 5.6240740740739659 0 5 6.2999999999999998 0 5.1289108351881252 6.943051186131636 0 5.5 6.3500000000000014 0 6 6.4000000000000004 0 6.0367063492063266 5.8849206349206353 0 6.25 5.5 0 6.2822169506114909 4.9442489896720572 0 5.75 5.25 0 6.3749999999999352 3.899999999999983 0 6.249999999989754 4.333333333340164 0 5.7499999999897531 4.6666666666734979 0 5.7901785714252867 4.1543650793672633 0 5.6250000000000648 3.899999999999983 0 5.25 4 0 5.2812499999974998 4.480555555557217 0 5.25 5 0 4.8333333333337283 5.2333333333331122 0 4.4166666666668641 5.4666666666665567 0 4.75 4.7000000000000002 0 4.25 4.7999999999999998 0 4.75 4 0 4.7500000000003384 4.3999999999997286 0 4.1250000000089333 4 0 3.625000000001803 4.4499999999997977 0 3.2187500000011142 4.5624999999995248 0 3.5 4 0 3.749999999999261 5.3499999999989658 0 3.5 5 0 3.4166666666672652 5.4000000000003077 0 3.3999999999985642 5.8000000000002396 0 3.6250000000072249 5.9999999999942197 0 4 5.7000000000000002 0 4.25 6.2000000000000011 0 4.4999999999995417 5.9999999999997264 0 4.5 6.6999999999999993 0 3.833430775055819 6.5641729053027689 0 3.25 6.2999999999999998 0 3.3303561509924351 6.9830522680580502 0 2.580520851116443 6.6244224184663167 0 2.799999999997127 5.9000000000004791 0 2.1999999999956921 6.0000000000007194 0 1.599999999997112 6.1000000000004819 0 1.646932375870239 6.6136900344172886 0 2.75 4 0 3.1249999999889848 4 0 3.0833333333345938 4.2666666666658593 0 2.6666666666680592 4.5333333333324424 0 2.8333333333331181 5.0999999999998904 0 2.227678571427079 5.4095242619018373 0 1.75 5 0 2.25 4.7999999999999998 0 1.6874999999994109 4.5249999999997117 0 2.1666666666662731 4.1999999999971616 0 1.1249999999964171 4.2499999999982494 0 1.593428957229921 3.8897035774451321 0 1.042857142856084 4.9670058772507648 0 0 5.1095205703790167 0 0.54607142857014845 4.5325429890369104 0 0 4.3611884975573796 0 0.56249999999824107 3.9749999999991399 0 1.532738095236533 5.6571455714099397 0 1 6.2000000000000002 0 0.59593253968210291 5.8008707178522592 0 0 5.9564815289107864 0 0 6.9150707591630427 0 0.93837900218741932 7.1804089820132404 0 1.1705225977355731 8 0 0 8 0 2.644109419022838 7.3867316522664499 0 1.8128190395187029 7.3536930984991047 0 2.2707825856939472 8 0 4.2771317171003211 8 0 4.75 7.2000000000000002 0 4.045228499335253 7.2019851637643439 0 3.3049975410581078 8 0 6.049840683362258 8 0 5.1909118800994873 8 0 5.8367197674990106 7.1166649360427767 0 6.4684217593582272 7.3531189884776698 0 7.2585497534189534 7.2378318565328508 0 7.616117101574889 8 0 6.8572107462251504 8 0 9 8 0 9.4363260705848777 7.4358468248574452 0 8.8779286709583509 7.1321289214782846 0 8.5625 7.5 0 7.9700743397311431 7.5609350974516802 0 8.3294684777734691 8 0 10.58712006499414 8 0 10.11683562520899 7.1952376222900778 0 9.7322767000115658 8 0 12.75 8 0 11.58504501385041 8 0 12.75 6.9437741439064196 0 12.75 6.038988862336077 0 12.186383928571081 5.6739548845775634 0 11.574999999999131 5.6499999999963926 0 11.9 7 0 11.73749999999942 6.3249999999975941 0 11.09889622188336 7.0112522472967331 0 10.44528068387236 6.4182408893442124 0 11.14723036767284 6.2469725545514123 0 10.917277223084589 5.4813827249950968 0 10.75003341587618 5.9107455977173604 0 10.318895127649739 5.6829040483701769 0 9.75 5.5 0 9.6816900032536655 6.1509933969218187 0 9.9618211858937151 6.6596055842737263 0 10.249999999999989 4.0999999999999979 0 9.75 4 0 9.9378319844489287 4.5341095853144147 0 10.058566397584119 5.1088423539901608 0 10.5 4.7999999999999998 0 10.680373124719701 5.0996881878923999 0 10.875 4.5499999999999998 0 10.462566396889811 4.436821917062888 0 10.75000000000014 4.2000000000000286 0 11.25 4.2999999999999998 0 11.749999999999741 4.3999999999999488 0 11.625000000000339 3.9999999999997291 0 11.412499999999749 4.9749999999989596 0 12.096269132652781 5.0089836801012728 0 12.75 5.2639308761360883 0 12.24999999999979 4.4999999999999574 0 12.75 4.5999999999999996 0 12.75 4.0003174080232462 0 12 3.7000000000000002 0 12.75 3.321597619569264 0 12.75 2.5534237251028711 0 12.044687057114441 2.397006001356599 0 12.143679596734311 3.0238066578277132 0 11.55235714707381 2.7530147867259149 0 11.47885376845919 3.3750712564560699 0 12.75 0.69999999999999996 0 12.01693014330492 1.5940258229091431 0 12.75 1.684005592221304 0 11.44640120743219 2.1177712645927089 0 11.166666666666989 1.49999999999966 0 11.67768621522576 0.69999999999999996 0 11.550000000000001 1.1000000000000001 0 10.730243372206591 0.69999999999999996 0 10.382627631995829 1.3873204946718609 0 10.78333333333231 1.9000000000010699 0 10.106350669919401 1.9180519417420421 0 9.7536823278228866 1.476350104461625 0 9.8931307966635327 0.69999999999999996 0 10.518069334214999 3.694433421516421 0 11.03749999999963 3.7999999999991241 0 10.82499999999963 3.2999999999991241 0 11.09116063133933 2.9444106525201019 0 10.98709224116409 2.4939672194195301 0 10.4 2.2999999999999998 0 10.36597949429223 3.0810719490983871 0 10.612499999999949 2.7999999999998741 0 9.9333333333295304 2.4333333333344198 0 9.9181425014481057 2.833188223635065 0 9.9242224243089208 3.5053525499705862 0 9.3125000000000018 3.6250000000000022 0 8.8750000000000036 3.2500000000000022 0 9.4186530900934855 3.112704842739701 0 9.1699287288289124 2.374148078484497 0 9.4666666666644659 2.5666666666672948 0 9 2.7000000000000002 0 8.4375000000000018 2.8750000000000009 0 8.4999999999999503 2.5999999999999899 0 8 2.5 0 8.25 3.7000000000000002 0 8.7499999999999556 3.7999999999999909 0 8.412499999999941 3.345000000000117 0 9.1535002593721142 0.69999999999999996 0 9.294553589509567 1.3214674021148729 0 8.816324129544423 1.139459074151014 0 8.8002334655075174 1.6758279686386801 0 9.3851273930358641 2.0113077179832741 0 8.8279208556153161 2.2186179292874191 0 8.1666666666661811 1.900000000001745 0 8.3333333333329112 1.3000000000015179 0 8.5 0.69999999999999996 0 7.8125000000000018 0.69999999999999996 0 7.6227778138185824 1.133263353986153 0 7.6816945906127989 1.5894745186858981 0 7.75 2.25 0 7.5 2 0 7 2.2000000000000002 0 6.6325887022434813 1.7109098098422979 0 7.1647318986115511 1.809291393235446 0 7.1613611451472012 1.37684225124335 0 6.6841764304611262 1.174631096497762 0 6.4375000000000027 0.69999999999999996 0 7.1250000000000044 0.69999999999999996 0 7.5 3.7000000000000002 0 7.749999999999754 3.1000000000005912 0 7.4999999999999769 2.349999999999993 0 7.1682741769546334 2.9476245590829571 0 6.4676238242209063 2.8855733497101581 0 6.7300925925924284 3.401388888888814 0 6.75 4 0 6.6887757623921971 4.5124976540268094 0 7.2499999999897531 4.3333333333265021 0 7.749999999989754 4.666666666659836 0 7.9282200727472034 4.1620177469108377 0 7.6417937536871419 5.1654402589958011 0 7.8750000000136362 4.9000000000036366 0 7.5 4.7999999999999998 0 7.2802004846459853 5.1175278771156387 0 7.0073846965074598 5.2778944676064459 0 6.936160960427304 4.89683078406033 0 6.5 5.2999999999999998 0 6.75 5.75 0 6.6249999999998499 6.2000000000000481 0 6.8750000000007789 5.6500000000007269 0 6.518953214484978 6.7704843776901313 0 7.0801824727701241 6.5807936507936633 0 7.6875 6.5 0 7.3577684192630528 5.5086946
[...]
<CellData Scalars="A_conc,B_conc,region_id," Vectors="" Tensors="">
<DataArray type="Float64" Name="A_conc" format="ascii">
0.71098876378722209 0.71562710375313165 0.68762367753382403 0.80879953052312703 0.82794059525614627 0.80676361161682919 0.81539418514158535 0.87059490571530718 0.87831272637692526 0.8749611092438645 0.38877989241555599 0.28490864088600293 0.30976178697920542 0.25437533740126939 0.88848394359366001 0.90823506333713744 0.88467035991892184 0.894291081592128 0.8867932831275207 0.89817047613437584 0.87668299780860548 0.87735040028253408 0.88152411270913711 0.90570583626241208 0.90129988893794233 0.90159420339439378 0.90834161285331239 0.83409911955501848 0.91244600056961089 0.9187245841684899 0.86878854513220816 0.92314435554933916 0.85787988365953871 0.83228326099188688 0.92719484666825525 0.91264948473834129 0.90923027700711878 0.77719494532771427 0.84784889305938216 0.87178192479579175 0.90336260509381616 0.92976236351989106 0.88178178381147543 0.89084074551368464 0.86549917524176356 0.85588418597885896 0.86363067992072806 0.35725328511240823 0.33517969614051596 0.47586496909054243 0.50212172596050364 0.70327288084420159 0.62124631415309928 0.72667332071752977 0.53722102678165085 0.5575369544412927 0.80135415052367676 0.83283800436295774 0.8180189636187658 0.63347678217795766 0.62483612024069857 0.3956886450643099 0.37995885586489753 0.29343715896486988 0.31554885058466409 0.33330421325354243 0.63581969939731109 0.35675865751668762 0.25429561705056447 0.69351391179741184 0.70830420805196803 0.28454695885275388 0.26115383763740974 0.93390436302481439 0.91876166981297036 0.7204032392239258 0.89707028794034649 0.89184433110247197 0.88536122520604299 0.91149721038255938 0.87990106991757755 0.9008206751685911 0.76061797247273666 0.74625414289350678 0.84643930435446413 0.88279566687658328 0.93132461832312874 0.89380677010712595 0.90170560502856589 0.88998843153994633 0.89212996344635787 0.88316359551384704 0.8746408463102775 0.90878303026171281 0.91252965294946509 0.92867236027518529 0.90689419499506929 0.9154769196685355 0.91392582891403396 0.91221858516681043 0.93095652172041499 0.94194892434221122 0.94029198380516199 0.92511776123905176 0.9149705685674292 0.93263105284599734 0.90296922412404279 0.90799728125181178 0.89712371242875899 0.90377380200430801 0.94604439745991853 0.89264409114671084 0.8864190731222743 0.92310355185339144 0.96441096905940182 0.9506692607214916 0.94910704656919243 0.96178547323515295 0.96106003115450189 0.90786785585257734 0.90672900182184901 0.96621418703224793 0.072441805384077698 0.92605441430009217 0.9439510454070088 0.94675178708818564 0.94882548135091349 0.24532532359861026 0.43168623628848857 0.33703422686471018 0.14581145842063509 0.49962037314982133 0.97036324311392885 0.62207773672039024 0.63708615988929429 0.91314908325527333 0.92807269994053221 0.7729205109017665 0.97576768543451531 0.78283168972815798 0.97466023792595435 0.92631301422058931 0.90580330679428767 0.93053744041458997 0.94220986345638957 0.9758351127546141 0.92066490621623998 0.92009733466711474 0.91470182956262325 0.76804616852533125 0.66121395518450987 0.49270905661366782 0.62769424825916631 0.74243197802689198 0.54405590979344354 0.35987261838973195 0.32078313703853301 0.43244558902429447 0.62254509171734473 0.61015875330653557 0.92183330810870789 0.70428363657020843 0.84565994587831805 0.90007916160159862 0.71699915084595545 0.85110783379620436 0.6431102012921629 0.67289886145719868 0.61873662699289089 0.69111443605876222 0.59540876043747193 0.75832474705271147 0.92165816445213289 0.75141802879866204 0.92975293634685952 0.8046471481305093 0.81405937190912314 0.93550478709881402 0.77143192200414712 0.70702419504586722 0.68863929166582682 0.81951934469933863 0.86184517532910743 0.86575216574796832 0.95963286366115863 0.95001883894942596 0.89897673391907751 0.95102728966286609 0.94423501099398899 0.96837496845770621 0.96282146014762615 0.95650149596364342 0.97884462049262488 0.9549689433566817 0.94631893034342307 0.96289614500575216 0.95839437073804512 0.95081340168768935 0.9602606405377363 0.94131129455202733 0.93762590061680418 0.94552693510983821 0.90320363575145701 0.8507343675196356 0.88924401835148204 0.836572801256392 0.97673530981607037 0.93927437580233741 0.85309775917620945 0.92989823482873168 0.8032786454040407 0.79422837861848461 0.84622612083948734 0.96853803121556403 0.82053371171300726 0.90962293467729172 0.96711434975917521 0.91382110529745109 0.90290867357949645 0.92148350062129514 0.91824550897957025 0.89976067585774644 0.93802848704019759 0.93625672330196674 0.91185259736904856 0.9151735680161649 0.89890077903845345 0.8974009903128074 0.911402492971775 0.45114874269229571 0.88229682796366538 0.78072424183858535 0.71313963204874864 0.8944905364777197 0.90201593234094457 0.65984695821689154 0.69933231836261811 0.92990792772487396 0.90015208470909225 0.89179430147530081 0.74110615373246991 0.77005303667439029 0.92176104187505969 0.93851540297509417 0.93914159843733624 0.72583364381511573 0.93166276659042957 0.92487873314413038 0.76688743067116727 0.89556715350899496 0.67435720194508797 0.9627917694921827 0.89360075102237002 0.55438042397361542 0.68210631689081436 0.90810542420098694 0.70848770187010257 0.25511701850419899 0.29884683212075941 0.6930839101531745 0.65690585904204946 0.38407965526747301 0.44577476166075786 0.27500329782590249 0.23702788991622772 0.67644647730762353 0.79385916261138967 0.54600922257894735 0.67640326633007064 0.90435623966174372 0.8939204055164256 0.93584132221223282 0.92123181588703373 0.90262361663786295 0.9327860153252443 0.91486594858446391 0.92464057432295421 0.91438011289856236 0.92889246563198591 0.89271644474922818 0.71318904126978666 0.83447184594383539 0.84891631907286724 0.7402724491055741 0.79039368848047709 0.53440102399904532 0.88925130373594441 0.87644760993118875 0.86994564670365238 0.92336465266022394 0.91622790678553112 0.86734747140645085 0.92889534587276079 0.88272209889644149 0.87520794020390702 0.93195447447127733 0.91099130197030076 0.90490473748044553 0.88909424924914715 0.90156807795400018 0.88378071467977248 0.81333008865603307 0.90341495645665848 0.9115001598567154 0.91142320638632857 0.90125064059060755 0.91207161372740775 0.91765043281999781 0.90937237226667267 0.89124571727905222 0.89560370771299769 0.89576540147186501 0.91045956910520343 0.88771650149149739 0.88333265393220917 0.90413693537268369 0.88855787266829012 0.90056518739896751 0.89860138139921597 0.88379714724534031 0.87857796596389637 0.87943596063869411 0.87803815968885068 0.88455508464481403 0.85409607051477809 0.70149364400635594 0.9166599513004603 0.9215620471700251 0.92233971278113303 0.91886520449808717 0.91512184075375669 0.8983322641808652 0.84774142094848204 0.85817275210214516 0.5136436590572161 0.38582318582958142 0.40283369206029285 0.17867243733234939 0.21781956299983463 0.24210356222616214 0.52386097382432184 0.26645701287296797 0.40154245677716727 0.45604630170546656 0.25390776012954713 0.32328044222351959 0.52675678665431869 0.56518857026998326 0.57798390375910136 0.67522932520036361 0.77241135914284142 0.70684397852213787 0.82991329803539959 0.78970739834225134 0.92820740402908997 0.85524528835937907 0.9004841475942067 0.97482936121586006 0.97369128431827257 0.9788678730996645 0.97281811374145533 0.96709467265260085 0.95229490012792095 0.96444641471460146 0.96191207968069325 0.94995691445973884 0.91428777117443194 0.93793039751956275 0.98633561233332578 0.98925640148143112 0.98132660271153127 0.98332396932580068 0.97502358399724343 0.99253085054099022 0.99449850416147245 0.99736514574311075 0.9959954745041788 0.99270657778032567 0.99320261356826844 0.9976534294490278 0.97324766388807982 0.9815488409481119 0.99028298720004715 0.97741058605689812 0.98573796211276865 0.98353047574503616 0.98304378138573734 0.97858759118626226 0.97983739844980378 0.97271155926583019 0.97017354774004616 0.96709781049381549 0.96887432316221034 0.96585330592980223 0.96427874586662576 0.96287985159211076 0.96797873287567671 0.97520147670190571 0.97708062448210864 0.96807936422179153 0.98571351393982964 0.98197979336009611 0.98363980961874287 0.99507182085572987 0.97985295744304179 0.97481045766350127 0.96937970284125718 0.96683076734228424 0.9687833588444853 0.97789470741726858 0.97903529499770836 0.97696918365297369 0.96820052079280727 0.97137570889520197 0.97480478241995794 0.99126736642080482 0.9920689393108022 0.98415906832700806 0.98497142215295397 0.98945017028359949 0.99565965068387419 0.98458964485188105 0.98888973254443546 0.99186355117124925 0.99606822982548671 0.98836714232027001 0.99475713577601677 0.98376386385662307 0.99078134291125952 0.98263093958528003 0.99874323415245614 0.97894794352445225 0.9771917720125296 0.9872044997975804 0.99267339983342628 0.97971210422542598 0.97493345937228548 0.98967005221567395 0.99207887605743461 0.98888129637940525 0.99482655376718077 0.99753705809191762 0.99545402623597246 0.99535353453978925 0.9936268079558378 0.99333367633771641 0.99927921078746507 0.9980336740983955 0.99966677295994855 0.99727709160097522 0.99515829374886267 0.99775898489413639 0.99502922689239293 0.99289890232487554 0.98994783467968006 0.99016034275497244 0.98779112743464959 0.98509857661747136 0.987811090231556 0.98760630054766363 0.99116358502020019 0.98552023706321634 0.99309906636086742 0.99755316220096368 0.99410189911437574 0.99737784058389012 0.99458386362992623 0.99231344619878414 0.98897022578767291 0.99080759668500384 0.98986977551962951 0.9932013573829932 0.98244713576030718 0.9835827300309602 0.98775598775233453 0.97168111335122709 0.97744210310569923 0.9798542695339767 0.98627746676782957 0.98429787946001746 0.97706724961829761 0.96723591460056224 0.98142307403176943 0.96796533605733193 0.96062502948387896 0.95753118744450605 0.96503998082156872 0.97654461065110887 0.97068257176791439 0.96599905735730429 0.98359753467274891 0.98767102883285973 0.99271295865491771 0.98148859089517015 0.98508569598659657 0.98169866370903824 0.982711941997645 0.98881689054646515 0.9792633057728084 0.99076466866970003 0.9861849245183737 0.97949220558174366 0.9723841160420521 0.98517354349415287 0.97674591138165101 0.95902385263797307 0.96724018384069099 0.98438717421428035 0.96388021060336349 0.96966641455409319 0.9745019927057712 0.97842096233536591 0.97943266880963953 0.9759841569778106 0.97077934637338381 0.98157615226767181 0.9915944199983957 0.98369630911260808 0.97284529415574517 0.97864410923756306 0.98800259780874622 0.96431204341921151 0.95938455976356196 0.95959228435250021 0.98349202951760128 0.95237706154945334 0.95626189950634721 0.94846202008181413 0.9428157337023455 0.95075655001981618 0.95521765238895562 0.98465670557961182 0.94655126277301838 0.98222827218686526 0.98029889023970651 0.94153712271344558 0.92600136418947676 0.9817212869040346 0.82942771229765777 0.95707905672377547 0.95221186681754277 0.96689481034448987 0.97283199971189527 0.97256650816864931 0.96528014762416015 0.96679950889908195 0.94721954747324977 0.95410443178522952 0.95853860137258939 0.94596554451751103 0.94956091524662334 0.95528369527721058 0.95108940019044674 0.94343438809020741 0.93247568543669601 0.93550250920544908 0.81696308051728694 0.84980710901162049 0.86019443455534694 0.83382060665589042 0.93113107101089254 0.94059014930630114 0.86617358565323666 0.94070861227501212 0.89209021304546843 0.77574350497757272 0.80959257297807041 0.83820256876285937 0.80415873378208069 0.77935960851707431 0.85434374587097084 0.82921331582662305 0.86336812522309458 0.87530899018632136 0.96009339261094517 0.95526996785494966 0.93914414018556625 0.95854133627185001 0.97763944471768793 0.92583031725252973 0.92906030954960062 0.97687226388153903 0.81313694967755845 0.77900066384750977 0.7574357259226413 0.6995688238881923 0.7193366771193086 0.75378327808887224 0.94643645314235769 0.95160644612485212 0.9507065215413304 0.94743711995338054 0.96468945293812003 0.9654879394326239 0.97825152675149962 0.96954905345550724 0.97026974666710686 0.96060718533497691 0.96098008930683743 0.93911111170625494 0.9542118786878635 0.94847597908470793 0.93406044126055521 0.94081901273283064 0.93509406833922548 0.93141895619215664 0.87498869933521561 0.9243532638138372 0.97104909324644295 0.97881807894448958 0.9801044943112287 0.96433836808549023 0.96110081465279895 0.96953511869983755 0.94392687839527856 0.96939353798512307 0.98104600962187527 0.94802625432638266 0.98359205300686259 0.97244743384047161 0.97570190600284157 0.95573887673974722 0.97244470967878827 0.97407876858608666 0.97347523123470281 0.97832778030182577 0.97983563153206732 0.97335822902819102 0.97461133454711124 0.97386037636789369 0.96954896480434749 0.97244105427861993 0.97071941640837744 0.96922114573052442 0.96355013161371172 0.96470217771164957 0.96681396299491185 0.96772198883596372 0.96541041746015699 0.96154717873032958 0.94762046259463339 0.90161194145054468 0.95011291039222556 0.95523947443296531 0.83577083864763635 0.93894071244026656 0.91555294061228532 0.88879758947337961 0.91828721772415667 0.94716554733109004 0.93976058072317492 0.93406445812123562 0.87723461901443445 0.89353588485933499 0.88058324241833108 0.92931048665772065 0.90892959205160284 0.93001858024628481 0.92433561708649492 0.95306416369788738 0.95619927378545544 0.94600052821689329 0.91516994095274717 0.92739462442589304 0.92272179644991104 0.94880823557294192 0.92745193012425697 0.91958428511105339 0.93552865562345155 0.93713226944430428 0.94840868402716205 0.88531226770524785 0.92204183183427357 0.95329024745811286 0.95572050810508746 0.89136408389604593 0.89074950407382003 0.95483818596326497 0.96010024954872608 0.96275916323765198 0.95869864537340632 0.96601003639320926 0.96617804222175119 0.95545878125273576 0.95800248075831707 0.96055970116733169 0.9607790128252014 0.96077893281625504 0.95861383196721361 0.96777321543702199 0.95676723862203295 0.95320690448719647 0.96413424365064826 0.9505908835395056 0.94485804419874564 0.74528167171237247 0.96707229259564453 0.97426670560169293 0.9900442991210896 0.9941909897574035 0.98645688536693898 0.980102396380929 0.97954760917166839 0.97550195622246405 0.97088722771092328 0.99319742451128279 0.97166954416360429 0.96877324979973811 0.96531144807359692 0.96196058298482146 0.98552535815313358 0.96168476739988584 0.98168573813300974 0.98002897259093436 0.96325320247848345 0.95629408530497506 0.92916944619227992 0.98189213830425137 0.95011029995669927 0.90753408594053908 0.94159778524239135 0.96722328146591197 0.99186920946324397 0.96336195698799276 
</DataArray>
<DataArray type="Float64" Name="B_conc" format="ascii">