<?xml version="1.0"?>
<VTKFile type="UnstructuredGrid" version="0.1" byte_order="LittleEndian">
<UnstructuredGrid>
<Piece NumberOfPoints="316" NumberOfCells="724">
<Points>
<DataArray type="Float64" NumberOfComponents="3" format="ascii">
0 0.69999999999999996 0 0 8 0 0 3.7000000000000002 0 1.243750000001385 0.69999999999999996 0 0.68142292217753131 2.106313194182027 0 0 1.6319639930219929 0 0 2.430303940964651 0 0.70993008501830757 2.9054181396964478 0 0 3.1141786369756268 0 0.45714634023723411 3.4614941897304652 0 1.013301616169622 3.6128741719811099 0 1.451787781083937 3.11022608666643 0 1.186467289461244 2.488259157846338 0 0.56249999999824107 3.9749999999991399 0 0.59999999999999998 0.69999999999999996 0 2.2687831884271348 2.397628317379688 0 2.4236693135559251 3.5256579194055688 0 2.9420158813362729 3.5139475164392531 0 2.8857059848027808 2.304389417342541 0 3.16379900756549 1.750659825629856 0 2.5341028426591712 1.9138806300960609 0 1.942890303101708 1.90249985684108 0 2.23284951060374 1.369095413116082 0 1.626949751997165 1.3978044304614949 0 1.887500000003292 0.69999999999999996 0 2.5312500000049418 0.69999999999999996 0 2.730231246675086 1.4599417336750831 0 3.047698899035677 1.175177397439602 0 3.1750000000065048 0.69999999999999996 0 0.94999999999923723 1.2749999999987469 0 1 6.2000000000000002 0 1.1249999999964171 4.2499999999982494 0 3.8187500000045098 0.69999999999999996 0 3.638214240926366 1.265285427893069 0 3.5028943452390711 2.1825773809523441 0 3.757799744899315 1.759341836734688 0 4.0559490150232032 2.028653202947901 0 4.7733688274428578 1.2511819424194319 0 4.2198317920941601 1.108273596938623 0 4.4625000000026009 0.69999999999999996 0 5.1062500000012143 0.69999999999999996 0 6.1230253171455891 1.2440604005832661 0 5.8758020027701336 1.829281458631685 0 5.4251604005540912 2.1458562917259631 0 1.299999999998378 1.8499999999973351 0 5.5486111111111649 3.4166666666664391 0 4.9131042795799686 3.1639526813742029 0 4.5652883261780408 3.549611461603364 0 4.3536256774790401 3.0337160882464551 0 3.2848100522576571 3.06994577157805 0 3.8190056356267248 3.2454749759848052 0 3.412636880282601 3.6134558579332841 0 1.75 5 0 1.6874999999994109 4.5249999999997117 0 1.599999999997112 6.1000000000004819 0 1.649999999999066 2.4249999999984651 0 3.625000000001803 4.4499999999997977 0 3.2187500000011142 4.5624999999995248 0 4.1250000000089333 4 0 5.2812499999974998 4.480555555557217 0 5.7901785714252867 4.1543650793672633 0 6.2822169506114909 4.9442489896720572 0 2 3 0 2.25 4.7999999999999998 0 4.8969907407407627 5.6240740740739659 0 2.08333333333292 3.599999999997022 0 2.1666666666662731 4.1999999999971616 0 2.1999999999956921 6.0000000000007194 0 5.3819444444444393 5.7444444444444036 0 6.0367063492063266 5.8849206349206353 0 5.1289108351881252 6.943051186131636 0 3.833430775055819 6.5641729053027689 0 3.3303561509924351 6.9830522680580502 0 2.6000000000000818 2.8399999999999781 0 2.580520851116443 6.6244224184663167 0 1.646932375870239 6.6136900344172886 0 2.6666666666680592 4.5333333333324424 0 2.75 4 0 2.227678571427079 5.4095242619018373 0 2.799999999997127 5.9000000000004791 0 2.8333333333331181 5.0999999999998904 0 1.042857142856084 4.9670058772507648 0 1.593428957229921 3.8897035774451321 0 0.54607142857014845 4.5325429890369104 0 0 4.3611884975573796 0 0 5.1095205703790167 0 3.0833333333345938 4.2666666666658593 0 3.1249999999889848 4 0 0 5.9564815289107864 0 0.59593253968210291 5.8008707178522592 0 1.532738095236533 5.6571455714099397 0 0 6.9150707591630427 0 3.2000000000001432 2.679999999999962 0 3.25 6.2999999999999998 0 1.1705225977355731 8 0 0.93837900218741932 7.1804089820132404 0 1.8128190395187029 7.3536930984991047 0 3.4166666666672652 5.4000000000003077 0 3.3999999999985642 5.8000000000002396 0 3.5 5 0 3.5 4 0 2.644109419022838 7.3867316522664499 0 2.2707825856939472 8 0 3.6250000000072249 5.9999999999942197 0 3.749999999999261 5.3499999999989658 0 3.8000000000002032 2.5199999999999458 0 3.874999999992375 3.7500000000050839 0 4 5.7000000000000002 0 4.25 3.5 0 4.25 4.7999999999999998 0 4.25 1.5 0 4.25 6.2000000000000011 0 4.4999999999995417 5.9999999999997264 0 4.4166666666668641 5.4666666666665567 0 4.6250000000004974 1.8500000000004651 0 4.4000000000001336 2.3599999999999639 0 4.75 7.2000000000000002 0 4.5 6.6999999999999993 0 4.75 4 0 4.75 4.7000000000000002 0 4.7500000000003384 4.3999999999997286 0 4.75 2.7999999999999998 0 5 6.2999999999999998 0 4.8333333333337283 5.2333333333331122 0 5 2.2000000000000002 0 5.0000000000002984 3.5999999999995218 0 5.25 5 0 5.5000000000008269 1.1999999999983459 0 5.25 4 0 5.5 6.3500000000000014 0 5.2500000000003251 3.1999999999994801 0 5.2500000000007052 1.6999999999985891 0 5.2499999999996163 2.499999999999539 0 5.5 2.7999999999999998 0 5.7499999999897531 4.6666666666734979 0 5.75 0.69999999999999996 0 5.75 5.25 0 5.6250000000000648 3.899999999999983 0 5.75 2.5 0 5.9166666666663046 3.1999999999996529 0 6.3749999999999796 2.350000000000005 0 6 3.7999999999999998 0 6 6.4000000000000004 0 4.2771317171003211 8 0 3.3049975410581078 8 0 4.045228499335253 7.2019851637643439 0 6.3749999999999352 3.899999999999983 0 6.249999999989754 4.333333333340164 0 6.3333333333330009 3.5999999999996799 0 6.25 5.5 0 5.1909118800994873 8 0 6.049840683362258 8 0 5.8367197674990106 7.1166649360427767 0 6.4684217593582272 7.3531189884776698 0 6.6249999999998499 6.2000000000000481 0 6.8572107462251504 8 0 6.5 5.2999999999999998 0 7.616117101574889 8 0 7.2585497534189534 7.2378318565328508 0 6.75 4 0 7.9700743397311431 7.5609350974516802 0 8.8779286709583509 7.1321289214782846 0 9.4363260705848777 7.4358468248574452 0 6.75 5.75 0 8.3294684777734691 8 0 6.8750000000007789 5.6500000000007269 0 7 2.2000000000000002 0 7.2499999999897531 4.3333333333265021 0 7.25 6 0 7.5 3.7000000000000002 0 7.4999999999999769 2.349999999999993 0 7.5 4.7999999999999998 0 7.5 2 0 7.6500000000000004 6.2000000000000002 0 7.75 2.25 0 7.749999999999754 3.1000000000005912 0 7.749999999989754 4.666666666659836 0 7.6875 6.5 0 7.75 5.5 0 7.8750000000136362 4.9000000000036366 0 8.125 7 0 8 2.5 0 8.1666666666661811 1.900000000001745 0 8.3333333333329112 1.3000000000015179 0 8 5.25 0 8.25 5 0 8.25 3.7000000000000002 0 8.4375000000000018 2.8750000000000009 0 8.4999999999999503 2.5999999999999899 0 8.5625 7.5 0 8.5 0.69999999999999996 0 8.7499999999999982 4.6666666666666679 0 8.7499999999999556 3.7999999999999909 0 8.625 5.25 0 8.75 5.166666666666667 0 9 8 0 8.8750000000000036 3.2500000000000022 0 9 5.5 0 9 2.7000000000000002 0 9.25 5.333333333333333 0 9.25 4.3333333333333339 0 10.58712006499414 8 0 9.3125000000000018 3.6250000000000022 0 9.2500000000000728 3.900000000000015 0 9.7322767000115658 8 0 10.11683562520899 7.1952376222900778 0 9.4666666666644659 2.5666666666672948 0 11.58504501385041 8 0 12.75 6.9437741439064196 0 9.75 5.5 0 9.9333333333295304 2.4333333333344198 0 9.75 4 0 12.186383928571081 5.6739548845775634 0 12.75 6.038988862336077 0 12.75 5.2639308761360883 0 12.096269132652781 5.0089836801012728 0 12.75 4.0003174080232462 0 10.680373124719701 5.0996881878923999 0 10.462566396889811 4.436821917062888 0 9.9378319844489287 4.5341095853144147 0 10.058566397584119 5.1088423539901608 0 10.249999999999989 4.0999999999999979 0 9.6816900032536655 6.1509933969218187 0 10.318895127649739 5.6829040483701769 0 10.917277223084589 5.4813827249950968 0 11.14723036767284 6.2469725545514123 0 10.75003341587618 5.9107455977173604 0 10.44528068387236 6.4182408893442124 0 11.09889622188336 7.0112522472967331 0 9.9618211858937151 6.6596055842737263 0 9.5164239722228405 6.8348750909827052 0 10.4 2.2999999999999998 0 10.5 4.7999999999999998 0 9.1030890763140047 6.5321818396608462 0 9.3303864350508938 5.6813923661908907 0 8.970242172000809 5.9226351006993019 0 8.4972876044463757 5.8311422148541041 0 8.0796282337786849 6.311844367667188 0 8.6126164010124153 6.4595270667143572 0 10.75000000000014 4.2000000000000286 0 10.612499999999949 2.7999999999998741 0 6.518953214484978 6.7704843776901313 0 7.0801824727701241 6.5807936507936633 0 7.3577684192630528 5.5086946576740887 0 7.9635986863599726 5.855288607768216 0 7.612180670462922 5.8137861955531047 0 10.875 4.5499999999999998 0 10.82499999999963 3.2999999999991241 0 11.03749999999963 3.7999999999991241 0 10.78333333333231 1.9000000000010699 0 7.6417937536871419 5.1654402589958011 0 7.2802004846459853 5.1175278771156387 0 7.0073846965074598 5.2778944676064459 0 6.936160960427304 4.89683078406033 0 6.6887757623921971 4.5124976540268094 0 7.9282200727472034 4.1620177469108377 0 8.6312122071040278 4.1551278659605089 0 8.2402653769809682 4.5238773148127134 0 8.180981048467725 5.4477384704370531 0 9.3812574935583886 4.9465914098774082 0 11.166666666666989 1.49999999999966 0 11.550000000000001 1.1000000000000001 0 11.412499999999749 4.9749999999989596 0 11.25 4.2999999999999998 0 9.4186530900934855 3.112704842739701 0 9.1699287288289124 2.374148078484497 0 8.412499999999941 3.345000000000117 0 6.7300925925924284 3.401388888888814 0 7.1682741769546334 2.9476245590829571 0 6.4676238242209063 2.8855733497101581 0 11.9 7 0 11.749999999999741 4.3999999999999488 0 11.625000000000339 3.9999999999997291 0 11.73749999999942 6.3249999999975941 0 11.574999999999131 5.6499999999963926 0 7.6816945906127989 1.5894745186858981 0 6.6325887022434813 1.7109098098422979 0 7.1647318986115511 1.809291393235446 0 7.1613611451472012 1.37684225124335 0 6.6841764304611262 1.174631096497762 0 6.4375000000000027 0.69999999999999996 0 7.1250000000000044 0.69999999999999996 0 7.6227778138185824 1.133263353986153 0 7.8125000000000018 0.69999999999999996 0 8.8002334655075174 1.6758279686386801 0 8.8279208556153161 2.2186179292874191 0 9.3851273930358641 2.0113077179832741 0 9.294553589509567 1.3214674021148729 0 8.816324129544423 1.139459074151014 0 9.1535002593721142 0.69999999999999996 0 12.24999999999979 4.4999999999999574 0 9.8931307966635327 0.69999999999999996 0 12.75 8 0 12 3.7000000000000002 0 9.75368232782
[...]
<CellData Scalars="A_conc,B_conc,region_id," Vectors="" Tensors="">
<DataArray type="Float64" Name="A_conc" format="ascii">
0.88829673627652594 0.66588939093262234 0.67157786601344271 0.18439183090075612 0.24634939203457498 0.21825974075736687 0.7804172577185301 0.30682817984486938 0.84793329165360132 0.84247910298114848 0.77211587197494203 0.79349139508417821 0.85002888448597647 0.8510647774884017 0.87294691168342564 0.86318556463956464 0.86029762528661868 0.86521141751814168 0.87775359032380607 0.88193609915752957 0.89049145837719301 0.88070785496220749 0.85610223487799919 0.88602279042798582 0.64246735660387522 0.71592867096702273 0.78910989099000406 0.89023484884784398 0.90283288084355262 0.89533574675298133 0.78922712642442949 0.83723363088026614 0.82244891861877178 0.85481777391234204 0.83002647006871322 0.83214751853333646 0.81890260931530945 0.86655971306373913 0.88262059497817269 0.8111661067171394 0.84357629318966509 0.79512104547218043 0.77457180285868055 0.57595330826460511 0.49702096404093282 0.75103103267109061 0.66555277051281025 0.63234936607010894 0.53710247770850938 0.39668401471569043 0.43030503304021106 0.47175252905831877 0.27486821410930884 0.29904580908168454 0.33919097557246258 0.32313741433212673 0.57047284137835219 0.23560718332297792 0.77136052262275712 0.25466709965711426 0.26945255747836616 0.88972029989895773 0.28851972570243106 0.58345626307151288 0.69961385704017442 0.81358515835832945 0.88153583080691622 0.85397582780557357 0.71724966276363222 0.86944400590803161 0.8610905003409659 0.89463413485074406 0.90316533517316855 0.66998241244405776 0.65703682984601897 0.64073883369729523 0.17401118669912816 0.15579570169916984 0.19533833270488854 0.19837373650966761 0.3102907145095547 0.20631331126764435 0.45532440470797908 0.49709671273724709 0.63725230867345295 0.66919600976833538 0.89998466170383573 0.8998767616661868 0.89307806375248877 0.79966183476143893 0.87457934475575738 0.60707711132602293 0.80488379934886112 0.55269417244455099 0.64035276468109015 0.85208706305623527 0.89107526640118406 0.9058528234624087 0.90557526073647976 0.94202044228223336 0.94006267833730695 0.95533704595956115 0.88366692411643277 0.88445531384377185 0.9349482706307729 0.91943295518763013 0.91374243502536601 0.52688272116548596 0.52586557497656905 0.91565491171619728 0.6924459085653587 0.69918104381294965 0.37714634638402511 0.084152848949634651 0.22691927042986626 0.32586254607253917 0.16130288167984269 0.93848380668755038 0.93501114966698573 0.036725064976763047 0.91471734691037443 0.9032080850885873 0.90139020843348439 0.90337930131596722 0.91777095539671327 0.93190239645031259 0.92978835567578766 0.88264804861108048 0.93617408179996753 0.86852495064567348 0.88167165331577046 0.89031687123220038 0.87422520754916544 0.86497715310824941 0.87258716028149008 0.85830702427399386 0.88022210231679254 0.84458001616462064 0.85599349506202382 0.91480443420259427 0.89378609775476558 0.88877135539166641 0.86649200500146417 0.91431691163022211 0.89893296399233324 0.8922829177543723 0.8941991996241252 0.34793760348358638 0.90386942321655428 0.89915050203016533 0.87912434009891105 0.87771885171550301 0.56674066291484548 0.61651862615269737 0.88340198414272297 0.87023441479577712 0.88187672628109892 0.89092125035515179 0.74862802450981536 0.8964538209227968 0.9288014804307162 0.90779410687311135 0.91185266780516505 0.88732887336949917 0.89162479946873319 0.93467655438710961 0.93017325144596663 0.94552225761177233 0.9545505659071698 0.95969325733200517 0.95982084753246633 0.96629320383005823 0.95244475477863833 0.93917844781181947 0.94992640047252508 0.94537285191077225 0.93599646379671031 0.94409321941530577 0.95660860599772535 0.76641723141837559 0.92937335145773392 0.91848991784496592 0.73354937312352364 0.70362643600839658 0.78343749594109668 0.85452953933993459 0.89323705316787716 0.90103268637487788 0.91277813020006482 0.90788335635061879 0.54620809298137618 0.48090461016993324 0.50543542055693802 0.7389386738580348 0.80615135142583116 0.81119179341605974 0.66951527118560028 0.55741312837897883 0.58550718861795448 0.71316308024961328 0.72525248566148504 0.64587041078571117 0.64615735163073795 0.57117146177005718 0.46260822984434746 0.15389340442840108 0.18249149765457529 0.28974628412949799 0.59507398808234535 0.55405615432102873 0.60317188962207591 0.56288627071625474 0.86896932839126284 0.44330206520522708 0.68796967952640053 0.7231974779537792 0.91771195694868046 0.64449448514782848 0.90427080822063988 0.91553367148792653 0.87288836818967264 0.61889191565366219 0.74631774781714122 0.15128327289807089 0.91921094401816084 0.47507419400325179 0.83990811987261771 0.91396599448225735 0.6169020331722308 0.66079613689512451 0.86205202369982836 0.89388143722232272 0.90888208968250561 0.89559765208758879 0.90414686636307684 0.87633203313621044 0.86377560945813336 0.87881620012779993 0.90708647989700864 0.89036576385633137 0.89762232198144409 0.83519134557382113 0.85733662084092699 0.84662273903285745 0.86616080853341382 0.7267262406092776 0.42814172499850056 0.78962906793126697 0.80979259424363947 0.75961557436047022 0.88329939301907701 0.89451233998630142 0.88091091558726098 0.86188425660270251 0.87752779376489687 0.88195133443296569 0.66411698397830943 0.91781818878039245 0.91586938040113552 0.87580126068672537 0.88074748024331617 0.84909206813924998 0.92300018881472123 0.86048245869846129 0.85935571008165734 0.87410306963720019 0.87416885123966326 0.86867861620420239 0.85320267520233084 0.85495568538786626 0.84570423985022147 0.84771836199190331 0.84522401041087414 0.87277844116212822 0.85267013869714869 0.8723267980226288 0.89634240350297301 0.90486495855958204 0.901331903066109 0.82396461898704898 0.89769906244756781 0.64619098807246322 0.81550270721259888 0.82694424306444569 0.91763250848061162 0.71736620923740313 0.3223367301956731 0.8604553309785461 0.85731266431535125 0.45938758745198827 0.33784186094062724 0.16914868192078758 0.18703891071170797 0.45153593234217293 0.11492607989500161 0.08899081848170054 0.92628556892794922 0.69876931833343736 0.63703300491869097 0.92699664823881089 0.90838256150382302 0.88969492031331732 0.35096951053508957 0.87283248782561962 0.95648509096356316 0.91907730835029977 0.61838855808011939 0.89656362207549156 0.92048357753692767 0.96217844324700763 0.19969877843630524 0.93101424125057264 0.88989362870131705 0.87595556972152511 0.93987833448613078 0.96393057287475858 0.80541744831071527 0.90671892801161369 0.83237336057743694 0.91622387411127693 0.94136570972325739 0.5077689148948652 0.86047010894080278 0.95914327334124971 0.90856176038917469 0.40617985009134117 0.84863961892805195 0.95624366082331336 0.97546690593896757 0.96143826285025336 0.95655938473227553 0.31745118584083543 0.97270273258823625 0.91983453707146379 0.87988506297164881 0.96811169030653488 0.8650387364154295 0.97406867109140627 0.89094700510338121 0.97792041660871099 0.92794524809389634 0.18201123289503626 0.14067647436359382 0.24538885753597517 0.2948514259373517 0.97443439527689124 0.36415675732791664 0.40561703948822647 0.52620295616108104 0.41144885555667526 0.65869367582296978 0.74785968929114832 0.97793561716164135 0.97520463018679493 0.90701776750168706 0.87179050416843706 0.94016057646161122 0.97929190667613453 0.68409491162636193 0.5678497801227691 0.86618041713246297 0.78774323048851036 0.9146680880405329 0.9476212204063873 0.89057094782276469 0.93017659850308088 0.94975463416950789 0.96369188107666504 0.97228098913621008 0.97845501273112268 0.97433492735533167 0.97317441727215503 0.92980871647495489 0.90123698314137313 0.98028642429130919 0.93248524657971932 0.94647798345867518 0.98308748344132013 0.90113025686891635 0.97602527359229607 0.96091235881026771 0.95518062490774236 0.9502024354600993 0.94015795458061635 0.97209831371819333 0.97667905150606282 0.96795987296030961 0.97222527160129024 0.9796851752767477 0.98510578207438626 0.98108389934859952 0.98122970936774656 0.80116885147070471 0.73504523754203288 0.9813022748473591 0.96110662624471743 0.85543773890976982 0.97217699775412858 0.98430475261894768 0.991707203273407 0.9268087499082921 0.9480802348397529 0.9818509502618703 0.96644059238880242 0.95163565139437511 0.99306293340018548 0.68010503897549612 0.98337345058130432 0.98775771200117113 0.95551539255771489 0.9914277400181688 0.9898478914330936 0.9940763344221446 0.98316608634274261 0.98299735840525049 0.98096127173023973 0.97453076041821329 0.98606751831269923 0.98904525700763823 0.99238376812332973 0.9943900646080448 0.99731313411980782 0.99591650952164934 0.98408083674017788 0.9925630086970334 0.98545659349848291 0.98270918934947238 0.99009194900377162 0.97696303831183806 0.97271421503879607 0.9930687668162701 0.99760706726942039 0.99472452469717121 0.99536432373397787 0.99748840338106737 0.99799480716971911 0.99350117687223771 0.99526185823492419 0.99320229305088803 0.99252904159204114 0.98344577191036264 0.9905999022508819 0.97852987551793402 0.98695328926579129 0.98946696347181495 0.9919229136700467 0.98866280310923371 0.97443523414273003 0.99497457258829036 0.98488310324784689 0.9707994442844099 0.9675532531525618 0.97650786436024706 0.9786167902386238 0.97430051520465755 0.9910951656303989 0.99170318923943057 0.98813798402068298 0.98428612278043359 0.98867071010970853 0.98924217572321615 0.98384533450673906 0.98162246298546418 0.98543157808392845 0.98331677898030678 0.97945431989536991 0.97430405799853126 0.9774531964959341 0.9661458226864017 0.96814459923316853 0.96875038656765344 0.96353631808029983 0.96210184130418663 0.96515427414312382 0.96642931256577524 0.96957387291969699 0.97216634823152026 0.96824502003116919 0.97816492539331046 0.97943913437529628 0.97662793634803136 0.96742753029245987 0.9673246244204291 0.97471113127385034 0.976619549658023 0.99058309634174901 0.99557402301707931 0.98467377329950523 0.9885972614490719 0.96548314319948414 0.96197146269126466 0.95779339489251214 0.96530952277682325 0.95971792943633383 0.95993705794181006 0.95994371053697003 0.95771444480994239 0.95445157806082292 0.95708341012539111 0.95218448558817848 0.95471350283534329 0.86980991525173423 0.87161002280125477 0.86314286189329859 0.9117586107089557 0.95377940210705026 0.95923554993649218 0.91585365919897588 0.95192857456775704 0.91524810051487648 0.92016360454992308 0.88216428253475987 0.83266334337217218 0.85716591197368808 0.82757936049481329 0.89631396403030306 0.85285505154792218 0.76617905174708645 0.95122426042564789 0.94461123347455278 0.93973050429491767 0.92085441285753022 0.93786754176587217 0.91338290767305974 0.91573052267315114 0.90890264388817266 0.91583747531688198 0.9260549539042191 0.92412028119851553 0.94071856669764631 0.99465381526522867 0.99256954839567246 0.99191253491285258 0.995990677047351 0.97946049357986187 0.97292865212697444 0.97116436274083406 0.97756756707743664 0.97915147079600029 0.97348408675483733 0.97268822269156618 0.97115526861073809 0.96798557706683752 0.96928416883359758 0.96764075961426133 0.96496295921719999 0.96596648742973468 0.96255662655671848 0.96124772687667404 0.95886085417731448 0.96328785189645627 0.96793788162461891 0.95807454129186831 0.96175859266518526 0.96936618734572755 0.93871869087295745 0.96757329996536845 0.94382274589637283 0.97113482162868037 0.97465482220215605 0.95387905036789222 0.96799378629006261 0.96440637247932304 0.97109231068045365 0.96089527617155401 0.96078800724538815 0.97935327431209473 0.90999152743696721 0.94710436600271897 0.9577261091260294 0.88091919743296243 0.96653588554592607 0.96258095716582326 0.96639079044245402 0.96337173006096521 0.94270869946785707 0.94914474580602803 0.96710576577918295 0.9737501201644827 0.97029650417033597 0.97500961509577688 0.97970663126593238 0.97914080236306122 0.98618950878473144 0.98229105608551515 0.97931118317083288 0.97673991218384026 0.99871839629896475 0.98119584753319566 0.98210366366628987 0.97820741011407175 0.97225055000354721 0.96357088209188424 0.95848749388879273 0.95849214818239348 0.95506955311917685 0.95072468876204053 0.93939131650534691 0.94635257475430024 0.95390598273821925 0.94905625538431693 0.94432229847391036 0.93831131316574024 0.9136068700833313 0.7903401398247647 0.94896256320130856 0.95483098439869662 0.9659925669094358 0.9642861945611565 0.96603272586981792 0.9719180912833757 0.94810037454556539 0.94705761220605622 0.93907799078251286 0.92546593753328288 0.92055244606316844 0.8289614718103584 0.92365419816980221 0.93211273263543437 0.93012847752748529 0.94255629507171435 0.94932083158594827 0.95666899350653689 0.95701549828517285 0.96205886983524569 0.96717137508874962 0.98118443853869197 0.98320507111197397 0.98523644893270568 0.95599423223074209 0.82499864565193393 0.80719858930728539 0.79387472206750265 0.75454844751330885 0.92516544240725662 0.95416054436227427 0.90583099523947985 0.91071301939864546 0.73142873175727918 0.6764282557221335 0.64641023292506006 0.5484883619927271 0.57348399662827609 0.62505876177269359 0.7127555937482104 0.65961808123063359 0.66744896540555088 0.70736842409070322 0.7613684382857564 0.80997518587828643 0.93799301706164062 0.93787779402354632 0.75643908307170271 0.78434373455639861 0.92473895508174164 0.93012343983550039 0.92385641462822243 0.94816079183262203 0.94091242991630564 0.94940047635169333 0.95426088306947099 0.9441905655418259 0.94563022864812807 0.9530719488311683 0.95766771769490244 0.99926494557913914 0.96533339949510544 0.97011058116971849 0.97608689918360259 0.98751553123731617 0.9832611619628745 0.97112960425520645 0.9860082103326071 0.97700186664407174 0.98399011638005773 0.98105957507988739 0.96658732647274825 0.96732310182202608 0.96435310170994226 0.95660956695236665 0.95973567019302464 0.95798850396566415 0.96641026234275285 0.97623207594997718 0.97174297094881745 0.97908811344636648 0.96298546516851447 0.96905882622251727 0.97019444983305125 0.97550917294392936 0.97902694695199011 0.9779956954414919 0.97399736854847152 0.98327496810735471 0.98112645844884838 0.9874284591722573 0.98479321418862908 0.98237336744622139 0.98134047854531392 0.98591353726448083 0.97885803626290802 0.98755131540396546 0.99966017388207862 0.9899668037287066 0.99275899744415153 0.98975014938474115 0.98757167133999801 0.98480634218560703 0.98736290591838693 0.9909896525989581 0.99296308434402247 0.99506277989314262 0.99722331778284745 0.99771470271412266 0.99493117758392036 0.99732605028387744 0.99447707035605593 0.99216207538983259 0.98875346923014451 0.98967061095412157 0.99306741597261117 0.99062673853047001 0.99398565736575617 0.99750482470580903 
</DataArray>
<DataArray type="Float64" Name="B_conc" format="ascii">