<?xml version="1.0"?>
<VTKFile type="UnstructuredGrid" version="0.1" byte_order="LittleEndian">
<UnstructuredGrid>
<Piece NumberOfPoints="316" NumberOfCells="724">
<Points>
<DataArray type="Float64" NumberOfComponents="3" format="ascii">
0 0.69999999999999996 0 0.59999999999999998 0.69999999999999996 0 0 1.6319639930219929 0 0.68142292217753131 2.106313194182027 0 1.299999999998378 1.8499999999973351 0 1.243750000001385 0.69999999999999996 0 0.94999999999923723 1.2749999999987469 0 0 3.7000000000000002 0 0 3.1141786369756268 0 0.45714634023723411 3.4614941897304652 0 0.70993008501830757 2.9054181396964478 0 0 2.430303940964651 0 1.186467289461244 2.488259157846338 0 1.451787781083937 3.11022608666643 0 1.013301616169622 3.6128741719811099 0 2.08333333333292 3.599999999997022 0 2 3 0 1.649999999999066 2.4249999999984651 0 2.2687831884271348 2.397628317379688 0 2.8857059848027808 2.304389417342541 0 2.6000000000000818 2.8399999999999781 0 2.9420158813362729 3.5139475164392531 0 2.4236693135559251 3.5256579194055688 0 2.23284951060374 1.369095413116082 0 1.887500000003292 0.69999999999999996 0 1.626949751997165 1.3978044304614949 0 1.942890303101708 1.90249985684108 0 2.5341028426591712 1.9138806300960609 0 3.16379900756549 1.750659825629856 0 3.047698899035677 1.175177397439602 0 2.730231246675086 1.4599417336750831 0 2.5312500000049418 0.69999999999999996 0 3.1750000000065048 0.69999999999999996 0 3.638214240926366 1.265285427893069 0 3.8187500000045098 0.69999999999999996 0 4.2198317920941601 1.108273596938623 0 4.7733688274428578 1.2511819424194319 0 4.4625000000026009 0.69999999999999996 0 4.6250000000004974 1.8500000000004651 0 4.25 1.5 0 4.0559490150232032 2.028653202947901 0 3.757799744899315 1.759341836734688 0 3.5028943452390711 2.1825773809523441 0 3.2000000000001432 2.679999999999962 0 3.2848100522576571 3.06994577157805 0 3.8000000000002032 2.5199999999999458 0 3.412636880282601 3.6134558579332841 0 3.8190056356267248 3.2454749759848052 0 3.874999999992375 3.7500000000050839 0 4.25 3.5 0 4.5652883261780408 3.549611461603364 0 4.3536256774790401 3.0337160882464551 0 4.75 2.7999999999999998 0 4.4000000000001336 2.3599999999999639 0 5.5 2.7999999999999998 0 5.2499999999996163 2.499999999999539 0 5.0000000000002984 3.5999999999995218 0 4.9131042795799686 3.1639526813742029 0 5.5486111111111649 3.4166666666664391 0 5.2500000000003251 3.1999999999994801 0 5.9166666666663046 3.1999999999996529 0 6.3333333333330009 3.5999999999996799 0 6 3.7999999999999998 0 5.75 2.5 0 6.3749999999999796 2.350000000000005 0 5.8758020027701336 1.829281458631685 0 6.1230253171455891 1.2440604005832661 0 5.75 0.69999999999999996 0 5.5000000000008269 1.1999999999983459 0 5.1062500000012143 0.69999999999999996 0 5 2.2000000000000002 0 5.4251604005540912 2.1458562917259631 0 5.2500000000007052 1.6999999999985891 0 5.3819444444444393 5.7444444444444036 0 4.8969907407407627 5.6240740740739659 0 5 6.2999999999999998 0 5.1289108351881252 6.943051186131636 0 5.5 6.3500000000000014 0 6 6.4000000000000004 0 6.0367063492063266 5.8849206349206353 0 6.25 5.5 0 6.2822169506114909 4.9442489896720572 0 5.75 5.25 0 6.3749999999999352 3.899999999999983 0 6.249999999989754 4.333333333340164 0 5.7499999999897531 4.6666666666734979 0 5.7901785714252867 4.1543650793672633 0 5.6250000000000648 3.899999999999983 0 5.25 4 0 5.2812499999974998 4.480555555557217 0 5.25 5 0 4.8333333333337283 5.2333333333331122 0 4.4166666666668641 5.4666666666665567 0 4.75 4.7000000000000002 0 4.25 4.7999999999999998 0 4.75 4 0 4.7500000000003384 4.3999999999997286 0 4.1250000000089333 4 0 3.625000000001803 4.4499999999997977 0 3.2187500000011142 4.5624999999995248 0 3.5 4 0 3.749999999999261 5.3499999999989658 0 3.5 5 0 3.4166666666672652 5.4000000000003077 0 3.3999999999985642 5.8000000000002396 0 3.6250000000072249 5.9999999999942197 0 4 5.7000000000000002 0 4.25 6.2000000000000011 0 4.4999999999995417 5.9999999999997264 0 4.5 6.6999999999999993 0 3.833430775055819 6.5641729053027689 0 3.25 6.2999999999999998 0 3.3303561509924351 6.9830522680580502 0 2.580520851116443 6.6244224184663167 0 2.799999999997127 5.9000000000004791 0 2.1999999999956921 6.0000000000007194 0 1.599999999997112 6.1000000000004819 0 1.646932375870239 6.6136900344172886 0 2.75 4 0 3.1249999999889848 4 0 3.0833333333345938 4.2666666666658593 0 2.6666666666680592 4.5333333333324424 0 2.8333333333331181 5.0999999999998904 0 2.227678571427079 5.4095242619018373 0 1.75 5 0 2.25 4.7999999999999998 0 1.6874999999994109 4.5249999999997117 0 2.1666666666662731 4.1999999999971616 0 1.1249999999964171 4.2499999999982494 0 1.593428957229921 3.8897035774451321 0 1.042857142856084 4.9670058772507648 0 0 5.1095205703790167 0 0.54607142857014845 4.5325429890369104 0 0 4.3611884975573796 0 0.56249999999824107 3.9749999999991399 0 1.532738095236533 5.6571455714099397 0 1 6.2000000000000002 0 0.59593253968210291 5.8008707178522592 0 0 5.9564815289107864 0 0 6.9150707591630427 0 0.93837900218741932 7.1804089820132404 0 1.1705225977355731 8 0 0 8 0 2.644109419022838 7.3867316522664499 0 1.8128190395187029 7.3536930984991047 0 2.2707825856939472 8 0 4.2771317171003211 8 0 4.75 7.2000000000000002 0 4.045228499335253 7.2019851637643439 0 3.3049975410581078 8 0 6.049840683362258 8 0 5.1909118800994873 8 0 5.8367197674990106 7.1166649360427767 0 6.4684217593582272 7.3531189884776698 0 7.2585497534189534 7.2378318565328508 0 7.616117101574889 8 0 6.8572107462251504 8 0 9 8 0 9.4363260705848777 7.4358468248574452 0 8.8779286709583509 7.1321289214782846 0 8.5625 7.5 0 7.9700743397311431 7.5609350974516802 0 8.3294684777734691 8 0 10.58712006499414 8 0 10.11683562520899 7.1952376222900778 0 9.7322767000115658 8 0 12.75 8 0 11.58504501385041 8 0 12.75 6.9437741439064196 0 12.75 6.038988862336077 0 12.186383928571081 5.6739548845775634 0 11.574999999999131 5.6499999999963926 0 11.9 7 0 11.73749999999942 6.3249999999975941 0 11.09889622188336 7.0112522472967331 0 10.44528068387236 6.4182408893442124 0 11.14723036767284 6.2469725545514123 0 10.917277223084589 5.4813827249950968 0 10.75003341587618 5.9107455977173604 0 10.318895127649739 5.6829040483701769 0 9.75 5.5 0 9.6816900032536655 6.1509933969218187 0 9.9618211858937151 6.6596055842737263 0 10.249999999999989 4.0999999999999979 0 9.75 4 0 9.9378319844489287 4.5341095853144147 0 10.058566397584119 5.1088423539901608 0 10.5 4.7999999999999998 0 10.680373124719701 5.0996881878923999 0 10.875 4.5499999999999998 0 10.462566396889811 4.436821917062888 0 10.75000000000014 4.2000000000000286 0 11.25 4.2999999999999998 0 11.749999999999741 4.3999999999999488 0 11.625000000000339 3.9999999999997291 0 11.412499999999749 4.9749999999989596 0 12.096269132652781 5.0089836801012728 0 12.75 5.2639308761360883 0 12.24999999999979 4.4999999999999574 0 12.75 4.5999999999999996 0 12.75 4.0003174080232462 0 12 3.7000000000000002 0 12.75 3.321597619569264 0 12.75 2.5534237251028711 0 12.044687057114441 2.397006001356599 0 12.143679596734311 3.0238066578277132 0 11.55235714707381 2.7530147867259149 0 11.47885376845919 3.3750712564560699 0 12.75 0.69999999999999996 0 12.01693014330492 1.5940258229091431 0 12.75 1.684005592221304 0 11.44640120743219 2.1177712645927089 0 11.166666666666989 1.49999999999966 0 11.67768621522576 0.69999999999999996 0 11.550000000000001 1.1000000000000001 0 10.730243372206591 0.69999999999999996 0 10.382627631995829 1.3873204946718609 0 10.78333333333231 1.9000000000010699 0 10.106350669919401 1.9180519417420421 0 9.7536823278228866 1.476350104461625 0 9.8931307966635327 0.69999999999999996 0 10.518069334214999 3.694433421516421 0 11.03749999999963 3.7999999999991241 0 10.82499999999963 3.2999999999991241 0 11.09116063133933 2.9444106525201019 0 10.98709224116409 2.4939672194195301 0 10.4 2.2999999999999998 0 10.36597949429223 3.0810719490983871 0 10.612499999999949 2.7999999999998741 0 9.9333333333295304 2.4333333333344198 0 9.9181425014481057 2.833188223635065 0 9.9242224243089208 3.5053525499705862 0 9.3125000000000018 3.6250000000000022 0 8.8750000000000036 3.2500000000000022 0 9.4186530900934855 3.112704842739701 0 9.1699287288289124 2.374148078484497 0 9.4666666666644659 2.5666666666672948 0 9 2.7000000000000002 0 8.4375000000000018 2.8750000000000009 0 8.4999999999999503 2.5999999999999899 0 8 2.5 0 8.25 3.7000000000000002 0 8.7499999999999556 3.7999999999999909 0 8.412499999999941 3.345000000000117 0 9.1535002593721142 0.69999999999999996 0 9.294553589509567 1.3214674021148729 0 8.816324129544423 1.139459074151014 0 8.8002334655075174 1.6758279686386801 0 9.3851273930358641 2.0113077179832741 0 8.8279208556153161 2.2186179292874191 0 8.1666666666661811 1.900000000001745 0 8.3333333333329112 1.3000000000015179 0 8.5 0.69999999999999996 0 7.8125000000000018 0.69999999999999996 0 7.6227778138185824 1.133263353986153 0 7.6816945906127989 1.5894745186858981 0 7.75 2.25 0 7.5 2 0 7 2.2000000000000002 0 6.6325887022434813 1.7109098098422979 0 7.1647318986115511 1.809291393235446 0 7.1613611451472012 1.37684225124335 0 6.6841764304611262 1.174631096497762 0 6.4375000000000027 0.69999999999999996 0 7.1250000000000044 0.69999999999999996 0 7.5 3.7000000000000002 0 7.749999999999754 3.1000000000005912 0 7.4999999999999769 2.349999999999993 0 7.1682741769546334 2.9476245590829571 0 6.4676238242209063 2.8855733497101581 0 6.7300925925924284 3.401388888888814 0 6.75 4 0 6.6887757623921971 4.5124976540268094 0 7.2499999999897531 4.3333333333265021 0 7.749999999989754 4.666666666659836 0 7.9282200727472034 4.1620177469108377 0 7.6417937536871419 5.1654402589958011 0 7.8750000000136362 4.9000000000036366 0 7.5 4.7999999999999998 0 7.2802004846459853 5.1175278771156387 0 7.0073846965074598 5.2778944676064459 0 6.936160960427304 4.89683078406033 0 6.5 5.2999999999999998 0 6.75 5.75 0 6.6249999999998499 6.2000000000000481 0 6.8750000000007789 5.6500000000007269 0 6.518953214484978 6.7704843776901313 0 7.0801824727701241 6.5807936507936633 0 7.6875 6.5 0 7.3577684192630528 5.5086946576740887 0 7.25 6 0 7.6500000000000004 6.2000000000000002 0 7.9635986863599726 5.855288607768216 0 7.612180670462922 5.8137861955531047 0 7.75 5.5 0 8.4972876044463757 5.8311422148541041 0 8.125 7 0 8.0796282337786849 6.311844367667188 0 8.6126164010124153 6.4595270667143572 0 9.1030890763140047 6.5321818396608462 0 9.5164239722228405 6.8348750909827052 0 9 5.5 0 8.970242172000809 5.9226351006993019 0 9.3303864350508938 5.6813923661908907 0 9.25 5.333333333333333 0 9.3812574935583886 4.9465914098774082 0 9.25 4.3333333333333339 0 9.2500000000000728 3.900000000000015 0 8.7499999999999982 4.6666666666666679 0 8.6312122071040278 4.1551278659605089 0 8.2402653769809682 4.5238773148127134 0 8.25 5 0 8 5.25 0 8.180981048467725 5.4477384704370531 0 8.625 5.25 0 8.75 5.166666666666667 0 
</DataArray>
</Points>
<Cells>
<DataArray type="UInt32" Name="connectivity" format="ascii">
0 2 1 1 2 6 1 6 2 3 6 11 3 2 6 4 3 4 6 4 3 12 4 17 4 12 17 4 25 6 6 25 5 25 24 5 5 1 6 9 134 14 7 134 9 7 134 9 10 8 7 9 8 10 9 14 3 11 10 8 10 11 10 12 3 17 12 13 12 10 13 14 13 10 13 14 129 22 127 15 129 15 13 13 15 16 22 16 20 16 15 15 16 22 20 18 16 20 16 17 16 17 13 16 18 17 16 18 20 19 19 20 43 44 20 43 43 20 20 21 22 20 44 21 21 46 119 119 118 21 22 21 118 24 23 31 23 24 25 26 25 4 23 25 26 26 17 18 17 26 4 27 26 18 23 26 27 30 23 27 27 18 19 42 28 19 19 28 27 27 28 30 29 30 28 31 30 29 23 30 31 31 29 32 29 33 32 32 33 34 33 29 28 34 33 35 34 35 37 39 35 33 35 39 36 37 35 36 69 37 36 70 53 38 53 70 36 39 38 38 39 40 38 39 41 40 39 38 40 53 41 42 40 40 42 45 41 39 33 33 28 41 41 28 42 19 43 42 45 43 42 43 45 44 43 45 47 44 45 46 100 119 44 47 46 44 46 21 48 100 46 47 48 46 47 49 48 100 48 97 49 50 49 97 48 48 49 51 49 47 57 50 51 50 49 51 56 95 50 97 50 95 53 45 51 45 53 53 40 45 45 51 47 53 52 51 51 52 57 70 52 53 70 52 55 52 70 70 55 59 52 55 57 52 59 54 59 54 59 55 71 55 63 63 55 54 55 54 56 95 88 56 95 50 57 56 57 59 56 59 56 58 59 56 58 54 59 88 87 58 88 58 56 58 87 62 62 87 60 54 58 58 62 60 60 61 61 60 269 62 61 60 62 83 61 62 83 54 63 63 60 54 54 60 63 269 60 64 269 63 63 64 64 259 65 64 65 63 71 63 65 259 66 65 263 67 66 67 68 67 68 66 65 66 68 68 72 69 68 67 36 68 69 68 36 72 72 36 38 72 70 70 38 72 38 70 71 72 70 55 71 70 65 68 72 72 71 65 73 77 75 74 73 75 75 108 74 76 75 109 147 76 109 152 77 76 75 77 76 77 75 77 78 77 152 78 152 286 78 78 284 79 284 78 73 79 77 79 78 77 82 79 73 283 79 80 79 82 80 81 282 80 82 81 80 82 80 82 85 81 85 82 90 62 84 83 86 84 62 81 85 84 85 84 86 85 84 86 89 85 87 86 62 86 87 88 88 89 86 87 88 89 88 96 96 93 89 96 88 88 95 96 95 88 90 82 82 73 90 90 85 89 90 85 90 93 89 93 90 93 91 90 74 90 73 74 91 90 91 90 74 92 91 94 92 91 92 91 93 94 91 101 92 94 96 97 94 97 98 94 95 97 96 94 96 96 94 93 48 97 100 98 97 100 99 102 98 120 99 98 100 120 98 100 120 119 100 120 119 100 102 101 94 102 101 102 94 98 122 103 102 102 103 101 103 114 104 104 111 105 105 111 110 107 105 107 106 105 106 104 105 104 106 103 106 101 103 106 103 104 106 106 105 101 106 106 108 92 108 106 106 92 106 92 101 106 107 108 107 106 108 75 108 92 74 147 109 148 147 109 108 109 75 108 107 109 110 109 107 109 107 109 110 148 110 112 148 111 112 110 111 110 105 112 113 143 111 113 112 104 114 111 113 111 114 114 104 123 115 114 113 114 115 115 114 115 123 135 135 116 115 116 117 115 116 115 117 113 115 144 113 117 118 121 127 118 127 22 118 119 118 120 121 119 120 118 120 121 99 120 121 121 125 122 114 103 122 123 114 121 125 122 125 122 99 122 102 121 122 99 122 103 125 123 122 123 124 135 126 124 125 124 123 125 125 124 127 121 125 127 126 125 127 125 126 125 129 126 127 15 129 127 15 127 134 128 14 134 128 129 14 128 129 128 126 128 126 126 128 130 128 132 130 135 130 137 124 126 130 135 124 130 131 137 130 132 131 130 131 132 133 134 133 132 7 133 134 128 134 132 136 140 117 117 140 144 136 117 116 135 136 116 136 116 135 137 136 136 137 138 137 131 138 136 139 140 136 138 139 142 140 139 140 142 141 141 144 140 149 143 145 149 112 143 144 141 145 143 113 144 143 144 145 146 147 148 146 151 147 112 149 148 146 148 149 151 76 147 76 151 152 150 152 151 150 153 152 153 286 152 156 153 150 286 153 154 153 156 154 161 296 154 154 156 155 155 161 154 159 158 157 159 157 160 165 157 158 159 300 158 160 157 160 162 157 159 160 296 296 160 160 296 161 161 155 162 162 160 161 164 174 163 163 174 167 158 164 165 164 163 165 300 164 158 172 167 174 166 167 172 172 168 166 169 168 173 173 168 172 169 173 170 197 169 170 171 176 178 171 173 170 173 171 176 171 173 172 174 173 173 172 173 174 176 175 174 164 174 175 176 175 178 176 171 178 177 179 177 178 179 178 175 179 175 181 179 181 180 180 181 303 182 300 181 164 300 182 182 175 164 181 175 182 190 185 183 187 185 190 185 184 183 184 183 306 184 185 185 186 305 186 180 305 180 186 179 188 179 186 187 186 185 188 187 189 188 186 187 177 179 188 188 195 177 189 195 188 191 192 189 192 189 189 187 190 189 187 189 190 191 183 191 221 183 191 183 191 190 222 191 192 191 192 222 221 191 222 192 192 222 194 194 193 192 194 192 192 193 189 192 195 192 195 192 193 195 194 201 193 195 171 195 171 177 196 195 193 171 196 170 196 171 195 197 170 196 197 196 199 199 196 198 200 198 201 201 198 193 193 198 196 193 198 200 199 198 198 199 202 200 201 205 202 201 205 203 202 204 203 205 206 204 205 205 207 206 206 211 204 206 225 211 224 225 206 206 207 224 194 222 207 207 201 194 201 194 207 205 201 209 208 210 208 209 213 210 203 204 210 204 209 209 204 211 209 211 212 213 214 215 214 209 212 213 209 214 212 214 215 212 216 215 214 212 217 218 216 216 212 217 217 212 217 212 211 211 225 217 226 217 217 226 218 217 225 226 218 226 229 218 229 248 248 219 218 216 218 219 220 215 216 219 220 216 245 220 219 227 221 223 223 221 222 223 222 207 222 223 224 207 223 224 223 228 225 224 228 226 228 226 225 228 228 223 228 227 223 227 228 230 226 229 230 229 226 230 228 226 248 229 236 230 229 236 236 229 230 236 234 230 234 231 231 227 230 227 231 221 183 221 231 183 231 184 231 232 184 232 184 307 232 184 307 242 233 232 242 232 307 242 233 232 234 232 231 234 233 232 234 236 237 237 236 236 237 235 235 248 236 235 237 249 237 239 249 237 238 233 233 234 237 238 233 239 238 237 239 237 240 239 240 238 239 239 240 250 240 238 240 238 266 241 266 243 243 266 238 243 242 241 242 241 309 241 242 238 233 243 233 242 243 252 244 246 246 244 245 244 220 245 245 247 246 247 245 248 248 245 219 249 248 235 247 248 249 249 239 250 249 250 247 240 250 250 256 240 250 251 250 251 255 247 250 251 246 247 251 252 253 251 246 251 252 251 252 264 261 254 264 254 253 253 254 251 254 255 251 255 254 261 255 260 257 261 260 255 250 255 257 250 257 256 257 267 256 257 256 257 260 258 257 258 267 258 267 260 259 258 258 259 64 64 258 259 260 261 261 262 259 259 262 66 263 66 262 263 262 264 262 261 264 266 265 268 275 265 241 266 241 265 265 266 266 240 266 267 240 267 240 256 267 240 256 240 267 268 258 268 267 266 270 269 268 258 268 269 64 258 269 270 61 269 270 268 265 270 265 271 271 61 270 61 83 271 61 271 83 84 271 83 271 84 271 272 84 271 272 81 84 272 273 281 271 265 273 271 273 272 271 273 275 273 265 273 274 281 273 278 273 274 278 274 273 275 294 289 276 294 276 312 294 312 277 312 276 274 311 277 278 277 274 277 278 276 278 277 279 281 278 278 276 279 279 276 289 279 289 280 285 282 280 280 282 281 280 289 285 281 279 280 281 81 272 81 281 282 285 282 80 283 282 285 283 282 283 80 283 284 79 284 290 290 284 287 283 290 284 283 290 285 289 290 290 285 285 290 283 78 286 284 287 284 286 154 287 286 154 296 288 287 154 288 288 290 287 297 288 291 296 288 297 288 296 293 290 289 291 290 291 290 293 290 291 288 290 288 293 292 291 291 292 297 294 292 293 294 313 292 294 293 289 295 292 313 295 297 292 295 298 297 302 298 295 295 314 301 313 314 295 296 297 298 298 159 296 299 159 298 302 299 298 299 181 300 159 299 300 302 295 301 301 303 302 303 181 302 181 299 302 303 304 180 301 304 303 305 180 304 304 180 315 304 304 315 305 315 304 301 315 301 314 314 301 305 315 308 306 185 305 184 307 184 306 307 184 306 307 306 309 307 309 242 309 306 308 305 308 306 306 308 308 310 309 275 241 309 275 309 310 275 310 274 274 311 310 311 274 277 311 277 311 312 312 313 294 311 313 312 314 313 311 312 311 311 315 311 315 314 311 314 308 311 310 308 311 308 315 311 
</DataArray>
<DataArray type="UInt32" Name="offsets" format="ascii">
3 6 8 11 14 16 19 22 24 27 30 33 36 39 42 44 47 50 53 56 59 62 65 68 71 74 77 80 83 86 89 91 94 97 99 101 104 107 110 113 116 118 121 124 127 130 133 136 139 142 145 148 151 154 157 160 163 166 169 172 175 178 181 184 187 190 193 196 199 202 205 208 211 213 216 219 221 224 227 230 233 236 239 242 245 248 250 253 256 259 262 265 268 271 274 277 279 282 285 287 290 293 296 299 302 304 307 310 313 316 319 322 324 327 329 332 335 337 340 343 346 348 351 353 356 359 361 364 367 370 373 376 378 381 384 386 389 392 394 397 399 402 404 407 410 412 415 418 421 424 427 429 432 435 437 440 443 446 449 451 453 456 459 462 465 468 471 474 477 480 483 486 488 491 493 496 499 501 504 507 510 513 516 519 522 525 527 530 533 536 539 542 544 547 550 553 556 559 561 564 567 569 572 574 576 579 581 584 586 589 592 595 598 600 603 606 608 611 614 617 620 623 625 628 631 634 637 640 643 646 648 650 652 655 658 661 664 667 670 672 675 678 681 683 685 688 691 693 695 697 700 702 705 708 710 712 715 718 720 723 726 729 731 734 737 740 743 746 749 752 755 757 760 763 765 768 771 774 776 779 782 785 788 790 793 796 799 801 803 806 809 812 814 817 820 822 825 828 831 834 836 839 842 844 846 849 852 854 856 859 862 865 867 870 873 876 879 882 885 888 891 894 897 900 903 906 909 912 914 917 920 923 926 929 932 935 938 941 944 947 950 953 956 959 962 965 968 971 974 977 980 983 986 989 992 995 998 1001 1004 1007 1010 1012 1015 1018 1020 1023 1026 1029 1032 1035 1038 1041 1044 1047 1050 1053 1056 1059 1062 1065 1068 1070 1073 1076 1079 1081 1084 1087 1090 1093 1096 1099 1102 1105 1108 1111 1114 1117 1120 1123 1126 1129 1132 1134 1137 1140 1143 1146 1149 1152 1155 1158 1161 1164 1167 1170 1172 1175 1177 1180 1182 1185 1188 1191 1193 1196 1198 1201 1204 1206 1208 1211 1213 1216 1219 1221 1224 1227 1230 1233 1236 1239 1242 1245 1248 1251 1253 1256 1258 1261 1264 1267 1270 1273 1276 1279 1282 1285 1288 1291 1294 1296 1299 1302 1305 1308 1311 1314 1317 1320 1323 1326 1328 1331 1334 1337 1340 1342 1345 1348 1350 1353 1356 1359 1362 1365 1368 1371 1374 1377 1380 1383 1385 1388 1391 1394 1397 1399 1402 1404 1407 1410 1413 1415 1418 1421 1424 1426 1429 1432 1435 1438 1441 1444 1447 1450 1452 1454 1457 1460 1462 1465 1468 1471 1473 1476 1479 1482 1485 1488 1491 1493 1496 1498 1500 1503 1506 1508 1511 1514 1517 1520 1522 1525 1528 1531 1534 1537 1540 1543 1546 1549 1552 1555 1558 1561 1563 1566 1568 1571 1574 1577 1580 1583 1585 1588 1591 1594 1597 1600 1603 1606 1609 1612 1615 1617 1620 1623 1625 1628 1631 1633 1636 1639 1642 1645 1648 1651 1654 1657 1660 1662 1664 1667 1669 1672 1674 1677 1680 1683 1686 1689 1692 1695 1698 1701 1704 1706 1709 1711 1713 1716 1719 1722 1725 1728 1730 1733 1735 1738 1741 1744 1747 1750 1752 1755 1758 1760 1763 1766 1769 1772 1775 1778 1781 1784 1787 1790 1793 1796 1798 1800 1803 1806 1809 1811 1814 1817 1819 1822 1824 1827 1830 1833 1836 1839 1842 1845 1848 1851 1853 1856 1858 1861 1864 1866 1869 1872 1875 1878 1881 1884 1887 1890 1893 1896 1899 1902 1905 1908 1911 1914 1917 1920 1923 1926 1929 1932 1935 1938 1940 1942 1945 1948 1951 1953 1956 1959 1961 1963 1966 1969 1972 1975 1978 1980 1983 1986 1989 1992 1994 1997 1999 2002 2005 2008 2011 2013 2015 2018 2020 2023 2025 2028 
</DataArray>
<DataArray type="UInt32" Name="types" format="ascii">
5 5 3 5 5 3 5 5 3 5 5 5 5 5 5 3 5 5 5 5 5 5 5 5 5 5 5 5 5 5 5 3 5 5 3 3 5 5 5 5 5 3 5 5 5 5 5 5 5 5 5 5 5 5 5 5 5 5 5 5 5 5 5 5 5 5 5 5 5 5 5 5 5 3 5 5 3 5 5 5 5 5 5 5 5 5 3 5 5 5 5 5 5 5 5 5 3 5 5 3 5 5 5 5 5 3 5 5 5 5 5 5 3 5 3 5 5 3 5 5 5 3 5 3 5 5 3 5 5 5 5 5 3 5 5 3 5 5 3 5 3 5 3 5 5 3 5 5 5 5 5 3 5 5 3 5 5 5 5 3 3 5 5 5 5 5 5 5 5 5 5 5 3 5 3 5 5 3 5 5 5 5 5 5 5 5 3 5 5 5 5 5 3 5 5 5 5 5 3 5 5 3 5 3 3 5 3 5 3 5 5 5 5 3 5 5 3 5 5 5 5 5 3 5 5 5 5 5 5 5 3 3 3 5 5 5 5 5 5 3 5 5 5 3 3 5 5 3 3 3 5 3 5 5 3 3 5 5 3 5 5 5 3 5 5 5 5 5 5 5 5 3 5 5 3 5 5 5 3 5 5 5 5 3 5 5 5 3 3 5 5 5 3 5 5 3 5 5 5 5 3 5 5 3 3 5 5 3 3 5 5 5 3 5 5 5 5 5 5 5 5 5 5 5 5 5 5 5 3 5 5 5 5 5 5 5 5 5 5 5 5 5 5 5 5 5 5 5 5 5 5 5 5 5 5 5 5 5 5 5 5 3 5 5 3 5 5 5 5 5 5 5 5 5 5 5 5 5 5 5 5 3 5 5 5 3 5 5 5 5 5 5 5 5 5 5 5 5 5 5 5 5 5 3 5 5 5 5 5 5 5 5 5 5 5 5 3 5 3 5 3 5 5 5 3 5 3 5 5 3 3 5 3 5 5 3 5 5 5 5 5 5 5 5 5 5 3 5 3 5 5 5 5 5 5 5 5 5 5 5 5 3 5 5 5 5 5 5 5 5 5 5 3 5 5 5 5 3 5 5 3 5 5 5 5 5 5 5 5 5 5 5 3 5 5 5 5 3 5 3 5 5 5 3 5 5 5 3 5 5 5 5 5 5 5 5 3 3 5 5 3 5 5 5 3 5 5 5 5 5 5 3 5 3 3 5 5 3 5 5 5 5 3 5 5 5 5 5 5 5 5 5 5 5 5 5 3 5 3 5 5 5 5 5 3 5 5 5 5 5 5 5 5 5 5 3 5 5 3 5 5 3 5 5 5 5 5 5 5 5 5 3 3 5 3 5 3 5 5 5 5 5 5 5 5 5 5 3 5 3 3 5 5 5 5 5 3 5 3 5 5 5 5 5 3 5 5 3 5 5 5 5 5 5 5 5 5 5 5 5 3 3 5 5 5 3 5 5 3 5 3 5 5 5 5 5 5 5 5 5 3 5 3 5 5 3 5 5 5 5 5 5 5 5 5 5 5 5 5 5 5 5 5 5 5 5 5 5 5 5 3 3 5 5 5 3 5 5 3 3 5 5 5 5 5 3 5 5 5 5 3 5 3 5 5 5 5 3 3 5 3 5 3 5 
</DataArray>
</Cells>
<CellData Scalars="A_conc,B_conc,region_id," Vectors="" Tensors="">
<DataArray type="Float64" Name="A_conc" format="ascii">
0 0 0 0 0 0 0 0 0 0 0 0 0 0 0 0 0 0 0 0 0 0 0 0 0 0 0 0 0 0 0 0 0 0 0 0 0 0 0 0 0 0 0 0 0 0 0 0 0 0 0 0 0 0 0 0 0 0 0 0 0 0 0 0 0 0 0 0 0 0 0 0 0 0 0 0 0 0 0 0 0 0 0 0 0 0 0 0 0 0 0 0 0 0 0 0 0 0 0 0 0 0 0 0 0 0 0 0 0 0 0 0 0 0 0 0 0 0 0 0 0 0 0 0 0 0 0 0 0 0 0 0 0 0 0 0 0 0 0 0 0 0 0 0 0 0 0 0 0 0 0 0 0 0 0 0 0 0 0 0 0 0 0 0 0 0 0 0 0 0 0 0 0 0 0 0 0 0 0 0 0 0 0 0 0 0 0 0 0 0 0 0 0 0 0 0 0 0 0 0 0 0 0 0 0 0 0 0 0 0 0 0 0 0 0 0 0 0 0 0 0 0 0 0 0 0 0 0 0 0 0 0 0 0 0 0 0 0 0 0 0 0 0 0 0 0 0 0 0 0 0 0 0 0 0 0 0 0 0 0 0 0 0 0 0 0 0 0 0 0 0 0 0 0 0 0 0 0 0 0 0 0 0 0 0 0 0 0 0 0 0 0 0 0 0 0 0 0 0 0 0 0 0 0 0 0 0 0 0 0 0 0 0 0 0 0 0 0 0 0 0 0 0 0 0 0 0 0 0 0 0 0 0 0 0 0 0 0 0 0 0 0 0 0 0 0 0 0 0 0 0 0 0 0 0 0 0 0 0 0 0 0 0 0 0 0 0 0 0 0 0 0 0 0 0 0 0 0 0 0 0 0 0 0 0 0 0 0 0 0 0 0 0 0 0 0 0 0 0 0 0 0 0 0 0 0 0 0 0 0 0 0 0 0 0 0 0 0 0 0 0 0 0 0 0 0 0 0 0 0 0 0 0 0 0 0 0 0 0 0 0 0 0 0 0 0 0 0 0 0 0 0 0 0 0 0 0 0 0 0 0 0 0 0 0 0 0 0 0 0 0 0 0 0 0 0 0 0 0 0 0 0 0 0 0 0 0 0 0 0 0 0 0 0 0 0 0 0 0 0 0 0 0 0 0 0 0 0 0 0 0 0 0 0 0 0 0 0 0 0 0 0 0 0 0 0 0 0 0 0 0 0 0 0 0 0 0 0 0 0 0 0 0 0 0 0 0 0 0 0 0 0 0 0 0 0 0 0 0 0 0 0 0 0 0 0 0 0 0 0 0 0 0 0 0 0 0 0 0 0 0 0 0 0 0 0 0 0 0 0 0 0 0 0 0 0 0 0 0 0 0 0 0 0 0 0 0 0 0 0 0 0 0 0 0 0 0 0 0 0 0 0 0 0 0 0 0 0 0 0 0 0 0 0 0 0 0 0 0 0 0 0 0 0 0 0 0 0 0 0 0 0 0 0 0 0 0 0 0 0 0 0 0 0 0 0 0 0 0 0 0 0 0 0 0 0 0 0 0 0 0 0 0 0 0 0 0 0 0 0 0 0 0 0 0 0 0 0 0 0 0 0 0 0 0 0 0 0 0 0 0 0 0 0 0 0 0 0 0 0 0 0 0 0 
</DataArray>
<DataArray type="Float64" Name="B_conc" format="ascii">
0 0 0 0 0 0 0 0 0 0 0 0 0 0 0 0 0 0 0 0 0 0 0 0 0 0 0 0 0 0 0 0 0 0 0 0 0 0 0 0 0 0 0 0 0 0 0 0 0 0 0 0 0 0 0 0 0 0 0 0 0 0 0 0 0 0 0 0 0 0 0 0 0 0 0 0 0 0 0 0 0 0 0 0 0 0 0 0 0 0 0 0 0 0 0 0 0 0 0 0 0 0 0 0 0 0 0 0 0 0 0 0 0 0 0 0 0 0 0 0 0 0 0 0 0 0 0 0 0 0 0 0 0 0 0 0 0 0 0 0 0 0 0 0 0 0 0 0 0 0 0 0 0 0 0 0 0 0 0 0 0 0 0 0 0 0 0 0 0 0 0 0 0 0 0 0 0 0 0 0 0 0 0 0 0 0 0 0 0 0 0 0 0 0 0 0 0 0 0 0 0 0 0 0 0 0 0 0 0 0 0 0 0 0 0 0 0 0 0 0 0 0 0 0 0 0 0 0 0 0 0 0 0 0 0 0 0 0 0 0 0 0 0 0 0 0 0 0 0 0 0 0 0 0 0 0 0 0 0 0 0 0 0 0 0 0 0 0 0 0 0 0 0 0 0 0 0 0 0 0 0 0 0 0 0 0 0 0 0 0 0 0 0 0 0 0 0 0 0 0 0 0 0 0 0 0 0 0 0 0 0 0 0 0 0 0 0 0 0 0 0 0 0 0 0 0 0 0 0 0 0 0 0 0 0 0 0 0 0 0 0 0 0 0 0 0 0 0 0 0 0 0 0 0 0 0 0 0 0 0 0 0 0 0 0 0 0 0 0 0 0 0 0 0 0 0 0 0 0 0 0 0 0 0 0 0 0 0 0 0 0 0 0 0 0 0 0 0 0 0 0 0 0 0 0 0 0 0 0 0 0 0 0 0 0 0 0 0 0 0 0 0 0 0 0 0 0 0 0 0 0 0 0 0 0 0 0 0 0 0 0 0 0 0 0 0 0 0 0 0 0 0 0 0 0 0 0 0 0 0 0 0 0 0 0 0 0 0 0 0 0 0 0 0 0 0 0 0 0 0 0 0 0 0 0 0 0 0 0 0 0 0 0 0 0 0 0 0 0 0 0 0 0 0 0 0 0 0 0 0 0 0 0 0 0 0 0 0 0 0 0 0 0 0 0 0 0 0 0 0 0 0 0 0 0 0 0 0 0 0 0 0 0 0 0 0 0 0 0 0 0 0 0 0 0 0 0 0 0 0 0 0 0 0 0 0 0 0 0 0 0 0 0 0 0 0 0 0 0 0 0 0 0 0 0 0 0 0 0 0 0 0 0 0 0 0 0 0 0 0 0 0 0 0 0 0 0 0 0 0 0 0 0 0 0 0 0 0 0 0 0 0 0 0 0 0 0 0 0 0 0 0 0 0 0 0 0 0 0 0 0 0 0 0 0 0 0 0 0 0 0 0 0 0 0 0 0 0 0 0 0 0 0 0 0 0 0 0 0 0 0 0 0 0 0 0 0 0 0 0 0 0 0 0 0 0 0 0 0 0 0 0 0 0 0 0 0 0 0 0 0 0 0 0 0 0 0 0 0 0 0 0 0 0 0 0 0 0 0 0 0 0 0 0 
</DataArray>
<DataArray type="Float64" Name="region_id" format="ascii">
4 4 1 4 4 1 4 4 1 4 4 4 4 4 4 1 4 4 4 4 4 4 4 4 4 4 4 4 4 4 4 1 4 4 1 1 4 4 4 4 4 1 4 4 4 4 4 4 4 4 4 4 4 4 4 4 4 4 4 4 4 4 4 4 4 4 4 4 4 4 4 4 4 1 4 4 1 4 4 4 4 4 4 4 4 4 1 4 4 4 4 4 4 4 4 4 1 4 4 1 4 4 4 4 4 1 4 4 4 4 4 4 1 4 1 4 4 1 4 4 4 1 4 1 4 4 1 4 4 4 4 4 1 4 4 1 4 4 1 4 1 4 1 4 4 1 4 4 4 4 4 1 4 4 1 4 4 4 4 1 1 4 4 4 4 4 4 4 4 4 4 4 1 4 1 4 4 1 4 4 4 4 4 4 4 4 1 4 4 4 4 4 1 4 4 4 4 4 1 4 4 1 4 1 1 4 1 4 1 4 4 4 4 1 4 4 1 4 4 4 4 4 1 4 4 4 4 4 4 4 1 1 1 4 4 4 4 4 4 1 4 4 4 1 1 4 4 1 1 1 4 1 4 4 1 1 4 4 1 4 4 4 1 4 4 4 4 4 4 4 4 1 4 4 1 4 4 4 1 4 4 4 4 1 4 4 4 1 1 4 4 4 1 4 4 1 4 4 4 4 1 4 4 1 1 4 4 1 1 4 4 4 1 4 4 4 4 4 4 4 4 4 4 4 4 4 4 4 1 4 4 4 4 4 4 4 4 4 4 4 4 4 4 4 4 4 4 4 4 4 4 4 4 4 4 4 4 4 4 4 4 1 4 4 1 4 4 4 4 4 4 4 4 4 4 4 4 4 4 4 4 1 4 4 4 1 4 4 4 4 4 4 4 4 4 4 4 4 4 4 4 4 4 1 4 4 4 4 4 4 4 4 4 4 4 4 1 4 1 4 1 4 4 4 1 4 1 4 4 1 1 4 1 4 4 1 4 4 4 4 4 4 4 4 4 4 1 4 1 4 4 4 4 4 4 4 4 4 4 4 4 1 4 4 4 4 4 4 4 4 4 4 1 4 4 4 4 1 4 4 1 4 4 4 4 4 4 4 4 4 4 4 1 4 4 4 4 1 4 1 4 4 4 1 4 4 4 1 4 4 4 4 4 4 4 4 1 1 4 4 1 4 4 4 1 4 4 4 4 4 4 1 4 1 1 4 4 1 4 4 4 4 1 4 4 4 4 4 4 4 4 4 4 4 4 4 1 4 1 4 4 4 4 4 1 4 4 4 4 4 4 4 4 4 4 1 4 4 1 4 4 1 4 4 4 4 4 4 4 4 4 1 1 4 1 4 1 4 4 4 4 4 4 4 4 4 4 1 4 1 1 4 4 4 4 4 1 4 1 4 4 4 4 4 1 4 4 1 4 4 4 4 4 4 4 4 4 4 4 4 1 1 4 4 4 1 4 4 1 4 1 4 4 4 4 4 4 4 4 4 1 4 1 4 4 1 4 4 4 4 4 4 4 4 4 4 4 4 4 4 4 4 4 4 4 4 4 4 4 4 1 1 4 4 4 1 4 4 1 1 4 4 4 4 4 1 4 4 4 4 1 4 1 4 4 4 4 1 1 4 1 4 1 4 
</DataArray>
</CellData>
</Piece>
</UnstructuredGrid>
</VTKFile>
