<?xml version="1.0"?>
<VTKFile type="UnstructuredGrid" version="0.1" byte_order="LittleEndian">
<UnstructuredGrid>
<Piece NumberOfPoints="316" NumberOfCells="724">
<Points>
<DataArray type="Float64" NumberOfComponents="3" format="ascii">
0 0.69999999999999996 0 0 8 0 0 3.7000000000000002 0 1.243750000001385 0.69999999999999996 0 0.68142292217753131 2.106313194182027 0 0 1.6319639930219929 0 0 2.430303940964651 0 0.70993008501830757 2.9054181396964478 0 0 3.1141786369756268 0 0.45714634023723411 3.4614941897304652 0 1.013301616169622 3.6128741719811099 0 1.451787781083937 3.11022608666643 0 1.186467289461244 2.488259157846338 0 0.56249999999824107 3.9749999999991399 0 0.59999999999999998 0.69999999999999996 0 2.2687831884271348 2.397628317379688 0 2.4236693135559251 3.5256579194055688 0 2.9420158813362729 3.5139475164392531 0 2.8857059848027808 2.304389417342541 0 3.16379900756549 1.750659825629856 0 2.5341028426591712 1.9138806300960609 0 1.942890303101708 1.90249985684108 0 2.23284951060374 1.369095413116082 0 1.626949751997165 1.3978044304614949 0 1.887500000003292 0.69999999999999996 0 2.5312500000049418 0.69999999999999996 0 2.730231246675086 1.4599417336750831 0 3.047698899035677 1.175177397439602 0 3.1750000000065048 0.69999999999999996 0 0.94999999999923723 1.2749999999987469 0 1 6.2000000000000002 0 1.1249999999964171 4.2499999999982494 0 3.8187500000045098 0.69999999999999996 0 3.638214240926366 1.265285427893069 0 3.5028943452390711 2.1825773809523441 0 3.757799744899315 1.759341836734688 0 4.0559490150232032 2.028653202947901 0 4.7733688274428578 1.2511819424194319 0 4.2198317920941601 1.108273596938623 0 4.4625000000026009 0.69999999999999996 0 5.1062500000012143 0.69999999999999996 0 6.1230253171455891 1.2440604005832661 0 5.8758020027701336 1.829281458631685 0 5.4251604005540912 2.1458562917259631 0 1.299999999998378 1.8499999999973351 0 5.5486111111111649 3.4166666666664391 0 4.9131042795799686 3.1639526813742029 0 4.5652883261780408 3.549611461603364 0 4.3536256774790401 3.0337160882464551 0 3.2848100522576571 3.06994577157805 0 3.8190056356267248 3.2454749759848052 0 3.412636880282601 3.6134558579332841 0 1.75 5 0 1.6874999999994109 4.5249999999997117 0 1.599999999997112 6.1000000000004819 0 1.649999999999066 2.4249999999984651 0 3.625000000001803 4.4499999999997977 0 3.2187500000011142 4.5624999999995248 0 4.1250000000089333 4 0 5.2812499999974998 4.480555555557217 0 5.7901785714252867 4.1543650793672633 0 6.2822169506114909 4.9442489896720572 0 2 3 0 2.25 4.7999999999999998 0 4.8969907407407627 5.6240740740739659 0 2.08333333333292 3.599999999997022 0 2.1666666666662731 4.1999999999971616 0 2.1999999999956921 6.0000000000007194 0 5.3819444444444393 5.7444444444444036 0 6.0367063492063266 5.8849206349206353 0 5.1289108351881252 6.943051186131636 0 3.833430775055819 6.5641729053027689 0 3.3303561509924351 6.9830522680580502 0 2.6000000000000818 2.8399999999999781 0 2.580520851116443 6.6244224184663167 0 1.646932375870239 6.6136900344172886 0 2.6666666666680592 4.5333333333324424 0 2.75 4 0 2.227678571427079 5.4095242619018373 0 2.799999999997127 5.9000000000004791 0 2.8333333333331181 5.0999999999998904 0 1.042857142856084 4.9670058772507648 0 1.593428957229921 3.8897035774451321 0 0.54607142857014845 4.5325429890369104 0 0 4.3611884975573796 0 0 5.1095205703790167 0 3.0833333333345938 4.2666666666658593 0 3.1249999999889848 4 0 0 5.9564815289107864 0 0.59593253968210291 5.8008707178522592 0 1.532738095236533 5.6571455714099397 0 0 6.9150707591630427 0 3.2000000000001432 2.679999999999962 0 3.25 6.2999999999999998 0 1.1705225977355731 8 0 0.93837900218741932 7.1804089820132404 0 1.8128190395187029 7.3536930984991047 0 3.4166666666672652 5.4000000000003077 0 3.3999999999985642 5.8000000000002396 0 3.5 5 0 3.5 4 0 2.644109419022838 7.3867316522664499 0 2.2707825856939472 8 0 3.6250000000072249 5.9999999999942197 0 3.749999999999261 5.3499999999989658 0 3.8000000000002032 2.5199999999999458 0 3.874999999992375 3.7500000000050839 0 4 5.7000000000000002 0 4.25 3.5 0 4.25 4.7999999999999998 0 4.25 1.5 0 4.25 6.2000000000000011 0 4.4999999999995417 5.9999999999997264 0 4.4166666666668641 5.4666666666665567 0 4.6250000000004974 1.8500000000004651 0 4.4000000000001336 2.3599999999999639 0 4.75 7.2000000000000002 0 4.5 6.6999999999999993 0 4.75 4 0 4.75 4.7000000000000002 0 4.7500000000003384 4.3999999999997286 0 4.75 2.7999999999999998 0 5 6.2999999999999998 0 4.8333333333337283 5.2333333333331122 0 5 2.2000000000000002 0 5.0000000000002984 3.5999999999995218 0 5.25 5 0 5.5000000000008269 1.1999999999983459 0 5.25 4 0 5.5 6.3500000000000014 0 5.2500000000003251 3.1999999999994801 0 5.2500000000007052 1.6999999999985891 0 5.2499999999996163 2.499999999999539 0 5.5 2.7999999999999998 0 5.7499999999897531 4.6666666666734979 0 5.75 0.69999999999999996 0 5.75 5.25 0 5.6250000000000648 3.899999999999983 0 5.75 2.5 0 5.9166666666663046 3.1999999999996529 0 6.3749999999999796 2.350000000000005 0 6 3.7999999999999998 0 6 6.4000000000000004 0 4.2771317171003211 8 0 3.3049975410581078 8 0 4.045228499335253 7.2019851637643439 0 6.3749999999999352 3.899999999999983 0 6.249999999989754 4.333333333340164 0 6.3333333333330009 3.5999999999996799 0 6.25 5.5 0 5.1909118800994873 8 0 6.049840683362258 8 0 5.8367197674990106 7.1166649360427767 0 6.4684217593582272 7.3531189884776698 0 6.6249999999998499 6.2000000000000481 0 6.8572107462251504 8 0 6.5 5.2999999999999998 0 7.616117101574889 8 0 7.2585497534189534 7.2378318565328508 0 6.75 4 0 7.9700743397311431 7.5609350974516802 0 8.8779286709583509 7.1321289214782846 0 9.4363260705848777 7.4358468248574452 0 6.75 5.75 0 8.3294684777734691 8 0 6.8750000000007789 5.6500000000007269 0 7 2.2000000000000002 0 7.2499999999897531 4.3333333333265021 0 7.25 6 0 7.5 3.7000000000000002 0 7.4999999999999769 2.349999999999993 0 7.5 4.7999999999999998 0 7.5 2 0 7.6500000000000004 6.2000000000000002 0 7.75 2.25 0 7.749999999999754 3.1000000000005912 0 7.749999999989754 4.666666666659836 0 7.6875 6.5 0 7.75 5.5 0 7.8750000000136362 4.9000000000036366 0 8.125 7 0 8 2.5 0 8.1666666666661811 1.900000000001745 0 8.3333333333329112 1.3000000000015179 0 8 5.25 0 8.25 5 0 8.25 3.7000000000000002 0 8.4375000000000018 2.8750000000000009 0 8.4999999999999503 2.5999999999999899 0 8.5625 7.5 0 8.5 0.69999999999999996 0 8.7499999999999982 4.6666666666666679 0 8.7499999999999556 3.7999999999999909 0 8.625 5.25 0 8.75 5.166666666666667 0 9 8 0 8.8750000000000036 3.2500000000000022 0 9 5.5 0 9 2.7000000000000002 0 9.25 5.333333333333333 0 9.25 4.3333333333333339 0 10.58712006499414 8 0 9.3125000000000018 3.6250000000000022 0 9.2500000000000728 3.900000000000015 0 9.7322767000115658 8 0 10.11683562520899 7.1952376222900778 0 9.4666666666644659 2.5666666666672948 0 11.58504501385041 8 0 12.75 6.9437741439064196 0 9.75 5.5 0 9.9333333333295304 2.4333333333344198 0 9.75 4 0 12.186383928571081 5.6739548845775634 0 12.75 6.038988862336077 0 12.75 5.2639308761360883 0 12.096269132652781 5.0089836801012728 0 12.75 4.0003174080232462 0 10.680373124719701 5.0996881878923999 0 10.462566396889811 4.436821917062888 0 9.9378319844489287 4.5341095853144147 0 10.058566397584119 5.1088423539901608 0 10.249999999999989 4.0999999999999979 0 9.6816900032536655 6.1509933969218187 0 10.318895127649739 5.6829040483701769 0 10.917277223084589 5.4813827249950968 0 11.14723036767284 6.2469725545514123 0 10.75003341587618 5.9107455977173604 0 10.44528068387236 6.4182408893442124 0 11.09889622188336 7.0112522472967331 0 9.9618211858937151 6.6596055842737263 0 9.5164239722228405 6.8348750909827052 0 10.4 2.2999999999999998 0 10.5 4.7999999999999998 0 9.1030890763140047 6.5321818396608462 0 9.3303864350508938 5.6813923661908907 0 8.970242172000809 5.9226351006993019 0 8.4972876044463757 5.8311422148541041 0 8.0796282337786849 6.311844367667188 0 8.6126164010124153 6.4595270667143572 0 10.75000000000014 4.2000000000000286 0 10.612499999999949 2.7999999999998741 0 6.518953214484978 6.7704843776901313 0 7.0801824727701241 6.5807936507936633 0 7.3577684192630528 5.5086946576740887 0 7.9635986863599726 5.855288607768216 0 7.612180670462922 5.8137861955531047 0 10.875 4.5499999999999998 0 10.82499999999963 3.2999999999991241 0 11.03749999999963 3.7999999999991241 0 10.78333333333231 1.9000000000010699 0 7.6417937536871419 5.1654402589958011 0 7.2802004846459853 5.1175278771156387 0 7.0073846965074598 5.2778944676064459 0 6.936160960427304 4.89683078406033 0 6.6887757623921971 4.5124976540268094 0 7.9282200727472034 4.1620177469108377 0 8.6312122071040278 4.1551278659605089 0 8.2402653769809682 4.5238773148127134 0 8.180981048467725 5.4477384704370531 0 9.3812574935583886 4.9465914098774082 0 11.166666666666989 1.49999999999966 0 11.550000000000001 1.1000000000000001 0 11.412499999999749 4.9749999999989596 0 11.25 4.2999999999999998 0 9.4186530900934855 3.112704842739701 0 9.1699287288289124 2.374148078484497 0 8.412499999999941 3.345000000000117 0 6.7300925925924284 3.401388888888814 0 7.1682741769546334 2.9476245590829571 0 6.4676238242209063 2.8855733497101581 0 11.9 7 0 11.749999999999741 4.3999999999999488 0 11.625000000000339 3.9999999999997291 0 11.73749999999942 6.3249999999975941 0 11.574999999999131 5.6499999999963926 0 7.6816945906127989 1.5894745186858981 0 6.6325887022434813 1.7109098098422979 0 7.1647318986115511 1.809291393235446 0 7.1613611451472012 1.37684225124335 0 6.6841764304611262 1.174631096497762 0 6.4375000000000027 0.69999999999999996 0 7.1250000000000044 0.69999999999999996 0 7.6227778138185824 1.133263353986153 0 7.8125000000000018 0.69999999999999996 0 8.8002334655075174 1.6758279686386801 0 8.8279208556153161 2.2186179292874191 0 9.3851273930358641 2.0113077179832741 0 9.294553589509567 1.3214674021148729 0 8.816324129544423 1.139459074151014 0 9.1535002593721142 0.69999999999999996 0 12.24999999999979 4.4999999999999574 0 9.8931307966635327 0.69999999999999996 0 12.75 8 0 12 3.7000000000000002 0 9.75368232782
[...]
<CellData Scalars="A_conc,B_conc,region_id," Vectors="" Tensors="">
<DataArray type="Float64" Name="A_conc" format="ascii">
0.90823506333662063 0.71098876378487119 0.71562710375079641 0.25437533740062301 0.3097617869781869 0.28490864088514645 0.81539418514005046 0.38877989241313171 0.87496110924296588 0.87059490571438403 0.80879953052155806 0.82794059525483221 0.87668299780782522 0.87735040028191491 0.89429108159195159 0.88679328312745564 0.88467035991896936 0.88848394359371596 0.89817047613421197 0.90159420339423513 0.9083416128533377 0.9012998889374263 0.88152411270838171 0.9057058362619107 0.68762367753123388 0.7771949453251612 0.8322832609905485 0.90923027700664205 0.91872458416846881 0.91244600056964631 0.83409911955596061 0.86878854513327752 0.85787988366063228 0.88178178381210126 0.86363067992146636 0.86549917524246012 0.85588418597948923 0.89084074551433312 0.90336260509435251 0.84784889305809541 0.871781924794926 0.83283800436231437 0.81801896361797899 0.63347678217578196 0.55753695443860707 0.80135415052283332 0.72667332071536794 0.70327288084205564 0.62124631414968134 0.47586496908730092 0.502121725957135 0.53722102677894945 0.3351796961393449 0.35725328511110033 0.39568864506304124 0.3799588558636211 0.62483612023951474 0.29343715896379052 0.80676361161517518 0.31554885058364524 0.3333042132525591 0.90937237226614709 0.35675865751577518 0.63581969939623317 0.74625414289311376 0.84643930435387804 0.90082067516829545 0.87990106991734918 0.76061797247246132 0.89184433110253125 0.88536122520602578 0.91149721038243392 0.91876166981286289 0.72040323922444494 0.70830420805248484 0.69351391179785826 0.25429561704968034 0.26115383763644062 0.28454695885189857 0.32078313703769279 0.43244558902423308 0.35987261838884621 0.6276942482584531 0.66121395518389692 0.74243197802730077 0.76804616852586149 0.92066490621809649 0.92009733466860633 0.91470182956405721 0.84565994588003957 0.90007916160306567 0.71699915084631516 0.85110783379801658 0.62254509171775307 0.70428363657059934 0.87831272637603719 0.91045956910469639 0.92233971278333526 0.92310355185350046 0.95066926072118974 0.9491070465688991 0.9610600311541353 0.90672900182282579 0.90786785585414198 0.9422098634570959 0.93053744041524256 0.9263130142212247 0.62207773673359945 0.63708615988867634 0.92807269994149189 0.77292051089995573 0.78283168972451 0.49962037315282604 0.14581145842394866 0.33703422686810569 0.43168623630816927 0.2453253236138638 0.94675178708838514 0.94395104540721642 0.072441805385701941 0.9251177612393644 0.91497056856743209 0.91392582891396623 0.91547691966848577 0.93095652172051324 0.94194892434222921 0.94029198380517043 0.90377380200489299 0.9460443974595929 0.89264409114794052 0.90296922412462344 0.9079972812516145 0.89712371242937761 0.88998843154058604 0.89380677010650911 0.88279566687580968 0.90170560502913455 0.87464084631094385 0.88316359551457224 0.92867236027528044 0.91252965294962074 0.90878303026180984 0.89212996344638951 0.92889246563036365 0.91140249297103859 0.91142320638585672 0.91264948473786345 0.45114874268681748 0.91517356801542826 0.91185259736862156 0.89890077903740584 0.89740099031175047 0.65984695821317307 0.69933231835824217 0.90201593233989796 0.89449053647663135 0.90290867357833804 0.90962293467614397 0.82053371170826073 0.91382110529631722 0.93625672330123033 0.91824550897883694 0.92148350062058926 0.89976067585716002 0.90320363575090623 0.94131129455173224 0.93762590061658402 0.95081340168686013 0.95839437073708744 0.96289614500447929 0.96282146014569681 0.96837496845590332 0.95650149595953682 0.94631893034201542 0.9549689433547528 0.9510272896588432 0.94423501098995466 0.95001883894456385 0.9596328636559156 0.83657280125035705 0.93927437580099427 0.92989823482810841 0.80327864540055394 0.79422837861219908 0.84622612083488169 0.88378071467882369 0.91150015985706301 0.91765043282014913 0.9271948466681752 0.92314435554932572 0.6728988614511332 0.61873662698670984 0.64311020128616814 0.81951934469263943 0.86184517532220606 0.86575216574167269 0.77143192200033583 0.68863929166182325 0.70702419503998004 0.80464714814043048 0.81405937191761213 0.75832474706424824 0.75141802881144315 0.69111443607215528 0.59540876045330959 0.25511701853015528 0.27500329787269007 0.38407965534323318 0.69308391016877358 0.65690585905821619 0.70848770186463206 0.67435720194003379 0.89360075102109882 0.55438042399562848 0.74110615376869393 0.77005303670739611 0.93166276658892477 0.72583364380794335 0.92176104187293095 0.92990792772321085 0.90015208470584462 0.67644647733173313 0.79385916263069001 0.23702788996005353 0.93278601532359173 0.54600922259839391 0.86994564670445795 0.92889534587119638 0.67640326635158665 0.71318904127567162 0.89271644474685941 0.91438011289666954 0.92464057432131819 0.91486594858290604 0.92123181588542624 0.90262361663546231 0.89392040551370822 0.90435623965895995 0.92336465265858525 0.91099130196873324 0.91622790678395716 0.86734747140434298 0.88272209889442355 0.87520794020184656 0.88925130373467809 0.79039368847930691 0.53440102398610789 0.8344718459443311 0.84891631907359777 0.81333008865620648 0.90341495645688785 0.91207161372754308 0.90125064059078475 0.88909424924837432 0.90156807795257976 0.90490473747897604 0.74027244910570245 0.93195447446966806 0.92976236351985908 0.90056518739752189 0.90413693537223128 0.87644760993223936 0.93584132221036265 0.88855787266732367 0.88771650149062109 0.8957654014720362 0.89560370771311915 0.89124571727916124 0.88333265393134774 0.88455508464403909 0.87803815968814847 0.87943596063793528 0.87857796596325921 0.89860138139879131 0.88379714724470482 0.89833226418071088 0.91512184075449787 0.92156204717074819 0.9188652044988147 0.85409607051633629 0.9166599513008582 0.70149364401201897 0.84774142094999849 0.85817275210339661 0.93132461832304436 0.78072424184375877 0.38582318583963304 0.89179430147127015 0.88229682796513631 0.51364365906421161 0.40283369207092701 0.2421035622408107 0.26645701288842033 0.52386097384313046 0.21781956301500932 0.1786724373462571 0.93851540297357094 0.76688743066331899 0.71313963204524233 0.93914159843582645 0.92487873314149316 0.90689419499585733 0.44577476173962594 0.89556715350972316 0.96279176948973699 0.9326310528457773 0.68210631695046064 0.91221858516883092 0.93390436302454494 0.96711434975692834 0.29884683216066538 0.93802848703930408 0.90810542420188578 0.89707028794049282 0.94552693510970409 0.96853803121334003 0.85309775917259301 0.92183330810871833 0.85073436751852083 0.92605441430050484 0.94882548135127953 0.6101587533072147 0.88641907312396095 0.96441096905894619 0.92165816445332194 0.54405590979358609 0.88924401834606048 0.96178547323488284 0.97673530981391998 0.96621418703175177 0.96026064053722748 0.4927090566128926 0.97466023792584067 0.92975293634766742 0.90580330679154075 0.97036324311282507 0.89897673391346833 0.97583511275450241 0.9131490832534338 0.9788446204904937 0.93550478709972351 0.32328044222785557 0.25390776014566063 0.401542456782362 0.45604630171134097 0.97576768543308945 0.5267567866609485 0.56518857027701042 0.67522932520552958 0.57798390376332154 0.77241135914542713 0.82991329803869829 0.97881807894292905 0.97687226388142334 0.92435326381110694 0.90161194144428569 0.94762046258488286 0.98010449430908375 0.78970739834807646 0.70684397852900183 0.90048414759580564 0.85524528836313396 0.92820740402928137 0.94995691445854491 0.9142877711753219 0.93793039751872642 0.95229490012629814 0.96444641471433978 0.97281811374111693 0.97886787309910916 0.97482936121541486 0.97369128431782814 0.93976058071754676 0.9182872177206195 0.98104600961978861 0.93894071244008859 0.94880823557407179 0.98359205300455155 0.91516994095935866 0.97763944471772546 0.96468945294008712 0.95619927378620984 0.95526996786000162 0.94743711995473878 0.97335822902203128 0.97825152675149973 0.97026974666807675 0.97347523123426949 0.98029889023887318 0.98552535815073283 0.98168573812491489 0.98172128690426241 0.86019443455760725 0.81696308052077637 0.98189213829888011 0.96191207967903725 0.89209021304492531 0.97283199970921519 0.98465670557910179 0.99186920946176471 0.94159778524770477 0.95011029995110241 0.9822282721857698 0.96709467265044124 0.9532069044800624 0.99319742451014825 0.74528167177068405 0.98369630911066586 0.98800259780798738 0.95676723861323931 0.99159441999761921 0.99004429911932867 0.99419098975627818 0.98349202951649972 0.98332396932521138 0.98132660271101013 0.97502358399689948 0.98633561233276046 0.98925640148088811 0.99253085054044843 0.99449850416092356 0.99736514574309809 0.9959954745041828 0.98438717421314748 0.9927065777802937 0.9857379621125788 0.98304378138555015 0.99028298720001251 0.97741058605654607 0.97324766388776851 0.99320261356825279 0.99765342944902269 0.99482655376717188 0.99545402623594548 0.9975370580919285 0.9980336740984046 0.99362680795583258 0.99535353453978792 0.99333367633761627 0.99267339983339409 0.98376386385684822 0.99078134291123621 0.9789479435245112 0.98720449979753555 0.98967005221563087 0.99207887605739209 0.98888129637940314 0.97493345937285425 0.995071820854591 0.98517354349335107 0.97137570889550318 0.96820052079311603 0.97696918365001062 0.97903529499463215 0.97480478242005786 0.99126736641972624 0.99186355117040992 0.9883671423194178 0.98458964485086464 0.98888973254334989 0.98945017028238869 0.98415906832230093 0.98197979335542074 0.98571351393847273 0.98363980961725361 0.9798529574414635 0.9748104576594947 0.97789470741320939 0.96683076734142126 0.96878335884358835 0.96937970283849884 0.96427874586619056 0.96287985159166878 0.96585330592972485 0.96709781049424803 0.97017354774038811 0.9727115592654485 0.96887432316210731 0.97858759118598537 0.97983739844961359 0.97708062448182953 0.96807936422162799 0.96797873287551695 0.97520147670165591 0.97706724962058544 0.99076466866738411 0.99565965068302842 0.984971422147497 0.98881689054475808 0.96617804222154113 0.96275916323746835 0.95869864537316474 0.96601003639306449 0.96055970116681966 0.96077901282489375 0.96077893281581184 0.95861383196677652 0.95545878125217043 0.95800248075781047 0.95329024745786217 0.95572050810478693 0.89074950408961207 0.89136408391306943 0.88531226772133387 0.92204183184105659 0.95483818596314451 0.96010024954856477 0.92931048665929272 0.95306416369775215 0.92433561709210044 0.93001858024863804 0.90892959205446522 0.88058324242155184 0.89353588486514324 0.87723461902176325 0.91555294061543435 0.88879758947071885 0.83577083864359003 0.9552394744278716 0.95011291038723256 0.94716554733176594 0.93406445811641792 0.94600052821871827 0.92272179645555841 0.92739462443113407 0.91958428511794943 0.92745193012987148 0.93713226944902139 0.93552865562825493 0.94840868402898471 0.99475713577519898 0.99271295865304743 0.99206893930977014 0.99606822982464249 0.97985426953779342 0.974078768583163 0.97244470967589969 0.97832778029499767 0.97983563152589703 0.97461133454095894 0.97386037636154477 0.97244105427233174 0.96954896479804853 0.97071941640400705 0.96922114572621554 0.96681396299060296 0.96772198883009608 0.96470217770581324 0.96355013160891301 0.96154717872504492 0.96541041745539502 0.96953511869492859 0.96110081464873465 0.96433836808194262 0.97104909324459843 0.94392687839416012 0.96939353798152528 0.9480262543252147 0.97244743383556642 0.97570190599794082 0.95573887673731828 0.96877324979725987 0.96531144807111446 0.97166954416165963 0.96196058298223752 0.96168476739799047 0.98002897258409116 0.92916944619875186 0.95629408530481874 0.96325320247817792 0.90753408594215168 0.96722328146393721 0.96336195698551497 0.96707229259311922 0.96413424364795364 0.94485804419870323 0.95059088353925936 0.96777321543425487 0.97426670559926043 0.97088722770843683 0.97550195622055225 0.98010239637917618 0.97954760916965711 0.98645688536540488 0.9826309395767765 0.97971210422600197 0.97719177201302099 0.99874323415210897 0.98157615226627759 0.98244713576677001 0.97864410923594392 0.97284529415423915 0.96431204341763643 0.95938455976204162 0.95959228435065547 0.95626189950698504 0.95237706154997137 0.94281573370312421 0.9484620200823588 0.95521765238727618 0.95075655001818915 0.94655126277148005 0.94153712271212364 0.92600136419014345 0.82942771228978662 0.9522118668176961 0.95707905672252647 0.96679950889760402 0.96528014762276038 0.96689481034213776 0.97256650816613543 0.95160644612366663 0.95070652154043289 0.94643645314369151 0.93509406833971309 0.93141895619266313 0.87498869933147017 0.93406044126153243 0.94081901273412327 0.93911111170735961 0.94847597908538983 0.95421187868871749 0.96060718533589329 0.96098008930810319 0.96548793943392741 0.96954905345591091 0.98154884094781281 0.98353047574524521 0.9855202370533358 0.96009339261385984 0.87530899018945973 0.86336812522607964 0.85434374587384354 0.8292133158282744 0.93914414018811665 0.95854133627441707 0.92583031725491982 0.92906030955147201 0.81313694967904104 0.77900066384837174 0.7574357259233071 0.69956882388768049 0.71933667711861349 0.75378327808858647 0.80959257297733478 0.77574350497735756 0.77935960851788066 0.80415873378320857 0.83820256876232779 0.8661735856525361 0.94070861227486458 0.94059014930693252 0.83382060665758395 0.84980710901402889 0.93247568543734616 0.93550250920584144 0.93113107101131876 0.94956091524698361 0.94343438809069813 0.9510894001910245 0.95528369527762369 0.94596554451793025 0.94721954747278803 0.9541044317858014 0.95853860137304459 0.99927921078727899 0.96599905735747948 0.97068257176808093 0.97654461065123166 0.98775598775241846 0.983582730031066 0.97168111335171858 0.98627746676782313 0.97744210310621149 0.98429787946004654 0.98142307403172768 0.96723591460202285 0.9679653360581808 0.96503998082198894 0.95753118744494192 0.96062502948464656 0.95902385263854306 0.96724018383909982 0.97674591137973543 0.97238411604037633 0.97949220557935734 0.9638802106015838 0.96966641455224112 0.97077934637242758 0.97598415697669405 0.97943266880839608 0.97842096233358755 0.97450199270388449 0.98359753467097044 0.98148859089518403 0.98767102883116087 0.98508569598659179 0.98271194199771328 0.98169866370893022 0.9861849245160117 0.97926330577284282 0.9877911274347273 0.99966677296001039 0.99016034275495857 0.99289890232488265 0.98994783467968306 0.98781109023158753 0.98509857661743871 0.98760630054777621 0.99116358502027568 0.99309906636094225 0.99515829374892961 0.99727709160097233 0.99775898489414871 0.99502922689248452 0.99737784058388446 0.99458386362993478 0.99231344619880013 0.98897022578768223 0.98986977551975031 0.9932013573830869 0.99080759668509222 0.99410189911446278 0.99755316220100765 
</DataArray>
<DataArray type="Float64" Name="B_conc" format="ascii">