<?xml version="1.0"?>
<VTKFile type="UnstructuredGrid" version="0.1" byte_order="LittleEndian">
<UnstructuredGrid>
<Piece NumberOfPoints="21744" NumberOfCells="7256">
<Points>
<DataArray type="Float64" NumberOfComponents="3" format="ascii">
4.0999999999999996 4.2999999999999998 4 4.0999999999999996 4.2999999999999998 4.333333333333333 4.0999999999999996 4.2999999999999998 4.333333333333333 4.0999999999999996 4.2999999999999998 4.6666666666666661 4.0999999999999996 4.2999999999999998 4.6666666666666661 4.0999999999999996 4.2999999999999998 5 4.0999999999999996 4.2999999999999998 5 4.0999999999999996 4.2999999999999998 5.333333333333333 4.0999999999999996 4.2999999999999998 5.333333333333333 4.0999999999999996 4.2999999999999998 5.6666666666666679 4.0999999999999996 4.2999999999999998 5.6666666666666679 4.0999999999999996 4.2999999999999998 6.0000000000000027 4.0999999999999996 4.2999999999999998 6.0000000000000027 4.0999999999999996 4.2999999999999998 6.3333333333333375 4.0999999999999996 4.2999999999999998 6.3333333333333375 4.0999999999999996 4.2999999999999998 6.6666666666666723 4.0999999999999996 4.2999999999999998 6.6666666666666723 4.0999999999999996 4.2999999999999998 7.0000000000000036 4.0999999999999996 4.2999999999999998 7.0000000000000036 4.0999999999999996 4.2999999999999998 7.3333333333333357 4.0999999999999996 4.2999999999999998 7.3333333333333357 4.0999999999999996 4.2999999999999998 7.6666666666666679 4.0999999999999996 4.2999999999999998 7.6666666666666679 4.0999999999999996 4.2999999999999998 8 5.7000000000000002 5.9000000000000004 4 5.7000000000000002 5.9000000000000004 4.333333333333333 5.7000000000000002 5.9000000000000004 4.333333333333333 5.7000000000000002 5.9000000000000004 4.6666666666666661 5.7000000000000002 5.9000000000000004 4.6666666666666661 5.7000000000000002 5.9000000000000004 5 5.7000000000000002 5.9000000000000004 5 5.7000000000000002 5.9000000000000004 5.333333333333333 5.7000000000000002 5.9000000000000004 5.333333333333333 5.7000000000000002 5.9000000000000004 5.6666666666666679 5.7000000000000002 5.9000000000000004 5.6666666666666679 5.7000000000000002 5.9000000000000004 6.0000000000000027 5.7000000000000002 5.9000000000000004 6.0000000000000027 5.7000000000000002 5.9000000000000004 6.3333333333333375 5.7000000000000002 5.9000000000000004 6.3333333333333375 5.7000000000000002 5.9000000000000004 6.6666666666666723 5.7000000000000002 5.9000000000000004 6.6666666666666723 5.7000000000000002 5.9000000000000004 7.0000000000000036 5.7000000000000002 5.9000000000000004 7.0000000000000036 5.7000000000000002 5.9000000000000004 7.3333333333333357 5.7000000000000002 5.9000000000000004 7.3333333333333357 5.7000000000000002 5.9000000000000004 7.6666666666666679 5.7000000000000002 5.9000000000000004 7.6666666666666679 5.7000000000000002 5.9000000000000004 8 1.711199966150567 1.711199966150361 5 1.8968410464841088 1.7738067593137212 5 1.6906534346932016 1.8644844289848899 5 1.8968410464841088 1.7738067593137212 5 2.0824821268176503 1.8364135524770815 5 1.8762945150267434 1.9270912221482499 5 1.6906534346932016 1.8644844289848899 5 1.8762945150267434 1.9270912221482499 5 1.6701069032358364 2.0177688918194185 5 1.8968410464841088 1.7738067593137212 5 1.8762945150267434 1.9270912221482499 5 1.6906534346932016 1.8644844289848899 5 2.0824821268176503 1.8364135524770815 5 2.2681232071511923 1.8990203456404418 5 2.0619355953602851 1.9896980153116104 5 2.2681232071511923 1.8990203456404418 5 2.4537642874847339 1.961627138803802 5 2.2475766756938267 2.0523048084749704 5 2.0619355953602851 1.9896980153116104 5 2.2475766756938267 2.0523048084749704 5 2.04138906390292 2.1429824781461391 5 2.2681232071511923 1.8990203456404418 5 2.2475766756938267 2.0523048084749704 5 2.0619355953602851 1.9896980153116104 5 1.6701069032358364 2.0177688918194185 5 1.8557479835693782 2.080375684982779 5 1.6495603717784713 2.1710533546539472 5 1.8557479835693782 2.080375684982779 5 2.04138906390292 2.1429824781461391 5 1.835201452112013 2.2336601478173073 5 1.6495603717784713 2.1710533546539472 5 1.835201452112013 2.2336601478173073 5 1.6290138403211061 2.3243378174884759 5 1.8557479835693782 2.080375684982779 5 1.835201452112013 2.2336601478173073 5 1.6495603717784713 2.1710533546539472 5 2.0824821268176503 1.8364135524770815 5 2.0619355953602851 1.9896980153116104 5 1.8762945150267434 1.9270912221482499 5 2.0619355953602851 1.9896980153116104 5 2.04138906390292 2.1429824781461391 5 1.8557479835693782 2.080375684982779 5 1.8762945150267434 1.9270912221482499 5 1.8557479835693782 2.080375684982779 5 1.6701069032358364 2.0177688918194185 5 2.0619355953602851 1.9896980153116104 5 1.8557479835693782 2.080375684982779 5 1.8762945150267434 1.9270912221482499 5 8.2888000338496628 1.7111999661508079 5 8.2261932406863068 1.8968410464843595 5 8.1355155710151248 1.6906534346934923 5 8.2261932406863068 1.8968410464843595 5 8.1635864475229525 2.082482126817911 5 8.0729087778517687 1.8762945150270438 5 8.1355155710151248 1.6906534346934923 5 8.0729087778517687 1.8762945150270438 5 7.9822311081805868 1.6701069032361766 5 8.2261932406863068 1.8968410464843595 5 8.0729087778517687 1.8762945150270438 5 8.1355155710151248 1.6906534346934923 5 8.1635864475229525 2.082482126817911 5 8.1009796543595982 2.2681232071514623 5 8.0103019846884145 2.0619355953605956 5 8.1009796543595982 2.2681232071514623 5 8.0383728611962422 2.4537642874850141 5 7.9476951915250593 2.2475766756941469 5 8.0103019846884145 2.0619355953605956 5 7.9476951915250593 2.2475766756941469 5 7.8570175218538765 2.0413890639032797 5 8.1009796543595982 2.2681232071514623 5 7.9476951915250593 2.2475766756941469 5 8.0103019846884145 2.0619355953605956 5 7.9822311081805868 1.6701069032361766 5 7.9196243150172316 1.8557479835697281 5 7.8289466453460488 1.6495603717788607 5 7.9196243150172316 1.8557479835697281 5 7.8570175218538765 2.0413890639032797 5 7.7663398521826936 1.8352014521124125 5 7.8289466453460488 1.6495603717788607 5 7.7663398521826936 1.8352014521124125 5 7.6756621825115108 1.6290138403215451 5 7.9196243150172316 1.8557479835697281 5 7.7663398521826936 1.8352014521124125 5 7.8289466453460488 1.6495603717788607 5 8.1635864475229525 2.082482126817911 5 8.0103019846884145 2.0619355953605956 5 8.0729087778517687 1.8762945150270438 5 8.0103019846884145 2.0619355953605956 5 7.8570175218538765 2.0413890639032797 5 7.9196243150172316 1.8557479835697281 5 8.0729087778517687 1.8762945150270438 5 7.9196243150172316 1.8557479835697281 5 7.9822311081805868 1.6701069032361766 5 8.0103019846884145 2.0619355953605956 5 7.9196243150172316 1.8557479835697281 5 8.0729087778517687 1.8762945150270438 5 1.711199966150371 8.2888000338496308 5 1.7777497270725873 8.1024690728224567 5 1.8672521199306698 8.3047751556928837 5 1.7777497270725873 8.1024690728224567 5 1.8442994879948036 7.9161381117952816 5 1.9338018808528861 8.1184441946657078 5 1.8672521199306698 8.3047751556928837 5 1.9338018808528861 8.1184441946657078 5 2.0233042737109685 8.3207502775361348 5 1.7777497270725873 8.1024690728224567 5 1.9338018808528861 8.1184441946657078 5 1.8672521199306698 8.3047751556928837 5 1.8442994879948036 7.9161381117952816 5 1.9108492489170197 7.7298071507681065 5 2.0003516417751026 7.9321132336385336 5 1.9108492489170197 7.7298071507681065 5 1.977399009839236 7.5434761897409324 5 2.0669014026973187 7.7457822726113594 5 2.0003516417751026 7.9321132336385336 5 2.0669014026973187 7.7457822726113594 5 2.1564037955554012 7.9480883554817856 5 1.9108492489170197 7.7298071507681065 5 2.0669014026973187 7.7457822726113594 5 2.0003516417751026 7.9321132336385336 5 2.0233042737109685 8.3207502775361348 5 2.0898540346331851 8.1344193165089607 5 2.1793564274912676 8.3367253993793859 5 2.0898540346331851 8.1344193165089607 5 2.1564037955554012 7.9480883554817856 5 2.2459061884134837 8.1503944383522118 5 2.1793564274912676 8.3367253993793859 5 2.2459061884134837 8.1503944383522118 5 2.3354085812715661 8.3527005212226388 5 2.0898540346331851 8.1344193165089607 5 2.2459061884134837 8.1503944383522118 5 2.1793564274912676 8.3367253993793859 5 1.8442994879948036 7.9161381117952816 5 2.0003516417751026 7.9321132336385336 5 1.9338018808528861 8.1184441946657078 5 2.0003516417751026 7.9321132336385336 5 2.1564037955554012 7.9480883554817856 5 2.0898540346331851 8.1344193165089607 5 1.9338018808528861 8.1184441946657078 5 2.0898540346331851 8.1344193165089607 5 2.0233042737109685 8.3207502775361348 5 2.0003516417751026 7.9321132336385336 5 2.0898540346331851 8.1344193165089607 5 1.9338018808528861 8.1184441946657078 5 8.2888000338493875 8.2888000338496504 5 8.1024690728221973 8.2222502729274307 5 8.3047519270574739 8.1327351020648955 5 8.1024690728221973 8.2222502729274307 5 7.916138111795008 8.1557005120052111 5 8.1184209660302837 8.0661853411426776 5 8.3047519270574739 8.1327351020648955 5 8.1184209660302837 8.0661853411426776 5 8.3207038202655603 7.9766701702801424 5 8.1024690728221973 8.2222502729274307 5 8.1184209660302837 8.0661853411426776 5 8.3047519270574739 8.1327351020648955 5 7.916138111795008 8.1557005120052111 5 7.7298071507678188 8.0891507510829914 5 7.9320900050030945 7.9996355802204571 5 7.7298071507678188 8.0891507510829914 5 7.5434761897406286 8.0226009901607718 5 7.7457590439759052 7.9330858192982374 5 7.9320900050030945 7.9996355802204571 5 7.7457590439759052 7.9330858192982374 5 7.9480418982111809 7.8435706484357031 5 7.7298071507678188 8.0891507510829914 5 7.7457590439759052 7.9330858192982374 5 7.9320900050030945 7.9996355802204571 5 8.3207038202655603 7.9766701702801424 5 8.1343728592383702 7.9101204093579227 5 8.3366557134736468 7.8206052384953884 5 8.1343728592383702 7.9101204093579227 5 7.9480418982111809 7.8435706484357031 5 8.1503247524464566 7.7540554775731687 5 8.3366557134736468 7.8206052384953884 5 8.1503247524464566 7.7540554775731687 5 8.3526076066817332 7.6645403067106344 5 8.1343728592383702 7.9101204093579227 5 8.1503247524464566 7.7540554775731687 5 8.3366557134736468 7.82060523849
[...]
<CellData Scalars="pressure_p0,pressure_diff,velocity_diff," Vectors="velocity_p0,velocity_enr,velocity_reg,velocity_exact," Tensors="">
<DataArray type="Float64" Name="pressure_p0" format="ascii">
149.99999999613061 149.99999999613061 149.99999999613061 149.99999999613061 149.99999999613055 149.99999999613055 149.99999999613055 149.99999999613055 149.99999999871019 149.99999999871019 149.99999999871019 149.99999999871019 99.999999996986588 99.999999996986588 99.999999996986588 99.999999996986588 99.999999996986588 99.999999996986588 99.999999996986588 99.999999996986588 99.999999998995506 99.999999998995506 99.999999998995506 99.999999998995506 -128.80810712586521 -128.80810712586521 -128.80810712586521 -128.80810712586521 -128.80810712586521 -128.80810712586521 -128.80810712586521 -128.80810712586521 -128.80810712586521 -128.80810712586521 -128.80810712586521 -128.80810712586521 -128.80810712586521 -128.80810712586521 -128.80810712586521 -128.80810712586521 -141.29214712228779 -141.29214712228779 -141.29214712228779 -141.29214712228779 -141.29214712228779 -141.29214712228779 -141.29214712228779 -141.29214712228779 -141.29214712228779 -141.29214712228779 -141.29214712228779 -141.29214712228779 -141.29214712228779 -141.29214712228779 -141.29214712228779 -141.29214712228779 -135.37220354563775 -135.37220354563775 -135.37220354563775 -135.37220354563775 -135.37220354563775 -135.37220354563775 -135.37220354563775 -135.37220354563775 -135.37220354563775 -135.37220354563775 -135.37220354563775 -135.37220354563775 -135.37220354563775 -135.37220354563775 -135.37220354563775 -135.37220354563775 -134.87325888369966 -134.87325888369966 -134.87325888369966 -134.87325888369966 -134.87325888369966 -134.87325888369966 -134.87325888369966 -134.87325888369966 -134.87325888369966 -134.87325888369966 -134.87325888369966 -134.87325888369966 -134.87325888369966 -134.87325888369966 -134.87325888369966 -134.87325888369966 -147.50199353091784 -147.50199353091784 -147.50199353091784 -147.50199353091784 -147.50199353091784 -147.50199353091784 -147.50199353091784 -147.50199353091784 -147.50199353091784 -147.50199353091784 -147.50199353091784 -147.50199353091784 -147.50199353091784 -147.50199353091784 -147.50199353091784 -147.50199353091784 -156.8868628561556 -156.8868628561556 -156.8868628561556 -156.8868628561556 -156.8868628561556 -156.8868628561556 -156.8868628561556 -156.8868628561556 -156.8868628561556 -156.8868628561556 -156.8868628561556 -156.8868628561556 -156.8868628561556 -156.8868628561556 -156.8868628561556 -156.8868628561556 -146.90898631019039 -146.90898631019039 -146.90898631019039 -146.90898631019039 -146.90898631019039 -146.90898631019039 -146.90898631019039 -146.90898631019039 -146.90898631019039 -146.90898631019039 -146.90898631019039 -146.90898631019039 -146.90898631019039 -146.90898631019039 -146.90898631019039 -146.90898631019039 -156.4168782066499 -156.4168782066499 -156.4168782066499 -156.4168782066499 -156.4168782066499 -156.4168782066499 -156.4168782066499 -156.4168782066499 -156.4168782066499 -156.4168782066499 -156.4168782066499 -156.4168782066499 -156.4168782066499 -156.4168782066499 -156.4168782066499 -156.4168782066499 -151.78351602972995 -151.78351602972995 -151.78351602972995 -151.78351602972995 -151.78351602972995 -151.78351602972995 -151.78351602972995 -151.78351602972995 -151.78351602972995 -151.78351602972995 -151.78351602972995 -151.78351602972995 -151.78351602972995 -151.78351602972995 -151.78351602972995 -151.78351602972995 -151.79272344845194 -151.79272344845194 -151.79272344845194 -151.79272344845194 -151.79272344845194 -151.79272344845194 -151.79272344845194 -151.79272344845194 -151.79272344845194 -151.79272344845194 -151.79272344845194 -151.79272344845194 -151.79272344845194 -151.79272344845194 -151.79272344845194 -151.79272344845194 -152.37151948827102 -152.37151948827102 -152.37151948827102 -152.37151948827102 -152.37151948827102 -152.37151948827102 -152.37151948827102 -152.37151948827102 -152.37151948827102 -152.37151948827102 -152.37151948827102 -152.37151948827102 -152.37151948827102 -152.37151948827102 -152.37151948827102 -152.37151948827102 -152.39730641844173 -152.39730641844173 -152.39730641844173 -152.39730641844173 -152.39730641844173 -152.39730641844173 -152.39730641844173 -152.39730641844173 -152.39730641844173 -152.39730641844173 -152.39730641844173 -152.39730641844173 -152.39730641844173 -152.39730641844173 -152.39730641844173 -152.39730641844173 -119.41364503746259 -119.41364503746259 -119.41364503746259 -119.41364503746259 -119.41364503746259 -119.41364503746259 -119.41364503746259 -119.41364503746259 -119.41364503746259 -119.41364503746259 -119.41364503746259 -119.41364503746259 -119.41364503746259 -119.41364503746259 -119.41364503746259 -119.41364503746259 -133.73099787930462 -133.73099787930462 -133.73099787930462 -133.73099787930462 -133.73099787930462 -133.73099787930462 -133.73099787930462 -133.73099787930462 -133.73099787930462 -133.73099787930462 -133.73099787930462 -133.73099787930462 -133.73099787930462 -133.73099787930462 -133.73099787930462 -133.73099787930462 -127.18857327329926 -127.18857327329926 -127.18857327329926 -127.18857327329926 -127.18857327329926 -127.18857327329926 -127.18857327329926 -127.18857327329926 -127.18857327329926 -127.18857327329926 -127.18857327329926 -127.18857327329926 -127.18857327329926 -127.18857327329926 -127.18857327329926 -127.18857327329926 -125.93182349217159 -125.93182349217159 -125.93182349217159 -125.93182349217159 -125.93182349217159 -125.93182349217159 -125.93182349217159 -125.93182349217159 -125.93182349217159 -125.93182349217159 -125.93182349217159 -125.93182349217159 -125.93182349217159 -125.93182349217159 -125.93182349217159 -125.93182349217159 -117.43993757166051 -117.43993757166051 -117.43993757166051 -117.43993757166051 -117.43993757166051 -117.43993757166051 -117.43993757166051 -117.43993757166051 -117.43993757166051 -117.43993757166051 -117.43993757166051 -117.43993757166051 -117.43993757166051 -117.43993757166051 -117.43993757166051 -117.43993757166051 -132.09326187454087 -132.09326187454087 -132.09326187454087 -132.09326187454087 -132.09326187454087 -132.09326187454087 -132.09326187454087 -132.09326187454087 -132.09326187454087 -132.09326187454087 -132.09326187454087 -132.09326187454087 -132.09326187454087 -132.09326187454087 -132.09326187454087 -132.09326187454087 -126.11424146096041 -126.11424146096041 -126.11424146096041 -126.11424146096041 -126.11424146096041 -126.11424146096041 -126.11424146096041 -126.11424146096041 -126.11424146096041 -126.11424146096041 -126.11424146096041 -126.11424146096041 -126.11424146096041 -126.11424146096041 -126.11424146096041 -126.11424146096041 -124.8774463001332 -124.8774463001332 -124.8774463001332 -124.8774463001332 -124.8774463001332 -124.8774463001332 -124.8774463001332 -124.8774463001332 -124.8774463001332 -124.8774463001332 -124.8774463001332 -124.8774463001332 -124.8774463001332 -124.8774463001332 -124.8774463001332 -124.8774463001332 -94.618606246218462 -94.618606246218462 -94.618606246218462 -94.618606246218462 -94.618606246218462 -94.618606246218462 -94.618606246218462 -94.618606246218462 -94.618606246218462 -94.618606246218462 -94.618606246218462 -94.618606246218462 -94.618606246218462 -94.618606246218462 -94.618606246218462 -94.618606246218462 -97.785671474504213 -97.785671474504213 -97.785671474504213 -97.785671474504213 -97.785671474504213 -97.785671474504213 -97.785671474504213 -97.785671474504213 -97.785671474504213 -97.785671474504213 -97.785671474504213 -97.785671474504213 -97.785671474504213 -97.785671474504213 -97.785671474504213 -97.785671474504213 -44.786355220544635 -44.786355220544635 -44.786355220544635 -44.786355220544635 -44.786355220544635 -44.786355220544635 -44.786355220544635 -44.786355220544635 -44.786355220544635 -44.786355220544635 -44.786355220544635 -44.786355220544635 -44.786355220544635 -44.786355220544635 -44.786355220544635 -44.786355220544635 -36.899813428649217 -36.899813428649217 -36.899813428649217 -36.899813428649217 -36.899813428649217 -36.899813428649217 -36.899813428649217 -36.899813428649217 -36.899813428649217 -36.899813428649217 -36.899813428649217 -36.899813428649217 -36.899813428649217 -36.899813428649217 -36.899813428649217 -36.899813428649217 -99.892594406169991 -99.892594406169991 -99.892594406169991 -99.892594406169991 -99.892594406169991 -99.892594406169991 -99.892594406169991 -99.892594406169991 -99.892594406169991 -99.892594406169991 -99.892594406169991 -99.892594406169991 -99.892594406169991 -99.892594406169991 -99.892594406169991 -99.892594406169991 -100.6611393426159 -100.6611393426159 -100.6611393426159 -100.6611393426159 -100.6611393426159 -100.6611393426159 -100.6611393426159 -100.6611393426159 -100.6611393426159 -100.6611393426159 -100.6611393426159 -100.6611393426159 -100.6611393426159 -100.6611393426159 -100.6611393426159 -100.6611393426159 -82.933362935532685 -82.933362935532685 -82.933362935532685 -82.933362935532685 -82.933362935532685 -82.933362935532685 -82.933362935532685 -82.933362935532685 -82.933362935532685 -82.933362935532685 -82.933362935532685 -82.933362935532685 -82.933362935532685 -82.933362935532685 -82.933362935532685 -82.933362935532685 -90.735512634038415 -90.735512634038415 -90.735512634038415 -90.735512634038415 -90.735512634038415 -90.735512634038415 -90.735512634038415 -90.735512634038415 -90.735512634038415 -90.735512634038415 -90.735512634038415 -90.735512634038415 -90.735512634038415 -90.735512634038415 -90.735512634038415 -90.735512634038415 -18.750529204809435 -18.750529204809435 -18.750529204809435 -18.750529204809435 -18.750529204809435 -18.750529204809435 -18.750529204809435 -18.750529204809435 -18.750529204809435 -18.750529204809435 -18.750529204809435 -18.750529204809435 -18.750529204809435 -18.750529204809435 -18.750529204809435 -18.750529204809435 -26.876918267294545 -26.876918267294545 -26.876918267294545 -26.876918267294545 -26.876918267294545 -26.876918267294545 -26.876918267294545 -26.876918267294545 -26.876918267294545 -26.876918267294545 -26.876918267294545 -26.876918267294545 -26.876918267294545 -26.876918267294545 -26.876918267294545 -26.876918267294545 -18.975194785733127 -18.975194785733127 -18.975194785733127 -18.975194785733127 -18.975194785733127 -18.975194785733127 -18.975194785733127 -18.975194785733127 -18.975194785733127 -18.975194785733127 -18.975194785733127 -18.975194785733127 -18.975194785733127 -18.975194785733127 -18.975194785733127 -18.975194785733127 -130.34742616241866 -130.34742616241866 -130.34742616241866 -130.34742616241866 -130.34742616241866 -130.34742616241866 -130.34742616241866 -130.34742616241866 -130.34742616241866 -130.34742616241866 -130.34742616241866 -130.34742616241866 -130.34742616241866 -130.34742616241866 -130.34742616241866 -130.34742616241866 -142.50584938030084 -142.50584938030084 -142.50584938030084 -142.50584938030084 -142.50584938030084 -142.50584938030084 -142.50584938030084 -142.50584938030084 -142.50584938030084 -142.50584938030084 -142.50584938030084 -142.50584938030084 -142.50584938030084 -142.50584938030084 -142.50584938030084 -142.50584938030084 -136.28778675146006 -136.28778675146006 -136.28778675146006 -136.28778675146006 -136.28778675146006 -136.28778675146006 -136.28778675146006 -136.28778675146006 -136.28778675146006 -136.28778675146006 -136.28778675146006 -136.28778675146006 -136.28778675146006 -136.28778675146006 -136.28778675146006 -136.28778675146006 -135.81829785032596 -135.81829785032596 -135.81829785032596 -135.81829785032596 -135.81829785032596 -135.81829785032596 -135.81829785032596 -135.81829785032596 -135.81829785032596 -135.81829785032596 -135.81829785032596 -135.81829785032596 -135.81829785032596 -135.81829785032596 -135.81829785032596 -135.81829785032596 -147.51510403997426 -147.51510403997426 -147.51510403997426 -147.51510403997426 -147.51510403997426 -147.51510403997426 -147.51510403997426 -147.51510403997426 -147.51510403997426 -147.51510403997426 -147.51510403997426 -147.51510403997426 -147.51510403997426 -147.51510403997426 -147.51510403997426 -147.51510403997426 -149.04181526123338 -149.04181526123338 -149.04181526123338 -149.04181526123338 -149.04181526123338 -149.04181526123338 -149.04181526123338 -149.04181526123338 -149.04181526123338 -149.04181526123338 -149.04181526123338 -149.04181526123338 -149.04181526123338 -149.04181526123338 -149.04181526123338 -149.04181526123338 -141.18144111977284 -141.18144111977284 -141.18144111977284 -141.18144111977284 -141.18144111977284 -141.18144111977284 -141.18144111977284 -141.18144111977284 -141.18144111977284 -141.18144111977284 -141.18144111977284 -141.18144111977284 -141.18144111977284 -141.18144111977284 -141.18144111977284 -141.18144111977284 -142.86137029319764 -142.86137029319764 -142.86137029319764 -142.86137029319764 -142.86137029319764 -142.86137029319764 -142.86137029319764 -142.86137029319764 -142.86137029319764 -142.86137029319764 -142.86137029319764 -142.86137029319764 -142.86137029319764 -142.86137029319764 -142.86137029319764 -142.86137029319764 -145.70422789246956 -145.70422789246956 -145.70422789246956 -145.70422789246956 -145.70422789246956 -145.70422789246956 -145.70422789246956 -145.70422789246956 -145.70422789246956 -145.70422789246956 -145.70422789246956 -145.70422789246956 -145.70422789246956 -145.70422789246956 -145.70422789246956 -145.70422789246956 -146.11310378549086 -146.11310378549086 -146.11310378549086 -146.11310378549086 -146.11310378549086 -146.11310378549086 -146.11310378549086 -146.11310378549086 -146.11310378549086 -146.11310378549086 -146.11310378549086 -146.11310378549086 -146.11310378549086 -146.11310378549086 -146.11310378549086 -146.11310378549086 -144.85119567148311 -144.85119567148311 -144.85119567148311 -144.85119567148311 -144.85119567148311 -144.85119567148311 -144.85119567148311 -144.85119567148311 -144.85119567148311 -144.85119567148311 -144.85119567148311 -144.85119567148311 -144.85119567148311 -144.85119567148311 -144.85119567148311 -144.85119567148311 -150.49175820805681 -150.49175820805681 -150.49175820805681 -150.49175820805681 -150.49175820805681 -150.49175820805681 -150.49175820805681 -150.49175820805681 -150.49175820805681 -150.49175820805681 -150.49175820805681 -150.49175820805681 -150.49175820805681 -150.49175820805681 -150.49175820805681 -150.49175820805681 -102.3223232069514 -102.3223232069514 -102.3223232069514 -102.3223232069514 -102.3223232069514 -102.3223232069514 -102.3223232069514 -102.3223232069514 -102.3223232069514 -102.3223232069514 -102.3223232069514 -102.3223232069514 -102.3223232069514 -102.3223232069514 -102.3223232069514 -102.3223232069514 -98.059250275568587 -98.059250275568587 -98.059250275568587 -98.059250275568587 -98.059250275568587 -98.059250275568587 -98.059250275568587 -98.059250275568587 -98.059250275568587 -98.059250275568587 -98.059250275568587 -98.059250275568587 -98.059250275568587 -98.059250275568587 -98.059250275568587 -98.059250275568587 -23.344569103911649 -23.344569103911649 -23.344569103911649 -23.344569103911649 -23.344569103911649 -23.344569103911649 -23.344569103911649 -23.344569103911649 -23.344569103911649 -23.344569103911649 -23.344569103911649 -23.344569103911649 -23.344569103911649 -23.344569103911649 -23.344569103911649 -23.344569103911649 2.1160978641532879 2.1160978641532879 2.1160978641532879 2.1160978641532879 2.1160978641532879 2.1160978641532879 2.1160978641532879 2.1160978641532879 2.1160978641532879 2.1160978641532879 2.1160978641532879 2.1160978641532879 2.1160978641532879 2.1160978641532879 2.1160978641532879 2.1160978641532879 -25.205348474115866 -25.205348474115866 -25.205348474115866 -25.205348474115866 -25.205348474115866 -25.205348474115866 -25.205348474115866 -25.205348474115866 -25.205348474115866 -25.205348474115866 -25.205348474115866 -25.205348474115866 -25.205348474115866 -25.205348474115866 -25.205348474115866 -25.205348474115866 -145.35254387431874 -145.35254387431874 -145.35254387431874 -145.35254387431874 -145.35254387431874 -145.35254387431874 -145.35254387431874 -145.35254387431874 -145.35254387431874 -145.35254387431874 -145.35254387431874 -145.35254387431874 -145.35254387431874 -145.35254387431874 -145.35254387431874 -145.35254387431874 -145.49424272672192 -145.49424272672192 -145.49424272672192 -145.49424272672192 -145.49424272672192 -145.49424272672192 -145.49424272672192 -145.49424272672192 -145.49424272672192 -145.49424272672192 -145.49424272672192 -145.49424272672192 -145.49424272672192 -145.49424272672192 -145.49424272672192 -145.49424272672192 -137.4651554013339 -137.4651554013339 -137.4651554013339 -137.4651554013339 -137.4651554013339 -137.4651554013339 -137.4651554013339 -137.4651554013339 -137.4651554013339 -137.4651554013339 -137.4651554013339 -137.4651554013339 -137.4651554013339 -137.4651554013339 -137.4651554013339 -137.4651554013339 -140.31432392707563 -140.31432392707563 -140.31432392707563 -140.31432392707563 -140.31432392707563 -140.31432392707563 -140.31432392707563 -140.31432392707563 -140.31432392707563 -140.31432392707563 -140.31432392707563 -140.31432392707563 -140.31432392707563 -140.31432392707563 -140.31432392707563 -140.31432392707563 -143.20445845674581 -143.20445845674581 -143.20445845674581 -143.20445845674581 -143.20445845674581 -143.20445845674581 -143.20445845674581 -143.20445845674581 -143.20445845674581 -143.20445845674581 -143.20445845674581 -143.20445845674581 -143.20445845674581 -143.20445845674581 -143.20445845674581 -143.20445845674581 -142.43009637230881 -142.43009637230881 -142.43009637230881 -142.43009637230881 -142.43009637230881 -142.43009637230881 -142.43009637230881 -142.43009637230881 -142.43009637230881 -142.43009637230881 -142.43009637230881 -142.43009637230881 -142.43009637230881 -142.43009637230881 -142.43009637230881 -142.43009637230881 -140.84132030526214 -140.84132030526214 -140.84132030526214 -140.84132030526214 -140.84132030526214 -140.84132030526214 -140.84132030526214 -140.84132030526214 -140.84132030526214 -140.84132030526214 -140.84132030526214 -140.84132030526214 -140.84132030526214 -140.84132030526214 -140.84132030526214 -140.84132030526214 -147.97723426975077 -147.97723426975077 -147.97723426975077 -147.97723426975077 -147.97723426975077 -147.97723426975077 -147.97723426975077 -147.97723426975077 -147.97723426975077 -147.97723426975077 -147.97723426975077 -147.97723426975077 -147.97723426975077 -147.97723426975077 -147.97723426975077 -147.97723426975077 -36.7136576069448 -36.7136576069448 -36.7136576069448 -36.7136576069448 -36.7136576069448 -36.7136576069448 -36.7136576069448 -36.7136576069448 -36.7136576069448 -36.7136576069448 -36.7136576069448 -36.7136576069448 -36.7136576069448 -36.7136576069448 -36.7136576069448 -36.7136576069448 -142.84100249594343 -142.84100249594343 -142.84100249594343 -142.84100249594343 -142.84100249594343 -142.84100249594343 -142.84100249594343 -142.84100249594343 -142.84100249594343 -142.84100249594343 -142.84100249594343 -142.84100249594343 -142.84100249594343 -142.84100249594343 -142.84100249594343 -142.84100249594343 -145.4414141086225 -145.4414141086225 -145.4414141086225 -145.4414141086225 -145.4414141086225 -145.4414141086225 -145.4414141086225 -145.4414141086225 -145.4414141086225 -145.4414141086225 -145.4414141086225 -145.4414141086225 -145.4414141086225 -145.4414141086225 -145.4414141086225 -145.4414141086225 -137.1660450555153 -137.1660450555153 -137.1660450555153 -137.1660450555153 -137.1660450555153 -137.1660450555153 -137.1660450555153 -137.1660450555153 -137.1660450555153 -137.1660450555153 -137.1660450555153 -137.1660450555153 -137.1660450555153 -137.1660450555153 -137.1660450555153 -137.1660450555153 -138.11700368124235 -138.11700368124235 -138.11700368124235 -138.11700368124235 -138.11700368124235 -138.11700368124235 -138.11700368124235 -138.11700368124235 -138.11700368124235 -138.11700368124235 -138.11700368124235 -138.11700368124235 -138.11700368124235 -138.11700368124235 -138.11700368124235 -138.11700368124235 -1