<?xml version="1.0"?>
<VTKFile type="UnstructuredGrid" version="0.1" byte_order="LittleEndian">
<UnstructuredGrid>
<Piece NumberOfPoints="6" NumberOfCells="3">
<Points>
<DataArray type="Float64" NumberOfComponents="3" format="ascii">
0.000000000000000e+00 0.000000000000000e+00 0.000000000000000e+00 3.000000000000000e+00 0.000000000000000e+00 0.000000000000000e+00 0.000000000000000e+00 3.000000000000000e+00 0.000000000000000e+00 0.000000000000000e+00 0.000000000000000e+00 3.000000000000000e+00 3.000000000000000e+00 0.000000000000000e+00 3.000000000000000e+00 0.000000000000000e+00 3.000000000000000e+00 3.000000000000000e+00 
</DataArray>
</Points>
<Cells>
<DataArray type="Int32" Name="connectivity" format="ascii">
0 1 2 4 0 2 3 4 2 3 4 5 
</DataArray>
<DataArray type="Int32" Name="offsets" format="ascii">
4 8 12 
</DataArray>
<DataArray type="UInt8" Name="types" format="ascii">
10 10 10 
</DataArray>
</Cells>
<PointData Scalars="pressure_nodes_[L]," Vectors="">
<DataArray type="Float64" Name="pressure_nodes_[L]" format="ascii">
1.976961133794368e+00 2.292218246853914e+00 1.627471131525774e+00 1.023038866205634e+00 1.372528868474228e+00 7.077817531460866e-01 
</DataArray>
</PointData>
<CellData Scalars="pressure_elements_[L]," Vectors="velocity_elements_[L/T],">
<DataArray type="Float64" Name="pressure_elements_[L]" format="ascii">
2.250000000000000e+00 1.500000000000001e+00 7.500000000000003e-01 
</DataArray>
<DataArray type="Float64" Name="velocity_elements_[L/T]" NumberOfComponents="3" format="ascii">
6.938893903907228e-18 -7.324388009679851e-18 -7.324388009679852e-18   5.975158639475668e-18 3.662194004839926e-18 5.782411586589356e-18   -6.119718929140402e-18 -2.409338161078899e-18 8.625430616662459e-18   
</DataArray>
</CellData>
</Piece>
</UnstructuredGrid>
</VTKFile>
