<?xml version="1.0"?>
<VTKFile type="UnstructuredGrid" version="0.1" byte_order="LittleEndian">
<UnstructuredGrid>
<Piece NumberOfPoints="568" NumberOfCells="1054">
<Points>
<DataArray type="Float64" NumberOfComponents="3" format="ascii">
0 0 0 0.0499999999998997 0 0 0.0323698570487533 0 0.032369857048862 0.0584335251122665 0 0.0584335251122145 0 0 0.050000000000208 0.0999999999998147 0 0 0.0944578555792846 0 0.0400584584694184 0.100180388484599 0 0.100180388484598 0.0400584584693195 0 0.0944578555791577 0 0 0.100000000000416 0 0 0.150000000000624 0.0372540436000893 0 0.175000000000728 0.0537753324385368 0 0.132500500443006 0.0898428037257154 0 0.138184120871427 0.122947659685672 0 0.148251464161954 0.0827908697357757 0 0.179012452750626 0.0955430374569856 0 0.221932619299632 0.0564522287083799 0 0.234565808376616 0 0 0.200000000000832 0.206511205763931 0 0.201999059545956 0.210579470972425 0 0.241746964894887 0.158053632507308 0 0.226801358162853 0.126538462979429 0 0.191587327531096 0.169681685166811 0 0.169007707698734 0.189514053672166 0 0.127889181471804 0.224783079246026 0 0.152915391050455 0.218515661667958 0 0.102945845538754 0.148129220795753 0 0.111676837264361 0.181725902897582 0 0.0816119740612928 0.134291107470439 0 0.0529263508909097 0.174999999999631 0 0.0372540436003339 0.149999999999704 0 0 0.234565808376335 0 0.0564522287085382 0.199999999999558 0 0 0.249999999999412 0 0 0.28250371532178 0 0.0483144399603462 0.299999999999266 0 0 0.349999999999121 0 0 0.362934108682713 0 0.0437430672928097 0.324076644128682 0 0.0314799042223748 0.32323905878353 0 0.0687975548746066 0.355435985827796 0 0.0829820156323059 0.370066139215042 0 0.112711478099945 0.332370486659624 0 0.113658128449525 0.296449059460973 0 0.0973839869435186 0.256015509872872 0 0.102726151761334 0.482933735686196 0 0.036430254038082 0.499999999998694 0 0 0.449999999998829 0 0 0.446807284450845 0 0.0521976235906551 0.406855818272412 0 0.0411398773125118 0.399999999998975 0 0 0.391603628895193 0 0.0799582037664994 0.431620875905919 0 0.0861159281096704 0.465320460451153 0 0.11204624114225 0.475250269534714 0 0.0771854076092873 0.49991194100589 0 0.160933639030225 0.457435186971747 0 0.157395356663377 0.432407360090088 0 0.182056809654028 0.413481429396996 0 0.130417648988163 0.396865073444171 0 0.166969430130097 0.380539743514862 0 0.204826435917647 0.425115862935563 0 0.221781893189434 0.461284420728544 0 0.202747939470428 0.499999999999971 0 0.219686411149829 0.303294794221966 0 0.157138773489018 0.263189497696013 0 0.146101733972573 0.360183427519293 0 0.1532358220307 0.333525318397743 0 0.185977348903938 0.331796839804983 0 0.222301993972031 0.293466873404081 0 0.2438490113662 0.302507736483923 0 0.202679241722634 0.260171965190135 0 0.20370391303005 0.25082138072345 0 0.257700107422368 0.257256883790806 0 0.292714150215995 0.292857142857117 0 0.292857142857164 0.32267250342477 0 0.271586241564922 0.355853377085554 0 0.256080223679255 0.354689053335556 0 0.303548508232254 0.32234854076139 0 0.317299409200743 0.348047572662274 0 0.35750068079406 0.289363634335678 0 0.340960017338183 0.484515229071252 0 0.297989876574045 0.453705345379894 0 0.252192411027838 0.431712919666742 0 0.304532149691815 0.403180559588812 0 0.256035021113984 0.391620987711813 0 0.295036992928546 0.391208871887456 0 0.334075776884043 0.43301393728221 0 0.359843205574921 0.499508526679881 0 0.371773848925684 0.472532117365031 0 0.340817108308049 0.464544361631721 0 0.388784993935 0.461024257085337 0 0.432541991343326 0.429224645442849 0 0.406303405311217 0.390192470571844 0 0.378596535290629 0.394962734081697 0 0.417765388787338 0.377023860747172 0 0.458194175644768 0.410749527734446 0 0.49037725997835 0.42316408760147 0 0.448010319542076 0.461750160254385 0 0.473470497775223 0.297960451166723 0 0.430159604944108 0.254496517406595 0 0.388081413464771 0.310194531583981 0 0.393298597389873 0.353852897913884 0 0.401592772894755 0.333826635273302 0 0.441301250475035 0.33651319436469 0 0.478344123936324 0.301341353129557 0 0.468795744513304 0.263640853143903 0 0.447835230599158 0.262260501478394 0 0.491100193217861 0.191981339151156 0 0.465860267956458 0.232918092237015 0 0.465697476923766 0.220807132193075 0 0.431630396214116 0.198701717250423 0 0.388614329545475 0.178214876716296 0 0.431200559870281 0.148219229256148 0 0.406253117897731 0.143725818414876 0 0.453076999838284 0.158636587251565 0 0.494899727783262 0.108962737982323 0 0.486955813111844 0.0652696782179796 0 0.484988222822282 0.0294449071642091 0 0.475000000001966 0.0439035813198221 0 0.439659589760324 0 0 0.450000000001872 0.0603559089619468 0 0.393693103819969 0 0 0.400000000001664 0.0970894652491675 0 0.436051775609807 0.11010057308181 0 0.381520439012282 0.0751181105850588 0 0.339671926372903 0.118558570079024 0 0.33658228590827 0 0 0.350000000001456 0.0339288497681721 0 0.363039674760657 0.0337982312426103 0 0.328047235696734 0 0 0.300000000001248 0.0535374231203114 0 0.287214659047084 0 0 0.25000000000104 0.100782157019327 0 0.304316158596513 0.110490343117189 0 0.262894191896946 0.149203671042653 0 0.305415470554338 0.166706396151242 0 0.266399149631259 0.20678054058387 0 0.285848384604081 0.19325512052992 0 0.333066639853417 0.240949412440173 0 0.324360086299987 0.222132304923478 0 0.358478489635738 0.154014700871176 0 0.360307484821747 1 0 0.199999999999558 1 0 0.249999999999412 0.943547771291459 0 0.234565808376336 0.898029231958049 0 0.218113670463348 0.875965964657724 0 0.188671534969819 0.918388025938709 0 0.181725902897578 0.89159184379671 0 0.144940729928161 0.947073649109094 0 0.134291107470436 0.962745956399668 0 0.174999999999631 1 0 0.149999999999704 1 0 0.0999999999998147 0.95994154153058 0 0.0944578555792777 1 0 0.0499999999998997 0.967630142951144 0 0.0323698570487739 0.941566474887782 0 0.0584335251122567 0.949999999999868 0 0 1 0 0 0.899999999999737 0 0 0.905542144420816 0 0.0400584584693472 0.899819611515404 0 0.100180388484597 0.851748535838072 0 0.122947659685686 0.820987547249418 0 0.082790869735818 0.861815879128586 0 0.0898428037257433 0.867499499556973 0 0.0537753324385871 0.824999999999539 0 0.0372540436001473 0.849999999999605 0 0 0.799999999999473 0 0 0.765434191623447 0 0.0564522287084209 0.7780673807004 0 0.0955430374570364 0.773191874618386 0 0.158041446818582 0.8084117701731 0 0.126536838220957 0.830992292301269 0 0.169681685166797 0.847463457920405 0 0.224922585262252 0.75825654232551 0 0.210577746625068 0.798050551354315 0 0.206528181807588 0.714151615395936 0 0.206780540583867 0.675639913700026 0 0.240949412440159 0.641519155209684 0 0.222073721915425 0.66693336014661 0 0.19325512052991 0.639692515178267 0 0.154014700871159 0.694577762226911 0 0.149191485353933 0.733589571670804 0 0.166686086670045 0.737034752306002 0 0.110362393385653 0.695641571397353 0 0.100785591047804 0.712582289902801 0 0.053690952490469 0.69999999999921 0 0 0.749999999999342 0 0 0.649999999999078 0 0 0.671923112404063 0 0.033820651404646 0.636941794370196 0 0.033931461840545 0.660308735431868 0 0.0751327324298776 0.663400901306853 0 0.118556309497793 0.618379570515033 0 0.110081182566408 0.563157639756722 0 0.0969177802293014 0.606216904754687 0 0.0603384574980944 0.599999999998947 0 0 0.524999999998754 0 0.0294449071644693 0.549999999998815 0 0 0.560265670190245 0 0.043887089595726 0.51521969278952 0 0.0653103891842502 0.51240296464009 0 0.109203413285136 0.546187429262561 0 0.143988711977319 0.59356619921281 0 0.148227209036974 0.568799440129754 0 0.178214876716346 0.611385670454583 0 0.198701717250421 0.56832385264224 0 0.220657752777859 0.53283923177677 0 0.231918011634459 0.533476437237596 0 0.192249179809595 0.529068381326852 0 0.296767349982275 0.506970500720068 0 0.261848576473603 0.551767140035207 0 0.262647936455119 0.611904455607634 0 0.254145019358249 0.606282366862954 0 0.309768611599626 0.569840395055894 0 0.297960451166727 0.593894738990312 0 0.350725370544676 0.558698749524967 0 0.333826635273306 0.515142495892173 0 0.331492304042335 0.547156354908806 0 0.378290160268621 0.548764996868246 0 0.422732786052302 0.501650326487665 0 0.409291525966516 0.507537582058111 0 0.450656287361328 0.547290971159573 0 0.466592622183862 0.622054152609805 0 0.471983703675299 0.584577441354514 0 0.479658227811018 0.59238418396128 0 0.440935424755556 0.60317301798433 0 0.3922886399308 0.66592422311596 0 0.391208871887463 0.640156794425081 0 0.433013937282217 0.663996179153263 0 0.467007775260291 0.700933926817415 0 0.485968262653744 0.746978743980493 0 0.456354736824991 0.69573605525801 0 0.431605534881039 0.704963007071456 0 0.39162098771182 0.743872884998055 0 0.403474936416048 0.74208521326296 0 0.361644603977183 0.72749610249007 0 0.324978965826624 0.696451491767748 0 0.354689053335561 0.642499319205942 0 0.34804757266228 0.682695090270057 0 0.322338668786372 0.658998728692795 0 0.289289594523035 0.707285849784001 0 0.257256883790818 0.742299892577623 0 0.250821380723454 0.707142857142839 0 0.292857142857124 0.7979239913336 0 0.302191591282119 0.756150988633799 0 0.293466873404077 0.796296086969941 0 0.260171965190114 0.85389826602741 0 0.263189497696004 0.843199238531482 0 0.303647347655126 0.818208886997305 0 0.330801675951114 0.846764177969299 0 0.360183427519295 0.777698006027966 0 0.331796839804975 0.795608442104084 0 0.382986983844802 0.779168834391626 0 0.425970687343404 0.797388206209471 0 0.462014871181098 0.780313588850174 0 0.499999999999976 0.839066360969777 0 0.499911941005896 0.843620179032071 0 0.457571210232621 0.869582351011839 0 0.413481429397001 0.817943190345974 0 0.432407360090094 0.833103049540192 0 0.397272946832499 0.920041796233501 0 0.391603628895199 0.913712762441372 0 0.432014430352552 0.887953758857752 0 0.465320460451158 0.922787458269957 0 0.475312605581821 1 0 0.499999999998694 0.963562456198133 0 0.482950482683927 0.947736768535276 0 0.446958007430409 1 0 0.449999999998829 0.958860122687489 0 0.406855818272416 1 0 0.399999999998975 1 0 0.349999999999121 0.9
[...]
<CellData Scalars="pressure_p0," Vectors="velocity_p0," Tensors="">
<DataArray type="Float64" Name="pressure_p0" format="ascii">
0.07266433345653 0.0615532223453041 0.104812528051883 0.118945827891415 0.170785226350243 0.122938501094236 0.138723748659648 0.234615678154548 0.228746147662984 0.209511141412381 0.276831664602 0.334271291894934 0.365079177734687 0.187106773690739 0.173279136745824 0.246627426678919 0.279382567399271 0.337275981104235 0.370438024467222 0.384779202874836 0.374236753734203 0.403412092244214 0.36456049991921 0.459067434918347 0.592862134328818 0.503460298462705 0.500354257165483 0.565932950412735 0.481595769866912 0.43361140114247 0.445914051715744 0.653850243893862 0.71164030381597 0.636443164415753 0.549371128742601 0.669524310366879 0.539705612562013 0.57687301396758 0.478236614026217 0.430483312200159 0.439854242383296 0.490245359197818 0.461982384362271 0.553812777251906 0.600037686346261 0.580971253924613 0.517809854403438 0.468366710305003 0.406823062465104 0.374466981389269 0.41230130373787 0.387826337631338 0.32101246929191 0.305545253427807 0.280108994360068 0.213036811013543 0.213511629626714 0.173052539734976 0.309677343448148 0.262768978665868 0.275747904288783 0.319961238323059 0.324693451031714 0.40981407546438 0.355093300422618 0.355653975219074 0.394339869318634 0.407149638059519 0.430110385233697 0.504266371151779 0.513707278775022 0.481195298723762 0.509008906710543 0.557026081048777 0.558993808715095 0.556959044238224 0.503761547761831 0.394776542125 0.445710256105413 0.448006110841321 0.612343396418809 0.512214322695646 0.522430029700897 0.576821250223396 0.547338628025253 0.500629861029372 0.454802011793007 0.447183284291658 0.498924000677024 0.605474284271144 0.606804727260105 0.655071057369509 0.549915622751569 0.642820158238159 0.592095805663832 0.684482861991453 0.818290768866924 0.747001200185043 0.76049984048642 0.716773932368174 0.807911749588017 0.735404543867139 0.750128622858847 0.640239732529776 0.696726741858619 0.728587545897398 0.766513282807321 0.860735516871367 0.860781147704855 0.911547345939102 0.821655614194678 0.843356295833006 0.895494165867309 0.91901905383728 0.976922430774822 0.877108476098206 0.607356811393395 0.556091447175017 0.611764273703634 0.606802424357624 0.718689756574209 0.681401587625224 0.667015706876089 0.729870287339218 0.755716800693225 0.814422885682963 0.838024543056962 0.809528056952522 0.753670250726892 0.719069405616487 0.667062757771133 0.741963470224297 0.831573162041816 0.805883309078234 0.893085552711257 0.840415352155156 0.899625975804141 0.938773908505117 0.929584792491871 0.90116963924407 0.994086057603433 0.989188938738271 1.02816694568972 1.0444592664074 0.963146065929062 1.03359288216139 0.900327793004141 0.933643966042201 1.02494539662513 1.02760535738842 0.976337688317526 0.972303308145349 0.923197383519408 0.999224851270411 1.0243833395235 1.11904939919831 1.09002774262393 1.08596871191072 1.11778829248302 1.09256168311659 1.18169833662341 1.21376363171667 1.19461635108962 1.13724325698664 1.29644542643607 1.3511663860637 1.26727950063708 1.21171616027231 1.29538450719874 1.2690215933463 1.2624696924999 1.18008638972588 1.20708200351083 1.18182667138426 1.22709556894692 1.27810145551963 1.33555140311997 1.35534327647186 1.37218073992497 1.3506725706583 1.42756571743697 1.46401696889997 1.43867991974755 1.38119381839741 1.12005800510043 1.09864876546398 1.10663854822089 1.12355612551167 1.21971586889305 1.15467406935588 1.1592242965997 1.25157660256668 1.26619004972097 1.32089164491463 1.28728591404762 1.27106347441233 1.1818982475689 1.20097292667309 1.1879507455351 1.21499932217924 1.20920148319548 1.1639160205721 1.16752619538034 1.12666821948881 1.07955845673492 1.13540464069748 1.09270644444329 1.03434212064164 1.03290582341601 0.975640051903363 0.904407192670499 0.93497630040768 1.01805175921521 0.994163144582035 0.994201294990468 1.07023432669738 1.1085147473156 1.09334729651947 1.08025638669412 1.02979066920934 0.974909494101945 1.0363413125313 0.965027592587971 1.01586072073363 1.02645900964566 0.979409246584619 0.936032470218432 0.88147353271379 0.860223644610579 0.80091312798043 0.932641737130101 0.911620946918218 0.893821839450452 0.807134391277384 0.827647334047191 0.753957305669602 0.752174483425894 0.716887026276615 0.75542688972256 0.787449752769831 0.733195732450079 0.690612761633969 0.668185064241527 0.641319954588952 0.550223981128116 0.582404277522636 0.702657424716534 0.698728359179511 0.661576674035187 0.594331628789252 0.651706396931059 0.698813239178792 0.802961420103842 0.743323534149758 0.722121643688472 0.799957492349381 0.744646177861049 0.841725225560658 0.843304753106319 0.950205195191464 0.901433520990489 0.925944383542019 0.900532866492326 0.842927408784269 0.809660080464627 0.834244124585707 1.33256879543436 1.37272036410794 1.43363618060862 1.38205453172482 1.34725644614617 1.29102713979011 1.33995771234969 1.23907660830505 1.2256155764814 1.16749381780947 1.27474227514502 1.33360061058224 1.27910271855412 1.23641879963239 1.1845969984543 1.10383356302995 1.14817960584968 1.05849300908294 1.01609310956464 1.00570292596687 1.03903625930018 0.955413225427863 1.00016739877174 0.955762584302836 1.03630735559912 1.01691017128241 1.04418179399473 1.10214837537997 1.15352079749352 1.12911115277779 1.07442896700993 1.04251606344926 1.05052797486428 1.00627427886501 0.948637657077508 0.861135407592713 0.906075585827122 0.915859340842274 0.818861343128854 0.859766831550999 0.920349096380776 0.940114803806705 0.94939222387618 1.00840545651433 1.00487359196683 1.10971232749005 1.16066071332973 1.03968071338102 1.10463797851781 1.10581901005146 1.14790772095465 1.20569346221192 1.22517110280274 1.24065018999405 1.29365953011045 1.36560358396983 1.26974015352515 1.33566862515934 1.23146227167786 1.24343766009594 1.16405144549997 1.12203391894255 1.18670768391922 1.19983793093235 1.17056774641767 1.11760054353476 1.09666338833221 1.05360842643539 1.11077234061629 1.00042480984058 1.0010233924819 0.895969023048196 0.944176618952013 1.05793375300201 1.06271061380034 1.03952813810243 1.01125612796817 0.945950254873461 0.892030889974263 0.846477400996373 0.88314878467297 0.81662631992738 0.750456513931754 0.765982679641602 0.663627030181226 0.699023325922688 0.706230855789255 0.786251751304836 0.748420815689723 0.743859446740504 0.791242289834488 0.9260828161078 0.871831624105638 0.851109820631887 0.829808853091018 0.708000930752462 0.775598858057241 0.681505929926553 0.660359236884613 0.60827904057542 0.553176276616542 0.546903375644411 0.591971599427594 0.625091006572975 0.594737976687447 0.668530951240094 0.710002394459485 0.683108946059119 0.775971085040308 0.794341680959848 0.859167008487448 0.894904634040734 0.827804126334281 0.891539898597175 0.947215162568364 0.939540039297716 0.88504613457553 0.980359899558156 1.07188181608807 1.04339297738533 1.06698388804045 1.02698472643298 0.988150368461153 0.951788922330116 0.894069699947004 0.975728448850538 0.950213664239126 1.16969953893034 1.12246395145522 1.07678382612489 1.12873954695322 1.03298027056006 1.07747779300972 1.12073089182479 1.17221499220191 1.20154486629505 1.25253766046851 1.28613766161212 1.33813052470442 1.27327043721508 1.32740774002406 1.23344909907637 1.17696688787521 1.24029731956912 1.28608907858008 1.340592210742 1.37371620286761 1.42867199903094 1.51896086093586 1.53223907198204 1.46324277971655 1.57804406180451 1.61776214843637 1.44918352452589 1.50128222144991 1.51455345758933 1.52996541864276 1.45830800540907 1.42064317007882 1.36213453351649 1.44906562731415 1.39337741076915 1.50229643413985 1.55756831242339 1.55571953318852 1.60927539404021 1.63846404220786 1.60504300713001 1.69532227739992 1.63102532701933 1.59108200811678 1.53129327402585 1.44859993054957 1.49668374429383 1.50268721894253 1.4166755202763 1.42950541381485 1.33193945976865 1.36945035170721 1.4540924316456 1.39817543652695 1.2640484591058 1.30234613232883 1.35679757626855 1.29038253101296 1.17276897553806 1.19888080617368 1.20140809456495 1.24944595612531 1.29529535169317 1.25007624561004 1.33775479609539 1.3916877700672 1.35810488371967 1.3948513480712 1.29960629924521 1.38512144429876 1.43930713241076 1.44378497051064 1.50006847079437 1.52452846179609 1.58319991823691 1.53122572062169 1.49156912776549 1.44290092062521 1.38720505633823 1.48607397856209 1.58474430182696 1.52497249007874 1.62650790536658 1.61389185589338 1.67083200742274 1.67535908710015 1.7775700787214 1.73269421009489 1.72384398068266 1.85811103384234 1.80082240475374 1.77094556302162 1.72117988638009 1.75938345677613 1.6623464644436 1.71433278726019 1.59116262718141 1.62526293163985 1.62976778125806 1.62934683601732 1.67266466030967 1.7493654611119 1.76665732702871 1.72811792620948 1.82236363171654 1.83248140224662 1.86776723269258 1.94105491142224 1.923213101622 1.88141749952874 1.88897585852567 1.81442508130927 1.8376848754356 1.80202736401831 1.72207901301135 1.7543860263425 1.66516779520755 1.72136748803441 1.63327793059808 1.62363435708777 1.65114328111088 1.6281445529917 1.66914568676967 1.6040686831353 1.58777025007438 1.53934751797557 1.52899183507185 1.50029117997339 1.42721737974997 1.47095582152626 1.44571315647295 1.47532481331696 1.5349493034697 1.58018469562514 1.57385777804363 2.35830374089353 2.41718974254501 2.44944927864552 2.40540136150565 2.29725369622472 2.33807021333574 2.30088815999493 2.24599871765221 2.24769674132676 2.19278878872951 2.17217384448272 2.21247134571406 2.30899681486772 2.26666839379797 2.33169272378078 2.28305521026798 2.24454059168077 2.19902244883334 2.13961483694779 2.11847351094483 2.06395156279404 2.02058361315201 1.97365527540833 1.98417897602068 2.03496881736051 1.96939381157229 1.9193431394293 2.0246729698594 1.96165865415279 2.06671034748433 2.08791785862016 2.10566523802636 2.09536187960534 2.06491148835198 1.98119712235735 2.00564029023991 2.00472867611147 1.92811817722 1.88695503029102 1.90206046691706 1.78921253912354 1.83059512229791 1.83183710929204 1.87235953925966 1.91980446701719 1.86381233571685 1.90729603083472 1.96557774207524 2.0244669175502 1.96720003754582 2.04989908682718 2.09859940121444 2.15669863374113 2.07408853866292 2.09945003098239 2.15699611562475 2.19031684843679 2.16575649071579 2.19703907380638 2.25665995965646 2.34826576786431 2.301177930188 2.27777960651369 2.25527617891212 2.20002727414288 2.15827430398795 2.10691203230482 2.16842636750675 2.19388659234998 2.15843409225914 2.15810945023296 2.09659559277483 2.05834153016539 2.0976790838114 2.06873882584795 2.00588837919914 2.01058017860428 1.97047543100306 1.95582354337307 1.96638006688245 2.03692146526695 2.0661232694947 2.0996878123051 1.90132806067065 1.87958872593829 1.79379657984049 1.81577643932619 1.72464382802676 1.81012981240634 1.78215756512357 1.73262518827328 1.69578553709354 1.72533356992701 1.78852286389431 1.8060954669759 1.84517880251267 1.84379821342186 1.89379770285997 1.86927468747799 1.80691480205574 1.7199277153668 1.71953754489934 1.77357345356586 1.67389547087791 1.62494363838813 1.58021125692893 1.67122694240742 1.56589150003148 1.61965576495221 1.56734626112588 1.67353291408254 1.67078833030849 1.77290577220827 1.78390001113101 1.72916480982828 1.86057049716192 1.83230670352896 1.91072395805339 1.89091795161711 1.84172589283469 1.90326157130747 1.87256344153379 1.91320759246333 2.02308059864885 1.97560151570573 2.00031278937193 2.07401738382677 2.02592503517401 1.96977898761423 1.96967241706701 2.15592199202283 2.12290933187333 2.07957828002273 2.02117695997138 2.10288804387571 2.08683139017457 2.1376928294752 2.13597271746962 2.17759750690746 2.26443478643706 2.24982494673853 2.23292836113457 2.27151768313475 2.35998588023033 2.30315402278064 2.28322606763188 2.19188199577993 2.18155011079967 2.25299879981504 2.23946833544696 2.31551713800864 2.40790419433624 2.35717984176191 2.3876566035814 2.42317874977674 2.47756997029938 2.48778567730485 2.5527474469785 2.54518413446128 2.49937013897086 2.45266137197483 2.50102565306516 2.45007052350246 2.39323670707498 2.34492894263053 2.39475180987639 2.44146857226611 2.49601453598924 2.48655695048613 2.44329489666207 2.51885102271736 2.49105323109686 2.56997370139375 2.64450093589426 2.59277837064647 2.6056418777022 2.68126023277422 2.64546760416938 2.59071441474789 2.67928573775861 2.55853536624565 2.6099585228735 2.55300168922932 2.44404863892047 2.50727773814702 2.39601691215289 2.32219346686678 2.44829455294651 2.38914870147316 2.39360687748273 2.28395767155766 2.33618639895086 2.27356524677959 2.2464862775357 2.1828708136996 2.18888046453903 2.24713904908027 2.25810588578542 2.28137151256013 2.33482372682144 2.39687201834649 2.34487096485966 2.288163500502 2.36250333486638 2.33019826297734 2.45984811019282 2.45086193508987 2.42047453565237 2.52237872484642 2.56450201470561 2.5496433605404 2.42068548560417 2.52182749807625 2.50090339601521 2.44076898008751 2.48816711974681 2.52399858862096 2.58006965806853 2.61798106223088 2.58595837913882 2.68011301414165 2.73598651142861 2.72726566953602 2.82629909779596 2.78349134650079 2.78448979889434 2.72662065885203 2.7147391793945 2.68437480052267 2.59387743215161 2.64517681280098 2.66203426096523 2.62939288702446 2.720058127788 2.77110206164212 2.79049400547276 2.76825602728077 2.82924050807518 2.8612762513403 2.87706664579071 2.93844677765466 2.92733566654354 2.89518747194808 2.88105417210862 2.81274143561448 2.82672086325419 2.75261361984686 2.7197066884318 2.66172906516514 2.62941018483838 2.61093058823219 2.60716987403873 2.6543832506111 2.54560467972666 2.49573872827523 2.49989728674773 2.40745397394111 2.43402841075306 2.51833805485687 2.56615259860129 2.55280584703721 1.49993152920564 1.47547153820393 1.4168000817631 1.4687742793783 1.50842838369047 1.51390596751616 1.61278041501402 1.55709907937479 1.60830329507333 1.64189511628035 1.60514624390807 1.70040181901789 1.61576352382672 1.55621502948938 1.56000182913998 1.56781924681679 1.5551793252741 1.52659427897904 1.47025361141695 1.49969988516715 1.46569607504388 1.52779666189661 1.42541483390514 1.41908791632359 1.36580259342692 1.37560096661018 1.27847771229295 1.33405820642779 1.46066180408718 1.41222974992566 1.33085431323038 1.37170064733538 1.34885671888913 1.39593131686472 1.32736955077054 1.25081869640517 1.23272105121948 1.27205312919168 1.24561397365783 1.27795519806898 1.19820779160572 1.16241861757208 1.18558802080712 1.11110709843661 1.11871486710177 1.07683138775545 1.05898081878135 1.17772885625142 1.16775188329919 1.1311535825531 1.1915379345268 1.13705638870706 1.22118646281073 1.27375739558771 1.23599032508834 1.28163264595368 1.33686226875986 1.37472594356217 1.40883737281856 1.37065316398263 1.37023221874191 1.41517156973525 1.47497792649907 1.37335303465919 1.38608390151986 1.32871600138824 1.32340285809515 1.21763832390266 1.27485815264979 1.26653623245768 1.30529589843433 1.37189375223003 1.38121429032781 1.33228020106312 1.44550494206744 1.42591504741028 1.44501914000932 1.3978889892999 1.49648998121101 1.54350496805856 1.59789073171039 1.55067352524088 1.50319829216467 1.49739275882839 1.40993346407627 1.46920162863975 1.62088594324052 1.52096671776904 1.53187214834218 1.49611637872504 1.52018980596224 1.44397710755907 1.41216252274859 1.50206875860394 1.54435178097588 1.59429645288456 1.65343058243399 1.56876004131442 1.60459657398217 1.5765289950662 1.66655089096074 1.72322299079682 1.62173976063709 1.85782977540304 1.77211530516171 1.76917770026926 1.81684340089544 1.77458329411829 1.73759050595946 1.68213226220815 1.64385705455587 1.65244112808231 1.7176052985445 1.77171107117697 1.8222391493251 1.87593582655926 1.87213455402325 1.82225851009033 1.9179188604495 1.96605484151433 1.91552472607218 1.63043920143175 1.66802362603847 1.57045290964573 1.58321203839505 1.54564680241533 1.59927956697936 1.73655569087874 1.69766189788132 1.64295162331973 1.82725951298729 1.70961645764075 1.80081011383417 1.79859435992417 1.75056340025768 1.66223117387377 1.70470224028611 1.749917131831 1.80012572822575 1.81327908786687 1.87787885266217 1.82934995352335 1.88232819033126 1.90309374358674 1.94615759730457 1.88896386808465 1.99930373649047 1.99875728287281 2.10401212653322 2.05571093304855 1.96010582422999 1.98847519746201 1.93708089975238 1.94175139599855 2.10801841064894 2.05047407901387 2.01210882944925 1.97300290041162 2.02637257459649 2.05184397123241 2.01999401940609 1.9319924391196 1.95642589984351 1.92803218867772 2.05274483289844 2.10845894846348 2.1721959793486 2.11537011377497 2.06044753860799 2.1071639667026 2.20607452964678 2.14291404454532 2.28999761233456 2.33146904876003 2.22402892250858 2.31689114905566 2.29199947688131 2.17019158549256 2.22440235201054 2.3184959030658 2.39172106133354 2.33964129684393 2.37490902739706 2.40802843454261 2.45309662435627 2.4468237301782 2.40526203010696 2.10784132367462 2.15350743488542 2.11668288720803 2.05383902053589 2.12813585838187 2.07380348182515 2.1488814064017 2.20875977076728 2.25159296436131 2.21378003084387 2.25614549241906 2.30098241355748 2.33637503896688 2.29378017925789 2.24957714640564 2.18337781822028 2.23405283339009 2.18114443507642 2.14051490408796 2.08118420995109 2.09517519706822 2.0853035158656 2.13905840185886 2.05189827474023 1.98907229436851 1.95151715838849 1.96189144578652 2.05967857667782 2.05181481034212 1.99475515689314 1.99469408009332 1.89024128399424 1.84071845902048 1.89722442447461 1.96091629074925 1.90192517872014 1.86127610449661 1.80180219552526 1.78046076357858 1.67357650454533 1.76779301047666 1.7176113914487 1.67088255149952 1.77006239474995 1.73544929971468 1.75670981841759 1.83639953108286 1.63375492387367 1.6756640692219 1.57134813231531 1.61581468991018 1.62102994999616 1.71696839188262 1.66705478736999 1.73782973246001 1.78161518579103 1.76811710633161 1.83560041914155 1.82169283372712 1.72892755622144 1.76228795543208 1.67044685320043 1.76556744823358 1.81663361143486 1.89636130644282 1.85206651612775 1.88389834562238 1.84638597905995 1.9560120154566 1.89809774659794 1.98221708234177 2.0000274707013 2.04478058402352 2.0452064629537 1.94248133828182 1.98488123780027 1.96213295753755 1.99546629087102 
</DataArray>
<DataArray type="Float64" Name="velocity_p0" NumberOfComponents="3" format="ascii">