<?xml version="1.0"?>
<VTKFile type="UnstructuredGrid" version="0.1" byte_order="LittleEndian">
<UnstructuredGrid>
<Piece NumberOfPoints="3240" NumberOfCells="1080">
<Points>
<DataArray type="Float64" NumberOfComponents="3" format="ascii">
0 0.022222222222172731 0 0.014261120859510951 0.01476364028082537 0 0 0 0 0.014261120859510951 0.01476364028082537 0 0.020408163265391192 0 0 0 0 0 0.014261120859510951 0.01476364028082537 0 0.030393520779906098 0.016393210364487439 0 0.020408163265391192 0 0 0.020408163265391192 0 0 0.030393520779906098 0.016393210364487439 0 0.040816326530782147 0 0 0.030393520779906098 0.016393210364487439 0 0.014261120859510951 0.01476364028082537 0 0.02085901357486063 0.03347530932066585 0 0.014261120859510951 0.01476364028082537 0 0 0.022222222222172731 0 0.02085901357486063 0.03347530932066585 0 0.016784005309402529 0.052942578394164941 0 0.02085901357486063 0.03347530932066585 0 0 0.04444444444434547 0 0.02085901357486063 0.03347530932066585 0 0 0.022222222222172731 0 0 0.04444444444434547 0 0 0.066666666666538782 0 0.024773355977313231 0.067081421531037314 0 0.016784005309402529 0.052942578394164941 0 0 0.066666666666538782 0 0.016784005309402529 0.052942578394164941 0 0 0.04444444444434547 0 0.016784005309402529 0.052942578394164941 0 0.024773355977313231 0.067081421531037314 0 0.038287656994838798 0.053045050008237282 0 0.02085901357486063 0.03347530932066585 0 0.016784005309402529 0.052942578394164941 0 0.038287656994838798 0.053045050008237282 0 0.02085901357486063 0.03347530932066585 0 0.038287656994838798 0.053045050008237282 0 0.04395097424174637 0.032880702536447093 0 0.055599947731468188 0.063390459096043877 0 0.05997194079032258 0.04512095697672458 0 0.038287656994838798 0.053045050008237282 0 0.05997194079032258 0.04512095697672458 0 0.06014203299484646 0.028800515441748099 0 0.04395097424174637 0.032880702536447093 0 0.05997194079032258 0.04512095697672458 0 0.04395097424174637 0.032880702536447093 0 0.038287656994838798 0.053045050008237282 0 0.051838137503398218 0.016097170421718029 0 0.06014203299484646 0.028800515441748099 0 0.070237773272778581 0.018029566749463509 0 0.06014203299484646 0.028800515441748099 0 0.051838137503398218 0.016097170421718029 0 0.04395097424174637 0.032880702536447093 0 0.04395097424174637 0.032880702536447093 0 0.030393520779906098 0.016393210364487439 0 0.02085901357486063 0.03347530932066585 0 0.051838137503398218 0.016097170421718029 0 0.030393520779906098 0.016393210364487439 0 0.04395097424174637 0.032880702536447093 0 0.051838137503398218 0.016097170421718029 0 0.040816326530782147 0 0 0.030393520779906098 0.016393210364487439 0 0.051838137503398218 0.016097170421718029 0 0.070237773272778581 0.018029566749463509 0 0.061224489796173232 0 0 0.040816326530782147 0 0 0.051838137503398218 0.016097170421718029 0 0.061224489796173232 0 0 0.070237773272778581 0.018029566749463509 0 0.081632653061564309 0 0 0.061224489796173232 0 0 0.079421396932280591 0.03754246087862223 0 0.070237773272778581 0.018029566749463509 0 0.06014203299484646 0.028800515441748099 0 0.091646580262525548 0.018330347140998932 0 0.070237773272778581 0.018029566749463509 0 0.079421396932280591 0.03754246087862223 0 0.103555154504992 0.036186477933083078 0 0.091646580262525548 0.018330347140998932 0 0.079421396932280591 0.03754246087862223 0 0.091646580262525548 0.018330347140998932 0 0.081632653061564309 0 0 0.070237773272778581 0.018029566749463509 0 0.081632653061564309 0 0 0.091646580262525548 0.018330347140998932 0 0.1020408163269555 0 0 0.091646580262525548 0.018330347140998932 0 0.11299168747658229 0.018223577284824748 0 0.1020408163269555 0 0 0.1020408163269555 0 0 0.11299168747658229 0.018223577284824748 0 0.1224489795923465 0 0 0.1224489795923465 0 0 0.11299168747658229 0.018223577284824748 0 0.13485946140366309 0.018399825352228508 0 0.12394502061713961 0.031222640348626381 0 0.13485946140366309 0.018399825352228508 0 0.11299168747658229 0.018223577284824748 0 0.11299168747658229 0.018223577284824748 0 0.103555154504992 0.036186477933083078 0 0.12394502061713961 0.031222640348626381 0 0.103555154504992 0.036186477933083078 0 0.11299168747658229 0.018223577284824748 0 0.091646580262525548 0.018330347140998932 0 0.12394502061713961 0.031222640348626381 0 0.103555154504992 0.036186477933083078 0 0.12111194339545479 0.04844499445275665 0 0.11837332598570451 0.071168852510895733 0 0.12111194339545479 0.04844499445275665 0 0.096189142707762201 0.05697243691702588 0 0.103555154504992 0.036186477933083078 0 0.096189142707762201 0.05697243691702588 0 0.12111194339545479 0.04844499445275665 0 0.074122400072202652 0.058482788768393967 0 0.096189142707762201 0.05697243691702588 0 0.079421396932280591 0.03754246087862223 0 0.074122400072202652 0.058482788768393967 0 0.08347748713356852 0.068933876054200802 0 0.096189142707762201 0.05697243691702588 0 0.079421396932280591 0.03754246087862223 0 0.096189142707762201 0.05697243691702588 0 0.103555154504992 0.036186477933083078 0 0.06014203299484646 0.028800515441748099 0 0.05997194079032258 0.04512095697672458 0 0.079421396932280591 0.03754246087862223 0 0.079421396932280591 0.03754246087862223 0 0.05997194079032258 0.04512095697672458 0 0.074122400072202652 0.058482788768393967 0 0.074122400072202652 0.058482788768393967 0 0.05997194079032258 0.04512095697672458 0 0.055599947731468188 0.063390459096043877 0 0.069428650838703046 0.078109012133597111 0 0.074122400072202652 0.058482788768393967 0 0.055599947731468188 0.063390459096043877 0 0.08347748713356852 0.068933876054200802 0 0.074122400072202652 0.058482788768393967 0 0.069428650838703046 0.078109012133597111 0 0.077413543502816748 0.10030203404452311 0 0.069428650838703046 0.078109012133597111 0 0.05587596540385175 0.095449649785454282 0 0.069428650838703046 0.078109012133597111 0 0.077413543502816748 0.10030203404452311 0 0.094169754915606196 0.082171266397786241 0 0.08347748713356852 0.068933876054200802 0 0.094169754915606196 0.082171266397786241 0 0.096189142707762201 0.05697243691702588 0 0.094169754915606196 0.082171266397786241 0 0.08347748713356852 0.068933876054200802 0 0.069428650838703046 0.078109012133597111 0 0.096189142707762201 0.05697243691702588 0 0.094169754915606196 0.082171266397786241 0 0.11837332598570451 0.071168852510895733 0 0.11693983748236721 0.093447218298871995 0 0.13780375874147449 0.08587856819508799 0 0.11837332598570451 0.071168852510895733 0 0.094169754915606196 0.082171266397786241 0 0.11693983748236721 0.093447218298871995 0 0.11837332598570451 0.071168852510895733 0 0.098955340253080407 0.1056404584089907 0 0.11693983748236721 0.093447218298871995 0 0.094169754915606196 0.082171266397786241 0 0.11693983748236721 0.093447218298871995 0 0.1170604350569325 0.1121452492360058 0 0.132629020125939 0.10596507531517151 0 0.098955340253080407 0.1056404584089907 0 0.1170604350569325 0.1121452492360058 0 0.11693983748236721 0.093447218298871995 0 0.1273498583307075 0.1248993784176109 0 0.1170604350569325 0.1121452492360058 0 0.1042644740555471 0.12799034491895131 0 0.085089729736171488 0.119617281284406 0 0.1042644740555471 0.12799034491895131 0 0.098955340253080407 0.1056404584089907 0 0.1042644740555471 0.12799034491895131 0 0.1170604350569325 0.1121452492360058 0 0.098955340253080407 0.1056404584089907 0 0.077413543502816748 0.10030203404452311 0 0.098955340253080407 0.1056404584089907 0 0.094169754915606196 0.082171266397786241 0 0.098955340253080407 0.1056404584089907 0 0.077413543502816748 0.10030203404452311 0 0.085089729736171488 0.119617281284406 0 0.064375376681575586 0.1198167832100239 0 0.077413543502816748 0.10030203404452311 0 0.05587596540385175 0.095449649785454282 0 0.064375376681575586 0.1198167832100239 0 0.085089729736171488 0.119617281284406 0 0.077413543502816748 0.10030203404452311 0 0.043801444738163997 0.1121383540808015 0 0.042554332387182259 0.13368213047820371 0 0.064375376681575586 0.1198167832100239 0 0.042554332387182259 0.13368213047820371 0 0.043801444738163997 0.1121383540808015 0 0.021796908541191849 0.1185794897852074 0 0.032717449973680472 0.098326472725607031 0 0.021796908541191849 0.1185794897852074 0 0.043801444738163997 0.1121383540808015 0 0.032717449973680472 0.098326472725607031 0 0.043801444738163997 0.1121383540808015 0 0.05587596540385175 0.095449649785454282 0 0.064375376681575586 0.1198167832100239 0 0.05587596540385175 0.095449649785454282 0 0.043801444738163997 0.1121383540808015 0 0.05587596540385175 0.095449649785454282 0 0.069428650838703046 0.078109012133597111 0 0.044093637822741567 0.077061145711795925 0 0.069428650838703046 0.078109012133597111 0 0.055599947731468188 0.063390459096043877 0 0.044093637822741567 0.077061145711795925 0 0.038287656994838798 0.053045050008237282 0 0.044093637822741567 0.077061145711795925 0 0.055599947731468188 0.063390459096043877 0 0.044093637822741567 0.077061145711795925 0 0.038287656994838798 0.053045050008237282 0 0.024773355977313231 0.067081421531037314 0 0.044093637822741567 0.077061145711795925 0 0.032717449973680472 0.098326472725607031 0 0.05587596540385175 0.095449649785454282 0 0.0207341866468383 0.086451824494522836 0 0.032717449973680472 0.098326472725607031 0 0.044093637822741567 0.077061145711795925 0 0.0207341866468383 0.086451824494522836 0 0.044093637822741567 0.077061145711795925 0 0.024773355977313231 0.067081421531037314 0 0.024773355977313231 0.067081421531037314 0 0 0.066666666666538782 0 0.0207341866468383 0.086451824494522836 0 0.0207341866468383 0.086451824494522836 0 0 0.066666666666538782 0 0 0.088888888888738943 0 0.01494008276341045 0.1008555938909899 0 0.0207341866468383 0.086451824494522836 0 0 0.088888888888738943 0 0 0.1111111111109777 0 0.01494008276341045 0.1008555938909899 0 0 0.088888888888738943 0 0.032717449973680472 0.098326472725607031 0 0.01494008276341045 0.1008555938909899 0 0.021796908541191849 0.1185794897852074 0 0.01494008276341045 0.1008555938909899 0 0.032717449973680472 0.098326472725607031 0 0.0207341866
[...]
<PointData Scalars="A_conc," Vectors="" Tensors="">
<DataArray type="Float64" Name="A_conc" format="ascii">
0.009987382020983657 0.011326905160789217 0.0099778887823625557 0.011355129750729831 0.011963519266283027 0.0099596348183016679 0.011367166802555555 0.013122137715042318 0.012003463820950116 0.011998009066198538 0.013154688176491465 0.014381972017023379 0.01311736129756637 0.011365732093801291 0.012067995892954155 0.011356673364942812 0.0099647474299080479 0.012033261495942135 0.011609832201585507 0.012032690892126741 0.0099583359979145952 0.01197097876361059 0.0099915003435502824 0.0099849944888502021 0.0099587151146481381 0.012432090164943494 0.011609778503308098 0.0099818728584981416 0.01156985977072357 0.0099834128818664589 0.011625023466258844 0.012492667377554211 0.014053006773855292 0.012067415533284364 0.011626923719905133 0.014033871092480703 0.012042982234172784 0.014103914955195411 0.014817778712930505 0.016509340858395859 0.01713240518440998 0.014094223328188184 0.01716494120252194 0.017208610424013893 0.01485728126222244 0.017077390713243754 0.014877538896392642 0.014127008554324879 0.015979780011680014 0.01721125913684202 0.018798536248163793 0.017173407585203988 0.015975545019357797 0.014875055241054586 0.01478857536601135 0.013152623130668652 0.012064167457122618 0.015914760624251522 0.013143278275044062 0.014864371817956157 0.015903695372633905 0.014437067751648259 0.01315361446271522 0.015974774895454624 0.018814051533299514 0.017367067334680322 0.014434144946766838 0.0159716353901024 0.017303141450783738 0.01886969279572593 0.020794119216646523 0.017366379004895082 0.020437766619137245 0.018862071083046595 0.017207807789454476 0.022772454900931837 0.018862968695505477 0.020491974135923786 0.025326988888200883 0.022871430907467023 0.020481896292022801 0.022794593083930462 0.020875368168912299 0.018863303953190247 0.020876873287880328 0.022886906731856196 0.024997801172633671 0.022885384197086807 0.027614627175602851 0.025092145750690697 0.025087108065669904 0.027729599509723223 0.030038135316717361 0.030147724410269618 0.027734646455421223 0.033586890456724791 0.030566795661076649 0.033598078141351219 0.02772816504816043 0.027724938816690272 0.025467502981963291 0.030455251265891197 0.025460611613635387 0.027616121429678956 0.022870045214703826 0.030530435697849696 0.025423200129343335 0.029768165015821822 0.029038742436610105 0.029702733623370912 0.023747193550617905 0.025466136832179815 0.023832262872073715 0.029581406821953135 0.019539220110951612 0.02367658718016169 0.020490050546531694 0.019528082560750767 0.021255617585487382 0.023714573399650746 0.020453359437597737 0.023800735878911225 0.025352954637099967 0.01723743553095124 0.017192199988282468 0.020346400539168762 0.020435459221914205 0.017164096282687204 0.019520417013574733 0.019446206109207928 0.017186433995837368 0.016535789577535064 0.018707067410831391 0.019492736469455606 0.016505761603456685 0.021210259711055723 0.019541445007712061 0.018725358874453198 0.020040733515411219 0.01872028493991788 0.016540680633422709 0.01873294907504193 0.020111731373181695 0.023227575515489117 0.021244527254754227 0.023402730577921801 0.023815528190535958 0.023296642715577239 0.02123688108025186 0.018699582711282397 0.023841541885416165 0.023417949860089392 0.028841897568263983 0.028738854881882474 0.034401933729923805 0.029105112008242798 0.023318860836967811 0.028652162453108899 0.029000268853554802 0.024437434507931972 0.028519957178996601 0.023408218921414377 0.028722490598672087 0.028774475602040529 0.032933928888318545 0.024387999326429422 0.02871597061530836 0.028665975866507556 0.031381899799880181 0.028728679678098386 0.025617603570518052 0.02153793639339897 0.025571374661238121 0.024417713102272795 0.02563745568833431 0.028636771259894028 0.024439720252214286 0.020082998925308782 0.024357627870875566 0.023373207021997505 0.024301423699908141 0.020127469722300489 0.021559514808690339 0.017883566679389673 0.020016635553915411 0.016565136026037531 0.017868475562655219 0.021482768146472753 0.020113638208984024 0.014860344574988997 0.01469293352711226 0.017745218507456396 0.014654752947220696 0.014814427345752239 0.012133015765418913 0.013423135201591156 0.012162581477825824 0.014775981899319907 0.013425422103676339 0.014838598843409491 0.016485017007450756 0.017826754407787838 0.016559036602096833 0.014834952254644684 0.016549320103564573 0.018607387853473698 0.014890186535007132 0.018601672156674399 0.016513984007981236 0.014880957804447073 0.014128963159729183 0.014892272376505226 0.016468708771093118 0.014853027223196976 0.014117577768374474 0.012481365476604061 0.014888831351043982 0.013422571839476732 0.016466061704555099 0.012034900295543726 0.013422834911406814 0.014831222036048393 0.012063376171390106 0.01476306144076904 0.012500683476121424 0.012446205104124372 0.0099503901550289237 0.012032433219234242 0.011967933233873634 0.009984134598619911 0.0099912666561372907 0.011419687946460028 0.012005515033228942 0.0099618352849822258 0.009982139651165409 0.011388021925058214 0.0099809131828511467 0.013384207716945927 0.011429948688224641 0.012168438041954856 0.011432599111553964 0.013375010382975222 0.012044430199180861 0.011419340461855637 0.0099627378821136262 0.012127741990446844 0.012063891568073614 0.0099882009699761264 0.0099858071653286546 0.011898099173859547 0.012133785789510619 0.009954044262674995 0.0099608562866185992 0.011653632706538788 0.011884871802465792 0.0099843560094381115 0.011836528050754547 0.0099840038616046452 0.0116734770384169 0.013723944989495557 0.011914138521684088 0.01217075309719361 0.011924249166811909 0.014561370955870666 0.014645605294426319 0.017212151186486453 0.01784466597172513 0.014680879590852297 0.015698701309146201 0.017179607373952101 0.017231096474692172 0.01568914330546408 0.017862072192595273 0.011888978725349976 0.01377815754067214 0.014628624715826318 0.015668362869589447 0.014681589423572242 0.013793494351069708 0.015611085853378956 0.013801296450695874 0.013496536931134883 0.015685069464518541 0.013778819661799783 0.015658542793308194 0.015705628737175698 0.015678254121510516 0.017824089717255614 0.015653881066734026 0.017913595124755093 0.017873776942728976 0.016289137879693313 0.017877731894951392 0.015676591056422891 0.016240197409256342 0.015653281539550649 0.01346597581805389 0.016207508850261544 0.013494527351973986 0.014452384071882301 0.013441262077905289 0.011339991694976299 0.012011051904650948 0.013415836217443992 0.011662657456741587 0.011343860163937493 0.01347642420031997 0.013769704092277507 0.011643241960723132 0.009985536194522306 0.01160418746202631 0.0099860766284459133 0.0099669654219542402 0.011332127042588434 0.011640648592767524 0.011301917370121197 0.0099865640249313867 0.0099817413551611441 0.011970605619834622 0.011328968991725728 0.0099669416128592078 0.013485844595375001 0.012001475263952876 0.014401797752511219 0.017323257675689097 0.016280478341262325 0.014438840867641026 0.01629264784635422 0.017383014917507027 0.019236445396404664 0.020821371127577929 0.019305161465122043 0.017372072001212959 0.020896735713182291 0.022910857508293546 0.019311507078206117 0.022994273817134855 0.020890343833353923 0.02501826199641162 0.026999898595886352 0.022995507076786516 0.025111383872040996 0.027063551830161684 0.030164668508290051 0.032056598751231992 0.030045544258409718 0.02707874372234868 0.025120670402590244 0.026026073804142808 0.027104018349755656 0.03187863241498088 0.031459179692734131 0.025938832972646434 0.032032200364510058 0.031236564072331632 0.025152468588297169 0.026021548106039755 0.025100382556059491 0.021063373913646204 0.025929105460663959 0.027038602529903553 0.026000591757696132 0.022978393330425728 0.021115668639726276 0.019304599059151734 0.022917797659000851 0.021115812581990821 0.022993743317840945 0.025863416620625617 0.019250012695831528 0.017917104269499034 0.016280765949148242 0.021061020229101973 0.017921255560771451 0.01930866486247286 0.017938976521782515 0.020994312382064433 0.017897840963134633 0.020717199000152758 0.02113420360725967 0.024961716295092581 0.020594988131133203 0.017239985373156377 0.017889422067949568 0.017858696572142233 0.02108691673662615 0.020685586167887626 0.017239427115819835 0.020594007134190542 0.017898674873878105 0.021510409302860526 0.017867527903817387 0.020686625788025437 0.021579027023693874 0.020717300889452211 0.025424895693166468 0.02563962656004885 0.025132403280167668 0.029452904420274265 0.025066308676688041 0.025549250136258951 0.020643800639756162 0.025062612794948244 0.031391753039411871 0.02954925797896521 0.031411605139894251 0.02558470320576375 0.029562213958172816 0.035012828177239858 0.031534929910462105 0.029596435545307092 0.03611459536382338 0.03151240576416707 0.03514892915178762 0.037525851343010549 0.035143260554309039 0.031507075280536027 0.031527767550403901 0.035024888392973054 0.029593314234080535 0.041618070825100689 0.035163687367351114 0.037642598976242114 0.042622284301990859 0.036173951982038245 0.035177411098852737 0.035064481850379942 0.041729190487358077 0.042821388527786788 0.048764380284730874 0.042949675860738931 0.041809978933319558 0.042886652791815971 0.048940362972551339 0.052666476306911882 0.048977142056107703 0.058963831249879764 0.052879552288214726 0.055138000187334925 0.04897101843307828 0.045643586438263058 0.041767264264850543 0.045635483467040862 0.048844928998376461 0.037621224404688292 0.045474196280952901 0.041761249692536313 0.045375321179945173 0.045544464557261639 0.038453145469471234 0.053490483124653487 0.055266631528170115 0.045540752876850506 0.052127466232089539 0.053457275732953481 0.045374827505120972 0.045467893726592865 0.053276435196832658 0.045643998247465921 0.039207486936342621 0.045208456364603043 0.03854595868548015 0.038454796694176507 0.032050430282028607 0.039086435175579567 0.038535283231610637 0.045305379105580371 0.037676258193009786 0.037596049157573766 0.031438203003936953 0.03841800438542143 0.031541758405083095 0.032143460015855017 0.038234355179959746 0.036063062343074041 0.032141146045805459 0.030179535327068744 0.039017256613314157 0.032111675131213518 0.036210647368238272 0.039172093336402224 0.036240537197785375 0.043314529523682498 0.045353657561585131 0.039153984388128879 0.043482805158248351 0.045442532850968519 0.043509882659376074 0.051905240872142391 0.062197635750645339 0.05358000216510566 0.052198190976477134 0.071205639743880986 0.062483921272565385 0.074748183174227448 0.08222101896596537 0.071282590926099273 0.074982819569116246 0.082428090364791914 0.089787898398452928 0.10152463131760783 0.089468868988686459 0.082421616593160385 0.074943823751294034 0.090473909605487207 0.082449226798970779 0.10143729578111323 0.082439240167655387 0.09014717696094833 0.074009309703126649 0.076851677087079726 0.074130106885538199 0.08983730127415504 0.074060041379753458 0.076684459602664998 0.065766657031554626 0.082194332434250214 0.074079863248427191 0.071314583439023721 0.073921158828398489 0.063264323718538421 0.071251261857550749 0.062587099773351376 0.071062517121762231 0.063371088972150574 0.062475159845895127 0.063228511838202633 0.053472174443362837 0.055445415134252975 0.053586500707796442 0.063043815992062588 0.055368463017121727 0.063279137029258262 0.065670627291942119 0.063355291531659835 0.073803150747225307 0.065845592618761828 0.070986030441304873 0.059229638227052343 0.065783607783356651 0.07659265243902888 0.071244160546989302 0.065803851215505901 0.055436513769813761 0.065550124068566515 0.059260855143673699 0.048925141034299811 0.055394152311517744 0.059053341647213979 0.059247887678251357 0.070935611412727209 0.064214527461450191 0.071237592183257675 0.086618013278523101 0.077452495707842045 0.071251936158455126 0.076798093542083834 0.086630377633953787 0.076730344368939274 0.090380811723414001 0.087029735630808985 0.090590995772180494 0.10022292246971894 0.087115706042790772 0.087084824498409555 0.10096223840668617 0.093439590712624837 0.08703480338313678 0.09313133399400933 0.077404024541570957 0.093016672513949905 0.0834808693330302 0.077509498193780904 0.070027913035306352 0.077484554022385438 0.083209288908298956 0.098125407416985513 0.093502179571971406 0.083404493423567483 0.093435767040883216 0.098139207837831352 0.083419261070750719 0.0834751795043088 0.09308612755836275 0.077604606279498903 0.093219253527472568 0.088449930871687954 0.077463753516024886 0.088008326596884165 0.072535536268562351 0.077543953702780555 0.077576851586585893 0.070020412145189337 0.083204936020502565 0.070001060174866209 0.077121756396824337 0.061459965452540614 0.069727386716775072 0.061538945746043995 0.058867060987390231 0.077168318149714032 0.07241996154080127 0.061348876724561789 0.058226735921174749 0.061483118168778432 0.07194423699072984 0.050345158310751426 0.05120543428222972 0.060994914466712041 0.058157554527940469 0.050222027923180902 0.06127939453072051 0.051091762879258186 0.058796423846343031 0.061362649669960641 0.06423581726364562 0.069811850864489808 0.058833174377809001 0.071212187022510365 0.077152606221974909 0.064188268934924853 0.077189862140397636 0.070047272138474226 0.064233403420256449 0.059221687846234855 0.0639617355262415 0.052847339110542506 0.058820540440076154 0.052877635637165944 0.063976974889324245 0.052628739333535776 0.048077222914191961 0.042932156525226195 0.048086655356632479 0.052891600176740043 0.058557522468202734 0.058498179032635267 0.05116353595710682 0.048120084074157882 0.04275851736077195 0.039982603427302012 0.047870091061429115 0.039982160097517039 0.042960766239108349 0.047888593841947803 0.036151267249514112 0.04283213666835476 0.039969244916470692 0.033067775951359651 0.031547387042208976 0.036070252401544114 0.028736618283017462 0.031533866191168172 0.03300903256739663 0.034526984696361909 0.028667479204896183 0.033040980758797397 0.039741411725134831 0.034629503614825662 0.033081295425372671 0.03305055667576972 0.036158909570685266 0.03982558443635207 0.034576731458339081 0.039939488394355661 0.042589316707233739 0.034587320143141559 0.035850893431026376 0.029020397177102638 0.042413451736738057 0.035983505716194568 0.034657858252861724 0.041854049165075145 0.035902694864177506 0.042667605331332958 0.042766422444507443 0.050009249176131476 0.041921052009623379 0.048073795312204175 0.051002785589943707 0.042722792029465405 0.050247965890058144 0.042669236767357586 0.051072683987055549 0.050337902211127279 0.057892778380947724 0.049123467295035216 0.049087704545429774 0.055077943547458791 0.048168032550639492 0.048884511953827404 0.043228227503921503 0.04191286445814528 0.049021027489765272 0.048127893398371369 0.043180564139443031 0.049038050645659789 0.041811509777858094 0.050203262271602538 0.0359884683401872 0.0417301017595006 0.036715009379437509 0.029728333030965996 0.035898105816660725 0.036590402074623281 0.035674112693166608 0.029819761927748281 0.029120557947895663 0.030615360535190716 0.029820035461397193 0.036387857796943694 0.036663971255740883 0.043105673047056627 0.041415729893337694 0.043127840788632646 0.036657331307002244 0.041861744109215893 0.033747072459324401 0.036690304237592467 0.041215536311697082 0.033742933856379061 0.030563657318765852 0.03658278509641108 0.030131308900723519 0.033736096195090118 0.036083478399805954 0.036165427192094424 0.041405350693592538 0.043334129635955461 0.041192987346840716 0.03620838777252073 0.033755027089904174 0.043470607336676313 0.041455028592202098 0.0480199852703386 0.043215930630921988 0.047977936940973402 0.04146152947985516 0.048077373874995215 0.055210082389663157 0.058225725877812315 0.043442408663130469 0.048143867313697838 0.051955221123411229 0.05812009166056193 0.052139515891575117 0.048157197675588154 0.052109167092775646 0.058380003343563178 0.062320850573292362 0.058414754869616468 0.069787200108487407 0.062531737527967729 0.062486634858976903 0.070070021669146137 0.074698397094791549 0.058382087606911985 0.065035031643480914 0.069886229692290969 0.055271964329960011 0.064832718325226094 0.058423327989262551 0.058167955437964644 0.064785020488799777 0.055257498758015597 0.055216116188494341 0.049021109202573236 0.058023812697810595 0.072132402028415074 0.065010038039170187 0.058120675386710834 0.065006474062841657 0.072470020058106113 0.081238910012282631 0.072445282057859883 0.088202758044457499 0.081723529824409266 0.088545896412720607 0.096113287933235855 0.081766913985530279 0.081584103852293269 0.096268042835769813 0.099680512436256793 0.082518236349801752 0.081825189332473292 0.099101068188931329 0.070126712540845168 0.065061632933420627 0.081188968024050664 0.081679897601891413 0.082346624402528809 0.070018545450412084 0.070113944166766501 0.082133886474010612 0.074948405073990643 0.082378318030394498 0.089455566501044331 0.07493385711213571 0.089774988926554514 0.082383864621317693 0.099592709857145856 0.09992953015875479 0.10713831824132238 0.089744893787534696 0.11989728593145438 0.11826968108046469 0.099734178867929874 0.10745898076336027 0.11838493611448662 0.12815497425103081 0.11800783868598311 0.10750064485013727 0.099973474938479634 0.12859741939785765 0.13955098848412487 0.15317686819379867 0.13918338418412302 0.12860172672913706 0.11840205454184638 0.16594983739454272 0.15373459366441469 0.13951215067550407 0.16837460197112028 0.16625258756941 0.13918274382132922 0.1387749367418783 0.11851373741531275 0.12021181323773621 0.13932564230553496 0.12002675753874845 0.1361279959708909 0.13958186203971282 0.13627501048543164 0.16740019268885412 0.16839065348123189 0.1683807884192032 0.13570825183266516 0.13620858991550766 0.14438642123713713 0.16763287628666262 0.13606811346582667 0.11913581709972362 0.14388551398315785 0.10297595370336587 0.11902388904617119 0.11167576440886527 0.11168906369293841 0.11925300672037066 0.13537146288238175 0.12012266044713665 0.11166101435666639 0.13558716290920272 0.11158049942319087 0.11971325795038394 0.099902161369873468 0.0964326656569236 0.11126645190023862 0.099994425242997079 0.11139643623675982 0.096446536428422297 0.10299794156197217 0.088518921682926452 0.10275225067386351 0.096407434536602235 0.10289389132158952 0.088430789532459628 0.10120441668262609 0.10105858217998813 0.088539270075356308 0.093513874209023087 0.10308802158667099 0.10133771164469589 0.11857464228872519 0.10123533531755342 0.11200424359606678 0.11894830458246226 0.13741872978764635 0.11924438218461343 0.11205026513268536 0.098385561664426899 0.11141505850541734 0.093575827336217346 0.10126843017810963 0.093502616473702851 0.11164042749146234 0.11190908923488642 0.098288242065467296 0.11247355485057654 0.11193953770825997 0.098400451161582927 0.093507267945019096 0.093441291646910646 0.10122361186263103 0.11215730464184055 0.1192759436608349 0.13250415626565268 0.11260937960995004 0.1125490235066333 0.10118214254745955 0.11898020763191119 0.13369548707422041 0.11205017414807757 0.11263292247483146 0.13286038082433102 0.13428263564042892 0.11234180236197551 0.13460961061942181 0.13312756182451066 0.15899745384239436 0.13302472484335562 0.14373314890078484 0.15954608438414114 0.16165511472681432 0.13429466607984414 0.1598028062951852 0.13840916923470303 0.13468592994375164 0.16100646642517849 0.13813556326000456 0.16173117027844336 0.15946489815943307 0.13437238999934537 0.13792141681945019 0.11168867480761117 0.11905873063367191 0.13818374480097889 0.14386632376125391 0.13840180430832896 0.15918430432014155 0.14434680527287427 0.15960928449021164 0.16852516725167052 0.14420022302669561 0.16887473733973532 0.1596776783909338 0.18885036864997662 0.23081535854298027 0.20235555851677647 0.1896054918997353 0.20169018273063843 0.1687370140009426 0.18947950008878878 0.18865503059110206 0.2136069450603231 0.18962651206173273 0.21408022757796283 0.23142788874158618 0.18939825177053407 0.15969584202478709 0.16204444108990668 0.18844189198633488 0.16172160077160586 0.18833298671291693 0.18926920999678257 0.16208594998187847 0.16015188564429703 0.18760352471775205 0.1882452654