<?xml version="1.0"?>
<VTKFile type="UnstructuredGrid" version="0.1" byte_order="LittleEndian">
<UnstructuredGrid>
<Piece NumberOfPoints="3240" NumberOfCells="1080">
<Points>
<DataArray type="Float64" NumberOfComponents="3" format="ascii">
0 0.022222222222172731 0 0.014261120859510951 0.01476364028082537 0 0 0 0 0.014261120859510951 0.01476364028082537 0 0.020408163265391192 0 0 0 0 0 0.014261120859510951 0.01476364028082537 0 0.030393520779906098 0.016393210364487439 0 0.020408163265391192 0 0 0.020408163265391192 0 0 0.030393520779906098 0.016393210364487439 0 0.040816326530782147 0 0 0.030393520779906098 0.016393210364487439 0 0.014261120859510951 0.01476364028082537 0 0.02085901357486063 0.03347530932066585 0 0.014261120859510951 0.01476364028082537 0 0 0.022222222222172731 0 0.02085901357486063 0.03347530932066585 0 0.016784005309402529 0.052942578394164941 0 0.02085901357486063 0.03347530932066585 0 0 0.04444444444434547 0 0.02085901357486063 0.03347530932066585 0 0 0.022222222222172731 0 0 0.04444444444434547 0 0 0.066666666666538782 0 0.024773355977313231 0.067081421531037314 0 0.016784005309402529 0.052942578394164941 0 0 0.066666666666538782 0 0.016784005309402529 0.052942578394164941 0 0 0.04444444444434547 0 0.016784005309402529 0.052942578394164941 0 0.024773355977313231 0.067081421531037314 0 0.038287656994838798 0.053045050008237282 0 0.02085901357486063 0.03347530932066585 0 0.016784005309402529 0.052942578394164941 0 0.038287656994838798 0.053045050008237282 0 0.02085901357486063 0.03347530932066585 0 0.038287656994838798 0.053045050008237282 0 0.04395097424174637 0.032880702536447093 0 0.055599947731468188 0.063390459096043877 0 0.05997194079032258 0.04512095697672458 0 0.038287656994838798 0.053045050008237282 0 0.05997194079032258 0.04512095697672458 0 0.06014203299484646 0.028800515441748099 0 0.04395097424174637 0.032880702536447093 0 0.05997194079032258 0.04512095697672458 0 0.04395097424174637 0.032880702536447093 0 0.038287656994838798 0.053045050008237282 0 0.051838137503398218 0.016097170421718029 0 0.06014203299484646 0.028800515441748099 0 0.070237773272778581 0.018029566749463509 0 0.06014203299484646 0.028800515441748099 0 0.051838137503398218 0.016097170421718029 0 0.04395097424174637 0.032880702536447093 0 0.04395097424174637 0.032880702536447093 0 0.030393520779906098 0.016393210364487439 0 0.02085901357486063 0.03347530932066585 0 0.051838137503398218 0.016097170421718029 0 0.030393520779906098 0.016393210364487439 0 0.04395097424174637 0.032880702536447093 0 0.051838137503398218 0.016097170421718029 0 0.040816326530782147 0 0 0.030393520779906098 0.016393210364487439 0 0.051838137503398218 0.016097170421718029 0 0.070237773272778581 0.018029566749463509 0 0.061224489796173232 0 0 0.040816326530782147 0 0 0.051838137503398218 0.016097170421718029 0 0.061224489796173232 0 0 0.070237773272778581 0.018029566749463509 0 0.081632653061564309 0 0 0.061224489796173232 0 0 0.079421396932280591 0.03754246087862223 0 0.070237773272778581 0.018029566749463509 0 0.06014203299484646 0.028800515441748099 0 0.091646580262525548 0.018330347140998932 0 0.070237773272778581 0.018029566749463509 0 0.079421396932280591 0.03754246087862223 0 0.103555154504992 0.036186477933083078 0 0.091646580262525548 0.018330347140998932 0 0.079421396932280591 0.03754246087862223 0 0.091646580262525548 0.018330347140998932 0 0.081632653061564309 0 0 0.070237773272778581 0.018029566749463509 0 0.081632653061564309 0 0 0.091646580262525548 0.018330347140998932 0 0.1020408163269555 0 0 0.091646580262525548 0.018330347140998932 0 0.11299168747658229 0.018223577284824748 0 0.1020408163269555 0 0 0.1020408163269555 0 0 0.11299168747658229 0.018223577284824748 0 0.1224489795923465 0 0 0.1224489795923465 0 0 0.11299168747658229 0.018223577284824748 0 0.13485946140366309 0.018399825352228508 0 0.12394502061713961 0.031222640348626381 0 0.13485946140366309 0.018399825352228508 0 0.11299168747658229 0.018223577284824748 0 0.11299168747658229 0.018223577284824748 0 0.103555154504992 0.036186477933083078 0 0.12394502061713961 0.031222640348626381 0 0.103555154504992 0.036186477933083078 0 0.11299168747658229 0.018223577284824748 0 0.091646580262525548 0.018330347140998932 0 0.12394502061713961 0.031222640348626381 0 0.103555154504992 0.036186477933083078 0 0.12111194339545479 0.04844499445275665 0 0.11837332598570451 0.071168852510895733 0 0.12111194339545479 0.04844499445275665 0 0.096189142707762201 0.05697243691702588 0 0.103555154504992 0.036186477933083078 0 0.096189142707762201 0.05697243691702588 0 0.12111194339545479 0.04844499445275665 0 0.074122400072202652 0.058482788768393967 0 0.096189142707762201 0.05697243691702588 0 0.079421396932280591 0.03754246087862223 0 0.074122400072202652 0.058482788768393967 0 0.08347748713356852 0.068933876054200802 0 0.096189142707762201 0.05697243691702588 0 0.079421396932280591 0.03754246087862223 0 0.096189142707762201 0.05697243691702588 0 0.103555154504992 0.036186477933083078 0 0.06014203299484646 0.028800515441748099 0 0.05997194079032258 0.04512095697672458 0 0.079421396932280591 0.03754246087862223 0 0.079421396932280591 0.03754246087862223 0 0.05997194079032258 0.04512095697672458 0 0.074122400072202652 0.058482788768393967 0 0.074122400072202652 0.058482788768393967 0 0.05997194079032258 0.04512095697672458 0 0.055599947731468188 0.063390459096043877 0 0.069428650838703046 0.078109012133597111 0 0.074122400072202652 0.058482788768393967 0 0.055599947731468188 0.063390459096043877 0 0.08347748713356852 0.068933876054200802 0 0.074122400072202652 0.058482788768393967 0 0.069428650838703046 0.078109012133597111 0 0.077413543502816748 0.10030203404452311 0 0.069428650838703046 0.078109012133597111 0 0.05587596540385175 0.095449649785454282 0 0.069428650838703046 0.078109012133597111 0 0.077413543502816748 0.10030203404452311 0 0.094169754915606196 0.082171266397786241 0 0.08347748713356852 0.068933876054200802 0 0.094169754915606196 0.082171266397786241 0 0.096189142707762201 0.05697243691702588 0 0.094169754915606196 0.082171266397786241 0 0.08347748713356852 0.068933876054200802 0 0.069428650838703046 0.078109012133597111 0 0.096189142707762201 0.05697243691702588 0 0.094169754915606196 0.082171266397786241 0 0.11837332598570451 0.071168852510895733 0 0.11693983748236721 0.093447218298871995 0 0.13780375874147449 0.08587856819508799 0 0.11837332598570451 0.071168852510895733 0 0.094169754915606196 0.082171266397786241 0 0.11693983748236721 0.093447218298871995 0 0.11837332598570451 0.071168852510895733 0 0.098955340253080407 0.1056404584089907 0 0.11693983748236721 0.093447218298871995 0 0.094169754915606196 0.082171266397786241 0 0.11693983748236721 0.093447218298871995 0 0.1170604350569325 0.1121452492360058 0 0.132629020125939 0.10596507531517151 0 0.098955340253080407 0.1056404584089907 0 0.1170604350569325 0.1121452492360058 0 0.11693983748236721 0.093447218298871995 0 0.1273498583307075 0.1248993784176109 0 0.1170604350569325 0.1121452492360058 0 0.1042644740555471 0.12799034491895131 0 0.085089729736171488 0.119617281284406 0 0.1042644740555471 0.12799034491895131 0 0.098955340253080407 0.1056404584089907 0 0.1042644740555471 0.12799034491895131 0 0.1170604350569325 0.1121452492360058 0 0.098955340253080407 0.1056404584089907 0 0.077413543502816748 0.10030203404452311 0 0.098955340253080407 0.1056404584089907 0 0.094169754915606196 0.082171266397786241 0 0.098955340253080407 0.1056404584089907 0 0.077413543502816748 0.10030203404452311 0 0.085089729736171488 0.119617281284406 0 0.064375376681575586 0.1198167832100239 0 0.077413543502816748 0.10030203404452311 0 0.05587596540385175 0.095449649785454282 0 0.064375376681575586 0.1198167832100239 0 0.085089729736171488 0.119617281284406 0 0.077413543502816748 0.10030203404452311 0 0.043801444738163997 0.1121383540808015 0 0.042554332387182259 0.13368213047820371 0 0.064375376681575586 0.1198167832100239 0 0.042554332387182259 0.13368213047820371 0 0.043801444738163997 0.1121383540808015 0 0.021796908541191849 0.1185794897852074 0 0.032717449973680472 0.098326472725607031 0 0.021796908541191849 0.1185794897852074 0 0.043801444738163997 0.1121383540808015 0 0.032717449973680472 0.098326472725607031 0 0.043801444738163997 0.1121383540808015 0 0.05587596540385175 0.095449649785454282 0 0.064375376681575586 0.1198167832100239 0 0.05587596540385175 0.095449649785454282 0 0.043801444738163997 0.1121383540808015 0 0.05587596540385175 0.095449649785454282 0 0.069428650838703046 0.078109012133597111 0 0.044093637822741567 0.077061145711795925 0 0.069428650838703046 0.078109012133597111 0 0.055599947731468188 0.063390459096043877 0 0.044093637822741567 0.077061145711795925 0 0.038287656994838798 0.053045050008237282 0 0.044093637822741567 0.077061145711795925 0 0.055599947731468188 0.063390459096043877 0 0.044093637822741567 0.077061145711795925 0 0.038287656994838798 0.053045050008237282 0 0.024773355977313231 0.067081421531037314 0 0.044093637822741567 0.077061145711795925 0 0.032717449973680472 0.098326472725607031 0 0.05587596540385175 0.095449649785454282 0 0.0207341866468383 0.086451824494522836 0 0.032717449973680472 0.098326472725607031 0 0.044093637822741567 0.077061145711795925 0 0.0207341866468383 0.086451824494522836 0 0.044093637822741567 0.077061145711795925 0 0.024773355977313231 0.067081421531037314 0 0.024773355977313231 0.067081421531037314 0 0 0.066666666666538782 0 0.0207341866468383 0.086451824494522836 0 0.0207341866468383 0.086451824494522836 0 0 0.066666666666538782 0 0 0.088888888888738943 0 0.01494008276341045 0.1008555938909899 0 0.0207341866468383 0.086451824494522836 0 0 0.088888888888738943 0 0 0.1111111111109777 0 0.01494008276341045 0.1008555938909899 0 0 0.088888888888738943 0 0.032717449973680472 0.098326472725607031 0 0.01494008276341045 0.1008555938909899 0 0.021796908541191849 0.1185794897852074 0 0.01494008276341045 0.1008555938909899 0 0.032717449973680472 0.098326472725607031 0 0.0207341866
[...]
<PointData Scalars="A_conc," Vectors="" Tensors="">
<DataArray type="Float64" Name="A_conc" format="ascii">
0.19674274340923781 0.21755867747409668 0.19663241078275612 0.21789280567411826 0.22723669215991513 0.1964196803984625 0.21803402347558726 0.24436331727184676 0.22770400485573666 0.22764452945367281 0.24473199766379164 0.26279797575403568 0.24431033717145023 0.21801838755751241 0.22861723935517467 0.21791090448173125 0.19647994100278704 0.22821279701842351 0.22178618573631073 0.2282097164919703 0.19640675486824186 0.22747916423405351 0.19679396808577543 0.19672031589302713 0.19641235870975821 0.2342911607716445 0.22178317789321139 0.19668123538240551 0.22131205792678713 0.19669709593769191 0.22196355196243461 0.23499521364697704 0.25805956434443367 0.22861388920445616 0.22198698368058126 0.25784653442180905 0.22834033731372247 0.25863509879731816 0.26896401319272129 0.29261404921135054 0.3013673370859335 0.25854649794709955 0.3017109325589441 0.30224872281558102 0.26941084790104891 0.30078121733474539 0.26962185317867077 0.25889379708333704 0.28516165550315709 0.30228359842029845 0.32400070087201349 0.30188472938064231 0.28511768705854657 0.26959811582620197 0.26864007053839756 0.24471079034239854 0.2285748307816439 0.28446261944343287 0.24461118651062944 0.26947926141656975 0.28434295388845549 0.26341098968240972 0.24472090301444899 0.28511004021264857 0.32415658526638785 0.30446283596360046 0.26338512445631357 0.28507591049319159 0.30378961138234201 0.32472414383274228 0.35059200630565596 0.30446055704241837 0.34574661701921244 0.32465155310144506 0.30225163766479013 0.37613510360744679 0.32466301504611633 0.34628674245086744 0.4084047930306931 0.37709463217380967 0.34619364766536437 0.37634344574227208 0.35140244492365524 0.32466124274549535 0.35142520279907669 0.37723494655160578 0.40427123160875039 0.37722152260790565 0.43636565705503144 0.40515888667736238 0.40512255244611461 0.43741056695351699 0.46554534694973193 0.46651594598851559 0.43745633908796905 0.50695097153792457 0.47144070132087179 0.50705247880590909 0.43740705816273323 0.43737658402073776 0.40972954111561821 0.47045447909179322 0.40966094921667628 0.43638706334938243 0.37708871595408311 0.47111009253007941 0.40933808476479849 0.46206919392175855 0.45336819072812068 0.46148194590097996 0.38851677076125751 0.40970998048477059 0.38927552898677104 0.46039082837028955 0.33367849214818729 0.38777892361336852 0.34627144867354481 0.33357399437145485 0.35625862275065134 0.38814315016687678 0.34592280536950237 0.38897322523812744 0.40864974691402306 0.30254871797018734 0.30199690687139291 0.34482616936921007 0.34572769864212166 0.30171580027316669 0.33348921780835106 0.33273560663814311 0.30193692939669459 0.29289382920916401 0.32263582962189147 0.33321019858746798 0.29259314381019064 0.35581409378356299 0.33370114943737461 0.32282318056705012 0.34060730652713272 0.32276440779754767 0.29310548627312677 0.32289413621096191 0.34132205033868901 0.38214695681970384 0.35615665981957995 0.38383941842692776 0.38911021928020012 0.38281770088797723 0.35607561292738399 0.32257309056122402 0.38935479551370566 0.38398290730368717 0.45158767527041371 0.44956531071040001 0.51654915912630084 0.45397519091775734 0.38309212113880448 0.44878768245565542 0.45303669363921978 0.39686765880741509 0.44759032105502988 0.38389495296507137 0.44942277364179573 0.4499773372554069 0.4993964457531207 0.39643067257519204 0.44945726293915461 0.44891781952475268 0.48140428599906782 0.44957631858490726 0.41162632767236423 0.36003292178480018 0.41118950721135178 0.39668489229222648 0.41180182756531547 0.44874931530947854 0.39689218737003562 0.34105235365813158 0.39611402821296698 0.38356016558084061 0.39557888629071969 0.34147270617581787 0.36023071216753116 0.31146093872565117 0.34035597735056006 0.29334896306446667 0.31131614697547466 0.3594752423902578 0.34133365148563577 0.26936193542355236 0.26697873176577652 0.3100062427542789 0.26655811702792143 0.26885757105492158 0.22973782693452083 0.24870788547617723 0.23006236161889582 0.26843834599137989 0.24873642709417326 0.269132743417691 0.29249071395003889 0.31086968762788153 0.29328265313869711 0.2690988696523342 0.29318583395161285 0.32159516001692923 0.26982471015884774 0.32154318844995999 0.29267213087855171 0.26973196128517052 0.25891028401872163 0.2698489997854831 0.29218643840771907 0.26941923364377263 0.25878358830249332 0.23487202281676128 0.26980749986155861 0.24870629847407361 0.29229157773787401 0.22819669419932073 0.24870502137928241 0.26917292466111098 0.22851222597338489 0.26841487781819218 0.23508232055807496 0.23445010476366682 0.19631528478472848 0.2281519236118125 0.22739294979663199 0.19671013957040409 0.1967890896583841 0.21889724748864706 0.22784805578264472 0.19644838641968951 0.19668374061176011 0.21852302535909521 0.1966706603151534 0.24826738143335075 0.21902110747814901 0.2301275176884853 0.21904952226545937 0.24816318691871259 0.22830232063378092 0.21889476684913503 0.19645716586691095 0.22965419810034851 0.22889963580096384 0.19675313647712273 0.19672687330128208 0.22614410260774509 0.22972370226621819 0.19635533030473432 0.196435496887086 0.22242585243495502 0.22599522509434566 0.1967114808766639 0.22542082852748463 0.19670321730278648 0.22265742289445081 0.2532775562399851 0.2263375496158376 0.23015361827431854 0.22644927786206609 0.26551532081041757 0.26648322701932053 0.30234363518132279 0.3110533839680274 0.26684959616473231 0.2812585870002407 0.30200218859721573 0.30254337651263447 0.28116288390486666 0.31124152617797368 0.22605879175910354 0.25388969399078476 0.26627046541712263 0.28093270565091871 0.26685559504165385 0.25406222345869356 0.28020869190165082 0.25414600981035662 0.24973828958935684 0.28111224223870573 0.25390562358996727 0.28072170202698365 0.28133252762277083 0.28093256493205548 0.31084078378177193 0.28068185702032189 0.31189498239446439 0.31135534773261836 0.28951695531791932 0.31152661449452984 0.28091736093457631 0.28899361997086881 0.28066657435342302 0.24940904047213874 0.28863805543263266 0.24971560942222015 0.26356472604445602 0.24911186404654326 0.21763561250708693 0.22778018770848013 0.24882274479668332 0.22253756225586094 0.2176788879249707 0.2495119505847081 0.25379336947490222 0.22231860716147622 0.19672609785689063 0.22184540208494916 0.19673019696067506 0.19650596249176752 0.21754109948443959 0.22227970164651983 0.21718407211164636 0.19673620303099662 0.19667204264499777 0.22730775273577625 0.21750488228680923 0.19649714005590993 0.24961657103978752 0.22767365295155836 0.26300398921095852 0.30398483096304485 0.289421529392347 0.26342377775201448 0.28955228291515966 0.30461216139072533 0.32990579737027181 0.35084355222160696 0.33060542525918007 0.30450346949612311 0.35159233623108543 0.37785444003026886 0.33067216899192514 0.37865913992678518 0.3515339767544754 0.40443879515103748 0.42884948891994318 0.3786750422229353 0.40531263312212651 0.4294432286355353 0.46663448867662266 0.48908418795654945 0.46558044132767512 0.42957151166536306 0.4053981195506644 0.41662729598878145 0.42978972786756287 0.48751789663747097 0.48203792333030271 0.41586649243520601 0.48886176467080866 0.48006786994396583 0.40571752931686245 0.41658491811277715 0.405232757492134 0.35398104449241846 0.41572609520022163 0.42919558962824356 0.41639170990334434 0.37851567429453298 0.35446612918262821 0.33060277421047879 0.37791951370099292 0.3544711684106806 0.37865101872953638 0.4151106208056301 0.33004509436664536 0.31193602290251138 0.28943053727430318 0.35392680950113536 0.31198126074957427 0.33064050267582268 0.31215623884663485 0.35325403607846817 0.31160335218760932 0.34922758500241147 0.35463817769872713 0.40392448423807498 0.34800644867980485 0.30263577913325429 0.31152356129828024 0.3112179364676943 0.35417361802498259 0.34891449170130068 0.30263001619115643 0.34799544694419265 0.31161401691702162 0.35973780542275813 0.31130324751666621 0.34892423471013145 0.36041074413706253 0.34922972958963511 0.40980463906381343 0.41181938365424575 0.40553821491521586 0.45855462596161289 0.40491903382937544 0.41097765050631047 0.34854080878799226 0.40492783868667781 0.48144554513121413 0.4594133700304312 0.48166925580520886 0.41134127512992308 0.45952929691289995 0.5232562091863614 0.48274476159293095 0.45983364773963598 0.53543074044052463 0.48255979568470314 0.52440051389059528 0.55142319700335174 0.52434464245086465 0.48246392524774523 0.48263342401559628 0.52335107487595023 0.45980650807957313 0.59644535652794117 0.52451553967531817 0.55238087232261834 0.60775539042932181 0.53591839955999399 0.52463599851149112 0.52373773265881851 0.59730794765850259 0.60933492895240482 0.67200413285816019 0.61033835892499111 0.59794076730384327 0.60987766835968271 0.6733159324403466 0.71189395002970279 0.67359221695332394 0.77440549689673421 0.71344355206713728 0.73676119481301505 0.67355425469722496 0.63887005955304754 0.59763510923705976 0.63880572478944742 0.6726187742049835 0.55221625683963316 0.63757183938007411 0.59757993922556973 0.6362915514349099 0.6381293416571665 0.56166145723826222 0.71974855928134907 0.73769494967068949 0.6381429221271111 0.70592976837179078 0.71952037323379869 0.63632985196104286 0.6369949808182801 0.71819709334718551 0.63888616132888576 0.56964544956391006 0.63501219458110691 0.56236960496263688 0.56163091972650236 0.48907327556346164 0.56866998040755845 0.56229207155954575 0.63627383517908276 0.55263646028388236 0.55198426654883526 0.48190253616372697 0.56133853583378146 0.48275441361780025 0.48982488981341926 0.55982055075415604 0.53519843765963149 0.48981226857624638 0.46676608926608337 0.56811373988568958 0.4895722034760574 0.53642812302535803 0.56937066697274796 0.53667542090070164 0.61472344898896325 0.63614352985841949 0.56923827252213588 0.61603522805708233 0.63681900691014248 0.61624289699947887 0.70430206900570591 0.80588082896386315 0.72039910518139039 0.70643909358344403 0.8894773555528126 0.80787964967521775 0.92222442883089373 0.98866712812041857 0.88997081781487164 0.9237032494551688 0.98992797542554634 1.0534591930429074 1.1525556060752971 1.0515895728986564 0.9898784298671095 0.92347382080085172 1.059404283322303 0.99004225233985954 1.1520707846338289 0.98997267775909581 1.0574896775185925 0.91518159514576791 0.94034749984235166 0.91589853618838668 1.0556280126358215 0.91545733718484701 0.93931227458708333 0.83887924656492885 0.98849303449560932 0.91559706958489073 0.89015731690186839 0.91459592110250287 0.81532907304853497 0.88975703111054993 0.80853691081809342 0.88855295295049974 0.81599913368323285 0.80778271180625882 0.81504299526357793 0.7196647166453306 0.7389645735836875 0.72043853459228402 0.813796396596419 0.73844503732563327 0.81539616420804506 0.83821664948119234 0.8159096007618698 0.9138300763632955 0.83937340814699646 0.88795910435166858 0.77627412252437811 0.83897663557954949 0.93876399916078879 0.88962408057092068 0.83911932261611288 0.7388973736479959 0.8374192278311976 0.77647488923424146 0.6732407634529064 0.73859381920805678 0.77503577216666009 0.77638841977707351 0.88763326651888996 0.82416003055116294 0.8895868619548426 1.0274426287126324 0.94600868679637595 0.88967480448420477 0.94004615858691942 1.0275043556631824 0.93965780615100103 1.0588344519583854 1.0298923796793773 1.0600501230885992 1.141304429622501 1.0303978245925791 1.0302340057118524 1.1473478380885884 1.0843067215250535 1.0299347243053751 1.0825329001285877 0.94573833868671642 1.0818448695603591 0.99913270383379482 0.94633855179142112 0.87864011079501181 0.94617995578962932 0.99749353042780153 1.1240110167253159 1.0847694365853222 0.99872024666954795 1.0842622032412847 1.1240875600945222 0.99880453761865562 0.9990997160802032 1.0823718131794526 0.94714547864491516 1.0831639104899795 1.0421447004891407 0.94633734742254794 1.0395170004692833 0.90135014677307101 0.94679156262313968 0.9469713668254468 0.87859491825800462 0.99746805155302976 0.8784394224573665 0.94411014063551768 0.79794889744993724 0.87665281508002657 0.79845981750659201 0.77266901163157309 0.94443053567370072 0.90061048986692116 0.79725587825165112 0.76624142275054463 0.79809184057157556 0.89752287023721955 0.6876091369259123 0.69633932386263098 0.79470967639629675 0.7657639695556191 0.6867567848981766 0.79669542788304737 0.69556576783739843 0.77217900255844163 0.7972605488947182 0.82428638367699103 0.87721723509023286 0.77245976751184753 0.88942134132771189 0.94413136219571714 0.82400273424891923 0.94434029079008208 0.8787462699182218 0.82427755322656027 0.77620214704470736 0.82245576695040923 0.7132333059992203 0.77236014523121022 0.71342924843455824 0.82254291904363652 0.71160523875681769 0.66444496224890881 0.610206186545592 0.66453309074728628 0.71351725510796771 0.77051899675163049 0.77008509692993188 0.69605782965500185 0.66475284404436108 0.60825180018855751 0.5782184438947845 0.66287577608388226 0.57822471699314315 0.61041587258442376 0.66302380871321187 0.53575044631762725 0.60941363989230546 0.57811733357775175 0.50055283852214061 0.4828480114101259 0.53507086430218276 0.44965762322084007 0.48273167382454518 0.50005431399548617 0.51762698335960711 0.4489622801394712 0.50030654654593254 0.57627075887666435 0.51849006010052368 0.50064873367192009 0.50041192172088489 0.53580540147028366 0.5769629954886053 0.51807653309162882 0.57786981510275914 0.60692446676963463 0.518122591520496 0.53265959431597532 0.45326470676657926 0.60552061077021835 0.53376420060199326 0.51871566395007773 0.59865038562815698 0.53313232594062698 0.60753948465829488 0.60830884003637731 0.68511156642548432 0.59917390317217578 0.66441155826683551 0.69487477019465027 0.60798942887889962 0.68689573773908874 0.60759433095878368 0.69537146913989356 0.68754018026003971 0.76392600135583311 0.67503796348723133 0.67478678155921279 0.73589169629202456 0.66516726350039446 0.67326835367031679 0.61327474704710516 0.59912072040535869 0.67429578294382642 0.66487255414216306 0.61292559136110925 0.67440690848831986 0.59837149190539707 0.68655058315583051 0.53379760395384757 0.59767892287139734 0.54200583710144556 0.46176863301026883 0.53304804239677772 0.54097574599824494 0.53115852582756118 0.46252361475039233 0.45409735585341271 0.47185212595106235 0.46252841091025443 0.53927987938715705 0.541612163260215 0.61232948143800192 0.59381372362614804 0.61249681289636415 0.54155578985346309 0.59872150751674891 0.50832505199312084 0.54181033184798499 0.59221843876101421 0.50828744325494724 0.47142385990445845 0.54092204592618576 0.46638680725731402 0.5082237586573094 0.53539990457623088 0.53610874349023396 0.59372844142065451 0.6149058439112568 0.59203412493339347 0.53643862455072788 0.5083823618400749 0.61596820243404349 0.59411586748956347 0.66405221466955389 0.61318707476007717 0.66374794428448014 0.59416895995553709 0.6645268544203865 0.73683071429700464 0.76688451984993455 0.61576457024842046 0.66497598205824016 0.70469187114934073 0.76613365323673177 0.70603680593325913 0.66507593211591465 0.7058439754760143 0.76795299463042688 0.80674375907215945 0.76819340595129137 0.87708090702643293 0.80817734089658777 0.8078981017252741 0.87892255631117677 0.92191811305636229 0.76798922575021 0.83194843807530117 0.87772576038483663 0.73727266264172231 0.83059512333405405 0.7682605266489313 0.76588321643957735 0.83027588863916146 0.73716627992255801 0.7368731019705288 0.67432491549083529 0.76488198127850304 0.8987808537126194 0.83178287019714081 0.76557340502216809 0.83177971357475677 0.90095829623442802 0.98092671190899805 0.90082591001571088 1.0406725334589746 0.98392110959370283 1.0426959314301083 1.1073484808459726 0.98419836785138248 0.98317676370592078 1.1082342812607462 1.136784459175133 0.99037102482918393 0.98454219349060257 1.1334721676244801 0.8792841879189448 0.83213430494212071 0.98061723608273743 0.98366079769277903 0.98934168699808822 0.87862814933927202 0.87920623852207047 0.9880861166075311 0.92349780628552292 0.98957391704019637 1.0515192112365033 0.92341590631021431 1.0533909625810101 0.9896190081934394 1.136271576203935 1.13815535715204 1.1975365502289579 1.0532389811520027 1.2974004197169862 1.284519164716641 1.1371804004633657 1.1992988908394404 1.285137699917194 1.3607739101362366 1.2831808596445315 1.1994956301177453 1.1384043477156103 1.3629927181374302 1.4438048468772204 1.54302767377998 1.4420587528143802 1.3629971997939423 1.2852381042452858 1.6312793804159957 1.5455751118905274 1.4436414445202905 1.6476788236046067 1.6325607695752236 1.4422148132614769 1.4401015126928969 1.2857696446812923 1.2990094426773828 1.4427657376046557 1.2981210600627817 1.418995703580151 1.4439750543695808 1.4196946052938693 1.6432987565503039 1.6477539943791737 1.6476202151314356 1.4172086381831517 1.4193837429229754 1.4787184122384081 1.6444312660801241 1.4186993107248438 1.2911827209009217 1.4763667263224465 1.1630631254966564 1.2905565099898011 1.2325265124669629 1.2326004529082892 1.2917258475842415 1.415289262541785 1.2985652966735644 1.2324847659284204 1.4163623703644623 1.2320541419797388 1.2964577366074963 1.138048586068372 1.1091649480745764 1.230387936829811 1.1385335902255502 1.2310535134070184 1.109226565733175 1.1631680349759004 1.0425634108387176 1.1618166937255796 1.1090085681006268 1.1625760395268658 1.0420810291235076 1.1487951882019394 1.1480042322133706 1.0426693056127987 1.084855830414559 1.1636314209174485 1.1495280923801694 1.2882216736192578 1.1490120308811029 1.2352325753839901 1.2901710705875606 1.4305853597350817 1.291688151234323 1.235477341008052 1.1254688654692868 1.232103445732097 1.0851850545637933 1.1491708638067082 1.0848000574482353 1.2333031238296057 1.2347489370457296 1.1249672857257751 1.2392427421915448 1.2363834814832682 1.125550361786549 1.084668113457953 1.0843232608296209 1.1488030877033586 1.2375396022523251 1.2918829217849019 1.3933586190410732 1.2399372008261245 1.2396172347673686 1.1485998694297781 1.2903694532490777 1.4031636260864455 1.2354854211232056 1.2400730241471336 1.395071483405991 1.4060960322742075 1.2386467494123554 1.4076824183586405 1.3963622007472056 1.5849042449756239 1.3959187164219402 1.4744026564105119 1.5873780075219421 1.6013236739395054 1.4062671198303882 1.5885652431576138 1.4354013122768097 1.408002839695216 1.5984310447394026 1.4341877988280554 1.6017076493421258 1.5857389157782122 1.4064815397030888 1.4330574115749564 1.2337363692767893 1.2908337098525302 1.434309081360883 1.476308183271688 1.4353471429052687 1.5845020774790919 1.4785672258317648 1.586395512494942 1.6484224548211668 1.4779411593307581 1.6499243135535948 1.586698512558065 1.7841488338000162 2.0473092211237236 1.8689118549739536 1.787235780883462 1.8662984116115455 1.6493807744618967 1.7867188779179763 1.7808659834524005 1.940768695125684 1.7873349254896824 1.9425720792802987 2.0495217846305382 1.786473378578147 1.5867546033158391 1.60308049661506 1.7824739909037393 1.601755029783982 1.7795695635826687 1.785894254465374 1.6032189605073464 1.590116712979087 1.776567547304188 1.7792167670403463 1.5885697976768103 1.8122291541232745 1.9480582629926448 1.7806233264003259 1.8145090629920362 1.9496052948974265 1.9428379961286035 1.7797374088615894 1.9507144243543832 2.1639477121468618 1.9438179759132634 2.0545164227705679 1.9499870566464059 1.8139408171116427 1.95025471602983 2.0572961399429941 2.1671714880022659 2.057282625058833 2.3499781182681274 2.1692371987844581 2.3497137518544999 2.0528230841617265 2.1694191191021881 2.0528461313062731 1.9430301339552867 2.1672533445995894 2.0517062639896468 2.0559077769519334 1.8681390332950032 2.0571785112699819 2.0528982757435044 2.2259701770237514 2.2278585278170575 2.051866896383896 2.3516485564314138 2.2255768268884948 2.0561742639029057 2.2279061466802452 2.2264880857916136 2.2288545133128408 2.5160249313758754 2.2263428595567332 2.4695966004520478 2.1755797982282856 2.1737053851014112 1.9241180198981089 2.2231024227546063 2.0563650821850294 2.2207574029737267 1.9261778472278375 1.8691196862736152 2.0543030936567392 1.9265923780282206 1.7693868929663814 1.8689040757056008 1.92553880828835