<?xml version="1.0"?>
<VTKFile type="UnstructuredGrid" version="0.1" byte_order="LittleEndian">
<UnstructuredGrid>
<Piece NumberOfPoints="3240" NumberOfCells="1080">
<Points>
<DataArray type="Float64" NumberOfComponents="3" format="ascii">
0 0.022222222222172731 0 0.014261120859510951 0.01476364028082537 0 0 0 0 0.014261120859510951 0.01476364028082537 0 0.020408163265391192 0 0 0 0 0 0.014261120859510951 0.01476364028082537 0 0 0.022222222222172731 0 0.02085901357486063 0.03347530932066585 0 0.030393520779906098 0.016393210364487439 0 0.014261120859510951 0.01476364028082537 0 0.02085901357486063 0.03347530932066585 0 0.020408163265391192 0 0 0.030393520779906098 0.016393210364487439 0 0.040816326530782147 0 0 0.014261120859510951 0.01476364028082537 0 0.030393520779906098 0.016393210364487439 0 0.020408163265391192 0 0 0.051838137503398218 0.016097170421718029 0 0.040816326530782147 0 0 0.030393520779906098 0.016393210364487439 0 0.051838137503398218 0.016097170421718029 0 0.030393520779906098 0.016393210364487439 0 0.04395097424174637 0.032880702536447093 0 0.04395097424174637 0.032880702536447093 0 0.030393520779906098 0.016393210364487439 0 0.02085901357486063 0.03347530932066585 0 0.06014203299484646 0.028800515441748099 0 0.051838137503398218 0.016097170421718029 0 0.04395097424174637 0.032880702536447093 0 0.051838137503398218 0.016097170421718029 0 0.06014203299484646 0.028800515441748099 0 0.070237773272778581 0.018029566749463509 0 0.040816326530782147 0 0 0.051838137503398218 0.016097170421718029 0 0.061224489796173232 0 0 0.051838137503398218 0.016097170421718029 0 0.070237773272778581 0.018029566749463509 0 0.061224489796173232 0 0 0.055599947731468188 0.063390459096043877 0 0.05997194079032258 0.04512095697672458 0 0.038287656994838798 0.053045050008237282 0 0.05997194079032258 0.04512095697672458 0 0.04395097424174637 0.032880702536447093 0 0.038287656994838798 0.053045050008237282 0 0.05997194079032258 0.04512095697672458 0 0.06014203299484646 0.028800515441748099 0 0.04395097424174637 0.032880702536447093 0 0.02085901357486063 0.03347530932066585 0 0.038287656994838798 0.053045050008237282 0 0.04395097424174637 0.032880702536447093 0 0.016784005309402529 0.052942578394164941 0 0.024773355977313231 0.067081421531037314 0 0.038287656994838798 0.053045050008237282 0 0.02085901357486063 0.03347530932066585 0 0.016784005309402529 0.052942578394164941 0 0.038287656994838798 0.053045050008237282 0 0.02085901357486063 0.03347530932066585 0 0 0.022222222222172731 0 0 0.04444444444434547 0 0.016784005309402529 0.052942578394164941 0 0.02085901357486063 0.03347530932066585 0 0 0.04444444444434547 0 0 0.066666666666538782 0 0.024773355977313231 0.067081421531037314 0 0.016784005309402529 0.052942578394164941 0 0 0.066666666666538782 0 0.016784005309402529 0.052942578394164941 0 0 0.04444444444434547 0 0.024773355977313231 0.067081421531037314 0 0 0.066666666666538782 0 0.0207341866468383 0.086451824494522836 0 0.01494008276341045 0.1008555938909899 0 0.0207341866468383 0.086451824494522836 0 0 0.088888888888738943 0 0.0207341866468383 0.086451824494522836 0 0 0.066666666666538782 0 0 0.088888888888738943 0 0.0207341866468383 0.086451824494522836 0 0.044093637822741567 0.077061145711795925 0 0.024773355977313231 0.067081421531037314 0 0.01494008276341045 0.1008555938909899 0 0 0.1111111111109777 0 0.021796908541191849 0.1185794897852074 0 0.021796908541191849 0.1185794897852074 0 0 0.1111111111109777 0 0 0.13333333333325489 0 0 0.1111111111109777 0 0.01494008276341045 0.1008555938909899 0 0 0.088888888888738943 0 0.01494008276341045 0.1008555938909899 0 0.032717449973680472 0.098326472725607031 0 0.0207341866468383 0.086451824494522836 0 0.032717449973680472 0.098326472725607031 0 0.01494008276341045 0.1008555938909899 0 0.021796908541191849 0.1185794897852074 0 0.032717449973680472 0.098326472725607031 0 0.021796908541191849 0.1185794897852074 0 0.043801444738163997 0.1121383540808015 0 0.042554332387182259 0.13368213047820371 0 0.043801444738163997 0.1121383540808015 0 0.021796908541191849 0.1185794897852074 0 0.032717449973680472 0.098326472725607031 0 0.043801444738163997 0.1121383540808015 0 0.05587596540385175 0.095449649785454282 0 0.064375376681575586 0.1198167832100239 0 0.05587596540385175 0.095449649785454282 0 0.043801444738163997 0.1121383540808015 0 0.043801444738163997 0.1121383540808015 0 0.042554332387182259 0.13368213047820371 0 0.064375376681575586 0.1198167832100239 0 0.038287656994838798 0.053045050008237282 0 0.044093637822741567 0.077061145711795925 0 0.055599947731468188 0.063390459096043877 0 0.044093637822741567 0.077061145711795925 0 0.038287656994838798 0.053045050008237282 0 0.024773355977313231 0.067081421531037314 0 0.0207341866468383 0.086451824494522836 0 0.032717449973680472 0.098326472725607031 0 0.044093637822741567 0.077061145711795925 0 0.044093637822741567 0.077061145711795925 0 0.032717449973680472 0.098326472725607031 0 0.05587596540385175 0.095449649785454282 0 0.05587596540385175 0.095449649785454282 0 0.069428650838703046 0.078109012133597111 0 0.044093637822741567 0.077061145711795925 0 0.069428650838703046 0.078109012133597111 0 0.055599947731468188 0.063390459096043877 0 0.044093637822741567 0.077061145711795925 0 0.069428650838703046 0.078109012133597111 0 0.074122400072202652 0.058482788768393967 0 0.055599947731468188 0.063390459096043877 0 0.08347748713356852 0.068933876054200802 0 0.074122400072202652 0.058482788768393967 0 0.069428650838703046 0.078109012133597111 0 0.077413543502816748 0.10030203404452311 0 0.069428650838703046 0.078109012133597111 0 0.05587596540385175 0.095449649785454282 0 0.069428650838703046 0.078109012133597111 0 0.077413543502816748 0.10030203404452311 0 0.094169754915606196 0.082171266397786241 0 0.08347748713356852 0.068933876054200802 0 0.094169754915606196 0.082171266397786241 0 0.096189142707762201 0.05697243691702588 0 0.094169754915606196 0.082171266397786241 0 0.08347748713356852 0.068933876054200802 0 0.069428650838703046 0.078109012133597111 0 0.064375376681575586 0.1198167832100239 0 0.085089729736171488 0.119617281284406 0 0.077413543502816748 0.10030203404452311 0 0.064375376681575586 0.1198167832100239 0 0.077413543502816748 0.10030203404452311 0 0.05587596540385175 0.095449649785454282 0 0.077413543502816748 0.10030203404452311 0 0.098955340253080407 0.1056404584089907 0 0.094169754915606196 0.082171266397786241 0 0.098955340253080407 0.1056404584089907 0 0.077413543502816748 0.10030203404452311 0 0.085089729736171488 0.119617281284406 0 0.085089729736171488 0.119617281284406 0 0.1042644740555471 0.12799034491895131 0 0.098955340253080407 0.1056404584089907 0 0.1042644740555471 0.12799034491895131 0 0.1170604350569325 0.1121452492360058 0 0.098955340253080407 0.1056404584089907 0 0.098955340253080407 0.1056404584089907 0 0.11693983748236721 0.093447218298871995 0 0.094169754915606196 0.082171266397786241 0 0.098955340253080407 0.1056404584089907 0 0.1170604350569325 0.1121452492360058 0 0.11693983748236721 0.093447218298871995 0 0.11693983748236721 0.093447218298871995 0 0.1170604350569325 0.1121452492360058 0 0.132629020125939 0.10596507531517151 0 0.1273498583307075 0.1248993784176109 0 0.1170604350569325 0.1121452492360058 0 0.1042644740555471 0.12799034491895131 0 0.096189142707762201 0.05697243691702588 0 0.094169754915606196 0.082171266397786241 0 0.11837332598570451 0.071168852510895733 0 0.094169754915606196 0.082171266397786241 0 0.11693983748236721 0.093447218298871995 0 0.11837332598570451 0.071168852510895733 0 0.11693983748236721 0.093447218298871995 0 0.13780375874147449 0.08587856819508799 0 0.11837332598570451 0.071168852510895733 0 0.11837332598570451 0.071168852510895733 0 0.12111194339545479 0.04844499445275665 0 0.096189142707762201 0.05697243691702588 0 0.103555154504992 0.036186477933083078 0 0.096189142707762201 0.05697243691702588 0 0.12111194339545479 0.04844499445275665 0 0.12394502061713961 0.031222640348626381 0 0.103555154504992 0.036186477933083078 0 0.12111194339545479 0.04844499445275665 0 0.12394502061713961 0.031222640348626381 0 0.13485946140366309 0.018399825352228508 0 0.11299168747658229 0.018223577284824748 0 0.11299168747658229 0.018223577284824748 0 0.103555154504992 0.036186477933083078 0 0.12394502061713961 0.031222640348626381 0 0.1020408163269555 0 0 0.11299168747658229 0.018223577284824748 0 0.1224489795923465 0 0 0.1224489795923465 0 0 0.11299168747658229 0.018223577284824748 0 0.13485946140366309 0.018399825352228508 0 0.091646580262525548 0.018330347140998932 0 0.11299168747658229 0.018223577284824748 0 0.1020408163269555 0 0 0.103555154504992 0.036186477933083078 0 0.11299168747658229 0.018223577284824748 0 0.091646580262525548 0.018330347140998932 0 0.103555154504992 0.036186477933083078 0 0.091646580262525548 0.018330347140998932 0 0.079421396932280591 0.03754246087862223 0 0.091646580262525548 0.018330347140998932 0 0.070237773272778581 0.018029566749463509 0 0.079421396932280591 0.03754246087862223 0 0.081632653061564309 0 0 0.091646580262525548 0.018330347140998932 0 0.1020408163269555 0 0 0.091646580262525548 0.018330347140998932 0 0.081632653061564309 0 0 0.070237773272778581 0.018029566749463509 0 0.070237773272778581 0.018029566749463509 0 0.081632653061564309 0 0 0.061224489796173232 0 0 0.079421396932280591 0.03754246087862223 0 0.070237773272778581 0.018029566749463509 0 0.06014203299484646 0.028800515441748099 0 0.06014203299484646 0.028800515441748099 0 0.05997194079032258 0.04512095697672458 0 0.079421396932280591 0.03754246087862223 0 0.079421396932280591 0.03754246087862223 0 0.05997194079032258 0.04512095697672458 0 0.074122400072202652 0.058482788768393967 0 0.074122400072202652 0.058482788768393967 0 0.05997194079032258 0.04512095697672458 0 0.055599947731468188 0.063390459096043877 0 0.074122400072202652 0.058482788768393967 0 0.08347748713356852 0.068933876054200802 0 0.096189142707762201 0.05697243691702588 0 0.074122400072202652 0.058482788
[...]
<PointData Scalars="A_conc," Vectors="" Tensors="">
<DataArray type="Float64" Name="A_conc" format="ascii">
0.0009078472989917292 0.0010423098432710816 0.00090678211143655678 0.0010454605218962719 0.0011068623198125689 0.0009047304919722807 0.0010456332029393698 0.00090529943689215302 0.0011141924712302991 0.0012253543180239697 0.0010466434935873269 0.0011180978620775051 0.0011107130454611669 0.0012296084601985337 0.0013559682925903408 0.0010468096414882472 0.0012259035819693993 0.0011113441841961989 0.0015155005960998942 0.0013622882769359619 0.0012294815143200554 0.0015167850270120776 0.0012282715351855209 0.0014070171413778456 0.0013983033943087504 0.0012293631220397056 0.0011176576617289583 0.0016501139083231603 0.0015238563460213583 0.0014082418119100483 0.0015243576397826657 0.0016545600069998872 0.0018236836162957458 0.0013619215415428274 0.0015234004587527271 0.0016634895225697607 0.0015237642534133486 0.001825545126612639 0.001671000685979761 0.0015800412689594644 0.0016455942728780891 0.0013263594836685241 0.0016391620117567527 0.0014085449159547516 0.0013302015011865907 0.0016494117825542427 0.0016542831424138529 0.001406154058106942 0.0011152221546747651 0.0013275605149973564 0.0014016572669598283 0.0010729267632573248 0.0011614106211333831 0.0013217633763483781 0.0011180176079509661 0.0010731335113185214 0.0013195669279973353 0.0011072244498798738 0.00090829649925056283 0.00090755495270571974 0.0010712191454959456 0.0011141126728819936 0.00090457121468766268 0.00090460890956550364 0.0011545938063821778 0.0010712244487070949 0.00090721627527203333 0.0010667619452780909 0.00090739721819906244 0.001156203740110943 0.00090367286469213669 0.0011142639875926406 0.0010519297169177052 0.0011111960281831505 0.00090496096108957935 0.0011070446014627882 0.00090745922152611006 0.00090827746798492477 0.0011177434360916737 0.0013951853871884685 0.0011623386198459686 0.0010518840653397131 0.00090507065466456801 0.0011237630021463335 0.0011166298804421724 0.00090793535346059794 0.0009076593692233342 0.00090724919928506854 0.0010483923744831786 0.0009071054427991506 0.0010533734340522076 0.0012516785321185964 0.0011155665892442757 0.0012527255879049987 0.0010530647594115103 0.0011283413460657962 0.0012571578900854659 0.001127669649479705 0.0013970591563968627 0.001384896075854129 0.0014015089855852153 0.0011242576610365424 0.0012574060855969325 0.0014042522187719727 0.0015767254398035774 0.0017195575599542742 0.0015853634043162073 0.0014038020983621873 0.0014068062988022195 0.0013892949763757757 0.0017099999967222623 0.0013304516976879786 0.0014100237509899311 0.0015752649421705066 0.0014054906253144878 0.0013291456083628446 0.0011601023168393094 0.001114471569141808 0.001257121001636934 0.0014030059793262851 0.0014096438259641971 0.0012570715631125432 0.001574495200523328 0.0015841944154522654 0.0018025712190799714 0.0014097892413006026 0.0018018588603092615 0.0015805416909883236 0.0014086838817569253 0.0018143281852590445 0.0018986884303846218 0.0015795380575994603 0.0020849821836364819 0.0019045221005716281 0.0018165029937579709 0.0019574312448416586 0.0018159344610409163 0.0015831262127844509 0.0018174404704969962 0.0019659384176988043 0.0023046653992414255 0.0020890993666038598 0.0023260285578137752 0.0023714533480667342 0.0023130708694942552 0.0020882056362633962 0.0018133645453995849 0.0017244225692041931 0.0021142650306993221 0.001966207729530618 0.0017262676762102814 0.0019545897195855197 0.0015860697924831631 0.001962391257663898 0.0024307743793043931 0.0023223953090297832 0.0024238765527977804 0.0019678659231225091 0.0021235507038174805 0.0021208594112388985 0.0025659952496383171 0.0024381572431943148 0.0025742010724380559 0.0029097035251471528 0.0024408705847714395 0.0024406049268526683 0.0028954871983288876 0.0023266840980243979 0.002434343880270977 0.0029196897915568566 0.0029137683225987899 0.0029208957815666579 0.0029270846513329979 0.0034002063570718185 0.0032217317971032873 0.0029212604081036574 0.0025716860039867576 0.002374663691987819 0.0023279041978567657 0.0029313935718417224 0.0023154413699419257 0.0029120656426430218 0.0029511660102360835 0.0029229817874886241 0.0035684732626551923 0.0029643788741931325 0.0029560939543225666 0.0030306287602231145 0.0023627362000231875 0.0025549523870079366 0.0023734731304039967 0.0030153667600525953 0.0031256342608518427 0.0025494680906622464 0.0030388626603654414 0.003130184914786267 0.0034768092270671949 0.0028086935531144537 0.0028082957851963417 0.0025550816766441212 0.0031160541147394615 0.0025122242624988481 0.0028089307179421899 0.0030684389024896847 0.0030823115491407892 0.0028095637226042791 0.003475411818422848 0.0022691831109481874 0.0027945342566878281 0.0025129110103906138 0.002554254763814435 0.0027946731923682235 0.0022672255889932273 0.0025377636641558451 0.0022674361455219667 0.0020060780955123468 0.0022553810757506634 0.0018313347504445184 0.0020073312422176407 0.0020488101980083201 0.0022693755186518321 0.0025012724038130942 0.0022581132316250208 0.0020486716118187985 0.0018314019184717729 0.0018321746201496068 0.002038897431484713 0.001670894515247514 0.0020008072126411823 0.0018312394669542798 0.0016541319912245999 0.0016576877978264357 0.0016526197746653713 0.0019898623964851379 0.002000507781120312 0.0016492436563808946 0.0019020030471935867 0.0018931440547715688 0.0016519394250100222 0.0015831435132601425 0.0019028818095789303 0.0020904807651720746 0.0023590940448906441 0.0019042566692646752 0.0023544446711414122 0.0020070787919771317 0.0020025708096186091 0.0023696157232662865 0.002540962705114573 0.0011077067830254249 0.0010427723365455015 0.00090558212165490668 0.001263663901476642 0.0011111505090615583 0.0013583072525368708 0.0016659323510768793 0.001555872626335276 0.0013625217177648963 0.001556869001243112 0.0017251207991065742 0.0014923847014762604 0.001495419370718367 0.0014925920552497157 0.0017192448323376363 0.0014896986522747997 0.0017293802312242693 0.0017251260871341404 0.0014930217930102052 0.0012938956333592656 0.0014902917568201503 0.0014847782595896815 0.0012965185606686176 0.0012648766803098287 0.0015511564470429443 0.0014896714370624359 0.0012613218329381537 0.0015473704135431285 0.0012646480858534189 0.0013641201793146483 0.0012556985691324885 0.0010767293627359173 0.0010444437869164245 0.0012585887401171613 0.0010440011761443154 0.0011122486045874831 0.00090554867809822682 0.0010431293451480931 0.00107426164103689 0.001039755163099646 0.00090774359323691079 0.00090723513473058904 0.00090762003176806142 0.0010702033107565134 0.00090768966910659808 0.0012625811838929265 0.0012928995142380724 0.001074515499336629 0.0010779727982127524 0.0012876803728619976 0.0011023083397079633 0.00090485845015011502 0.0010757435292422881 0.0010990242446764845 0.00090749057577157685 0.0010936369180508526 0.00090746763594526641 0.0011005335791162004 0.0011244458883476617 0.00090409532116972628 0.001128604825962679 0.001103471089180876 0.0013742004313634752 0.0014910761968571929 0.0013879793042577341 0.0012956099535373798 0.0010994171672701796 0.001293859329158157 0.0013818844792721852 0.0013878889642431889 0.0014946103157706273 0.0016506712544489821 0.0016567266077427941 0.0014934629693202802 0.0017237034679889768 0.0013837195449572142 0.0016545013224169877 0.0017216866176383871 0.0016577105065102439 0.0020170579226998406 0.0017280728209657632 0.0021176605247693794 0.0017243260543735165 0.0020281746942559459 0.0017232451283297669 0.0020716681273138474 0.002028046388188853 0.0020171695794655954 0.0016577771701535152 0.0017269463367234395 0.0020318611648241754 0.0020773943155798129 0.0024968685393377136 0.0021259766193798151 0.0020318668782813615 0.0025479607895504994 0.0025744845144477727 0.0025178835241870122 0.0030020661820309028 0.0025097144118537444 0.002563285821170162 0.0020227851842567774 0.0032254794847286173 0.0025674817983552191 0.0030158646130398108 0.0025090017921054709 0.0032231722165479999 0.00301423262261753 0.0025139560247419254 0.0020686045087746976 0.0026054649216613983 0.0032317347111223346 0.0026063744901738337 0.003296853302386357 0.0032035422908312252 0.002520412716027585 0.0026169309984661626 0.0026174916326416734 0.0027385860535411874 0.0032773131711265327 0.0027303924823658095 0.0026143254759237386 0.0022789690138211526 0.0020750917206038152 0.0022809135985178198 0.0025973478329695326 0.0020750949648284506 0.0018787582758766758 0.0022716378112846267 0.0017323922179618169 0.0020605052863470401 0.0017279804902415586 0.0020684907120758315 0.0017302519519736854 0.0018792618447495918 0.0018722590787751021 0.0017297726180359855 0.0015558769565967886 0.0015572891430670453 0.0016729641598872541 0.0018706483622261132 0.002042279599189028 0.0018788417621404831 0.0016716462399315615 0.0020513624426543617 0.0022707821331211533 0.0018795859404643898 0.0022809627746854561 0.0020505653682354251 0.0025039341252004669 0.0027255145722627667 0.0022810890681569645 0.0025154365079744943 0.0030695585792213467 0.0027353543850510247 0.0025165942216627572 0.002733391051204011 0.0030846464797419861 0.0032999046236372874 0.0037623544075371441 0.0033107344547868398 0.003086530440990283 0.0041083138199664053 0.0033068668367780773 0.0037815286238503756 0.0041286495979470502 0.003785425168577319 0.0046179480236128107 0.0048751543328320332 0.0046440717229723934 0.0056552206209125374 0.0048631590839766526 0.0041261653463096426 0.0046404279773655651 0.0056856834642119505 0.0058476565683050329 0.0048658178757195157 0.0048787013289437013 0.0058228559662977294 0.0048996454587592409 0.0058523218608488086 0.0060699228240218344 0.0048853925300116558 0.004866202689022458 0.0048862128001556839 0.0040428922414677054 0.0041333831010335088 0.0048437591113832338 0.0040554011821158833 0.0040434198816416463 0.0032988353911928298 0.0041174344691500848 0.0032422802188091554 0.003311076019521803 0.0040146052571106722 0.0040539328240163834 0.0048542180632772658 0.0039537525743718396 0.0039432238267636914 0.0032287567958840572 0.0040385413990847727 0.0044161015025747869 0.0036600074343397489 0.0039492098975517148 0.0039339443008668505 0.0036573575604754742 0.0032377859961062664 0.0032404938582381699 0.0036420271663424168 0.0030197923614795541 0.0036404216976884916 0.0032411944413063983 0.0030201893866356206 0.0037698894129647156 0.0032382508691936531 0.003658034598557092 0.0045331501599133097 0.0037776458666720033 0.0036617462707404908 0.0036467884150986544 0.0044309719855751967 0.0045595519850240704 0.0052735325456778701 0.0045766620357557356 0.0044417440407118185 0.0039463401346022742 0.0048769030981123136 0.0044350967779702424 0.0044358396483405666 0.0048986173779835794 0.0052843872337479348 0.0060522324827691478 0.00530157909831761 0.0048996899618275096 0.0053024720362220825 0.0065264721302140194 0.0057781624280326864 0.0045680155031973761 0.0052974818866345736 0.0057488714272026543 0.0060935442231229561 0.0073533047242208757 0.0065680316590245973 0.0052951118897361276 0.0060876869137737565 0.0065389426339744015 0.0080446827884707982 0.0065635216099304595 0.0073865550005848902 0.0087659819920344311 0.008081945401900369 0.0073893665437288723 0.0065661851665691461 0.0080374080628646469 0.0071883076240302178 0.0080809504883967882 0.010070216707891875 0.0088800007009180882 0.01013967032483256 0.011983562996059365 0.010980851250723473 0.0087857808166846435 0.010572226054012784 0.010131600806308438 0.010603908720024344 0.011884042561538558 0.010144478253554223 0.0080830635392795894 0.0087960295135996302 0.010072180278950522 0.0084422365007227381 0.0087796451144717437 0.0073840004020970873 0.0088041851015711083 0.0084524433979442804 0.010490920634599027 0.0095297705835275161 0.010536926805071831 0.0084344240344325586 0.010585924683096227 0.0095311601695666839 0.01204178688633681 0.0094934822216252539 0.0084449859110475225 0.0080916702639527577 0.0084218758374234835 0.0070673653454864918 0.0080824522951662633 0.0069843435393479826 0.008055086472755062 0.007082948879492134 0.0070805488612256081 0.0084048864040339021 0.0073955266689085027 0.0060838414703371004 0.0070697551241809767 0.0073705184174319097 0.0060947426921289906 0.0058655861192136996 0.0070365045486535461 0.0069684648864716649 0.0070626904754032185 0.005849403387975678 0.0069293719998917997 0.0058646338751103411 0.0056954483945845201 0.0080757341564816516 0.0069693755066494523 0.008527647586026383 0.0094973170514553503 0.0080868641772354928 0.0085618344144078665 0.0095278917652045457 0.010496051949215332 0.012055194148989843 0.010448205544431986 0.0095270434276133655 0.0085559990601402833 0.0052879179425251426 0.004610130889514695 0.0044535822650051656 0.0053064166954711368 0.005199148254622578 0.0046036011360055225 0.0053088593663374699 0.0044397423896182188 0.0054496495968978627 0.0054680798750747096 0.0063933682477168765 0.0053205246956358936 0.0053155352728488231 0.0060462014645016361 0.0052046444832895286 0.0051920371499507055 0.0060645381231448185 0.0064363534583280323 0.0064217000870749408 0.0056871992363441712 0.0052032564165766983 0.0046347176861844513 0.0052014483637589318 0.0056618996414825448 0.0046386036222079421 0.0043994951152712515 0.0051845932309390608 0.004608429278583669 0.0051787947885791018 0.0044003438275809362 0.0034959649794137414 0.0038374406938061225 0.0043677121951140327 0.0043647650494670724 0.0037810459105606128 0.0034970583404621094 0.0037752730304197978 0.0043928604993552639 0.0046203625254795048 0.0030801302717919344 0.0034946042837743089 0.003764806703402858 0.0034954470455856802 0.003129716524555729 0.0038234242887894227 0.0031364475022782816 0.0030454298821427903 0.0037982204686806296 0.0038338722592881143 0.0045936887953331416 0.0043942117906103223 0.0045966890895454511 0.0038330188364045655 0.0044467582781981567 0.0037561866657606262 0.0044292900986975629 0.0038407205258073683 0.0030334904384367203 0.003744424250425967 0.0038244802903629983 0.0037154730577978741 0.0030454124049028634 0.0029664250580354219 0.0035923706730012087 0.003738254145487791 0.0029534044909442884 0.0035907125100326865 0.004218813389566734 0.0045315224648736808 0.0044458116828253883 0.0037447062987503647 0.0045419431482042914 0.0045082588616807053 0.0037554844750022592 0.0036014989368719028 0.002922196443702705 0.0032410846325844609 0.0034097569847180661 0.0034173285242787947 0.0032428178056021829 0.003764066033805477 0.0035844865412781516 0.0029137650233963656 0.0034139956745777495 0.0041927369064332712 0.003597745496580664 0.0034191929412334516 0.0034150734399265963 0.003775610377608036 0.0042037299539138453 0.0037745579080760345 0.0045610265822573874 0.004222678900163852 0.0042243560811049416 0.0045782121855040513 0.0051669555964117698 0.0045540645646393275 0.0042244850972513954 0.0051645145461011784 0.0051936541870218848 0.0057799322061256944 0.0064754073182721082 0.0064672747431561081 0.0055681937535187456 0.0051984345985004983 0.0057437964119889766 0.0051925114559405374 0.0045742922620773761 0.0045551486500066598 0.0054231869271847231 0.004454754225375719 0.0051921058488721685 0.0055462052739597796 0.0045491723725900974 0.005455633326249148 0.0045418513784443873 0.0055559066058907761 0.006430474443247204 0.0054516726487796605 0.006816241607951125 0.0054689431225760192 0.0055741381087524881 0.0067764715774922164 0.0055580845167481239 0.0065088737557236756 0.0068280167557059545 0.0079214656231034221 0.008830747419322554 0.0068415347443655482 0.007882152143963133 0.0068529231211391217 0.0065187738609341905 0.0064401949703257882 0.0068449316521095611 0.0081627582731821236 0.0088372786061905635 0.0082312682880402166 0.0068252825217560301 0.0065625500559655103 0.0071524644115208303 0.0057735365765287788 0.0065121349086566874 0.005777903838324527 0.0071547603227200742 0.0071914782754667304 0.0078941646397607847 0.0065138004705727719 0.0088418679615745351 0.0079280511756496565 0.0071910714425596359 0.0080772965214207394 0.0088361926689144738 0.0071844056670597491 0.0079250791698373107 0.0088849700462835923 0.0096252888262107397 0.011602312342222372 0.010989687553029547 0.009653730703176969 0.010980508131934403 0.011604420658749472 0.0096559625228190039 0.01013223093565218 0.010934291676790605 0.0088725924479771991 0.010917260736862625 0.009665542473854382 0.0088885916299002079 0.010252599930131051 0.0082480093859665371 0.0088920656646161323 0.0088971252242681462 0.0079239713838090645 0.0096246405582438941 0.0096646908552881512 0.010926876779891116 0.0089011767811934053 0.01094671757031887 0.010318433648355056 0.0088798778475257089 0.010332937868820518 0.011332897183535414 0.0094410164233285354 0.0094130884264869968 0.011356312299363571 0.011811406189609784 0.0072874176545846712 0.0082382631029902561 0.009363575681126883 0.0082344372552500267 0.010281598222428204 0.0094347461182097796 0.0081895218628302898 0.0072881132500667717 0.0064247542830390622 0.0060653823786950348 0.0053062066363258904 0.0064113444154502153 0.0064315354997880967 0.0072561220510479535 0.0060711319713221204 0.0056828035630834047 0.0064579967803846013 0.0069465878775998779 0.0060731056418284182 0.007262898322449779 0.0064640080126040535 0.006458104381271282 0.007291674788905197 0.0079048119390947857 0.0069697771604220176 0.0079312476064328282 0.0085203453425406282 0.0064628716197221671 0.0078905781352304385 0.0069763898537686872 0.007937580846403303 0.0094847744690960394 0.0085567340333310773 0.0094282333741077546 0.0095165824246888266 0.0079234655590972956 0.0079394632269170675 0.0072953829791915044 0.0093562331753531854 0.0095420885658199991 0.009449719017414579 0.011723666903049539 0.010494067955827639 0.0095215811856739444 0.011798260926543057 0.0095208823806678909 0.010446161310200226 0.0085545242241855824 0.011849703664168531 0.012818206395958895 0.010489302671968397 0.014570495305758208 0.014348187906463129 0.011818539243307455 0.014306787740290431 0.012874284695892541 0.011856368682778699 0.012867513836832869 0.014366080826644752 0.015715288947386014 0.010328626112062008 0.012225963221387188 0.011377670056358813 0.013401371971154832 0.011383649625614492 0.012263732901134316 0.011381352844927679 0.013380819691579112 0.011859420130145499 0.013429776732121418 0.014541425737001245 0.011844982836956678 0.014605995968509247 0.013442287303615266 0.016756754647612452 0.012260170157968667 0.014450697046676978 0.013445019764730833 0.013447052034006469 0.014486950120589566 0.016722308295735858 0.016834313333141837 0.014467729644733463 0.017937045625863842 0.017293256488201656 0.014590260593602642 0.016843880304111315 0.017335010690835949 0.016867778101703937 0.021309584051399915 0.021474697090098541 0.02147358374335696 0.016772859580386924 0.016856927057778196 0.018018851952985235 0.021347736813906892 0.015785768328678992 0.01733036159764029 0.019263599576912635 0.017270596861053884 0.015786666123419113 0.014368621123087282 0.017204355251277195 0.014386756386850857 0.014620211758104896 0.021471260046885959 0.021168072306851655 0.017268342835982293 0.021116718893548495 0.019355624472516687 0.017323752176256608 0.023621925528725385 0.019359333210048971 0.021206224840065003 0.024911744829358637 0.023735501815687701 0.021196551466229754 0.028869877341585935 0.029082238046204915 0.024928626384325792 0.024975055974907744 0.028927036097731024 0.023753139694592668 0.024938623770963359 0.02150845013628128 0.027707303255825981 0.02789438688221026 0.028849287584922615 0.024952424080350501 0.021230072646718254 0.021548940235063013 0.0248426098639392 0.02415957336838382 0.021569863991166029 0.021571045764828788 0.026412223446341025 0.024197800669337168 0.021546386687836271 0.024205346299057372 0.026534903009019443 0.027890301791775481 0.02153328651826121 0.024221633897676207 0.027672283254786503 0.031197423878754623 0.035484605461783218 0.027918577863423708 0.034286201319062355 0.027808075575176259 0.035610572601132706 0.026544530904312028 0.031094681045741444 0.027940117126637503 0.035791317337992824 0.035861236246423046 0.044095488593015597 0.035739976638743669 0.031181557858906108 0.03580757704839295 0.035786631245294298 0.042713571125663131 0