<?xml version="1.0"?>
<VTKFile type="UnstructuredGrid" version="0.1" byte_order="LittleEndian">
<UnstructuredGrid>
<Piece NumberOfPoints="3240" NumberOfCells="1080">
<Points>
<DataArray type="Float64" NumberOfComponents="3" format="ascii">
0 0.022222222222172731 0 0.014261120859510951 0.01476364028082537 0 0 0 0 0.014261120859510951 0.01476364028082537 0 0.020408163265391192 0 0 0 0 0 0.014261120859510951 0.01476364028082537 0 0.030393520779906098 0.016393210364487439 0 0.020408163265391192 0 0 0.020408163265391192 0 0 0.030393520779906098 0.016393210364487439 0 0.040816326530782147 0 0 0.030393520779906098 0.016393210364487439 0 0.014261120859510951 0.01476364028082537 0 0.02085901357486063 0.03347530932066585 0 0.014261120859510951 0.01476364028082537 0 0 0.022222222222172731 0 0.02085901357486063 0.03347530932066585 0 0.016784005309402529 0.052942578394164941 0 0.02085901357486063 0.03347530932066585 0 0 0.04444444444434547 0 0.02085901357486063 0.03347530932066585 0 0 0.022222222222172731 0 0 0.04444444444434547 0 0 0.066666666666538782 0 0.024773355977313231 0.067081421531037314 0 0.016784005309402529 0.052942578394164941 0 0 0.066666666666538782 0 0.016784005309402529 0.052942578394164941 0 0 0.04444444444434547 0 0.016784005309402529 0.052942578394164941 0 0.024773355977313231 0.067081421531037314 0 0.038287656994838798 0.053045050008237282 0 0.02085901357486063 0.03347530932066585 0 0.016784005309402529 0.052942578394164941 0 0.038287656994838798 0.053045050008237282 0 0.02085901357486063 0.03347530932066585 0 0.038287656994838798 0.053045050008237282 0 0.04395097424174637 0.032880702536447093 0 0.055599947731468188 0.063390459096043877 0 0.05997194079032258 0.04512095697672458 0 0.038287656994838798 0.053045050008237282 0 0.05997194079032258 0.04512095697672458 0 0.06014203299484646 0.028800515441748099 0 0.04395097424174637 0.032880702536447093 0 0.05997194079032258 0.04512095697672458 0 0.04395097424174637 0.032880702536447093 0 0.038287656994838798 0.053045050008237282 0 0.051838137503398218 0.016097170421718029 0 0.06014203299484646 0.028800515441748099 0 0.070237773272778581 0.018029566749463509 0 0.06014203299484646 0.028800515441748099 0 0.051838137503398218 0.016097170421718029 0 0.04395097424174637 0.032880702536447093 0 0.04395097424174637 0.032880702536447093 0 0.030393520779906098 0.016393210364487439 0 0.02085901357486063 0.03347530932066585 0 0.051838137503398218 0.016097170421718029 0 0.030393520779906098 0.016393210364487439 0 0.04395097424174637 0.032880702536447093 0 0.051838137503398218 0.016097170421718029 0 0.040816326530782147 0 0 0.030393520779906098 0.016393210364487439 0 0.051838137503398218 0.016097170421718029 0 0.070237773272778581 0.018029566749463509 0 0.061224489796173232 0 0 0.040816326530782147 0 0 0.051838137503398218 0.016097170421718029 0 0.061224489796173232 0 0 0.070237773272778581 0.018029566749463509 0 0.081632653061564309 0 0 0.061224489796173232 0 0 0.079421396932280591 0.03754246087862223 0 0.070237773272778581 0.018029566749463509 0 0.06014203299484646 0.028800515441748099 0 0.091646580262525548 0.018330347140998932 0 0.070237773272778581 0.018029566749463509 0 0.079421396932280591 0.03754246087862223 0 0.103555154504992 0.036186477933083078 0 0.091646580262525548 0.018330347140998932 0 0.079421396932280591 0.03754246087862223 0 0.091646580262525548 0.018330347140998932 0 0.081632653061564309 0 0 0.070237773272778581 0.018029566749463509 0 0.081632653061564309 0 0 0.091646580262525548 0.018330347140998932 0 0.1020408163269555 0 0 0.091646580262525548 0.018330347140998932 0 0.11299168747658229 0.018223577284824748 0 0.1020408163269555 0 0 0.1020408163269555 0 0 0.11299168747658229 0.018223577284824748 0 0.1224489795923465 0 0 0.1224489795923465 0 0 0.11299168747658229 0.018223577284824748 0 0.13485946140366309 0.018399825352228508 0 0.12394502061713961 0.031222640348626381 0 0.13485946140366309 0.018399825352228508 0 0.11299168747658229 0.018223577284824748 0 0.11299168747658229 0.018223577284824748 0 0.103555154504992 0.036186477933083078 0 0.12394502061713961 0.031222640348626381 0 0.103555154504992 0.036186477933083078 0 0.11299168747658229 0.018223577284824748 0 0.091646580262525548 0.018330347140998932 0 0.12394502061713961 0.031222640348626381 0 0.103555154504992 0.036186477933083078 0 0.12111194339545479 0.04844499445275665 0 0.11837332598570451 0.071168852510895733 0 0.12111194339545479 0.04844499445275665 0 0.096189142707762201 0.05697243691702588 0 0.103555154504992 0.036186477933083078 0 0.096189142707762201 0.05697243691702588 0 0.12111194339545479 0.04844499445275665 0 0.074122400072202652 0.058482788768393967 0 0.096189142707762201 0.05697243691702588 0 0.079421396932280591 0.03754246087862223 0 0.074122400072202652 0.058482788768393967 0 0.08347748713356852 0.068933876054200802 0 0.096189142707762201 0.05697243691702588 0 0.079421396932280591 0.03754246087862223 0 0.096189142707762201 0.05697243691702588 0 0.103555154504992 0.036186477933083078 0 0.06014203299484646 0.028800515441748099 0 0.05997194079032258 0.04512095697672458 0 0.079421396932280591 0.03754246087862223 0 0.079421396932280591 0.03754246087862223 0 0.05997194079032258 0.04512095697672458 0 0.074122400072202652 0.058482788768393967 0 0.074122400072202652 0.058482788768393967 0 0.05997194079032258 0.04512095697672458 0 0.055599947731468188 0.063390459096043877 0 0.069428650838703046 0.078109012133597111 0 0.074122400072202652 0.058482788768393967 0 0.055599947731468188 0.063390459096043877 0 0.08347748713356852 0.068933876054200802 0 0.074122400072202652 0.058482788768393967 0 0.069428650838703046 0.078109012133597111 0 0.077413543502816748 0.10030203404452311 0 0.069428650838703046 0.078109012133597111 0 0.05587596540385175 0.095449649785454282 0 0.069428650838703046 0.078109012133597111 0 0.077413543502816748 0.10030203404452311 0 0.094169754915606196 0.082171266397786241 0 0.08347748713356852 0.068933876054200802 0 0.094169754915606196 0.082171266397786241 0 0.096189142707762201 0.05697243691702588 0 0.094169754915606196 0.082171266397786241 0 0.08347748713356852 0.068933876054200802 0 0.069428650838703046 0.078109012133597111 0 0.096189142707762201 0.05697243691702588 0 0.094169754915606196 0.082171266397786241 0 0.11837332598570451 0.071168852510895733 0 0.11693983748236721 0.093447218298871995 0 0.13780375874147449 0.08587856819508799 0 0.11837332598570451 0.071168852510895733 0 0.094169754915606196 0.082171266397786241 0 0.11693983748236721 0.093447218298871995 0 0.11837332598570451 0.071168852510895733 0 0.098955340253080407 0.1056404584089907 0 0.11693983748236721 0.093447218298871995 0 0.094169754915606196 0.082171266397786241 0 0.11693983748236721 0.093447218298871995 0 0.1170604350569325 0.1121452492360058 0 0.132629020125939 0.10596507531517151 0 0.098955340253080407 0.1056404584089907 0 0.1170604350569325 0.1121452492360058 0 0.11693983748236721 0.093447218298871995 0 0.1273498583307075 0.1248993784176109 0 0.1170604350569325 0.1121452492360058 0 0.1042644740555471 0.12799034491895131 0 0.085089729736171488 0.119617281284406 0 0.1042644740555471 0.12799034491895131 0 0.098955340253080407 0.1056404584089907 0 0.1042644740555471 0.12799034491895131 0 0.1170604350569325 0.1121452492360058 0 0.098955340253080407 0.1056404584089907 0 0.077413543502816748 0.10030203404452311 0 0.098955340253080407 0.1056404584089907 0 0.094169754915606196 0.082171266397786241 0 0.098955340253080407 0.1056404584089907 0 0.077413543502816748 0.10030203404452311 0 0.085089729736171488 0.119617281284406 0 0.064375376681575586 0.1198167832100239 0 0.077413543502816748 0.10030203404452311 0 0.05587596540385175 0.095449649785454282 0 0.064375376681575586 0.1198167832100239 0 0.085089729736171488 0.119617281284406 0 0.077413543502816748 0.10030203404452311 0 0.043801444738163997 0.1121383540808015 0 0.042554332387182259 0.13368213047820371 0 0.064375376681575586 0.1198167832100239 0 0.042554332387182259 0.13368213047820371 0 0.043801444738163997 0.1121383540808015 0 0.021796908541191849 0.1185794897852074 0 0.032717449973680472 0.098326472725607031 0 0.021796908541191849 0.1185794897852074 0 0.043801444738163997 0.1121383540808015 0 0.032717449973680472 0.098326472725607031 0 0.043801444738163997 0.1121383540808015 0 0.05587596540385175 0.095449649785454282 0 0.064375376681575586 0.1198167832100239 0 0.05587596540385175 0.095449649785454282 0 0.043801444738163997 0.1121383540808015 0 0.05587596540385175 0.095449649785454282 0 0.069428650838703046 0.078109012133597111 0 0.044093637822741567 0.077061145711795925 0 0.069428650838703046 0.078109012133597111 0 0.055599947731468188 0.063390459096043877 0 0.044093637822741567 0.077061145711795925 0 0.038287656994838798 0.053045050008237282 0 0.044093637822741567 0.077061145711795925 0 0.055599947731468188 0.063390459096043877 0 0.044093637822741567 0.077061145711795925 0 0.038287656994838798 0.053045050008237282 0 0.024773355977313231 0.067081421531037314 0 0.044093637822741567 0.077061145711795925 0 0.032717449973680472 0.098326472725607031 0 0.05587596540385175 0.095449649785454282 0 0.0207341866468383 0.086451824494522836 0 0.032717449973680472 0.098326472725607031 0 0.044093637822741567 0.077061145711795925 0 0.0207341866468383 0.086451824494522836 0 0.044093637822741567 0.077061145711795925 0 0.024773355977313231 0.067081421531037314 0 0.024773355977313231 0.067081421531037314 0 0 0.066666666666538782 0 0.0207341866468383 0.086451824494522836 0 0.0207341866468383 0.086451824494522836 0 0 0.066666666666538782 0 0 0.088888888888738943 0 0.01494008276341045 0.1008555938909899 0 0.0207341866468383 0.086451824494522836 0 0 0.088888888888738943 0 0 0.1111111111109777 0 0.01494008276341045 0.1008555938909899 0 0 0.088888888888738943 0 0.032717449973680472 0.098326472725607031 0 0.01494008276341045 0.1008555938909899 0 0.021796908541191849 0.1185794897852074 0 0.01494008276341045 0.1008555938909899 0 0.032717449973680472 0.098326472725607031 0 0.0207341866
[...]
<PointData Scalars="A_conc," Vectors="" Tensors="">
<DataArray type="Float64" Name="A_conc" format="ascii">
0.52970032399738054 0.57820543935010271 0.52948919517182269 0.57885307566213073 0.60048536465889146 0.5290807206289142 0.57912536864138164 0.6393236475315397 0.60138461695166734 0.60127497384742756 0.64001943131277672 0.68089999108707511 0.63922477366441144 0.57909655751813904 0.60340317377977049 0.57888791351773916 0.52919687017847739 0.60262710361212812 0.58784272605367505 0.60262521286982462 0.52905773214441854 0.60120933329213211 0.52980228813111685 0.52966299371210013 0.5290699042176078 0.6166430460876493 0.58783453964118315 0.52958503362898213 0.58692291084936965 0.52961277871207735 0.58818408313152126 0.61799258566036008 0.67030832906783933 0.60340057653583901 0.58823017383032916 0.66991000359237884 0.60288786958954488 0.67139275924786557 0.69455071813008418 0.74658582198740098 0.76589427222561102 0.67124865123032129 0.76651528949279646 0.76761485753951086 0.69539281075965209 0.76482867054091885 0.69577086509974584 0.6718776428679224 0.73012723854211958 0.7676854661133683 0.8149225700684235 0.76696535030520707 0.73004843238267536 0.69573081876411702 0.69394720706165658 0.6399817291885872 0.60332416951694845 0.72884905101576836 0.63980079054697836 0.69550917430548764 0.72862967548724211 0.68204431341280058 0.6399997443625709 0.73003533693048461 0.81519612229903116 0.77248419276914748 0.68200321785842111 0.72997248793904179 0.77126915178043276 0.81620047801039541 0.87191646327145456 0.77248532420763805 0.86141142507543689 0.81607732563201074 0.76763243366800826 0.9257244519727521 0.81610014824312105 0.86235321139718968 0.99289049655704864 0.92736912640243319 0.86219848642015184 0.92607529238671948 0.87333054172264735 0.81609169303967266 0.87337823377251267 0.92759967562966694 0.98431252374193634 0.92757816431240481 1.0500416021673766 0.98580512279800592 0.98575525027539423 1.0517603184665472 1.1091867046172681 1.1107564370366567 1.0518355811709881 1.1916801444699434 1.120602034194182 1.1918460763341627 1.0517642060715824 1.0517127670104252 0.99512082017220538 1.1190087411364109 0.99500184828161398 1.0500845836201951 0.92736689430793784 1.120058307349423 0.99448873129898008 1.101878709906035 1.08433916318461 1.1009211244229962 0.95153965028904197 0.99508102147516719 0.95277245224827611 1.0991383214254846 0.83543184112399527 0.95022099333970145 0.86233064415327076 0.8352566126910751 0.88349702263430929 0.95084112015813016 0.86174052331916096 0.95225802177070396 0.99330300788318282 0.76815241467469719 0.76703016690735737 0.85979521352549748 0.86138281198270938 0.7665389808263835 0.83509957988400485 0.83376973108807573 0.7669229177365291 0.74709230349906708 0.81181270621361912 0.83460959015481151 0.74656657396841319 0.88272985361246048 0.83547194549932968 0.81214494821602068 0.85057643885353562 0.81203330526766593 0.7477195956153081 0.81226345916240472 0.85183082611098315 0.93855017017738573 0.88332814932163428 0.94144497141597927 0.95248615120436131 0.9397010409957921 0.88318175727747517 0.81171604871124436 0.95289726267368813 0.94168653345981357 1.0814191046542145 1.076401218771635 1.2108989093110629 1.0853410353620037 0.94023212911066278 1.0751329502387799 1.0838125199634807 0.96852098017100163 1.0731679851352507 0.941542614656386 1.0761732431455722 1.0772184155897111 1.1766916321683507 0.96781550642082936 1.076375213218439 1.0753518916710623 1.1409848097746333 1.0765747924527298 0.9990733622039234 0.89159460013397174 0.9983371495313037 0.96821680047682301 0.99935686190205064 1.0752233818062034 0.96856559244680707 0.85137819758234423 0.96725060295907461 0.94097392749665054 0.96634394999221518 0.85208702742764031 0.89192155655951011 0.78762094717893105 0.85012597088397901 0.74814376089196777 0.78737463743721159 0.89061423913105342 0.85184321154441933 0.69517758239798999 0.68988051482486079 0.78499778451334501 0.68910003380574769 0.69424330979187265 0.60613935844811173 0.64904250790534668 0.60674028547248637 0.69347012496301885 0.64909927913161813 0.69476376366924597 0.74657835492703351 0.78656158820258359 0.74802180921246852 0.69470776091314868 0.74785307734737416 0.80994443075585587 0.69624919612470748 0.80985960864736484 0.7467007867589962 0.69608690024084463 0.67190298354045341 0.69629580462249663 0.7458142293714829 0.69550131557593309 0.67166641532582749 0.61776544822592083 0.69621473994823468 0.6490447272914992 0.74621933349196434 0.60253290224080081 0.64903762752909178 0.69503727922738101 0.60312031642713182 0.69362244773972803 0.61815257252893863 0.61694175096174475 0.52888328800650763 0.60242883330663566 0.60096296282133199 0.52964335130328444 0.52978979753746092 0.58119231734213694 0.60185663596655714 0.52913867484208044 0.52958927958307012 0.58046775212376445 0.5295653454949053 0.64821169939432821 0.5814350750740197 0.60686187733432062 0.58148683518273103 0.64801495487208527 0.60272962099869265 0.58118939142387538 0.5291537676128707 0.60595417388367023 0.60449307195316326 0.52972094745061327 0.52967242229985378 0.59784832416368994 0.60608643902201409 0.52895752345039793 0.52911257980982052 0.58928297644532357 0.59756853190079551 0.52964486213315143 0.596452863921064 0.52962386682913365 0.58972796914999615 0.65956258297637715 0.59822721015717639 0.60691084528449624 0.59843477604215634 0.68714880209647866 0.6889894176872815 0.76787951583174174 0.78688772675377727 0.68964492606948569 0.72156733998578271 0.76726467917653263 0.76824033115862544 0.72140008817662604 0.78723117461940739 0.59770824214386054 0.66071567466166503 0.68856639025328481 0.72097196512675699 0.68965404532568697 0.66103985991950764 0.71947547425872416 0.66119282568994409 0.65131172481229604 0.72130002486996248 0.66075491637978567 0.72041652976147152 0.72170186307133477 0.7208008025266549 0.78650721624638831 0.72035484076914902 0.78859172417723133 0.78742639365153433 0.73974363810516852 0.78793719049310862 0.72077578525692898 0.73879010026547043 0.72031717198917711 0.65070923713706608 0.73813572146535544 0.65126915320939749 0.6823127597544677 0.65012960549339671 0.57822362623624446 0.60151701045627592 0.64958235239073026 0.58950482277554161 0.57830465582123303 0.6508863088508503 0.66053318008004069 0.58909275617333001 0.52967408569572594 0.58816346979116407 0.52967925440359964 0.52924718128528181 0.57803885194994964 0.58900820396928899 0.57734767431770129 0.52969134852787836 0.52955882153892864 0.60060861923147801 0.57797011432003853 0.52922023696817522 0.65108171423759953 0.60131829273738224 0.68126822425962985 0.7716031834380036 0.73956684219245383 0.68206047618462862 0.73980554244287167 0.77273336530288994 0.82766150251365045 0.87233341483161408 0.82889800411153625 0.77254441797128959 0.87363692159671691 0.92926444727215685 0.82901797599373772 0.930639246438554 0.87354099159063736 0.9845676761401867 1.0346660275200459 0.9306702722412481 0.98603486390599704 1.0356579740702985 1.1109153631295137 1.1560535064754001 1.1092113602531881 1.0358592362131915 0.98617686373127744 1.0093029699435951 1.0362058760745765 1.1535302853827505 1.1419321469860571 1.0080847449997989 1.1556869195833421 1.1387472371732033 0.98673957763802389 1.0092317142013509 0.98592981130840585 0.87892485437085444 1.0077991994378179 1.035229003363727 1.0089114392217609 0.93040412295369557 0.87973313967747713 0.82889650052058528 0.92937327376623546 0.87974551743591711 0.93062196047293666 1.006767180773271 0.82790871538806965 0.78867031999851922 0.7395896423706001 0.87879844080171787 0.78875342906342871 0.82895918449554717 0.78905659932416228 0.8776166650300341 0.78786809153784831 0.86859003211665353 0.88001983878265344 0.98372575534008955 0.86645685111916693 0.76840581534806673 0.78773356229724179 0.78720111320029795 0.87921692347213609 0.86804615247281069 0.76839544093211787 0.86643634119747304 0.78789063955479033 0.89105832863433909 0.78734823610586568 0.8680624747294805 0.8922202217654488 0.86859488510609384 0.99600089226899435 0.99938324127866884 0.98644811311191982 1.0950837917910565 0.98540974376390156 0.99797680507110698 0.86743930740856501 0.98546908732213923 1.1409794726039328 1.0964785993701363 1.1414151304507476 0.99861886523895083 1.0966671780178894 1.2237927354679796 1.1431372350672349 1.0971607954326321 1.2473050800025673 1.1428526619357573 1.225581391738028 1.2786604390006284 1.2254860675766261 1.142622859814906 1.1428833384285635 1.2239346208461632 1.0971176276447066 1.3654775755685911 1.225752464726392 1.2801329680892242 1.3875725257515577 1.2480557212438379 1.225945346744544 1.2245924660215104 1.3667556846895963 1.3899473152571669 1.5079667773583196 1.3914412364243713 1.3676992753420409 1.3907863668780365 1.5098568799907506 1.581757982066939 1.5102572228156357 1.6955235110278017 1.5839522949425995 1.627369321216126 1.5102099810779115 1.4453110804581604 1.3672722681809704 1.4452145215423429 1.5088666067646352 1.279890379746548 1.4434046008748327 1.367182119980052 1.4407292351535597 1.4442417717069087 1.298411608598006 1.5956906102738802 1.6286891485387065 1.4443020210811373 1.5702508869842788 1.5953810519718052 1.4408262096993445 1.4417563354865042 1.5934987038047217 1.4453470447371948 1.3134823691068742 1.4388499399439174 1.2994484070090575 1.2983219196730338 1.1560779518460791 1.3120000160460517 1.2993387058544836 1.441493443516684 1.2805055033733921 1.279508246362512 1.1417633740572526 1.2978813482433595 1.1430755594898609 1.1572217177944581 1.2955354664595153 1.2472602020559558 1.1572094369944093 1.1111283891675816 1.31115626914261 1.1568415844865558 1.2491711554653679 1.3130755791002209 1.2495539369573654 1.4003223472852255 1.4405302122566495 1.3128873547770428 1.4022715712412233 1.4415162036828737 1.402576999356286 1.5679340064446854 1.7521695163966364 1.5966115731374291 1.5709675719054339 1.8985170397989819 1.7549176647863629 1.9557676083570383 2.0692860416578172 1.899154763844132 1.9576555107328011 2.0708528255432244 2.1776193740094474 2.3420084454323744 2.1753619518618881 2.0707825589990962 1.9573780273152024 2.1876037703115077 2.0709819329500845 2.3414453618433337 2.0708872023420839 2.1852926232313292 1.9431956038215505 1.9861261951571607 1.9440691965156465 2.1830021975940301 1.943506869863604 1.9848221544103744 1.8097560201808554 2.0690580892899968 1.9436992487878546 1.899378860365134 1.9424207888022342 1.7681602250289592 1.8988663982065392 1.7557633901905756 1.8973153548540611 1.7690131534212221 1.7547517685834393 1.7677354972150552 1.5956185080040783 1.6304573056232772 1.5966594292299412 1.7660605839987786 1.6297600024639134 1.7682194503123014 1.8088528638592212 1.7689078197630184 1.9414219444896081 1.8103830984329754 1.8964018343033791 1.6981067188534387 1.8098710773693534 1.9841507581343019 1.898564475333361 1.8100678808123436 1.6303604204973101 1.8077977284003013 1.6983667397084996 1.5097855954852826 1.6299352165200067 1.6963960904159534 1.698251703887145 1.8959777682370715 1.7836504804745856 1.8985210507292003 2.1352628097235633 1.9961045513612237 1.8986309926339906 1.985775219067949 2.1353272957086573 1.9853144336552835 2.1868945355017733 2.1382564173140968 2.1883470195729435 2.3230859371189139 2.1388683039656438 2.1386864016708049 2.3329064876718815 2.228779257358025 2.1383192758044469 2.2266683938980445 1.995790977835965 2.2258227729349174 2.0864311045002517 1.9964987674058667 1.879604219184928 1.9962950190444551 2.0844065395577989 2.2947775576687253 2.2294926386524887 2.0859659924731471 2.2287053123498684 2.2948654930527792 2.0860651577108391 2.0863920913017715 2.2266355951518264 1.997838165568993 2.2276028600447457 2.1588344396887771 1.9968787785135051 2.1556236198651613 1.9188549752390551 1.9974123905523231 1.9976166779036602 1.8795489421269471 2.0843762519705087 1.8793186418303702 1.9939702127180237 1.7370716437150642 1.8769774658403333 1.737736779129063 1.6915377928636579 1.9944047245589047 1.9178993295954621 1.7361937227218014 1.6797822627672108 1.7372508727575013 1.9138694705904811 1.5362210044128801 1.5523139335191232 1.7326235856222432 1.6791303200286465 1.5350557092736066 1.7353551659290045 1.5512694577147754 1.6908667327211671 1.7361173589706802 1.7838038472421818 1.8777291048499154 1.6912752930405879 1.8983043040274266 1.9937205572926358 1.7834574801417551 1.9939631969317306 1.8797250067486431 1.7837990894410056 1.6979921166392142 1.7813641455822045 1.5836770526609094 1.6911278452295218 1.5839318645567555 1.7814660947744327 1.5813351616629152 1.4933801577996046 1.3912495055700618 1.4935241206843151 1.5840434938223535 1.6885900009044967 1.6879741243135948 1.5519378601330214 1.493812508592506 1.3874368645787136 1.3300631364890048 1.4910941925666381 1.3300822568446427 1.3915480123690309 1.4913174942479039 1.2478160141965284 1.3900594584745423 1.3299159369131461 1.178531689221316 1.1432973283891457 1.2467558057289694 1.0767174918328459 1.1431126229288506 1.1777477358098059 1.2126113177860705 1.0754557889403631 1.1781247315848524 1.3270992982206422 1.2139614191694235 1.1786631287713021 1.1783151572212243 1.2478928010912158 1.3281653054085287 1.2133449836769936 1.3295321968833673 1.3854563385469381 1.2133739514683128 1.2421196439299478 1.084232355697023 1.3833362960382452 1.2438357860623364 1.2143009724299898 1.369305126902417 1.2428954421366463 1.3863744371409843 1.3875163536776984 1.5326293804306501 1.3700842911720625 1.4933243875974445 1.5502487578601216 1.387062636594915 1.5352042549094449 1.386497239991493 1.5509408019102848 1.536108317932696 1.6766112849841339 1.5128707090651601 1.5125233471588928 1.6254748432762494 1.4944912870136582 1.5103325457499961 1.3969704787453729 1.3700157171817475 1.5118220156869215 1.4940711708639456 1.3964739531148109 1.5119673081912908 1.3689425984155152 1.5346962944662734 1.2438802820429893 1.3678561568670646 1.2599367126475021 1.1014453610183443 1.2427188048313991 1.2583446508480425 1.2397581339398041 1.1026113939614017 1.0855235612186429 1.1212479777822661 1.1026211937651642 1.2557007549468149 1.259355929592026 1.3955763369968655 1.3599570745095129 1.3958194367152554 1.2592676172878396 1.3694218108683205 1.1938563075642299 1.2596431885452346 1.3575509561639225 1.1937945227546092 1.1205855407843526 1.2582709003681791 1.1105638245865637 1.1936889924047061 1.2476059315065946 1.2487327796589431 1.3598265337180457 1.4006238065747871 1.3572690607395814 1.249217662851672 1.1939363975519206 1.4022005718319737 1.3604022851681903 1.4928746558762012 1.3968484028523858 1.4924443376328842 1.3604832523589396 1.4936034450526228 1.6267829438369656 1.6816212958064829 1.4019138366756818 1.4942058335620823 1.5685133178635879 1.68057566981702 1.5704225657498325 1.4943502041311874 1.5701761806264547 1.6830836822623361 1.7533604558835525 1.6834121256760226 1.8776031478984416 1.7552953283520492 1.7549441625121434 1.8800119679251901 1.955385430410912 1.683153874709379 1.7974663312945527 1.8784459284539869 1.6274005191920169 1.7956611339419843 1.6835111788691866 1.6793387986583381 1.7952357552491438 1.6272492792039557 1.6268417815972078 1.5118916960170612 1.6779663816304902 1.9155461025701286 1.7972477296755507 1.6789317471623184 1.7972624667591419 1.9183743576360808 2.0570736762043405 1.9182275054286801 2.1570341338212171 2.0608395773213517 2.1594893985255803 2.2674757035133131 2.0611956844520067 2.0600083182676485 2.2685247107796784 2.315624079228932 2.0712796917206004 2.0616119184528912 2.3117038128932355 1.8804773500694758 1.7977212051691094 2.056682153612126 2.0605196113945605 2.0700138506451875 1.8796644023565592 1.880380427865697 2.0684900398275139 1.9574058243334591 2.0703394484218762 2.1752862470260541 1.9573106336452679 2.1775460057532556 2.0704052528258345 2.3150099106514466 2.3172012305403937 2.4143303855240177 2.1773848986000401 2.5726996524562042 2.5521513525989228 2.3161706534192326 2.4163511360412722 2.55284717441508 2.6721248559985447 2.550706963039167 2.4165480025340962 2.3174929311097086 2.6744813082729424 2.7982719191187062 2.9491532376956497 2.7965046940513698 2.6744707772985454 2.5529664900127336 3.0790417831571202 2.95164125582026 2.798124299899527 3.1028158968316433 3.0802037178651145 2.7968007181902061 2.7945041538561699 2.5535048924971813 2.5744376689906163 2.797244190162 2.5735309711228473 2.7606716748403501 2.7984610519974948 2.761379817505583 3.0986048732581866 3.1029726765640078 3.1026877436731239 2.7590438925442493 2.7610699799985419 2.8510833358945304 3.0998491498041871 2.7603618934049194 2.5625731501990257 2.8487274316204392 2.3577425287350833 2.5618491786659052 2.4692724601964762 2.4693577540964333 2.5631100152668687 2.7568152791258052 2.5739701260895136 2.469258341607131 2.7579458072371983 2.4687755117148811 2.5716805430400065 2.3171162429606751 2.2696169365463432 2.4669190935012781 2.3176526785416356 2.4676395735399241 2.2696743463768616 2.3578486628251873 2.1593528238708748 2.3562978398733998 2.2694214118820049 2.357151175035423 2.1588014543505585 2.3347439123177511 2.3338462814421126 2.1594689522699104 2.2296129692504172 2.358351068210697 2.3355847408245727 2.559292593215083 2.3350351393524535 2.4736886020467708 2.5614345231967146 2.7804288278381604 2.5630759787955864 2.4739614947346196 2.2964759241419999 2.4701983282165179 2.2299799025876004 2.3351965059254858 2.2295544668867127 2.4715395191341303 2.4731684204242828 2.2959310355631755 2.4803696762136505 2.4771603800790705 2.296568543434689 2.2291835068042682 2.2288049483364216 2.33459302082895 2.4784515360696728 2.5633293805152331 2.7224645675972794 2.4811220372796918 2.4807659624748011 2.334382064365665 2.5616937123547303 2.7384669897473102 2.4739778280987839 2.4812806200722091 2.7242175032836933 2.7415691694966124 2.4797976185631634 2.7432049497938604 2.7255447936592265 3.0123305889623659 2.725137038301956 2.8449006251033717 3.014719686383061 3.0346569279009024 2.7418440543775899 3.0158893720947009 2.7854066849669454 2.7434922598372382 3.0318950734109249 2.7842548335628909 3.0350643987698787 3.0112993952684719 2.7419225773398148 2.7830086590233938 2.4721781401275642 2.5622367892868572 2.7842832522558671 2.8486983354331636 2.785336128874988 3.0101314258309531 2.8509640215473464 3.011937384855329 3.10366934447066 2.8503913765993136 3.1050520754006943 3.0122248243429439 3.2994524668754432 3.6645652621014815 3.4170123667587236 3.302155726454397 3.4148179322061361 3.1045934371158088 3.3017018725137008 3.2929386631316069 3.5178681411644814 3.3022544900126585 3.5193325574223202 3.6662587615989182 3.301562584956482 3.0122567727755474 3.0363525421549284 3.2979803823812954 3.0351858278767692 3.2918213454468233 3.3010107522737058 3.0364433191459592 3.0173654100634693 3.2891736705875285 3.2915173410726188 3.016018353036662 3.3386653346018895 3.5278909371463967 3.2927411781762923 3.3406230755028345 3.5291202023325328 3.5195231229313171 3.2920405858728552 3.5299995669860453 3.8201233940007149 3.5202959046769746 3.6726111910487851 3.5294464399401351 3.3401719990848444 3.5296841720228365 3.6747371543782261 3.822505568606565 3.6747386985173573 4.0609323545542555 3.8239885183222926 4.0607747315341411 3.6688243340365894 3.8241190844121085 3.6688249736462302 3.519725663687328 3.8225640131116312 3.6680234868054153 3.6734288537735438 3.4164298604150192 3.674378612838213 3.6689245462547353 3.8995877852717702 3.9009272979019678 3.6682153435494369 4.0620654905663445 3.8978749694918444 3.6737204411198139 3.9008945251801133 3.898493023212501 3.9015362519954193 4.2709481906208424 3.898353869326642 4.2122409596941059 3.8318749245649979 3.8305266132648681 3.4948954334876938 3.8960710980708204 3.6737829963291526 3.8944012091530591 3.4963633803558194 3.4171478093233469 3.6722113726165819 3.4966678202914827 3.2769726313472365 3.4169674258321567 3.4958284300499143 3.4146409575123222 3.2767725704233088 3.1048129728028742 3.2759529913007452 3.105004420256547 3.1052986431228642 3.1043129997377039 3.2771759750433596 3.4917644481446346 3.3225687732861537 3.103903612663419 3.492568642361261 3.4960271176354776 3.5493957684106947 3.3229041591418378 3.0816787264769627 3.1046784763305837 3.3206308928977326 3.3221221120795859 3.2480760019394759 3.0810789785484816 