<?xml version="1.0"?>
<VTKFile type="UnstructuredGrid" version="0.1" byte_order="LittleEndian">
<UnstructuredGrid>
<Piece NumberOfPoints="3240" NumberOfCells="1080">
<Points>
<DataArray type="Float64" NumberOfComponents="3" format="ascii">
0 0.022222222222172731 0 0.014261120859510951 0.01476364028082537 0 0 0 0 0.014261120859510951 0.01476364028082537 0 0.020408163265391192 0 0 0 0 0 0.014261120859510951 0.01476364028082537 0 0 0.022222222222172731 0 0.02085901357486063 0.03347530932066585 0 0.030393520779906098 0.016393210364487439 0 0.014261120859510951 0.01476364028082537 0 0.02085901357486063 0.03347530932066585 0 0.020408163265391192 0 0 0.030393520779906098 0.016393210364487439 0 0.040816326530782147 0 0 0.014261120859510951 0.01476364028082537 0 0.030393520779906098 0.016393210364487439 0 0.020408163265391192 0 0 0.051838137503398218 0.016097170421718029 0 0.040816326530782147 0 0 0.030393520779906098 0.016393210364487439 0 0.051838137503398218 0.016097170421718029 0 0.030393520779906098 0.016393210364487439 0 0.04395097424174637 0.032880702536447093 0 0.04395097424174637 0.032880702536447093 0 0.030393520779906098 0.016393210364487439 0 0.02085901357486063 0.03347530932066585 0 0.06014203299484646 0.028800515441748099 0 0.051838137503398218 0.016097170421718029 0 0.04395097424174637 0.032880702536447093 0 0.051838137503398218 0.016097170421718029 0 0.06014203299484646 0.028800515441748099 0 0.070237773272778581 0.018029566749463509 0 0.040816326530782147 0 0 0.051838137503398218 0.016097170421718029 0 0.061224489796173232 0 0 0.051838137503398218 0.016097170421718029 0 0.070237773272778581 0.018029566749463509 0 0.061224489796173232 0 0 0.055599947731468188 0.063390459096043877 0 0.05997194079032258 0.04512095697672458 0 0.038287656994838798 0.053045050008237282 0 0.05997194079032258 0.04512095697672458 0 0.04395097424174637 0.032880702536447093 0 0.038287656994838798 0.053045050008237282 0 0.05997194079032258 0.04512095697672458 0 0.06014203299484646 0.028800515441748099 0 0.04395097424174637 0.032880702536447093 0 0.02085901357486063 0.03347530932066585 0 0.038287656994838798 0.053045050008237282 0 0.04395097424174637 0.032880702536447093 0 0.016784005309402529 0.052942578394164941 0 0.024773355977313231 0.067081421531037314 0 0.038287656994838798 0.053045050008237282 0 0.02085901357486063 0.03347530932066585 0 0.016784005309402529 0.052942578394164941 0 0.038287656994838798 0.053045050008237282 0 0.02085901357486063 0.03347530932066585 0 0 0.022222222222172731 0 0 0.04444444444434547 0 0.016784005309402529 0.052942578394164941 0 0.02085901357486063 0.03347530932066585 0 0 0.04444444444434547 0 0 0.066666666666538782 0 0.024773355977313231 0.067081421531037314 0 0.016784005309402529 0.052942578394164941 0 0 0.066666666666538782 0 0.016784005309402529 0.052942578394164941 0 0 0.04444444444434547 0 0.024773355977313231 0.067081421531037314 0 0 0.066666666666538782 0 0.0207341866468383 0.086451824494522836 0 0.01494008276341045 0.1008555938909899 0 0.0207341866468383 0.086451824494522836 0 0 0.088888888888738943 0 0.0207341866468383 0.086451824494522836 0 0 0.066666666666538782 0 0 0.088888888888738943 0 0.0207341866468383 0.086451824494522836 0 0.044093637822741567 0.077061145711795925 0 0.024773355977313231 0.067081421531037314 0 0.01494008276341045 0.1008555938909899 0 0 0.1111111111109777 0 0.021796908541191849 0.1185794897852074 0 0.021796908541191849 0.1185794897852074 0 0 0.1111111111109777 0 0 0.13333333333325489 0 0 0.1111111111109777 0 0.01494008276341045 0.1008555938909899 0 0 0.088888888888738943 0 0.01494008276341045 0.1008555938909899 0 0.032717449973680472 0.098326472725607031 0 0.0207341866468383 0.086451824494522836 0 0.032717449973680472 0.098326472725607031 0 0.01494008276341045 0.1008555938909899 0 0.021796908541191849 0.1185794897852074 0 0.032717449973680472 0.098326472725607031 0 0.021796908541191849 0.1185794897852074 0 0.043801444738163997 0.1121383540808015 0 0.042554332387182259 0.13368213047820371 0 0.043801444738163997 0.1121383540808015 0 0.021796908541191849 0.1185794897852074 0 0.032717449973680472 0.098326472725607031 0 0.043801444738163997 0.1121383540808015 0 0.05587596540385175 0.095449649785454282 0 0.064375376681575586 0.1198167832100239 0 0.05587596540385175 0.095449649785454282 0 0.043801444738163997 0.1121383540808015 0 0.043801444738163997 0.1121383540808015 0 0.042554332387182259 0.13368213047820371 0 0.064375376681575586 0.1198167832100239 0 0.038287656994838798 0.053045050008237282 0 0.044093637822741567 0.077061145711795925 0 0.055599947731468188 0.063390459096043877 0 0.044093637822741567 0.077061145711795925 0 0.038287656994838798 0.053045050008237282 0 0.024773355977313231 0.067081421531037314 0 0.0207341866468383 0.086451824494522836 0 0.032717449973680472 0.098326472725607031 0 0.044093637822741567 0.077061145711795925 0 0.044093637822741567 0.077061145711795925 0 0.032717449973680472 0.098326472725607031 0 0.05587596540385175 0.095449649785454282 0 0.05587596540385175 0.095449649785454282 0 0.069428650838703046 0.078109012133597111 0 0.044093637822741567 0.077061145711795925 0 0.069428650838703046 0.078109012133597111 0 0.055599947731468188 0.063390459096043877 0 0.044093637822741567 0.077061145711795925 0 0.069428650838703046 0.078109012133597111 0 0.074122400072202652 0.058482788768393967 0 0.055599947731468188 0.063390459096043877 0 0.08347748713356852 0.068933876054200802 0 0.074122400072202652 0.058482788768393967 0 0.069428650838703046 0.078109012133597111 0 0.077413543502816748 0.10030203404452311 0 0.069428650838703046 0.078109012133597111 0 0.05587596540385175 0.095449649785454282 0 0.069428650838703046 0.078109012133597111 0 0.077413543502816748 0.10030203404452311 0 0.094169754915606196 0.082171266397786241 0 0.08347748713356852 0.068933876054200802 0 0.094169754915606196 0.082171266397786241 0 0.096189142707762201 0.05697243691702588 0 0.094169754915606196 0.082171266397786241 0 0.08347748713356852 0.068933876054200802 0 0.069428650838703046 0.078109012133597111 0 0.064375376681575586 0.1198167832100239 0 0.085089729736171488 0.119617281284406 0 0.077413543502816748 0.10030203404452311 0 0.064375376681575586 0.1198167832100239 0 0.077413543502816748 0.10030203404452311 0 0.05587596540385175 0.095449649785454282 0 0.077413543502816748 0.10030203404452311 0 0.098955340253080407 0.1056404584089907 0 0.094169754915606196 0.082171266397786241 0 0.098955340253080407 0.1056404584089907 0 0.077413543502816748 0.10030203404452311 0 0.085089729736171488 0.119617281284406 0 0.085089729736171488 0.119617281284406 0 0.1042644740555471 0.12799034491895131 0 0.098955340253080407 0.1056404584089907 0 0.1042644740555471 0.12799034491895131 0 0.1170604350569325 0.1121452492360058 0 0.098955340253080407 0.1056404584089907 0 0.098955340253080407 0.1056404584089907 0 0.11693983748236721 0.093447218298871995 0 0.094169754915606196 0.082171266397786241 0 0.098955340253080407 0.1056404584089907 0 0.1170604350569325 0.1121452492360058 0 0.11693983748236721 0.093447218298871995 0 0.11693983748236721 0.093447218298871995 0 0.1170604350569325 0.1121452492360058 0 0.132629020125939 0.10596507531517151 0 0.1273498583307075 0.1248993784176109 0 0.1170604350569325 0.1121452492360058 0 0.1042644740555471 0.12799034491895131 0 0.096189142707762201 0.05697243691702588 0 0.094169754915606196 0.082171266397786241 0 0.11837332598570451 0.071168852510895733 0 0.094169754915606196 0.082171266397786241 0 0.11693983748236721 0.093447218298871995 0 0.11837332598570451 0.071168852510895733 0 0.11693983748236721 0.093447218298871995 0 0.13780375874147449 0.08587856819508799 0 0.11837332598570451 0.071168852510895733 0 0.11837332598570451 0.071168852510895733 0 0.12111194339545479 0.04844499445275665 0 0.096189142707762201 0.05697243691702588 0 0.103555154504992 0.036186477933083078 0 0.096189142707762201 0.05697243691702588 0 0.12111194339545479 0.04844499445275665 0 0.12394502061713961 0.031222640348626381 0 0.103555154504992 0.036186477933083078 0 0.12111194339545479 0.04844499445275665 0 0.12394502061713961 0.031222640348626381 0 0.13485946140366309 0.018399825352228508 0 0.11299168747658229 0.018223577284824748 0 0.11299168747658229 0.018223577284824748 0 0.103555154504992 0.036186477933083078 0 0.12394502061713961 0.031222640348626381 0 0.1020408163269555 0 0 0.11299168747658229 0.018223577284824748 0 0.1224489795923465 0 0 0.1224489795923465 0 0 0.11299168747658229 0.018223577284824748 0 0.13485946140366309 0.018399825352228508 0 0.091646580262525548 0.018330347140998932 0 0.11299168747658229 0.018223577284824748 0 0.1020408163269555 0 0 0.103555154504992 0.036186477933083078 0 0.11299168747658229 0.018223577284824748 0 0.091646580262525548 0.018330347140998932 0 0.103555154504992 0.036186477933083078 0 0.091646580262525548 0.018330347140998932 0 0.079421396932280591 0.03754246087862223 0 0.091646580262525548 0.018330347140998932 0 0.070237773272778581 0.018029566749463509 0 0.079421396932280591 0.03754246087862223 0 0.081632653061564309 0 0 0.091646580262525548 0.018330347140998932 0 0.1020408163269555 0 0 0.091646580262525548 0.018330347140998932 0 0.081632653061564309 0 0 0.070237773272778581 0.018029566749463509 0 0.070237773272778581 0.018029566749463509 0 0.081632653061564309 0 0 0.061224489796173232 0 0 0.079421396932280591 0.03754246087862223 0 0.070237773272778581 0.018029566749463509 0 0.06014203299484646 0.028800515441748099 0 0.06014203299484646 0.028800515441748099 0 0.05997194079032258 0.04512095697672458 0 0.079421396932280591 0.03754246087862223 0 0.079421396932280591 0.03754246087862223 0 0.05997194079032258 0.04512095697672458 0 0.074122400072202652 0.058482788768393967 0 0.074122400072202652 0.058482788768393967 0 0.05997194079032258 0.04512095697672458 0 0.055599947731468188 0.063390459096043877 0 0.074122400072202652 0.058482788768393967 0 0.08347748713356852 0.068933876054200802 0 0.096189142707762201 0.05697243691702588 0 0.074122400072202652 0.058482788
[...]
<PointData Scalars="A_conc," Vectors="" Tensors="">
<DataArray type="Float64" Name="A_conc" format="ascii">
0.5297003236530643 0.57820543919332101 0.52948919580533371 0.57885307553498566 0.60048536520808504 0.52908072132062844 0.57888791332610434 0.52919687005856753 0.60262710363573901 0.63922477349909024 0.57909655733031196 0.6034031737990867 0.60127497435105992 0.64001943114035587 0.68089999144688673 0.57912536854944252 0.63932364734342872 0.60138461748249272 0.72862967534282908 0.68204431375119401 0.6399997442328651 0.72884905089615393 0.63980079039320792 0.69550917432409964 0.69394720708304336 0.63998172902822481 0.60332416953775148 0.76696535030104973 0.73004843226258964 0.69573081878171583 0.73012723842495164 0.76768546610951238 0.81492256998600143 0.68200321815614506 0.72997248781417412 0.77126915193403534 0.7300353368482746 0.81519612217616322 0.77248419290241044 0.74658582206688606 0.7658942723033203 0.6712486513008824 0.76482867061011051 0.6957708651114225 0.67187764295321584 0.76651528955663151 0.76761485753405578 0.69539281076559722 0.60288786960057472 0.6713927593321819 0.69455071814196279 0.58818408320056326 0.61799258570009863 0.67030832914455518 0.60340057655455881 0.58823017390031251 0.66991000366683573 0.60120933331799975 0.52980228804211027 0.52966299378260717 0.58784272612569455 0.60262521288728088 0.529057732188007 0.52906990425306433 0.61664304612786081 0.58783453970923483 0.529585033672202 0.58692291091820414 0.52961277877353308 0.61694175099283355 0.52888328803420248 0.60242883333709507 0.58119231738285881 0.60185663600057682 0.52913867487417832 0.6009629628510913 0.5296433513298815 0.52978979756431377 0.60312031645794173 0.69362244776914883 0.61815257256005063 0.58118939145331094 0.52915376761561472 0.60595417386786765 0.60449307194266777 0.52972094745061082 0.52967242228411882 0.52958927959196922 0.58046775215897495 0.52956534553724122 0.58148683522425981 0.64801495491705363 0.60272962103231209 0.64821169943241985 0.58143507510257475 0.60686187731630148 0.64904250794484331 0.60674028545145775 0.69347012496024041 0.68910003378924345 0.69424330977890503 0.6061393584360899 0.64909927917286303 0.69476376366913151 0.74657835498169534 0.78656158817639044 0.74802180926788486 0.69470776091202024 0.69517758238505678 0.68988051480829549 0.78499778449054947 0.67190298362152157 0.69629580465051777 0.74581422944026654 0.69550131560106443 0.67166641540318872 0.61776544826465218 0.60253290227382106 0.64903762757332562 0.69503727926065373 0.6962147399793337 0.64904472733264951 0.74621933353661385 0.74785307738407092 0.80994443079699507 0.69624919615768266 0.80985960868638218 0.7467007868212221 0.69608690026819653 0.8118127062542565 0.83460959023366688 0.74656657402773019 0.88272985367484547 0.83547194557946358 0.81214494825413408 0.85057643889532664 0.81203330530763063 0.74771959565189583 0.81226345920253096 0.85183082615259276 0.93855017022225817 0.88332814938512538 0.94144497145580308 0.95248615129991221 0.93970104103874275 0.88318175733980875 0.811716048748646 0.78737463740108338 0.89061423909466553 0.85184321160099175 0.78762094715296016 0.85012597093915954 0.74814376094961543 0.8513781976218342 0.96725060300429622 0.94097392754404985 0.96634395001980911 0.85208702748649934 0.89192155652172034 0.8915946001090902 0.99833714948095331 0.96821680048771164 0.9993568618509755 1.0752233817885153 0.96856559245850748 0.9685209802152781 1.0731679851915303 0.94154261470395206 0.96781550644312075 1.0763752132162441 1.0753518917470304 1.0761732432241964 1.0772184155856581 1.1766916322134233 1.1409848097178164 1.0765747924293756 0.99907336216138998 0.95289726277017128 0.94168653349838249 1.0814191047582411 0.94023212915052623 1.0751329502845048 1.0838125200451652 1.0764012188141416 1.210898909357971 1.0853410354421646 1.0843391632823653 1.1009211245359505 0.95153965038299504 0.99508102152204758 0.95277245236137487 1.0991383215317838 1.1200583073609309 0.99448873133662286 1.1018787100046019 1.1206020342032452 1.1918460762963672 1.0517642060253596 1.0517127669625377 0.99512082020636372 1.1190087411485468 0.98575525006432019 1.0517603184517557 1.1091867043406292 1.1107564367557956 1.0518355811706857 1.1916801444620675 0.92757816428475581 1.050041602140712 0.9858051226160558 0.99500184831815175 1.0500845835757981 0.9273668942573311 0.99289049659979556 0.92736912634607394 0.86219848646587927 0.92572445192041941 0.81610014817183973 0.862353211452206 0.87337823369759682 0.92759967558045653 0.98431252357543553 0.9260752923187614 0.87333054168479307 0.81609169297586015 0.81620047790625461 0.8719164632539762 0.77248532430840666 0.86141142513274305 0.81607732555822643 0.76763243365853895 0.76815241466630235 0.76703016697281257 0.85979521356932342 0.86138281202125055 0.76653898088349248 0.8350995800106098 0.83376973119986553 0.766922917813878 0.74709230357907341 0.83525661277154439 0.88349702269757102 0.95084112024994427 0.83543184124824243 0.95022099345683897 0.86233064419377903 0.86174052336792717 0.95225802188232234 0.99330300793261572 0.60060862006560589 0.5779701143362691 0.52922023777186422 0.65108171406887705 0.60131829357997535 0.6812682251270985 0.77160318439545517 0.73956684218397639 0.68206047711751172 0.73974363814367561 0.78793719030545195 0.72077578502009854 0.72170186299599226 0.72080080234784116 0.78650721612938967 0.72035484059170474 0.78859172395169197 0.78742639353038801 0.72130002478928223 0.66075491629321792 0.72041652958566316 0.71947547405487577 0.66119282555105008 0.65131172469309906 0.7387901003043047 0.72031717175609289 0.65070923710055451 0.73813572146966155 0.65126915303254795 0.68231276062606361 0.6495823522623263 0.58950482264642012 0.57830465574205581 0.65012960532853004 0.57822362624482526 0.60151701129428181 0.52924718120104752 0.57803885186845561 0.58900820384130237 0.57734767431759126 0.5296913483500213 0.52955882232826534 0.5296740856022466 0.5881634696553355 0.52967925428078755 0.65088630873215814 0.66053317993471294 0.5890927560578505 0.58972796900096158 0.65956258285421998 0.59822721011497704 0.52911257971324699 0.58928297629650428 0.597568531857121 0.52964486204045769 0.59645286388935714 0.52962386683580409 0.59784832414617761 0.60608643901183257 0.52895752343726199 0.60691084527411632 0.59843477602458894 0.68714880208974616 0.72097196503911731 0.68965404533690655 0.66103985982585312 0.59770824210786233 0.66071567456578162 0.688566390260968 0.68964492608130168 0.72156733990169708 0.76726467915880336 0.76824033112715973 0.72140008809472889 0.78723117451589175 0.6889894176756084 0.76787951582614622 0.78688772673196028 0.76839544092852241 0.86643634118482504 0.78789063952999339 0.89105832859577683 0.78734823608432936 0.86806247471551889 0.78720111309302976 0.87921692327161782 0.86804615244832162 0.86645685110091009 0.76840581531950836 0.78773356218858315 0.86859003209364982 0.88001983858356159 0.98372575521822569 0.89222022173572457 0.86859488508747351 0.99600089223871613 0.99938324126541545 0.98644811302913371 1.0950837917608665 0.98540974367868805 0.99797680506029218 0.86743930737723673 1.1414151304265043 0.99861886520457077 1.0966671779828978 0.98546908720646509 1.1409794724044033 1.096478599346066 0.98592981114168965 0.87892485420307453 1.0077991992487159 1.1419321467261758 1.008084744861057 1.1556869195135688 1.1387472369331522 0.98673957746986884 1.0092317140121105 1.0093029697097502 1.0362058763238238 1.1535302853491047 1.0352290036131859 1.0089114389911595 0.93040412310258946 0.87974551716588989 0.93062196055036328 1.0067671805415204 0.87973313940374842 0.82889650057705111 0.92937327383556034 0.78905659910122627 0.8776166647977961 0.7878680914154782 0.87879844052129841 0.78875342889324007 0.82895918455670581 0.82790871544440481 0.78867031982570424 0.73958964242372227 0.73980554242697938 0.77273336626426581 0.82766150256080528 0.87233341581354185 0.82889800416408987 0.77254441892802228 0.87363692257819814 0.92926444739739911 0.82901797604242722 0.93063924656738772 0.87354099256879048 0.98456767713835147 1.0346660278573747 0.9306702723679614 0.98603486490256165 1.1092113612617867 1.0358592365629733 0.98617686471775645 1.0356579744218526 1.1109153641308349 1.1560535065017474 1.2472602030567685 1.1572094370217791 1.1111283901653386 1.3111562695133179 1.1568415845133699 1.2491711564651133 1.313075579503842 1.2495539379438454 1.4003223482708638 1.4415162037917737 1.4025770003431015 1.56793400741572 1.4405302123692236 1.3128873551831513 1.4022715722217438 1.5702508879533321 1.5953810518359652 1.4408262098100788 1.4417563353970948 1.593498703572096 1.4453470444324297 1.595690610018921 1.6286891482782542 1.4443020208425177 1.4407292350617102 1.4442417714045805 1.2984116084181363 1.3134823693949094 1.4388499399124175 1.2994484067009826 1.2983219193702822 1.156077951919839 1.3120000163374579 1.1430755592276718 1.1572217177267021 1.2955354661994651 1.2993387056267163 1.4414934432344477 1.2805055031605685 1.2795082461709961 1.1417633738553861 1.2978813480161824 1.3654775755266053 1.2257524647252296 1.2801329679185149 1.2786604388267433 1.2254860675760506 1.1426228596102994 1.142883338225507 1.2239346208351434 1.0971176276250094 1.2237927354608915 1.1431372350259035 1.0971607954105049 1.247305079975245 1.1428526618948616 1.2255813917230578 1.3875725257106912 1.2480557212037404 1.225945346736373 1.2245924660143666 1.3667556846873254 1.3899473152164896 1.5079667773621086 1.3914412363873077 1.3676992753355206 1.2798903795804244 1.4434046006355119 1.3671821199303371 1.3672722681310041 1.4452145212940903 1.5088666067395469 1.6273693209927373 1.5102099810497107 1.4453110802093356 1.5102572228229796 1.6955235110292903 1.5839522948667937 1.3907863668286169 1.5098568799997323 1.5817579819914502 1.630360420278818 1.8077977281938107 1.6983667397100179 1.5097855954587447 1.629935216296716 1.6963960904165027 1.8964018342881028 1.6981067188506263 1.8098710771625377 1.9841507579208277 1.8985644753204827 1.8100678806022332 1.6982517038939573 1.8959777682432988 1.7836504803851125 1.898521050682995 2.1352628096720188 1.9961045513678541 2.1386864016134561 2.332906487628279 2.2287792573822998 1.9853144334754877 2.1868945352219864 2.1382564172815957 2.1883470192981962 2.3230859369958439 2.1388683039286867 1.8986309926171867 1.9857752188640272 2.1353272956607121 1.9435068696196092 1.9848221541924946 1.8097560199761098 1.9861261949406546 1.9440691962734371 2.1830021973316436 2.0708872022692684 2.1852926229620198 1.9431956036103977 2.1876037700461333 2.0709819328676891 2.3414453617389266 2.0690580892217958 1.9436992485349092 1.8993788603764645 1.9424207885491755 1.7681602248568626 1.8988663982138858 1.7557633911209725 1.8973153549475892 1.7690131530699236 1.7689078195289594 1.9414219442160234 1.810383098191876 1.6297600022370899 1.768219450070373 1.8088528636166468 1.6304573053594826 1.5966594289795657 1.7660605837085737 1.7547517695257497 1.7677354968667798 1.5956185078775749 1.7521695173391523 1.5966115730029302 1.5709675728715968 1.8985170399620042 1.7549176657867509 1.9557676093155292 2.0692860417021293 1.8991547640153823 1.9576555116854897 2.0708528256009138 2.1776193748983328 2.3420084452404479 2.175361952757024 2.0707825590467617 1.9573780282632838 1.5103325458692687 1.3969704787946706 1.3700157173281997 1.5118220157860589 1.494071170780499 1.3964739531503003 1.5119673083264322 1.3689425985384251 1.5346962946153193 1.5361083180808739 1.6766112851673536 1.5128707092001383 1.5125233472594712 1.6254748432782109 1.4944912869284541 1.4936034449875115 1.6267829438179791 1.6816212956827445 1.6805756697821477 1.5704225654395576 1.4943502041285277 1.4019138363228516 1.4942058335972814 1.5685133175439561 1.4022005714853354 1.3604022851487783 1.4928746559077204 1.3968484028561339 1.4924443375740639 1.3604832523286257 1.1938563075251076 1.2596431885906347 1.3575509561275632 1.3572690607342306 1.2492176625120925 1.1939363975521919 1.248732779305981 1.3598265337149107 1.4006238062244343 1.1105638242846636 1.1936889924080065 1.2476059311631043 1.1937945227166438 1.1205855407927512 1.2582709004167412 1.1212479777954283 1.1026211938636421 1.2557007550142139 1.2593559296346535 1.395576337002455 1.3599570744716589 1.3958194367686392 1.2592676173504826 1.3694218110058689 1.2438802821774269 1.3678561570067909 1.2599367127237657 1.1014453611089816 1.2427188049674278 1.2583446509306668 1.2397581340696466 1.1026113940755751 1.0855235613159082 1.2133739515057946 1.2421196440598901 1.0842323557941649 1.213344983719951 1.3295321969829752 1.3854563385778151 1.3693051270450207 1.2428954422540495 1.3863744372363909 1.3833362961155919 1.2438357861928735 1.2143009724700435 1.076717491818729 1.1431126228660602 1.1777477358164674 1.178531689243018 1.1432973283354655 1.246755805691139 1.2126113178501257 1.0754557889963496 1.1781247316490162 1.327099298310167 1.2139614192293182 1.1786631288393281 1.1783151572557269 1.2478928010425601 1.3281653054736031 1.2478160141638694 1.3900594584306305 1.3299159369726514 1.3300822569133117 1.3915480123300152 1.4913174943288126 1.3874368646095145 1.330063136589503 1.4910941926733423 1.4935241207537158 1.5840434938506986 1.6885900009852761 1.6879741244227451 1.5519378601778921 1.493812508703158 1.581335161676015 1.4933801578827588 1.3912495055290666 1.3875163537738719 1.5326293805760962 1.3700842913146396 1.4933243877045477 1.5502487578870119 1.3870626366245622 1.5352042550625475 1.3864972400703548 1.5509408019076036 1.679130320217471 1.5350557093947912 1.7353551660082611 1.5362210045536624 1.5523139335436638 1.7326235856967374 1.5512694577695256 1.6908667328303817 1.7361173590088153 1.8793186419440142 1.9939702127600465 1.737071643747166 1.8769774659542757 1.7377367791652676 1.69153779296943 1.6797822629524952 1.7372508728379006 1.9138694707539563 1.994404724596706 1.9178993297695124 1.7361937227831887 1.6979921166428666 1.7813641454890952 1.5836770525793042 1.6911278453097223 1.583931864584843 1.781466094787904 1.7838038472571476 1.8777291049222342 1.6912752931312263 1.9939631968960929 1.8797250068330247 1.7837990894513338 1.8983043040349499 1.9937205572668735 1.7834574800497309 1.8796042192923723 1.9962950189985778 2.0844065396712765 2.2947775577866545 2.2294926387373897 2.0859659925812557 2.228705312394053 2.2948654931480057 2.0860651577979845 2.1383192757519924 2.2266683939248857 1.9957909778458696 2.2258227729550999 2.0864311046156607 1.996498767357427 2.1556236200130363 1.9188549754151716 1.9974123905912422 1.9976166779438651 1.8795489422445752 2.0843762520935303 2.0863920914237566 2.2266355952440153 1.9978381656109705 2.227602860084263 2.1588344398172259 1.996878778567404 2.1594893987609716 2.2674757036774755 2.0611956844938804 2.0600083182647038 2.2685247108869886 2.3156240790373017 1.797262466767829 1.9183743578258636 2.0570736762594586 1.918227505620433 2.1570341340584029 2.0608395773676138 1.9155461027669445 1.7972477296741338 1.6789317473112344 1.626841781623227 1.5118916961207784 1.6779663818026695 1.6793387988327462 1.7952357551612224 1.6272492792285935 1.570176180299669 1.6830836822375166 1.7533604555880236 1.6274005191628982 1.7956611338904391 1.6835111787647585 1.6831538746091108 1.7974663312441848 1.8784459283038593 1.7549441622552404 1.8800119678414515 1.9553854301973204 1.6834121255990298 1.8776031478171389 1.7552953280987018 1.8803804277541158 2.0684900397116368 1.9574058241354748 2.0605196113306659 2.0700138505142545 1.8796644022403468 1.8804773499402783 1.7977212051073921 2.0566821535544277 2.0712796915857936 2.0616119183911472 2.311703812724879 2.1775460055857874 2.0704052527043313 2.315009910542198 2.0703394483096322 2.1752862468488159 1.9573106334439829 2.3172012304215808 2.4143303854182148 2.1773848984459954 2.5726996523197183 2.5521513524430937 2.3161706532917057 2.5507069628877459 2.4165480024188004 2.3174929309869947 2.4163511359190291 2.5528471742915162 2.6721248559228945 2.1593528240602242 2.3562978400715093 2.2694214120732652 2.4676395737196639 2.2696743465776081 2.3578486630198592 2.2696169366581476 2.4669190936147052 2.3176526783446141 2.4687755118442229 2.5716805429507805 2.3171162427825194 2.5739701260413597 2.4692583417432967 2.7579458074992265 2.3577425289189757 2.5618491788591871 2.4692724603989351 2.4693577542991996 2.5631100154599844 2.7568152793596576 2.7603618936420982 2.5625731503770122 2.8487274318158597 2.7972441898946476 2.5735309710498679 2.7606716751059204 2.7984610517306296 2.7613798177613904 3.0986048732149847 3.1029726768961767 3.1026877437590401 2.7590438927573082 2.7610699802402761 2.8510833360944687 3.0998491500998449 2.6744813082146095 2.7982719189402103 2.9491532376942162 2.7965046938829614 2.674470777233064 2.5529664898705411 2.7945041536298816 2.553504892341075 2.5744376688540846 3.1028158967021016 3.0802037175720134 2.796800717976077 3.0790417830113732 2.9516412558355096 2.7981242996895128 3.2456075486220057 2.9517709568943813 3.0812532864892805 3.3221221118553843 3.248076002060805 3.0810789783871559 3.5497727228629392 3.56281083264955 3.3225719147801471 3.323360543605395 3.5601140844021355 3.2484559057130888 3.3225687728830526 3.1039036125797619 3.4925686422771074 3.4960271175557289 3.5493957679520549 3.3229041587306161 3.0816787261806691 3.1046784762053576 3.3206308925000352 3.2759529915487162 3.1050044203342226 3.1052986434670866 3.4146409578051249 3.2767725706641819 3.1048129731450591 3.2769726315671983 3.41696742618584 3.4958284301599414 3.104312999763962 3.2771759753267249 3.4917644482110943 3.6737829967099898 3.8944012094568556 3.496363380395846 3.8305266128908517 3.4948954334974145 3.8960710983652356 3.4171478096594456 3.6722113729586368 3.4966678203887311 3.8984930235313966 3.9015362523016992 4.270948190992315 3.897874969811522 3.6737204414113145 3.900894525484695 3.8983538696363169 4.2122409596780157 3.8318749241703176 3.8965297492505528 3.8317254701036569 4.125830447602481 3.8308373987092441 3.8948404517824597 3.5628686235459099 3.5636822525809904 3.5505034283549843 3.8290673561872861 3.5503439161145658 3.496455812406436 3.8278835054930127 3.5299995671398214 3.8201233942465511 3.5202959048649309 3.5296841721275003 3.6747371541974845 3.8225055688537624 3.6726111908724839 3.5294464400401528 3.3401719989649861 3.6747386983204251 4.0609323543955034 3.8239885185790281 4.0607747316976592 3.6688243341397859 3.8241190846394533 3.9009272981305609 3.6682153436497646 4.0620654906300624 3.6743786131487064 3.668924546360584 3.8995877855711241 3.6680234869126283 3.6734288540802797 3.4164298606705015 3.6688249737767227 3.5197256638436181 3.8225640133368186 3.2929386633202906 3.5178681413465931 3.3022544901514732 3.5193325575996623 3.6662587617517119 3.3015625850971428 3.4148179324503611 3.1045934373952555 3.3017018725679028 3.6645652622091611 3.4170123669749222 3.3021557265525603 3.1050520756876607 3.0122248244280647 3.2994524669316836 3.0351858280504049 3.2918213456184482 3.3010107524226289 3.0122567728940743 3.0363525423309579 3.2979803825235789 3.0364433193490163 3.0173654100991789 3.2891736707919836 3.5291202024765411 3.5195231231220441 3.292040586057662 3.5278909372767573 3.2927411784215543 3.3406230753663446 3.2915173413069572 3.0160183530146534 3.3386653344984678 2.7432049499589506 2.7255447936406085 3.0123305889956962 2.7251370382762086 2.844900625052603 3.0147196863613228 3.0346569280904436 2.7418440545273834 3.0158893721463236 2.7242175032715235 2.7415691696570526 2.4797976186027872 2.7853361289824994 3.010131425943178 2.8509640216455101 3.0119373849052238 3.1036693447555206 2.8503913767466962 2.7842548336685229 3.0350643989133381 3.0112993954319984 2.785406685079979 2.7434922600287344 3.0318950735918548 2.7419225774964429 2.7830086591201435 2.4721781402276033 2.562236789388717 2.7842832523483008 2.8486983355278559 2.3350351394183635 2.4736886021253612 2.5614345232510431 2.7804288279190867 2.5630759788461037 2.4739614948202013 2.2964759242602684 2.4701983283405773 2.2299799026720333 2.3351965059896216 2.2295544669552965 2.4715395192150482 2.3583510684295796 2.3355847408885353 2.5592925933589119 2.3338462814860352 2.1594689524031239 2.2296129692