<?xml version="1.0"?>
<VTKFile type="UnstructuredGrid" version="0.1" byte_order="LittleEndian">
<UnstructuredGrid>
<Piece NumberOfPoints="3240" NumberOfCells="1080">
<Points>
<DataArray type="Float64" NumberOfComponents="3" format="ascii">
0.014261120859510951 0.01476364028082537 0 0 0 0 0 0.022222222222172731 0 0.014261120859510951 0.01476364028082537 0 0 0 0 0.020408163265391192 0 0 0.014261120859510951 0.01476364028082537 0 0 0.022222222222172731 0 0.02085901357486063 0.03347530932066585 0 0.014261120859510951 0.01476364028082537 0 0.030393520779906098 0.016393210364487439 0 0.02085901357486063 0.03347530932066585 0 0.030393520779906098 0.016393210364487439 0 0.020408163265391192 0 0 0.040816326530782147 0 0 0.014261120859510951 0.01476364028082537 0 0.030393520779906098 0.016393210364487439 0 0.020408163265391192 0 0 0.030393520779906098 0.016393210364487439 0 0.040816326530782147 0 0 0.051838137503398218 0.016097170421718029 0 0.030393520779906098 0.016393210364487439 0 0.051838137503398218 0.016097170421718029 0 0.04395097424174637 0.032880702536447093 0 0.030393520779906098 0.016393210364487439 0 0.04395097424174637 0.032880702536447093 0 0.02085901357486063 0.03347530932066585 0 0.051838137503398218 0.016097170421718029 0 0.06014203299484646 0.028800515441748099 0 0.04395097424174637 0.032880702536447093 0 0.051838137503398218 0.016097170421718029 0 0.06014203299484646 0.028800515441748099 0 0.070237773272778581 0.018029566749463509 0 0.040816326530782147 0 0 0.051838137503398218 0.016097170421718029 0 0.061224489796173232 0 0 0.051838137503398218 0.016097170421718029 0 0.061224489796173232 0 0 0.070237773272778581 0.018029566749463509 0 0.05997194079032258 0.04512095697672458 0 0.038287656994838798 0.053045050008237282 0 0.055599947731468188 0.063390459096043877 0 0.05997194079032258 0.04512095697672458 0 0.04395097424174637 0.032880702536447093 0 0.038287656994838798 0.053045050008237282 0 0.06014203299484646 0.028800515441748099 0 0.05997194079032258 0.04512095697672458 0 0.04395097424174637 0.032880702536447093 0 0.04395097424174637 0.032880702536447093 0 0.038287656994838798 0.053045050008237282 0 0.02085901357486063 0.03347530932066585 0 0.038287656994838798 0.053045050008237282 0 0.016784005309402529 0.052942578394164941 0 0.024773355977313231 0.067081421531037314 0 0.038287656994838798 0.053045050008237282 0 0.016784005309402529 0.052942578394164941 0 0.02085901357486063 0.03347530932066585 0 0 0.022222222222172731 0 0.02085901357486063 0.03347530932066585 0 0 0.04444444444434547 0 0.016784005309402529 0.052942578394164941 0 0.02085901357486063 0.03347530932066585 0 0 0.04444444444434547 0 0.016784005309402529 0.052942578394164941 0 0 0.066666666666538782 0 0.024773355977313231 0.067081421531037314 0 0.016784005309402529 0.052942578394164941 0 0 0.04444444444434547 0 0 0.066666666666538782 0 0 0.066666666666538782 0 0.0207341866468383 0.086451824494522836 0 0.024773355977313231 0.067081421531037314 0 0 0.088888888888738943 0 0.0207341866468383 0.086451824494522836 0 0.01494008276341045 0.1008555938909899 0 0 0.066666666666538782 0 0 0.088888888888738943 0 0.0207341866468383 0.086451824494522836 0 0.0207341866468383 0.086451824494522836 0 0.024773355977313231 0.067081421531037314 0 0.044093637822741567 0.077061145711795925 0 0 0.1111111111109777 0 0.01494008276341045 0.1008555938909899 0 0.021796908541191849 0.1185794897852074 0 0 0.1111111111109777 0 0.021796908541191849 0.1185794897852074 0 0 0.13333333333325489 0 0 0.088888888888738943 0 0 0.1111111111109777 0 0.01494008276341045 0.1008555938909899 0 0.0207341866468383 0.086451824494522836 0 0.01494008276341045 0.1008555938909899 0 0.032717449973680472 0.098326472725607031 0 0.01494008276341045 0.1008555938909899 0 0.021796908541191849 0.1185794897852074 0 0.032717449973680472 0.098326472725607031 0 0.021796908541191849 0.1185794897852074 0 0.043801444738163997 0.1121383540808015 0 0.032717449973680472 0.098326472725607031 0 0.021796908541191849 0.1185794897852074 0 0.043801444738163997 0.1121383540808015 0 0.042554332387182259 0.13368213047820371 0 0.043801444738163997 0.1121383540808015 0 0.032717449973680472 0.098326472725607031 0 0.05587596540385175 0.095449649785454282 0 0.043801444738163997 0.1121383540808015 0 0.05587596540385175 0.095449649785454282 0 0.064375376681575586 0.1198167832100239 0 0.043801444738163997 0.1121383540808015 0 0.064375376681575586 0.1198167832100239 0 0.042554332387182259 0.13368213047820371 0 0.038287656994838798 0.053045050008237282 0 0.044093637822741567 0.077061145711795925 0 0.055599947731468188 0.063390459096043877 0 0.038287656994838798 0.053045050008237282 0 0.024773355977313231 0.067081421531037314 0 0.044093637822741567 0.077061145711795925 0 0.0207341866468383 0.086451824494522836 0 0.032717449973680472 0.098326472725607031 0 0.044093637822741567 0.077061145711795925 0 0.032717449973680472 0.098326472725607031 0 0.05587596540385175 0.095449649785454282 0 0.044093637822741567 0.077061145711795925 0 0.05587596540385175 0.095449649785454282 0 0.044093637822741567 0.077061145711795925 0 0.069428650838703046 0.078109012133597111 0 0.044093637822741567 0.077061145711795925 0 0.055599947731468188 0.063390459096043877 0 0.069428650838703046 0.078109012133597111 0 0.055599947731468188 0.063390459096043877 0 0.069428650838703046 0.078109012133597111 0 0.074122400072202652 0.058482788768393967 0 0.069428650838703046 0.078109012133597111 0 0.08347748713356852 0.068933876054200802 0 0.074122400072202652 0.058482788768393967 0 0.05587596540385175 0.095449649785454282 0 0.069428650838703046 0.078109012133597111 0 0.077413543502816748 0.10030203404452311 0 0.069428650838703046 0.078109012133597111 0 0.077413543502816748 0.10030203404452311 0 0.094169754915606196 0.082171266397786241 0 0.08347748713356852 0.068933876054200802 0 0.094169754915606196 0.082171266397786241 0 0.096189142707762201 0.05697243691702588 0 0.069428650838703046 0.078109012133597111 0 0.08347748713356852 0.068933876054200802 0 0.094169754915606196 0.082171266397786241 0 0.064375376681575586 0.1198167832100239 0 0.077413543502816748 0.10030203404452311 0 0.085089729736171488 0.119617281284406 0 0.05587596540385175 0.095449649785454282 0 0.064375376681575586 0.1198167832100239 0 0.077413543502816748 0.10030203404452311 0 0.077413543502816748 0.10030203404452311 0 0.098955340253080407 0.1056404584089907 0 0.094169754915606196 0.082171266397786241 0 0.077413543502816748 0.10030203404452311 0 0.085089729736171488 0.119617281284406 0 0.098955340253080407 0.1056404584089907 0 0.085089729736171488 0.119617281284406 0 0.098955340253080407 0.1056404584089907 0 0.1042644740555471 0.12799034491895131 0 0.098955340253080407 0.1056404584089907 0 0.1170604350569325 0.1121452492360058 0 0.1042644740555471 0.12799034491895131 0 0.098955340253080407 0.1056404584089907 0 0.094169754915606196 0.082171266397786241 0 0.11693983748236721 0.093447218298871995 0 0.098955340253080407 0.1056404584089907 0 0.1170604350569325 0.1121452492360058 0 0.11693983748236721 0.093447218298871995 0 0.1170604350569325 0.1121452492360058 0 0.11693983748236721 0.093447218298871995 0 0.132629020125939 0.10596507531517151 0 0.1170604350569325 0.1121452492360058 0 0.1042644740555471 0.12799034491895131 0 0.1273498583307075 0.1248993784176109 0 0.094169754915606196 0.082171266397786241 0 0.11837332598570451 0.071168852510895733 0 0.096189142707762201 0.05697243691702588 0 0.094169754915606196 0.082171266397786241 0 0.11693983748236721 0.093447218298871995 0 0.11837332598570451 0.071168852510895733 0 0.11693983748236721 0.093447218298871995 0 0.11837332598570451 0.071168852510895733 0 0.13780375874147449 0.08587856819508799 0 0.11837332598570451 0.071168852510895733 0 0.12111194339545479 0.04844499445275665 0 0.096189142707762201 0.05697243691702588 0 0.12111194339545479 0.04844499445275665 0 0.096189142707762201 0.05697243691702588 0 0.103555154504992 0.036186477933083078 0 0.12111194339545479 0.04844499445275665 0 0.103555154504992 0.036186477933083078 0 0.12394502061713961 0.031222640348626381 0 0.11299168747658229 0.018223577284824748 0 0.12394502061713961 0.031222640348626381 0 0.13485946140366309 0.018399825352228508 0 0.103555154504992 0.036186477933083078 0 0.11299168747658229 0.018223577284824748 0 0.12394502061713961 0.031222640348626381 0 0.11299168747658229 0.018223577284824748 0 0.1224489795923465 0 0 0.1020408163269555 0 0 0.11299168747658229 0.018223577284824748 0 0.1224489795923465 0 0 0.13485946140366309 0.018399825352228508 0 0.11299168747658229 0.018223577284824748 0 0.1020408163269555 0 0 0.091646580262525548 0.018330347140998932 0 0.103555154504992 0.036186477933083078 0 0.11299168747658229 0.018223577284824748 0 0.091646580262525548 0.018330347140998932 0 0.103555154504992 0.036186477933083078 0 0.091646580262525548 0.018330347140998932 0 0.079421396932280591 0.03754246087862223 0 0.091646580262525548 0.018330347140998932 0 0.070237773272778581 0.018029566749463509 0 0.079421396932280591 0.03754246087862223 0 0.1020408163269555 0 0 0.091646580262525548 0.018330347140998932 0 0.081632653061564309 0 0 0.091646580262525548 0.018330347140998932 0 0.081632653061564309 0 0 0.070237773272778581 0.018029566749463509 0 0.061224489796173232 0 0 0.081632653061564309 0 0 0.070237773272778581 0.018029566749463509 0 0.06014203299484646 0.028800515441748099 0 0.070237773272778581 0.018029566749463509 0 0.079421396932280591 0.03754246087862223 0 0.06014203299484646 0.028800515441748099 0 0.05997194079032258 0.04512095697672458 0 0.079421396932280591 0.03754246087862223 0 0.05997194079032258 0.04512095697672458 0 0.074122400072202652 0.058482788768393967 0 0.079421396932280591 0.03754246087862223 0 0.05997194079032258 0.04512095697672458 0 0.055599947731468188 0.063390459096043877 0 0.074122400072202652 0.058482788768393967 0 0.08347748713356852 0.068933876054200802 0 0.096189142707762201 0.05697243691702588 0 0.074122400072202652 0.058482788768393967 0 0.096189142707762201 0.056972436
[...]
<PointData Scalars="A_conc," Vectors="" Tensors="">
<DataArray type="Float64" Name="A_conc" format="ascii">
0.01132690473124442 0.0099778914050630361 0.0099873807901719701 0.011355129451474107 0.0099596378072369929 0.011963522590728927 0.011356672625606801 0.0099647470775693931 0.012033261643272524 0.011365731343966888 0.013117360518969572 0.012067996051927965 0.013154687361051626 0.011998012507929669 0.014381975891854918 0.011367166396573191 0.013122136934662529 0.012003467201700086 0.01315361346565711 0.014437071719340638 0.015903694490915672 0.01314327745663541 0.015914759719574491 0.014864372014934497 0.013152622344822444 0.014788575547669972 0.012064167663752833 0.015975544104390053 0.017173407633316467 0.014875055457597918 0.015979778994308767 0.017211259210165621 0.018798535532753433 0.014434149013239863 0.015971634462211094 0.017303145972125369 0.015974773778474265 0.017367071950983463 0.018814049746245353 0.017132405202722141 0.014094223335604509 0.016509340854510973 0.017077390762214269 0.014877538931058813 0.014127008572637942 0.017208610412451055 0.017164941272089843 0.014857281269756701 0.014817778747493446 0.014103914973661889 0.012042982264555418 0.014053006776507381 0.011625023468136948 0.012492667378059558 0.014033871091980479 0.011626923716888603 0.012067415604363809 0.0099915001865917737 0.011970978899391809 0.0099849946197097614 0.011609832199788553 0.012032690961806704 0.0099583360228375044 0.011609778505097087 0.0099587151148161704 0.012432090165475501 0.011569859771218253 0.0099834128959597774 0.0099818728538104418 0.0099503901547203129 0.012032433219330228 0.012446205103864915 0.0099618352852378408 0.01200551503346498 0.011419687947179978 0.0099841345969290639 0.0099912666569635586 0.011967933234648927 0.012063376171488229 0.012500683475865786 0.014763061440336863 0.0099627378817631167 0.011419340462364086 0.012127741989612067 0.0099882009692589206 0.012063891567605543 0.0099858071657456127 0.0099809131834464448 0.0099821396510952794 0.01138802192567427 0.012044430199404063 0.011432599112298955 0.01337501038373144 0.011429948688701782 0.012168438041094657 0.013384207717708959 0.012162581477204617 0.014775981899082517 0.01342313520227067 0.012133015765086221 0.014814427345120512 0.014654752947536218 0.014838598843334671 0.013425422104353126 0.016485017008445409 0.014834952254540347 0.016559036603121122 0.017826754407290722 0.01486034457433476 0.017745218506665664 0.014692933527463665 0.014128963162677812 0.01489227237563139 0.016468708770410696 0.014117577771125734 0.012481365476957471 0.014853027222332294 0.012034900295772786 0.013422834912124482 0.014831222036022877 0.013422571840160449 0.016466061705082243 0.014888831350946459 0.016549320103994219 0.014890186534898422 0.018607387853406338 0.014880957804315731 0.016513984009803015 0.018601672156646626 0.016505761605434315 0.018707067410737636 0.019492736473155699 0.018725358874099374 0.021210259713028711 0.019541445011613031 0.016540680633874792 0.018720284939811958 0.020040733516149878 0.018732949074918095 0.020111731373928576 0.023227575515524238 0.021244527256095703 0.023402730577430874 0.023815528193849592 0.018699582711206458 0.021236881081479253 0.023296642715256142 0.01786847556190433 0.020113638210092613 0.021482768145802397 0.016565136027112435 0.017883566678886496 0.02001663555504031 0.020082998925987652 0.024357627871837876 0.023373207022171903 0.020127469723445743 0.021559514807998576 0.024301423700439667 0.02153793639323643 0.024417713102367032 0.02557137466087191 0.024439720252314116 0.028636771259509849 0.025637455687962649 0.024437434508949571 0.023408218921517683 0.028519957179647237 0.024387999326851813 0.028715970615429815 0.028665975867858351 0.028774475602133941 0.028722490600059599 0.032933928889452069 0.028728679677512553 0.025617603570456234 0.031381899799225808 0.02341794985952882 0.028841897569738834 0.023841541888791715 0.023318860836966326 0.0286521624533667 0.029000268854872623 0.028738854881874696 0.029105112009646203 0.034401933729952677 0.029038742437580981 0.029702733631187053 0.023747193554809112 0.029581406843263956 0.023832262868098104 0.025466136886608089 0.029768165046447727 0.025423200181298553 0.030530435764451788 0.027728164484647294 0.030566795627144903 0.033598077603557069 0.025467503135345095 0.027724938273954614 0.030455251257404486 0.027729597402255113 0.030038140318669877 0.02508711329977768 0.027734644574186434 0.030147729293173012 0.033586888499166523 0.027614625121371972 0.025092150876584951 0.022885382143221049 0.025460611756394282 0.02761612089227776 0.022870044715600953 0.025326989019547518 0.022871430434801793 0.020481896448603012 0.022772454409067971 0.018862968161620759 0.020491974326904753 0.024997806336143718 0.022886904611178996 0.020876878428327833 0.022794591014626761 0.020875373208149205 0.018863302015526332 0.017366383703321418 0.020794124206265883 0.018869690960787118 0.017207807667437045 0.018862070556208317 0.020437766803604211 0.017237435518402039 0.017192200059175922 0.020346400656226102 0.017164096306016983 0.019520417009343104 0.020435459264582182 0.017186434014398805 0.016535789573415432 0.019446206107131318 0.021255617588115859 0.023714573405552251 0.019528082564529318 0.023676587178367101 0.019539220106223477 0.020490050589673191 0.023800735875988549 0.025352954690990016 0.020453359483101941 0.0099669417170895492 0.011970605738337622 0.011328968999518055 0.01200147538739622 0.014401797891454968 0.013485844576914308 0.014438841022363898 0.017323257850990977 0.016280478347543304 0.016289137890412572 0.015676591031122702 0.017877731875384901 0.015678254105419454 0.01570562873483871 0.017824089710490532 0.015653881049646951 0.01787377693615589 0.017913595099092922 0.015658542777557776 0.013778819657309283 0.015685069461895237 0.015611085833742567 0.013496536921585591 0.013801296440522557 0.016240197419450899 0.015653281515079956 0.013465975819011974 0.014452384213348549 0.016207508858812249 0.013494527329097268 0.013415836206893758 0.011343860159043253 0.011662657447913597 0.012011052024989524 0.013441262061578705 0.011339991699696387 0.01133212703762425 0.0099669654173173364 0.011640648584040679 0.0099817414565289489 0.011301917375999147 0.0099865640057053857 0.0099855361890403647 0.011604187452864814 0.0099860766215206318 0.013476424191169477 0.011643241952942836 0.013769704081928244 0.011673477028104168 0.011914138521988015 0.013723944982522846 0.011653632696494371 0.011884871802483142 0.0099608562817490726 0.011836528051271576 0.0099843560055303572 0.0099840038636966003 0.012133785789184511 0.01189809917509938 0.0099540442631771038 0.012170753096849028 0.011924249168069499 0.014561370957069011 0.014681589426579524 0.013793494347476716 0.01566836286733762 0.011888978725204388 0.014628624718631767 0.013778157537154201 0.014680879593626243 0.01569870130706677 0.017179607376713733 0.015689143301970458 0.017231096477797313 0.017862072185710294 0.017844665970742871 0.014645605295286713 0.017212151188496661 0.017898674872734766 0.017239427117944597 0.020594007136325213 0.017867527902755784 0.021510409301735384 0.020686625790097741 0.017858696564740262 0.020685586172035177 0.021086916718871678 0.017239985376495764 0.017889422060804162 0.020594988135239359 0.020717199004763102 0.024961716290204154 0.021134203589091422 0.0215790270226821 0.020717300891464577 0.025424895694156745 0.025639626562917496 0.029452904423528974 0.025132403278698028 0.020643800640434588 0.025549250138996723 0.025066308675435533 0.02558470320632332 0.029562213961446662 0.031411605140300954 0.029549257982330886 0.02506261279047807 0.031391753028598417 0.025100382547647054 0.025929105431181727 0.021063373894463853 0.025938832951486825 0.032032200345333023 0.031459179658668478 0.025152468580306689 0.02602154807609269 0.031236564046187545 0.026026073756195291 0.027104018411928374 0.031878632408827795 0.02600059171201885 0.022978393367068854 0.027038602590639331 0.025863416580247711 0.022993743336715108 0.0211158125435261 0.022917797677039765 0.021115668602535016 0.019304599074856738 0.017897840956915937 0.020994312357828202 0.017938976495827486 0.021061020192472947 0.017921255542886531 0.019308664877433827 0.016280765961759681 0.017917104252288606 0.019250012710318939 0.017383015095507232 0.016292647848095181 0.019236445413433639 0.017372072183934266 0.019305161480471976 0.020821371334980063 0.022910857542241196 0.019311507088560435 0.02089673592347693 0.022994273850141397 0.02089034404800218 0.025018262240385634 0.022995507104436545 0.025111384119165733 0.026999898685748442 0.025120670649688818 0.027078743818333199 0.030045544541711964 0.027063551921723158 0.030164668794241348 0.032056598765712166 0.030179535618122533 0.036063062671540282 0.032141146056399582 0.039017256744155161 0.036210647701324754 0.032111675133818178 0.039172093484890411 0.036240537533868557 0.043314529908058619 0.043509883053136682 0.051905241316658343 0.045442532905567899 0.039153984531050096 0.043482805546226674 0.045353657620331944 0.052127466682305793 0.053457275688293213 0.045374827550158814 0.053276435104726225 0.045643998202852303 0.045467893685140107 0.053490483019841016 0.045540752864678888 0.055266631525958697 0.045544464512815172 0.045375321138446445 0.038453145432375574 0.039207487034804957 0.045208456355970185 0.038545958599128682 0.039086435270540856 0.038454796611806605 0.032050430308256161 0.038234355118546122 0.032143459996957537 0.031541758370579674 0.045305379070892694 0.038535283183964646 0.037676258182400411 0.03841800433862904 0.031438202988087097 0.037596049146909248 0.037642598970760922 0.035163687371602977 0.041618070827523258 0.031507075268955409 0.037525851336587895 0.035143260560232564 0.029593314237871596 0.031527767539195534 0.035024888398452914 0.029596435548964243 0.035012828181235453 0.031534929910458254 0.035148929155332173 0.031512405764362636 0.036114595363661392 0.035177411102644912 0.036173951981504228 0.042622284302692409 0.035064481854097537 0.041729190492357467 0.042821388528513658 0.041809978938211909 0.048764380290799464 0.042949675861513145 0.045474196272243972 0.037621224399348389 0.04176124969450553 0.045635483458097599 0.041767264266651935 0.048844929002527286 0.04564358642916045 0.048971018437009128 0.055138000179635986 0.048977142062993938 0.058963831257078672 0.052879552286600538 0.048940362979031822 0.042886652791631341 0.052666476305485564 0.059260855151373602 0.055436513760373882 0.065550124060266057 0.048925141039318359 0.059053341654637735 0.055394152302266041 0.059229638234930743 0.065783607774809016 0.070986030449797913 0.065803851206477124 0.071244160555643643 0.076592652429682009 0.059247887686069145 0.070935611421390918 0.064214527459345444 0.071237592190030313 0.086618013285790149 0.077452495711329727 0.087084824505506309 0.093439590716325349 0.10096223841454142 0.087029735642388639 0.076730344358802174 0.090380811699602714 0.087115706054824743 0.090590995748025899 0.10022292247679515 0.071251936167930921 0.08663037764496713 0.076798093532550363 0.065766657023800093 0.076684459597628665 0.074060041324253284 0.076851677082658304 0.074130106828960401 0.089837301240815737 0.074009309649569824 0.090147176915580995 0.08243924007994996 0.090473909561213955 0.082449226709478463 0.10143729566391724 0.07407986316857354 0.082194332360590414 0.071314583413508728 0.073921158749446644 0.063264323661592958 0.071251261831005816 0.063371088775328141 0.071062517164666217 0.062587100311168056 0.065845592610385736 0.073803150685417235 0.06335529146301401 0.055368463006145362 0.0656706272829546 0.063279136961747598 0.053586500600537872 0.055445415133357191 0.063043815899101685 0.053472174378678655 0.063228511651350183 0.062475160368755195 0.05219819143691623 0.053580002113776455 0.062197636264935241 0.071205639838480342 0.06248392188749867 0.074748183866251358 0.082221018993592868 0.071282591006444337 0.074982820269584347 0.082428090367278009 0.089787899206540747 0.10152463113864456 0.082421616613651244 0.074943824463986633 0.089468869786681907 0.043228227517206015 0.041912864460307439 0.048884511963898064 0.043180564149416178 0.049021027505379788 0.048127893400667018 0.041811509781416865 0.049038050651560354 0.050203262274552928 0.049123467300996072 0.050337902213926519 0.057892778385651808 0.049087704561159518 0.04816803255281444 0.055077943567567691 0.048077373866725261 0.055210082413280952 0.058225725860570988 0.048157196782512839 0.052139517575646319 0.05812009073785198 0.048143865742543326 0.051955223152456369 0.043442411693159315 0.048019983711824553 0.043470610346342232 0.04145502768891985 0.04321593092595117 0.047977936696650819 0.041461528813364908 0.041215535744623298 0.033747071932377963 0.036690304486958925 0.041192985797510399 0.036208392024359035 0.033755025484996821 0.0433341330017133 0.041405349094949549 0.036165431546515817 0.0301313138572285 0.036083482853654661 0.033736094200847139 0.030563657254496678 0.03374293333544693 0.036582785340417728 0.029820035491834967 0.030615360601993165 0.036387857929400372 0.043105673293673367 0.041415729322064526 0.036663971514711 0.04312784079781104 0.04186174412328867 0.036657331316490231 0.041730101770623904 0.036715009393352552 0.035988468343662726 0.029728333039456614 0.036590402088405471 0.035898105820304997 0.029120557948681947 0.029819761935739111 0.035674112696547869 0.029020397179173884 0.034587320142893868 0.035850893434415561 0.034576731458157178 0.039939488396551669 0.042589316706281903 0.041854049168658154 0.035902694866845497 0.042667605333155723 0.034657858252554012 0.035983505719732405 0.042413451738072171 0.02873661828283763 0.031533866190227591 0.033009032567483387 0.031547387041543223 0.033067775951849329 0.036070252400551131 0.028667479205664113 0.03452698469671029 0.033040980760459741 0.0346295036150219 0.033081295427223989 0.039741411727111139 0.033050556676817201 0.03982558443819588 0.036158909569412832 0.03996924491817988 0.036151267248700505 0.042832136667174246 0.039982160099517584 0.042960766238081233 0.04788859384440057 0.039982603429575179 0.047870091063666305 0.042758517359779716 0.048086655359339911 0.052891600177244903 0.058557522471505037 0.04812008407695003 0.051163535955872509 0.058498179034847789 0.042932156524111059 0.048077222916721847 0.05262873933391176 0.041921052013210308 0.042766422446356332 0.050009249179226799 0.048073795314405351 0.042722792028508975 0.05100278558826353 0.04266923676878015 0.051072683984887277 0.050247965893744771 0.050222027926130883 0.061279394532214003 0.058157554533289336 0.051205434280385417 0.050345158314787565 0.060994914466360295 0.051091762878582705 0.061362649667810215 0.058796423848409829 0.061459965449305716 0.070001060176087995 0.077121756392086641 0.061538945743776427 0.058867060989400498 0.069727386717845327 0.061483118170297259 0.071944236995818908 0.058226735926372085 0.061348876724980073 0.077168318149006432 0.072419961546778308 0.059221687853609858 0.052847339108438543 0.063961735524284871 0.052877635637606682 0.058820540443394333 0.063976974891443661 0.058833174380185378 0.069811850865767508 0.064235817266540443 0.070047272140186065 0.064233403423155019 0.077189862142002172 0.071212187031262419 0.064188268932665424 0.077152606223665474 0.070027913037735881 0.077484554023783347 0.083209288911274645 0.083404493426320378 0.093502179564911692 0.098125407419630273 0.083419261072701423 0.093435767044655268 0.098139207840150969 0.087034803390258889 0.077404024545318861 0.093131333997858778 0.077509498195237669 0.083480869335900446 0.093016672516919197 0.077543953701979529 0.088008326602949216 0.072535536274782361 0.070020412147759947 0.083204936022441625 0.077576851581051737 0.083475179506109679 0.077604606274180934 0.093086127551717773 0.077463753513799888 0.093219253521841711 0.088449930878695113 0.088545896416836342 0.081766913996534643 0.096113287938329281 0.081584103868241012 0.099680512469319221 0.096268042845209109 0.081238910025046074 0.072470020060222018 0.06500647407643681 0.088202758048764859 0.081723529835499409 0.0724452820621415 0.072132402031846107 0.065010038051749097 0.058120675391631328 0.049021109210213784 0.055216116204839585 0.058023812701326151 0.064785020500860754 0.055257498774666319 0.05816795544124332 0.052109169093526427 0.058380002260925316 0.062320851758501342 0.064832718354918023 0.055271964353784737 0.058423327972543973 0.065035031673652072 0.058382087589436575 0.069886229670861888 0.07007002108220152 0.062486635823475078 0.074698397453350274 0.058414754330554382 0.069787199549955908 0.06253173843701354 0.070113943975100665 0.074948405232089441 0.082133886243407117 0.081679897640362112 0.070018545428436996 0.082346624373178953 0.081188968062327671 0.065061632964019012 0.070126712519881049 0.081825189372048607 0.082518236319733679 0.099101068214124122 0.082383864562686773 0.089774988707945924 0.09959270987541792 0.074933857328605039 0.082378317767092465 0.089455566386112517 0.089744893563380057 0.10713831794483313 0.099929530181722598 0.099734178877917717 0.11826968105190647 0.11989728598949462 0.10750064453375309 0.099973474998294148 0.11800783863701785 0.10745898041979067 0.11838493605819456 0.12815497389516251 0.08851892169156296 0.10275225068123713 0.09640743453945784 0.1029979415687324 0.09644653643242547 0.11139643623798223 0.099994425276300605 0.096432665666146333 0.11126645191129614 0.099902161404638853 0.11158049943466671 0.11971325798989212 0.11166101436232158 0.12012266047511537 0.1355871629135306 0.10297595370912076 0.11167576441216275 0.11902388905489078 0.11168906369621172 0.13537146288611818 0.11925300672910161 0.1360681134698325 0.14388551399462174 0.11913581710888192 0.12002675756652621 0.13612799597430175 0.1393256423576355 0.13627501048753765 0.13958186209270027 0.16740019273078099 0.13570825184060833 0.16838078843306023 0.16839065348763138 0.13620858991970242 0.16763287629779014 0.14438642124867901 0.12859741903926297 0.13955098849334205 0.15317686777592335 0.11840205447032277 0.1286017263798484 0.13918338418696777 0.11851373738612873 0.12021181329652161 0.13877493677800964 0.1391827438560907 0.16625258759674572 0.1683746020371483 0.13951215070387432 0.15373459323577038 0.16594983720404499 0.15375810333820703 0.16648462498735864 0.18301681911161552 0.16642957645873499 0.1836819995853318 0.19160487398431436 0.191707853884242 0.21917624592435242 0.21775567552360078 0.18378511650799223 0.19196996116835141 0.21829677986109272 0.19175662303164351 0.16860413735362781 0.2103028889867351 0.19183891919929397 0.21137265681084225 0.21763824706149157 0.16662065981287338 0.19120052779310073 0.16883673784198705 0.16895366361799194 0.16896406655760959 0.18656492733658406 0.16882180699040467 0.20166090550483179 0.18678843055875485 0.2023649129498972 0.18683433946121253 0.21134289260154024 0.16874397761244711 0.18692310616591765 0.21009501929996882 0.21150542388658486 0.23288788586388712 0.26055536314590838 0.2109018409687323 0.26124313829455148 0.25276956215431839 0.20242004630699753 0.21162403472582841 0.23231593273873052 0.26223179864686813 0.26266481833375926 0.31432051854312182 0.23280888397456229 0.26195474497866439 0.2623756474261868 0.26220162728764201 0.25331432348001476 0.305746299007921 0.25326324682293011 0.26192620681848588 0.29351055187292052 0.25289740365827129 0.26120292752824753 0.21914568382311159 0.25219031845641054 0.21947589472110846 0.21801103462491814 0.21151101557013827 0.25173770396019041 0.21796776421554276 0.2154966999080124 0.25060129358226935 0.21442137003194495 0.21535854432037571 0.25151863295418719 0.23310091902534821 0.21529488331481292 0.19368975993600168 0.23233188502905183 0.2521200351109355 0.23309363758774759 0.28369647225797273 0.2521729864149429 0.23232891245823609 0.28360830209235333 0.26233956115830065 0.23202467343255184 0.28420480730624426 0.23312134863377032 0.26178455260824718 0.2323350204488939 0.20213963503246099 0.23276292662899953 0.23200243582257921 0.2515425209889352 0.23234044052095448 0.21419362018657731 0.21360694506059455 0.18962651205247685 0.18865503059926295 0.2314278887292335