<?xml version="1.0"?>
<VTKFile type="UnstructuredGrid" version="0.1" byte_order="LittleEndian">
<UnstructuredGrid>
<Piece NumberOfPoints="3240" NumberOfCells="1080">
<Points>
<DataArray type="Float64" NumberOfComponents="3" format="ascii">
0 0.022222222222172731 0 0.014261120859510951 0.01476364028082537 0 0 0 0 0.014261120859510951 0.01476364028082537 0 0.020408163265391192 0 0 0 0 0 0.014261120859510951 0.01476364028082537 0 0 0.022222222222172731 0 0.02085901357486063 0.03347530932066585 0 0.030393520779906098 0.016393210364487439 0 0.014261120859510951 0.01476364028082537 0 0.02085901357486063 0.03347530932066585 0 0.020408163265391192 0 0 0.030393520779906098 0.016393210364487439 0 0.040816326530782147 0 0 0.014261120859510951 0.01476364028082537 0 0.030393520779906098 0.016393210364487439 0 0.020408163265391192 0 0 0.051838137503398218 0.016097170421718029 0 0.040816326530782147 0 0 0.030393520779906098 0.016393210364487439 0 0.051838137503398218 0.016097170421718029 0 0.030393520779906098 0.016393210364487439 0 0.04395097424174637 0.032880702536447093 0 0.04395097424174637 0.032880702536447093 0 0.030393520779906098 0.016393210364487439 0 0.02085901357486063 0.03347530932066585 0 0.06014203299484646 0.028800515441748099 0 0.051838137503398218 0.016097170421718029 0 0.04395097424174637 0.032880702536447093 0 0.051838137503398218 0.016097170421718029 0 0.06014203299484646 0.028800515441748099 0 0.070237773272778581 0.018029566749463509 0 0.040816326530782147 0 0 0.051838137503398218 0.016097170421718029 0 0.061224489796173232 0 0 0.051838137503398218 0.016097170421718029 0 0.070237773272778581 0.018029566749463509 0 0.061224489796173232 0 0 0.055599947731468188 0.063390459096043877 0 0.05997194079032258 0.04512095697672458 0 0.038287656994838798 0.053045050008237282 0 0.05997194079032258 0.04512095697672458 0 0.04395097424174637 0.032880702536447093 0 0.038287656994838798 0.053045050008237282 0 0.05997194079032258 0.04512095697672458 0 0.06014203299484646 0.028800515441748099 0 0.04395097424174637 0.032880702536447093 0 0.02085901357486063 0.03347530932066585 0 0.038287656994838798 0.053045050008237282 0 0.04395097424174637 0.032880702536447093 0 0.016784005309402529 0.052942578394164941 0 0.024773355977313231 0.067081421531037314 0 0.038287656994838798 0.053045050008237282 0 0.02085901357486063 0.03347530932066585 0 0.016784005309402529 0.052942578394164941 0 0.038287656994838798 0.053045050008237282 0 0.02085901357486063 0.03347530932066585 0 0 0.022222222222172731 0 0 0.04444444444434547 0 0.016784005309402529 0.052942578394164941 0 0.02085901357486063 0.03347530932066585 0 0 0.04444444444434547 0 0 0.066666666666538782 0 0.024773355977313231 0.067081421531037314 0 0.016784005309402529 0.052942578394164941 0 0 0.066666666666538782 0 0.016784005309402529 0.052942578394164941 0 0 0.04444444444434547 0 0.024773355977313231 0.067081421531037314 0 0 0.066666666666538782 0 0.0207341866468383 0.086451824494522836 0 0.01494008276341045 0.1008555938909899 0 0.0207341866468383 0.086451824494522836 0 0 0.088888888888738943 0 0.0207341866468383 0.086451824494522836 0 0 0.066666666666538782 0 0 0.088888888888738943 0 0.0207341866468383 0.086451824494522836 0 0.044093637822741567 0.077061145711795925 0 0.024773355977313231 0.067081421531037314 0 0.01494008276341045 0.1008555938909899 0 0 0.1111111111109777 0 0.021796908541191849 0.1185794897852074 0 0.021796908541191849 0.1185794897852074 0 0 0.1111111111109777 0 0 0.13333333333325489 0 0 0.1111111111109777 0 0.01494008276341045 0.1008555938909899 0 0 0.088888888888738943 0 0.01494008276341045 0.1008555938909899 0 0.032717449973680472 0.098326472725607031 0 0.0207341866468383 0.086451824494522836 0 0.032717449973680472 0.098326472725607031 0 0.01494008276341045 0.1008555938909899 0 0.021796908541191849 0.1185794897852074 0 0.032717449973680472 0.098326472725607031 0 0.021796908541191849 0.1185794897852074 0 0.043801444738163997 0.1121383540808015 0 0.042554332387182259 0.13368213047820371 0 0.043801444738163997 0.1121383540808015 0 0.021796908541191849 0.1185794897852074 0 0.032717449973680472 0.098326472725607031 0 0.043801444738163997 0.1121383540808015 0 0.05587596540385175 0.095449649785454282 0 0.064375376681575586 0.1198167832100239 0 0.05587596540385175 0.095449649785454282 0 0.043801444738163997 0.1121383540808015 0 0.043801444738163997 0.1121383540808015 0 0.042554332387182259 0.13368213047820371 0 0.064375376681575586 0.1198167832100239 0 0.038287656994838798 0.053045050008237282 0 0.044093637822741567 0.077061145711795925 0 0.055599947731468188 0.063390459096043877 0 0.044093637822741567 0.077061145711795925 0 0.038287656994838798 0.053045050008237282 0 0.024773355977313231 0.067081421531037314 0 0.0207341866468383 0.086451824494522836 0 0.032717449973680472 0.098326472725607031 0 0.044093637822741567 0.077061145711795925 0 0.044093637822741567 0.077061145711795925 0 0.032717449973680472 0.098326472725607031 0 0.05587596540385175 0.095449649785454282 0 0.05587596540385175 0.095449649785454282 0 0.069428650838703046 0.078109012133597111 0 0.044093637822741567 0.077061145711795925 0 0.069428650838703046 0.078109012133597111 0 0.055599947731468188 0.063390459096043877 0 0.044093637822741567 0.077061145711795925 0 0.069428650838703046 0.078109012133597111 0 0.074122400072202652 0.058482788768393967 0 0.055599947731468188 0.063390459096043877 0 0.08347748713356852 0.068933876054200802 0 0.074122400072202652 0.058482788768393967 0 0.069428650838703046 0.078109012133597111 0 0.077413543502816748 0.10030203404452311 0 0.069428650838703046 0.078109012133597111 0 0.05587596540385175 0.095449649785454282 0 0.069428650838703046 0.078109012133597111 0 0.077413543502816748 0.10030203404452311 0 0.094169754915606196 0.082171266397786241 0 0.08347748713356852 0.068933876054200802 0 0.094169754915606196 0.082171266397786241 0 0.096189142707762201 0.05697243691702588 0 0.094169754915606196 0.082171266397786241 0 0.08347748713356852 0.068933876054200802 0 0.069428650838703046 0.078109012133597111 0 0.064375376681575586 0.1198167832100239 0 0.085089729736171488 0.119617281284406 0 0.077413543502816748 0.10030203404452311 0 0.064375376681575586 0.1198167832100239 0 0.077413543502816748 0.10030203404452311 0 0.05587596540385175 0.095449649785454282 0 0.077413543502816748 0.10030203404452311 0 0.098955340253080407 0.1056404584089907 0 0.094169754915606196 0.082171266397786241 0 0.098955340253080407 0.1056404584089907 0 0.077413543502816748 0.10030203404452311 0 0.085089729736171488 0.119617281284406 0 0.085089729736171488 0.119617281284406 0 0.1042644740555471 0.12799034491895131 0 0.098955340253080407 0.1056404584089907 0 0.1042644740555471 0.12799034491895131 0 0.1170604350569325 0.1121452492360058 0 0.098955340253080407 0.1056404584089907 0 0.098955340253080407 0.1056404584089907 0 0.11693983748236721 0.093447218298871995 0 0.094169754915606196 0.082171266397786241 0 0.098955340253080407 0.1056404584089907 0 0.1170604350569325 0.1121452492360058 0 0.11693983748236721 0.093447218298871995 0 0.11693983748236721 0.093447218298871995 0 0.1170604350569325 0.1121452492360058 0 0.132629020125939 0.10596507531517151 0 0.1273498583307075 0.1248993784176109 0 0.1170604350569325 0.1121452492360058 0 0.1042644740555471 0.12799034491895131 0 0.096189142707762201 0.05697243691702588 0 0.094169754915606196 0.082171266397786241 0 0.11837332598570451 0.071168852510895733 0 0.094169754915606196 0.082171266397786241 0 0.11693983748236721 0.093447218298871995 0 0.11837332598570451 0.071168852510895733 0 0.11693983748236721 0.093447218298871995 0 0.13780375874147449 0.08587856819508799 0 0.11837332598570451 0.071168852510895733 0 0.11837332598570451 0.071168852510895733 0 0.12111194339545479 0.04844499445275665 0 0.096189142707762201 0.05697243691702588 0 0.103555154504992 0.036186477933083078 0 0.096189142707762201 0.05697243691702588 0 0.12111194339545479 0.04844499445275665 0 0.12394502061713961 0.031222640348626381 0 0.103555154504992 0.036186477933083078 0 0.12111194339545479 0.04844499445275665 0 0.12394502061713961 0.031222640348626381 0 0.13485946140366309 0.018399825352228508 0 0.11299168747658229 0.018223577284824748 0 0.11299168747658229 0.018223577284824748 0 0.103555154504992 0.036186477933083078 0 0.12394502061713961 0.031222640348626381 0 0.1020408163269555 0 0 0.11299168747658229 0.018223577284824748 0 0.1224489795923465 0 0 0.1224489795923465 0 0 0.11299168747658229 0.018223577284824748 0 0.13485946140366309 0.018399825352228508 0 0.091646580262525548 0.018330347140998932 0 0.11299168747658229 0.018223577284824748 0 0.1020408163269555 0 0 0.103555154504992 0.036186477933083078 0 0.11299168747658229 0.018223577284824748 0 0.091646580262525548 0.018330347140998932 0 0.103555154504992 0.036186477933083078 0 0.091646580262525548 0.018330347140998932 0 0.079421396932280591 0.03754246087862223 0 0.091646580262525548 0.018330347140998932 0 0.070237773272778581 0.018029566749463509 0 0.079421396932280591 0.03754246087862223 0 0.081632653061564309 0 0 0.091646580262525548 0.018330347140998932 0 0.1020408163269555 0 0 0.091646580262525548 0.018330347140998932 0 0.081632653061564309 0 0 0.070237773272778581 0.018029566749463509 0 0.070237773272778581 0.018029566749463509 0 0.081632653061564309 0 0 0.061224489796173232 0 0 0.079421396932280591 0.03754246087862223 0 0.070237773272778581 0.018029566749463509 0 0.06014203299484646 0.028800515441748099 0 0.06014203299484646 0.028800515441748099 0 0.05997194079032258 0.04512095697672458 0 0.079421396932280591 0.03754246087862223 0 0.079421396932280591 0.03754246087862223 0 0.05997194079032258 0.04512095697672458 0 0.074122400072202652 0.058482788768393967 0 0.074122400072202652 0.058482788768393967 0 0.05997194079032258 0.04512095697672458 0 0.055599947731468188 0.063390459096043877 0 0.074122400072202652 0.058482788768393967 0 0.08347748713356852 0.068933876054200802 0 0.096189142707762201 0.05697243691702588 0 0.074122400072202652 0.058482788
[...]
<PointData Scalars="A_conc," Vectors="" Tensors="">
<DataArray type="Float64" Name="A_conc" format="ascii">
0.0099873813282160048 0.011326904994562395 0.0099778903204039582 0.011355129711729547 0.011963521199628666 0.0099596365012433168 0.011356672914542636 0.0099647472072315058 0.012033261558851021 0.013117360779174504 0.011365731636809864 0.01206799596307254 0.011998011086089916 0.013154687828256068 0.014381974432488547 0.011367166675855118 0.013122137389694722 0.012003465800998307 0.015903694922759122 0.014437070263630109 0.013153613926140204 0.015914760000240894 0.013143277712135406 0.014864371936368867 0.014788575474736151 0.01315262258877915 0.012064167586793436 0.017173407588834236 0.015975544388278067 0.014875055372739693 0.015979779323507484 0.017211259149590739 0.018798535729123326 0.014434147520410109 0.015971634911711469 0.017303144497456242 0.015974774184228824 0.018814050374295066 0.017367070498849127 0.01650934085479985 0.017132405198292108 0.0140942233331949 0.017077390750790296 0.014877538921893144 0.014127008568322972 0.017164941256055995 0.017208610411339715 0.014857281266127571 0.012042982257096607 0.014103914969133016 0.014817778738468273 0.011625023466925405 0.012492667374756702 0.014053006775228529 0.012067415561438919 0.011626923729867667 0.014033871096210911 0.011970978811706168 0.0099915002125417103 0.009984994567069758 0.011609832213420625 0.012032690918415965 0.0099583360166535552 0.0099587151111073316 0.012432090162070648 0.01160977850399289 0.0099818728496401804 0.011569859775038775 0.0099834129036681599 0.012446205101766326 0.0099503901522948156 0.012032433222192017 0.011419687948517908 0.012005515034870844 0.0099618352864399903 0.011967933236430655 0.0099841345956572462 0.0099912666585986378 0.012063376173904105 0.014763061442049485 0.012500683474004822 0.01141934046349901 0.0099627378820656299 0.012127741989369648 0.012063891567629 0.0099882009694815584 0.0099858071655648736 0.0099821396515774909 0.011388021926910838 0.0099809131848718723 0.011432599113640975 0.013375010385354521 0.012044430200810835 0.01338420771921198 0.011429948689869433 0.012168438040822786 0.013423135203802432 0.012162581476887152 0.014775981899294606 0.014654752947292004 0.014814427345072521 0.01213301576504896 0.013425422105971824 0.014838598843631246 0.016485017010632087 0.017826754406730545 0.016559036605334167 0.014834952254795499 0.014860344574304657 0.014692933527186341 0.01774521850627812 0.014128963160269127 0.014892272376435053 0.016468708769167437 0.014853027224278019 0.014117577769803748 0.012481365473907149 0.012034900297111059 0.013422834913780889 0.014831222037456309 0.01488883135237771 0.013422571841821173 0.016466061707110468 0.016549320105915935 0.018607387855147758 0.01489018653637768 0.01860167215902821 0.016513984007540044 0.014880957806157717 0.018707067413015421 0.019492736470632831 0.01650576160335589 0.021210259714138584 0.019541445009283356 0.01872535887616401 0.020040733518588542 0.018720284941506283 0.016540680635880628 0.018732949076611886 0.020111731376375449 0.023227575518164012 0.021244527257127634 0.023402730578985793 0.023815528194406174 0.023296642716702582 0.021236881082607188 0.018699582712404201 0.017868475561144306 0.021482768145059308 0.020113638212251737 0.017883566678286719 0.020016635557141501 0.016565136029380076 0.020082998928055183 0.024357627874129029 0.023373207025079033 0.02430142370188678 0.020127469725669634 0.021559514807227575 0.021537936392581204 0.02557137465902521 0.024417713103564932 0.025637455686081126 0.028636771259556677 0.024439720253552424 0.024437434511184592 0.028519957183459465 0.023408218924474967 0.024387999328368156 0.02871597061594703 0.028665975871617944 0.028722490603906969 0.028774475602587172 0.032933928891715945 0.031381899797307003 0.028728679677377772 0.025617603568824764 0.023841541889294111 0.023417949861137283 0.028841897570358616 0.023318860839161508 0.028652162457186839 0.029000268855727752 0.028738854885924092 0.034401933733508958 0.029105112010350414 0.029038742438017028 0.029702733631409392 0.023747193555749984 0.025466136872989809 0.023832262872336366 0.0295814068418709 0.030530435743415907 0.025423200166390186 0.029768165044049763 0.030566795619003485 0.033598077700956214 0.027728164599800344 0.027724938381029084 0.025467503094663568 0.030455251246162132 0.025087111752529725 0.027729598099192575 0.030038138850577309 0.030147727861437906 0.027734645202931826 0.03358688915636919 0.02288538281742835 0.027614625802746252 0.025092149360902354 0.025460611717872443 0.027616120998640664 0.022870044814943796 0.025326988985345671 0.022871430528007341 0.020481896413085659 0.022772454510040445 0.018862968283021624 0.020491974277719777 0.020876876930356596 0.022886905291782111 0.024997804816876967 0.022794591680579356 0.020875371739022031 0.018863302637050484 0.018869691603031511 0.020794122725866782 0.017366382226872621 0.020437766756203971 0.018862070676019749 0.017207807693081112 0.017237435517224304 0.017192200043164779 0.020346400625771741 0.020435459253963308 0.017164096300711112 0.019520417012851697 0.019446206109951281 0.017186434009681999 0.01653578957403468 0.019528082561753667 0.021255617589193646 0.023714573404415282 0.019539220109841209 0.023676587182079184 0.020490050578941224 0.020453359471356469 0.023800735880064539 0.02535295467741781 0.011970605748921012 0.011328969001105492 0.0099669417264764085 0.013485844577049533 0.012001475398238657 0.014401797903584314 0.017323257865655698 0.016280478350105394 0.014438841035383837 0.016289137893105845 0.0178777318746411 0.015676591029321719 0.015705628734144588 0.015678254104283366 0.017824089709498451 0.015653881048565965 0.017913595097777263 0.017873776935121283 0.015685069461155353 0.013778819656698754 0.015658542776392659 0.015611085832308056 0.013801296439139868 0.01349653692178804 0.016240197422084063 0.015653281513363385 0.013465975820239435 0.016207508861458719 0.013494527328935893 0.014452384225647668 0.013415836206729854 0.011662657446842117 0.011343860159499047 0.013441262061438485 0.011339991701078271 0.012011052035696475 0.0099669654173107896 0.011332127038070407 0.011640648582980894 0.011301917377333512 0.009986564004811644 0.0099817414658866701 0.0099855361887838234 0.011604187451746593 0.0099860766203437191 0.013476424191009393 0.01376970408062712 0.011643241952110105 0.011673477026957131 0.01372394498155797 0.011914138521591745 0.0099608562809269836 0.011653632695332804 0.01188487180209453 0.0099843560047782384 0.011836528050809012 0.0099840038633953951 0.011898099174563309 0.012133785789309849 0.009954044262909665 0.012170753096910207 0.011924249167589128 0.014561370956906424 0.015668362866729849 0.014681589426354016 0.01379349434682418 0.011888978724830324 0.013778157536495755 0.014628624718420177 0.014680879593399603 0.015698701306454555 0.017179607376327021 0.017231096477426124 0.015689143301333475 0.017862072184813817 0.014645605295065534 0.017212151188075637 0.017844665970411535 0.017239427117521681 0.020594007135755987 0.017898674872410439 0.021510409300763172 0.017867527902358949 0.020686625789588648 0.017858696563815942 0.021086916717463332 0.020685586171521601 0.020594988134731252 0.017239985376120801 0.01788942205991902 0.020717199004257822 0.021134203587673706 0.02496171628890248 0.021579027021724068 0.020717300891035663 0.02542489569279139 0.025639626561989797 0.025132403277938985 0.029452904422815163 0.025066308674477757 0.025549250138191582 0.020643800639998884 0.031411605139019964 0.025584703205202178 0.029562213960625066 0.025062612789376604 0.03139175302682979 0.029549257981743376 0.02510038254597774 0.021063373893438084 0.02592910543023183 0.031459179655510601 0.02593883295150411 0.032032200347649302 0.031236564043615425 0.02515246857862324 0.026021548075151731 0.026026073754698734 0.027104018419583889 0.031878632411967381 0.027038602598170328 0.0260005917106669 0.022978393372317319 0.02111581254099202 0.022993743340883707 0.025863416578885107 0.02111566860010531 0.019304599078303369 0.022917797681058137 0.01793897649450326 0.020994312356095345 0.017897840955888811 0.021061020190084531 0.017921255542303963 0.019308664880832344 0.019250012713660974 0.017917104251772713 0.016280765964614776 0.016292647850366212 0.01738301511034512 0.019236445417144678 0.020821371351837033 0.019305161484115058 0.017372072199009748 0.020896735940589231 0.022910857547503671 0.019311507091855806 0.022994273855367096 0.020890344065348187 0.025018262259793235 0.026999898694794591 0.022995507109305351 0.025111384138835503 0.030045544563506263 0.027078743827907724 0.025120670669233194 0.027063551930961698 0.030164668816347641 0.032056598770218284 0.036063062696207293 0.032141146060791562 0.030179535640407894 0.039017256756571105 0.032111675137735322 0.036210647726329079 0.039172093498224175 0.036240537558984209 0.04331452993620525 0.045442532913475484 0.043509883081728762 0.051905241348312176 0.04535365762844449 0.039153984544103584 0.043482805574541074 0.052127466714218473 0.053457275690783554 0.045374827557610992 0.045467893687718253 0.053276435103415419 0.045643998198687516 0.053490483017612701 0.055266631523205441 0.045540752862465436 0.045375321140972293 0.045544464508798545 0.038453145431773375 0.039207487045537621 0.045208456360144762 0.038545958595969716 0.03845479660905908 0.032050430313260082 0.039086435281219044 0.031541758367308763 0.032143459999376574 0.038234355116537444 0.038535283182408023 0.045305379067370345 0.03767625817995638 0.037596049144596584 0.031438202986119955 0.038418004337118984 0.041618070826425949 0.035163687370585832 0.037642598969608948 0.037525851335195419 0.035143260559508005 0.031507075267223003 0.03152776753744331 0.035024888397639994 0.029593314237276444 0.035012828180059297 0.031534929909076186 0.029596435548198435 0.036114595362137264 0.031512405763026996 0.035148929154134992 0.042622284300504978 0.036173951979948736 0.035177411101460679 0.035064481852933843 0.04172919049094137 0.042821388526438658 0.048764380288731382 0.042949675859399773 0.041809978936843413 0.037621224398117478 0.045474196270079696 0.041761249693468942 0.041767264265966074 0.045635483455726121 0.04884492900122564 0.055138000176955693 0.048971018435965276 0.045643586426701986 0.048977142060492911 0.058963831253470773 0.052879552283973771 0.042886652789758291 0.048940362976819585 0.052666476302803439 0.055436513757753228 0.065550124057453474 0.059260855150271644 0.048925141038282105 0.055394152299668493 0.059053341653537032 0.070986030448248194 0.059229638233882886 0.065783607771963001 0.076592652426597949 0.071244160554283439 0.065803851203474553 0.059247887681980006 0.070935611416784006 0.064214527456617751 0.07123759218556773 0.086618013279679232 0.07745249570681878 0.087084824498952371 0.10096223840549905 0.093439590712037626 0.076730344356425076 0.090380811696609581 0.087029735640661451 0.090590995745064781 0.10022292247506248 0.087115706053059225 0.071251936166848814 0.076798093529174979 0.086630377642900214 0.074060041320539421 0.07668445959531274 0.06576665702151259 0.076851677080364902 0.074130106825210956 0.089837301235886069 0.082439240082328627 0.090147176909387075 0.074009309647344132 0.090473909554640103 0.082449226712457607 0.10143729566309491 0.082194332363715664 0.074079863164131038 0.071314583420351033 0.073921158745189661 0.063264323660575675 0.071251261837754598 0.062587100347105545 0.071062517175798326 0.063371088769371017 0.063355291459697871 0.073803150681489404 0.065845592607988918 0.055368463003761963 0.063279136958371257 0.065670627280397006 0.055445415130711807 0.053586500598253782 0.06304381589542718 0.062475160404047575 0.063228511645801802 0.053472174379774529 0.062197636300441887 0.053580002115959383 0.052198191469298764 0.071205639853143113 0.062483921924548005 0.074748183906852603 0.082221019005315532 0.071282591020744218 0.074982820310361298 0.082428090378187935 0.08978789925078641 0.10152463114240363 0.089468869830206008 0.082421616625426963 0.074943824505115733 0.048884511968544118 0.043228227519422353 0.041912864460738095 0.049021027515479987 0.048127893368282236 0.043180564145389788 0.049038050652110539 0.041811509781173761 0.050203262273465631 0.050337902212835649 0.057892778384587444 0.049123467301546757 0.049087704571601699 0.055077943565269627 0.048168032520005712 0.048077373827543173 0.055210082408515701 0.058225725809917812 0.058120090881695285 0.052139517494131912 0.04815719687995023 0.043442411178395646 0.048143866053668695 0.051955222963005324 0.04347060983253892 0.04145502787865607 0.048019984022296069 0.043215930855589973 0.047977936718518091 0.041461528932329524 0.033747072023142706 0.036690304433614637 0.041215535840813458 0.04119298631711954 0.036208390851786627 0.033755026006995086 0.03616543034356496 0.041405349629389521 0.043334132312441077 0.030131312407091302 0.033736094867152136 0.036083481606200188 0.03374293342544607 0.030563657259836809 0.036582785287790437 0.030615360580640984 0.029820035489830529 0.036387857901956609 0.036663971460269659 0.043105673235813061 0.041415729418603081 0.043127840801392453 0.036657331317896023 0.041861744118444344 0.035988468342626603 0.041730101766778341 0.036715009392416273 0.0297283330397075 0.03589810581941847 0.036590402087588757 0.035674112695683775 0.029819761935884988 0.029120557949189135 0.034587320146190245 0.035850893433792809 0.029020397179704553 0.034576731461656698 0.039939488401553029 0.042589316709980091 0.041854049167394748 0.035902694866628289 0.042667605335453031 0.042413451740428668 0.03598350571894593 0.034657858256026006 0.02873661828297943 0.031533866188221626 0.033009032568665796 0.033067775953058431 0.031547387039501378 0.036070252399389047 0.034526984701011981 0.028667479208890848 0.033040980763250488 0.039741411731595774 0.034629503619371726 0.033081295429926195 0.033050556678128902 0.036158909568269698 0.039825584440432008 0.03615126724748554 0.042832136665481697 0.039969244920450002 0.039982160101858719 0.042960766236335587 0.047888593847100473 0.042758517363501981 0.039982603434553475 0.047870091069525188 0.048086655361852422 0.052891600176492533 0.058557522474202969 0.058498179041362404 0.051163535961463814 0.048120084082337866 0.052628739332744749 0.048077222919475422 0.042932156522284243 0.042766422448712704 0.050009249179135268 0.04192105201189969 0.048073795320447317 0.051002785593847327 0.042722792031905064 0.050247965894146547 0.042669236771401067 0.05107268398982389 0.058157554531064318 0.050222027926321453 0.06127939453465104 0.050345158314446914 0.051205434285855618 0.060994914470663839 0.051091762883789783 0.058796423855146988 0.061362649672933429 0.070001060184207556 0.077121756400416491 0.061459965455226445 0.069727386726109425 0.061538945748932705 0.0588670609960995 0.058226735924034344 0.061483118172836033 0.071944236992907445 0.077168318154098053 0.072419961543668476 0.061348876728537116 0.059221687849682465 0.063961735521380972 0.052847339106283024 0.058820540446099488 0.052877635636831358 0.063976974888499974 0.064235817262824416 0.069811850870558759 0.05883317438427383 0.077189862137095111 0.070047272144990472 0.064233403419200572 0.071212187026704732 0.077152606219677289 0.064188268929829276 0.070027913042777473 0.077484554018626736 0.083209288916165552 0.098125407426514474 0.093502179578368386 0.08340449343278851 0.093435767041260276 0.098139207845623147 0.08341926107814758 0.087034803383838594 0.093131333993554943 0.077404024541300007 0.093016672513360113 0.08348086934100421 0.077509498189846343 0.088008326601495046 0.072535536271511089 0.07754395370720997 0.077576851589961721 0.070020412154919651 0.083204936030575327 0.083475179514329159 0.093086127564894997 0.077604606282927258 0.093219253531336727 0.088449930876724425 0.077463753519728965 0.088545896415020739 0.096113287939193076 0.081766913998181437 0.081584103867540683 0.096268042849482163 0.099680512459540488 0.065006474077910228 0.0724700200588448 0.08123891002652639 0.072445282060623339 0.088202758046934462 0.081723529837024092 0.072132402030325782 0.065010038052919494 0.058120675391179391 0.05521611620567482 0.049021109211005991 0.058023812702166049 0.058167955442141969 0.064785020500680648 0.055257498775444946 0.052109168958931383 0.058380002436762175 0.062320851665477461 0.055271964349797871 0.064832718352934207 0.058423327921161783 0.058382087537672843 0.065035031671972721 0.069886229613252845 0.062486635724060213 0.070070021274380792 0.07469839756862183 0.05841475448518927 0.069787199731875152 0.062531738355874403 0.070113944034248088 0.082133886393699632 0.074948405414828626 0.081679897641229487 0.082346624303724428 0.070018545369810406 0.070126712461760263 0.065061632963075211 0.081188968062435488 0.08251823625004627 0.08182518937341289 0.099101068128319633 0.089774989154705317 0.082383864600846138 0.099592709676362648 0.082378317952340907 0.08945556675909247 0.074933857460176806 0.099929529978167175 0.10713831843628382 0.089744894015229421 0.11989728601559108 0.11826968095951307 0.099734178843467636 0.11800783852637407 0.1075006450346781 0.099973474775325075 0.10745898103507413 0.11838493593662097 0.12815497438672163 0.088518921690343852 0.10275225068070079 0.096407434538606895 0.1113964362380476 0.096446536430760121 0.1029979415684717 0.096432665670483891 0.11126645191576741 0.099994425266489315 0.11158049943931359 0.1197132580005919 0.099902161394483019 0.12012266047378196 0.11166101436127349 0.13558716291090187 0.10297595370946776 0.11902388905619241 0.11167576441109257 0.11168906369509005 0.11925300673047369 0.13537146288610641 0.13606811347023584 0.11913581710984796 0.14388551399523147 0.13932564235637959 0.12002675756485104 0.13612799597235073 0.13958186209137047 0.13627501048560564 0.16740019272146781 0.16839065348978227 0.16838078842719056 0.13570825183963606 0.13620858991997248 0.14438642124955506 0.16763287629810042 0.12859741948710796 0.13955098830766111 0.15317686806793071 0.13918338400399025 0.12860172682412049 0.11840205444154875 0.13877493672071267 0.1185137372933949 0.12021181332309541 0.16837460202940285 0.16625258760153552 0.13918274385664528 0.1659498371651319 0.15373459347241483 0.13951215062802302 0.18301681931418087 0.15375810363022827 0.16648462492839008 0.1916048739714418 0.1836819997533426 0.16642957646787454 0.21775567553709421 0.21917624604887442 0.19170785389828415 0.19196996115428491 0.21829677999918004 0.18378511667803321 0.19175662304120589 0.16860413734337104 0.21030288897352489 0.21137265679718514 0.21763824707053961 0.19183891920959809 0.16662065981812577 0.16883673783367528 0.19120052779829777 0.18656492733537533 0.16895366361192751 0.16896406655993107 0.2016609055025938 0.18678843055727862 0.16882180699212565 0.18683433945838551 0.20236491295008402 0.21134289259510425 0.16874397760533044 0.18692310616500241 0.21009501929116806 0.23288788586392117 0.26055536314110234 0.21150542387855212 0.25276956215274016 0.21090184096267794 0.26124313828636003 0.20242004630720076 0.23231593273671008 0.21162403471940994 0.26223179864626495 0.26266481833150068 0.31432051854260096 0.2619547449779851 0.23280888397320407 0.26237564742391456 0.26220162727987961 0.30574629899481898 0.25331432347758293 0.26192620696615554 0.25326324681620915 0.29351055191581876 0.25289740365538182 0.26120292767366532 0.21914568395196399 0.21947589484783636 0.21801103463729898 0.25219031845533552 0.21796776422458478 0.2115110155564193 0.25173770395835904 0.21549669989583703 0.25060129358176342 0.21442137004515785 0.21535854431223103 0.23310091901590949 0.25151863294470761 0.23233188501965998 0.21529488330666527 0.19368975992839058 0.23309363757828158 0.28369647224599165 0.25212003510144348 0.28360830211947696 0.23232891247835222 0.25217298642202779 0.26233956115672569 0.23202467344208685 0.28420480732323733 0.23312134862954886 0.2323350204553884 0.26178455260617423 0.23200243582777394 0.232762926624275 0.20213963503032509 0.23234044054086309 0.21419362019639884 0.25154252099628549 0.18865503060183925 0.21360694507140465 0.18962651206918754 0.21408022758883435 0.231