<?xml version="1.0"?>
<VTKFile type="UnstructuredGrid" version="0.1" byte_order="LittleEndian">
<UnstructuredGrid>
<Piece NumberOfPoints="441" NumberOfCells="800">
<Points>
<DataArray type="Float64" NumberOfComponents="3" format="ascii">
1.0000000000 0.0000000000 0.0000000000 1.0000000000 1.0000000000 0.0000000000 0.0000000000 0.0000000000 0.0000000000 0.0000000000 1.0000000000 0.0000000000 1.0000000000 0.0500000000 0.0000000000 1.0000000000 0.1000000000 0.0000000000 1.0000000000 0.1500000000 0.0000000000 1.0000000000 0.2000000000 0.0000000000 1.0000000000 0.2500000000 0.0000000000 1.0000000000 0.3000000000 0.0000000000 1.0000000000 0.3500000000 0.0000000000 1.0000000000 0.4000000000 0.0000000000 1.0000000000 0.4500000000 0.0000000000 1.0000000000 0.5000000000 0.0000000000 1.0000000000 0.5500000000 0.0000000000 1.0000000000 0.6000000000 0.0000000000 1.0000000000 0.6500000000 0.0000000000 1.0000000000 0.7000000000 0.0000000000 1.0000000000 0.7500000000 0.0000000000 1.0000000000 0.8000000000 0.0000000000 1.0000000000 0.8500000000 0.0000000000 1.0000000000 0.9000000000 0.0000000000 1.0000000000 0.9500000000 0.0000000000 0.0000000000 0.0500000000 0.0000000000 0.0000000000 0.1000000000 0.0000000000 0.0000000000 0.1500000000 0.0000000000 0.0000000000 0.2000000000 0.0000000000 0.0000000000 0.2500000000 0.0000000000 0.0000000000 0.3000000000 0.0000000000 0.0000000000 0.3500000000 0.0000000000 0.0000000000 0.4000000000 0.0000000000 0.0000000000 0.4500000000 0.0000000000 0.0000000000 0.5000000000 0.0000000000 0.0000000000 0.5500000000 0.0000000000 0.0000000000 0.6000000000 0.0000000000 0.0000000000 0.6500000000 0.0000000000 0.0000000000 0.7000000000 0.0000000000 0.0000000000 0.7500000000 0.0000000000 0.0000000000 0.8000000000 0.0000000000 0.0000000000 0.8500000000 0.0000000000 0.0000000000 0.9000000000 0.0000000000 0.0000000000 0.9500000000 0.0000000000 0.9500000000 0.0000000000 0.0000000000 0.9000000000 0.0000000000 0.0000000000 0.8500000000 0.0000000000 0.0000000000 0.8000000000 0.0000000000 0.0000000000 0.7500000000 0.0000000000 0.0000000000 0.7000000000 0.0000000000 0.0000000000 0.6500000000 0.0000000000 0.0000000000 0.6000000000 0.0000000000 0.0000000000 0.5500000000 0.0000000000 0.0000000000 0.5000000000 0.0000000000 0.0000000000 0.4500000000 0.0000000000 0.0000000000 0.4000000000 0.0000000000 0.0000000000 0.3500000000 0.0000000000 0.0000000000 0.3000000000 0.0000000000 0.0000000000 0.2500000000 0.0000000000 0.0000000000 0.2000000000 0.0000000000 0.0000000000 0.1500000000 0.0000000000 0.0000000000 0.1000000000 0.0000000000 0.0000000000 0.0500000000 0.0000000000 0.0000000000 0.9500000000 1.0000000000 0.0000000000 0.9000000000 1.0000000000 0.0000000000 0.8500000000 1.0000000000 0.0000000000 0.8000000000 1.0000000000 0.0000000000 0.7500000000 1.0000000000 0.0000000000 0.7000000000 1.0000000000 0.0000000000 0.6500000000 1.0000000000 0.0000000000 0.6000000000 1.0000000000 0.0000000000 0.5500000000 1.0000000000 0.0000000000 0.5000000000 1.0000000000 0.0000000000 0.4500000000 1.0000000000 0.0000000000 0.4000000000 1.0000000000 0.0000000000 0.3500000000 1.0000000000 0.0000000000 0.3000000000 1.0000000000 0.0000000000 0.2500000000 1.0000000000 0.0000000000 0.2000000000 1.0000000000 0.0000000000 0.1500000000 1.0000000000 0.0000000000 0.1000000000 1.0000000000 0.0000000000 0.0500000000 1.0000000000 0.0000000000 0.9500000000 0.0500000000 0.0000000000 0.9000000000 0.0500000000 0.0000000000 0.8500000000 0.0500000000 0.0000000000 0.8000000000 0.0500000000 0.0000000000 0.7500000000 0.0500000000 0.0000000000 0.7000000000 0.0500000000 0.0000000000 0.6500000000 0.0500000000 0.0000000000 0.6000000000 0.0500000000 0.0000000000 0.5500000000 0.0500000000 0.0000000000 0.5000000000 0.0500000000 0.0000000000 0.4500000000 0.0500000000 0.0000000000 0.4000000000 0.0500000000 0.0000000000 0.3500000000 0.0500000000 0.0000000000 0.3000000000 0.0500000000 0.0000000000 0.2500000000 0.0500000000 0.0000000000 0.2000000000 0.0500000000 0.0000000000 0.1500000000 0.0500000000 0.0000000000 0.1000000000 0.0500000000 0.0000000000 0.0500000000 0.0500000000 0.0000000000 0.9500000000 0.1000000000 0.0000000000 0.9000000000 0.1000000000 0.0000000000 0.8500000000 0.1000000000 0.0000000000 0.8000000000 0.1000000000 0.0000000000 0.7500000000 0.1000000000 0.0000000000 0.7000000000 0.1000000000 0.0000000000 0.6500000000 0.1000000000 0.0000000000 0.6000000000 0.1000000000 0.0000000000 0.5500000000 0.1000000000 0.0000000000 0.5000000000 0.1000000000 0.0000000000 0.4500000000 0.1000000000 0.0000000000 0.4000000000 0.1000000000 0.0000000000 0.3500000000 0.1000000000 0.0000000000 0.3000000000 0.1000000000 0.0000000000 0.2500000000 0.1000000000 0.0000000000 0.2000000000 0.1000000000 0.0000000000 0.1500000000 0.1000000000 0.0000000000 0.1000000000 0.1000000000 0.0000000000 0.0500000000 0.1000000000 0.0000000000 0.9500000000 0.1500000000 0.0000000000 0.9000000000 0.1500000000 0.0000000000 0.8500000000 0.1500000000 0.0000000000 0.8000000000 0.1500000000 0.0000000000 0.7500000000 0.1500000000 0.0000000000 0.7000000000 0.1500000000 0.0000000000 0.6500000000 0.1500000000 0.0000000000 0.6000000000 0.1500000000 0.0000000000 0.5500000000 0.1500000000 0.0000000000 0.5000000000 0.1500000000 0.0000000000 0.4500000000 0.1500000000 0.0000000000 0.4000000000 0.1500000000 0.0000000000 0.3500000000 0.1500000000 0.0000000000 0.3000000000 0.1500000000 0.0000000000 0.2500000000 0.1500000000 0.0000000000 0.2000000000 0.1500000000 0.0000000000 0.1500000000 0.1500000000 0.0000000000 0.1000000000 0.1500000000 0.0000000000 0.0500000000 0.1500000000 0.0000000000 0.9500000000 0.2000000000 0.0000000000 0.9000000000 0.2000000000 0.0000000000 0.8500000000 0.2000000000 0.0000000000 0.8000000000 0.2000000000 0.0000000000 0.7500000000 0.2000000000 0.0000000000 0.7000000000 0.2000000000 0.0000000000 0.6500000000 0.2000000000 0.0000000000 0.6000000000 0.2000000000 0.0000000000 0.5500000000 0.2000000000 0.0000000000 0.5000000000 0.2000000000 0.0000000000 0.4500000000 0.2000000000 0.0000000000 0.4000000000 0.2000000000 0.0000000000 0.3500000000 0.2000000000 0.0000000000 0.3000000000 0.2000000000 0.0000000000 0.2500000000 0.2000000000 0.0000000000 0.2000000000 0.2000000000 0.0000000000 0.1500000000 0.2000000000 0.0000000000 0.1000000000 0.2000000000 0.0000000000 0.0500000000 0.2000000000 0.0000000000 0.9500000000 0.2500000000 0.0000000000 0.9000000000 0.2500000000 0.0000000000 0.8500000000 0.2500000000 0.0000000000 0.8000000000 0.2500000000 0.0000000000 0.7500000000 0.2500000000 0.0000000000 0.7000000000 0.2500000000 0.0000000000 0.6500000000 0.2500000000 0.0000000000 0.6000000000 0.2500000000 0.0000000000 0.5500000000 0.2500000000 0.0000000000 0.5000000000 0.2500000000 0.0000000000 0.4500000000 0.2500000000 0.0000000000 0.4000000000 0.2500000000 0.0000000000 0.3500000000 0.2500000000 0.0000000000 0.3000000000 0.2500000000 0.0000000000 0.2500000000 0.2500000000 0.0000000000 0.2000000000 0.2500000000 0.0000000000 0.1500000000 0.2500000000 0.0000000000 0.1000000000 0.2500000000 0.0000000000 0.0500000000 0.2500000000 0.0000000000 0.9500000000 0.3000000000 0.0000000000 0.9000000000 0.3000000000 0.0000000000 0.8500000000 0.3000000000 0.0000000000 0.8000000000 0.3000000000 0.0000000000 0.7500000000 0.3000000000 0.0000000000 0.7000000000 0.3000000000 0.0000000000 0.6500000000 0.3000000000 0.0000000000 0.6000000000 0.3000000000 0.0000000000 0.5500000000 0.3000000000 0.0000000000 0.5000000000 0.3000000000 0.0000000000 0.4500000000 0.3000000000 0.0000000000 0.4000000000 0.3000000000 0.0000000000 0.3500000000 0.3000000000 0.0000000000 0.3000000000 0.3000000000 0.0000000000 0.2500000000 0.3000000000 0.0000000000 0.2000000000 0.3000000000 0.0000000000 0.1500000000 0.3000000000 0.0000000000 0.1000000000 0.3000000000 0.0000000000 0.0500000000 0.3000000000 0.0000000000 0.9500000000 0.3500000000 0.0000000000 0.9000000000 0.3500000000 0.0000000000 0.8500000000 0.3500000000 0.0000000000 0.8000000000 0.3500000000 0.0000000000 0.7500000000 0.3500000000 0.0000000000 0.7000000000 0.3500000000 0.0000000000 0.6500000000 0.3500000000 0.0000000000 0.6000000000 0.3500000000 0.0000000000 0.5500000000 0.3500000000 0.0000000000 0.5000000000 0.3500000000 0.0000000000 0.4500000000 0.3500000000 0.0000000000 0.4000000000 0.3500000000 0.0000000000 0.3500000000 0.3500000000 0.0000000000 0.3000000000 0.3500000000 0.0000000000 0.2500000000 0.3500000000 0.0000000000 0.2000000000 0.3500000000 0.0000000000 0.1500000000 0.3500000000 0.0000000000 0.1000000000 0.3500000000 0.0000000000 0.0500000000 0.3500000000 0.0000000000 0.9500000000 0.4000000000 0.0000000000 0.9000000000 0.4000000000 0.0000000000 0.8500000000 0.4000000000 0.0000000000 0.8000000000 0.4000000000 0.0000000000 0.7500000000 0.4000000000 0.0000000000 0.7000000000 0.4000000000 0.0000000000 0.6500000000 0.4000000000 0.0000000000 0.6000000000 0.4000000000 0.0000000000 0.5500000000 0.4000000000 0.0000000000 0.5000000000 0.4000000000 0.0000000000 0.4500000000 0.4000000000 0.0000000000 0.4000000000 0.4000000000 0.0000000000 0.3500000000 0.4000000000 0.0000000000 0.3000000000 0.4000000000 0.0000000000 0.2500000000 0.4000000000 0.0000000000 0.2000000000 0.4000000000 0.0000000000 0.1500000000 0.4000000000 0.0000000000 0.1000000000 0.4000000000 0.0000000000 0.0500000000 0.4000000000 0.0000000000 0.9500000000 0.4500000000 0.0000000000 0.9000000000 0.4500000000 0.0000000000 0.8500000000 0.4500000000 0.0000000000 0.8000000000 0.4500000000 0.0000000000 0.7500000000 0.4500000000 0.0000000000 0.7000000000 0.4500000000 0.0000000000 0.6500000000 0.4500000000 0.0000000000 0.6000000000 0.4500000000 0.0000000000 0.5500000000 0.4500000000 0.0000000000 0.5000000000 0.4500000000 0.0000000000 0.4500000000 0.4500000000 0.0000000000 0.4000000000 0.4500000000 0.0000000000 0.3500000000 0.4500000000 0.0000000000 0.3000000000 0.4500000000 0.0000000000 0.2500000000 0.4500000000 0.0000000000 0.2000000000 0.4500000000 0.0000000000 0.1500000000 0.4500000000 0.0000000000 0.1000000000 0.4500000000 0.0000000000 0.0500000000
[...]
<CellData Scalars="pressure_p0," Vectors="velocity_p0," Tensors="">
<DataArray type="Float64" Name="pressure_p0" format="ascii">
0.0160416667 0.0077083333 0.0143750000 0.0068750000 0.0127083333 0.0060416667 0.0110416667 0.0052083333 0.0093750000 0.0043750000 0.0077083333 0.0035416667 0.0060416667 0.0027083333 0.0043750000 0.0018750000 0.0027083333 0.0010416667 0.0010416667 0.0002083333 -0.0006250000 -0.0006250000 -0.0022916667 -0.0014583333 -0.0039583333 -0.0022916667 -0.0056250000 -0.0031250000 -0.0072916667 -0.0039583333 -0.0089583333 -0.0047916667 -0.0106250000 -0.0056250000 -0.0122916667 -0.0064583333 -0.0139583333 -0.0072916667 -0.0156250000 -0.0081250000 0.0402083333 0.0310416667 0.0360416667 0.0277083333 0.0318750000 0.0243750000 0.0277083333 0.0210416667 0.0235416667 0.0177083333 0.0193750000 0.0143750000 0.0152083333 0.0110416667 0.0110416667 0.0077083333 0.0068750000 0.0043750000 0.0027083333 0.0010416667 -0.0014583333 -0.0022916667 -0.0056250000 -0.0056250000 -0.0097916667 -0.0089583333 -0.0139583333 -0.0122916667 -0.0181250000 -0.0156250000 -0.0222916667 -0.0189583333 -0.0264583333 -0.0222916667 -0.0306250000 -0.0256250000 -0.0347916667 -0.0289583333 -0.0389583333 -0.0322916667 0.0643750000 0.0543750000 0.0577083333 0.0485416667 0.0510416667 0.0427083333 0.0443750000 0.0368750000 0.0377083333 0.0310416667 0.0310416667 0.0252083333 0.0243750000 0.0193750000 0.0177083333 0.0135416667 0.0110416667 0.0077083333 0.0043750000 0.0018750000 -0.0022916667 -0.0039583333 -0.0089583333 -0.0097916667 -0.0156250000 -0.0156250000 -0.0222916667 -0.0214583333 -0.0289583333 -0.0272916667 -0.0356250000 -0.0331250000 -0.0422916667 -0.0389583333 -0.0489583333 -0.0447916667 -0.0556250000 -0.0506250000 -0.0622916667 -0.0564583333 0.0885416667 0.0777083333 0.0793750000 0.0693750000 0.0702083333 0.0610416667 0.0610416667 0.0527083333 0.0518750000 0.0443750000 0.0427083333 0.0360416667 0.0335416667 0.0277083333 0.0243750000 0.0193750000 0.0152083333 0.0110416667 0.0060416667 0.0027083333 -0.0031250000 -0.0056250000 -0.0122916667 -0.0139583333 -0.0214583333 -0.0222916667 -0.0306250000 -0.0306250000 -0.0397916667 -0.0389583333 -0.0489583333 -0.0472916667 -0.0581250000 -0.0556250000 -0.0672916667 -0.0639583333 -0.0764583333 -0.0722916667 -0.0856250000 -0.0806250000 0.1127083333 0.1010416667 0.1010416667 0.0902083333 0.0893750000 0.0793750000 0.0777083333 0.0685416667 0.0660416667 0.0577083333 0.0543750000 0.0468750000 0.0427083333 0.0360416667 0.0310416667 0.0252083333 0.0193750000 0.0143750000 0.0077083333 0.0035416667 -0.0039583333 -0.0072916667 -0.0156250000 -0.0181250000 -0.0272916667 -0.0289583333 -0.0389583333 -0.0397916667 -0.0506250000 -0.0506250000 -0.0622916667 -0.0614583333 -0.0739583333 -0.0722916667 -0.0856250000 -0.0831250000 -0.0972916667 -0.0939583333 -0.1089583333 -0.1047916667 0.1368750000 0.1243750000 0.1227083333 0.1110416667 0.1085416667 0.0977083333 0.0943750000 0.0843750000 0.0802083333 0.0710416667 0.0660416667 0.0577083333 0.0518750000 0.0443750000 0.0377083333 0.0310416667 0.0235416667 0.0177083333 0.0093750000 0.0043750000 -0.0047916667 -0.0089583333 -0.0189583333 -0.0222916667 -0.0331250000 -0.0356250000 -0.0472916667 -0.0489583333 -0.0614583333 -0.0622916667 -0.0756250000 -0.0756250000 -0.0897916667 -0.0889583333 -0.1039583333 -0.1022916667 -0.1181250000 -0.1156250000 -0.1322916667 -0.1289583333 0.1610416667 0.1477083333 0.1443750000 0.1318750000 0.1277083333 0.1160416667 0.1110416667 0.1002083333 0.0943750000 0.0843750000 0.0777083333 0.0685416667 0.0610416667 0.0527083333 0.0443750000 0.0368750000 0.0277083333 0.0210416667 0.0110416667 0.0052083333 -0.0056250000 -0.0106250000 -0.0222916667 -0.0264583333 -0.0389583333 -0.0422916667 -0.0556250000 -0.0581250000 -0.0722916667 -0.0739583333 -0.0889583333 -0.0897916667 -0.1056250000 -0.1056250000 -0.1222916667 -0.1214583333 -0.1389583333 -0.1372916667 -0.1556250000 -0.1531250000 0.1852083333 0.1710416667 0.1660416667 0.1527083333 0.1468750000 0.1343750000 0.1277083333 0.1160416667 0.1085416667 0.0977083333 0.0893750000 0.0793750000 0.0702083333 0.0610416667 0.0510416667 0.0427083333 0.0318750000 0.0243750000 0.0127083333 0.0060416667 -0.0064583333 -0.0122916667 -0.0256250000 -0.0306250000 -0.0447916667 -0.0489583333 -0.0639583333 -0.0672916667 -0.0831250000 -0.0856250000 -0.1022916667 -0.1039583333 -0.1214583333 -0.1222916667 -0.1406250000 -0.1406250000 -0.1597916667 -0.1589583333 -0.1789583333 -0.1772916667 0.2093750000 0.1943750000 0.1877083333 0.1735416667 0.1660416667 0.1527083333 0.1443750000 0.1318750000 0.1227083333 0.1110416667 0.1010416667 0.0902083333 0.0793750000 0.0693750000 0.0577083333 0.0485416667 0.0360416667 0.0277083333 0.0143750000 0.0068750000 -0.0072916667 -0.0139583333 -0.0289583333 -0.0347916667 -0.0506250000 -0.0556250000 -0.0722916667 -0.0764583333 -0.0939583333 -0.0972916667 -0.1156250000 -0.1181250000 -0.1372916667 -0.1389583333 -0.1589583333 -0.1597916667 -0.1806250000 -0.1806250000 -0.2022916667 -0.2014583333 0.2335416667 0.2177083333 0.2093750000 0.1943750000 0.1852083333 0.1710416667 0.1610416667 0.1477083333 0.1368750000 0.1243750000 0.1127083333 0.1010416667 0.0885416667 0.0777083333 0.0643750000 0.0543750000 0.0402083333 0.0310416667 0.0160416667 0.0077083333 -0.0081250000 -0.0156250000 -0.0322916667 -0.0389583333 -0.0564583333 -0.0622916667 -0.0806250000 -0.0856250000 -0.1047916667 -0.1089583333 -0.1289583333 -0.1322916667 -0.1531250000 -0.1556250000 -0.1772916667 -0.1789583333 -0.2014583333 -0.2022916667 -0.2256250000 -0.2256250000 0.2577083333 0.2410416667 0.2310416667 0.2152083333 0.2043750000 0.1893750000 0.1777083333 0.1635416667 0.1510416667 0.1377083333 0.1243750000 0.1118750000 0.0977083333 0.0860416667 0.0710416667 0.0602083333 0.0443750000 0.0343750000 0.0177083333 0.0085416667 -0.0089583333 -0.0172916667 -0.0356250000 -0.0431250000 -0.0622916667 -0.0689583333 -0.0889583333 -0.0947916667 -0.1156250000 -0.1206250000 -0.1422916667 -0.1464583333 -0.1689583333 -0.1722916667 -0.1956250000 -0.1981250000 -0.2222916667 -0.2239583333 -0.2489583333 -0.2497916667 0.2818750000 0.2643750000 0.2527083333 0.2360416667 0.2235416667 0.2077083333 0.1943750000 0.1793750000 0.1652083333 0.1510416667 0.1360416667 0.1227083333 0.1068750000 0.0943750000 0.0777083333 0.0660416667 0.0485416667 0.0377083333 0.0193750000 0.0093750000 -0.0097916667 -0.0189583333 -0.0389583333 -0.0472916667 -0.0681250000 -0.0756250000 -0.0972916667 -0.1039583333 -0.1264583333 -0.1322916667 -0.1556250000 -0.1606250000 -0.1847916667 -0.1889583333 -0.2139583333 -0.2172916667 -0.2431250000 -0.2456250000 -0.2722916667 -0.2739583333 0.3060416667 0.2877083333 0.2743750000 0.2568750000 0.2427083333 0.2260416667 0.2110416667 0.1952083333 0.1793750000 0.1643750000 0.1477083333 0.1335416667 0.1160416667 0.1027083333 0.0843750000 0.0718750000 0.0527083333 0.0410416667 0.0210416667 0.0102083333 -0.0106250000 -0.0206250000 -0.0422916667 -0.0514583333 -0.0739583333 -0.0822916667 -0.1056250000 -0.1131250000 -0.1372916667 -0.1439583333 -0.1689583333 -0.1747916667 -0.2006250000 -0.2056250000 -0.2322916667 -0.2364583333 -0.2639583333 -0.2672916667 -0.2956250000 -0.2981250000 0.3302083333 0.3110416667 0.2960416667 0.2777083333 0.2618750000 0.2443750000 0.2277083333 0.2110416667 0.1935416667 0.1777083333 0.1593750000 0.1443750000 0.1252083333 0.1110416667 0.0910416667 0.0777083333 0.0568750000 0.0443750000 0.0227083333 0.0110416667 -0.0114583333 -0.0222916667 -0.0456250000 -0.0556250000 -0.0797916667 -0.0889583333 -0.1139583333 -0.1222916667 -0.1481250000 -0.1556250000 -0.1822916667 -0.1889583333 -0.2164583333 -0.2222916667 -0.2506250000 -0.2556250000 -0.2847916667 -0.2889583333 -0.3189583333 -0.3222916667 0.3543750000 0.3343750000 0.3177083333 0.2985416667 0.2810416667 0.2627083333 0.2443750000 0.2268750000 0.2077083333 0.1910416667 0.1710416667 0.1552083333 0.1343750000 0.1193750000 0.0977083333 0.0835416667 0.0610416667 0.0477083333 0.0243750000 0.0118750000 -0.0122916667 -0.0239583333 -0.0489583333 -0.0597916667 -0.0856250000 -0.0956250000 -0.1222916667 -0.1314583333 -0.1589583333 -0.1672916667 -0.1956250000 -0.2031250000 -0.2322916667 -0.2389583333 -0.2689583333 -0.2747916667 -0.3056250000 -0.3106250000 -0.3422916667 -0.3464583333 0.3785416667 0.3577083333 0.3393750000 0.3193750000 0.3002083333 0.2810416667 0.2610416667 0.2427083333 0.2218750000 0.2043750000 0.1827083333 0.1660416667 0.1435416667 0.1277083333 0.1043750000 0.0893750000 0.0652083333 0.0510416667 0.0260416667 0.0127083333 -0.0131250000 -0.0256250000 -0.0522916667 -0.0639583333 -0.0914583333 -0.1022916667 -0.1306250000 -0.1406250000 -0.1697916667 -0.1789583333 -0.2089583333 -0.2172916667 -0.2481250000 -0.2556250000 -0.2872916667 -0.2939583333 -0.3264583333 -0.3322916667 -0.3656250000 -0.3706250000 0.4027083333 0.3810416667 0.3610416667 0.3402083333 0.3193750000 0.2993750000 0.2777083333 0.2585416667 0.2360416667 0.2177083333 0.1943750000 0.1768750000 0.1527083333 0.1360416667 0.1110416667 0.0952083333 0.0693750000 0.0543750000 0.0277083333 0.0135416667 -0.0139583333 -0.0272916667 -0.0556250000 -0.0681250000 -0.0972916667 -0.1089583333 -0.1389583333 -0.1497916667 -0.1806250000 -0.1906250000 -0.2222916667 -0.2314583333 -0.2639583333 -0.2722916667 -0.3056250000 -0.3131250000 -0.3472916667 -0.3539583333 -0.3889583333 -0.3947916667 0.4268750000 0.4043750000 0.3827083333 0.3610416667 0.3385416667 0.3177083333 0.2943750000 0.2743750000 0.2502083333 0.2310416667 0.2060416667 0.1877083333 0.1618750000 0.1443750000 0.1177083333 0.1010416667 0.0735416667 0.0577083333 0.0293750000 0.0143750000 -0.0147916667 -0.0289583333 -0.0589583333 -0.0722916667 -0.1031250000 -0.1156250000 -0.1472916667 -0.1589583333 -0.1914583333 -0.2022916667 -0.2356250000 -0.2456250000 -0.2797916667 -0.2889583333 -0.3239583333 -0.3322916667 -0.3681250000 -0.3756250000 -0.4122916667 -0.4189583333 0.4510416667 0.4277083333 0.4043750000 0.3818750000 0.3577083333 0.3360416667 0.3110416667 0.2902083333 0.2643750000 0.2443750000 0.2177083333 0.1985416667 0.1710416667 0.1527083333 0.1243750000 0.1068750000 0.0777083333 0.0610416667 0.0310416667 0.0152083333 -0.0156250000 -0.0306250000 -0.0622916667 -0.0764583333 -0.1089583333 -0.1222916667 -0.1556250000 -0.1681250000 -0.2022916667 -0.2139583333 -0.2489583333 -0.2597916667 -0.2956250000 -0.3056250000 -0.3422916667 -0.3514583333 -0.3889583333 -0.3972916667 -0.4356250000 -0.4431250000 0.4752083333 0.4510416667 0.4260416667 0.4027083333 0.3768750000 0.3543750000 0.3277083333 0.3060416667 0.2785416667 0.2577083333 0.2293750000 0.2093750000 0.1802083333 0.1610416667 0.1310416667 0.1127083333 0.0818750000 0.0643750000 0.0327083333 0.0160416667 -0.0164583333 -0.0322916667 -0.0656250000 -0.0806250000 -0.1147916667 -0.1289583333 -0.1639583333 -0.1772916667 -0.2131250000 -0.2256250000 -0.2622916667 -0.2739583333 -0.3114583333 -0.3222916667 -0.3606250000 -0.3706250000 -0.4097916667 -0.4189583333 -0.4589583333 -0.4672916667 
</DataArray>
<DataArray type="Float64" Name="velocity_p0" NumberOfComponents="3" format="ascii">