<?xml version="1.0"?>
<VTKFile type="UnstructuredGrid" version="0.1" byte_order="LittleEndian">
<UnstructuredGrid>
<Piece NumberOfPoints="570" NumberOfCells="968">
<Points>
<DataArray type="Float64" NumberOfComponents="3" format="ascii">
0.000000000000000e+00 0.000000000000000e+00 0.000000000000000e+00 0.000000000000000e+00 1.000000000000000e+00 0.000000000000000e+00 1.600000000000000e+01 1.000000000000000e+00 0.000000000000000e+00 1.600000000000000e+01 0.000000000000000e+00 0.000000000000000e+00 0.000000000000000e+00 1.999999999995579e-01 0.000000000000000e+00 0.000000000000000e+00 3.999999999989749e-01 0.000000000000000e+00 0.000000000000000e+00 5.999999999989468e-01 0.000000000000000e+00 0.000000000000000e+00 7.999999999994734e-01 0.000000000000000e+00 1.999999999996227e-01 1.000000000000000e+00 0.000000000000000e+00 3.999999999992458e-01 1.000000000000000e+00 0.000000000000000e+00 5.999999999988365e-01 1.000000000000000e+00 0.000000000000000e+00 7.999999999983944e-01 1.000000000000000e+00 0.000000000000000e+00 9.999999999979721e-01 1.000000000000000e+00 0.000000000000000e+00 1.199999999997645e+00 1.000000000000000e+00 0.000000000000000e+00 1.399999999997340e+00 1.000000000000000e+00 0.000000000000000e+00 1.599999999997035e+00 1.000000000000000e+00 0.000000000000000e+00 1.799999999996729e+00 1.000000000000000e+00 0.000000000000000e+00 1.999999999996380e+00 1.000000000000000e+00 0.000000000000000e+00 2.199999999995840e+00 1.000000000000000e+00 0.000000000000000e+00 2.399999999995257e+00 1.000000000000000e+00 0.000000000000000e+00 2.599999999994675e+00 1.000000000000000e+00 0.000000000000000e+00 2.799999999994092e+00 1.000000000000000e+00 0.000000000000000e+00 2.999999999993509e+00 1.000000000000000e+00 0.000000000000000e+00 3.199999999992926e+00 1.000000000000000e+00 0.000000000000000e+00 3.399999999992343e+00 1.000000000000000e+00 0.000000000000000e+00 3.599999999991760e+00 1.000000000000000e+00 0.000000000000000e+00 3.799999999991177e+00 1.000000000000000e+00 0.000000000000000e+00 3.999999999990594e+00 1.000000000000000e+00 0.000000000000000e+00 4.199999999990011e+00 1.000000000000000e+00 0.000000000000000e+00 4.399999999989427e+00 1.000000000000000e+00 0.000000000000000e+00 4.599999999988845e+00 1.000000000000000e+00 0.000000000000000e+00 4.799999999988263e+00 1.000000000000000e+00 0.000000000000000e+00 4.999999999987679e+00 1.000000000000000e+00 0.000000000000000e+00 5.199999999987096e+00 1.000000000000000e+00 0.000000000000000e+00 5.399999999986513e+00 1.000000000000000e+00 0.000000000000000e+00 5.599999999985930e+00 1.000000000000000e+00 0.000000000000000e+00 5.799999999985348e+00 1.000000000000000e+00 0.000000000000000e+00 5.999999999984764e+00 1.000000000000000e+00 0.000000000000000e+00 6.199999999984182e+00 1.000000000000000e+00 0.000000000000000e+00 6.399999999983598e+00 1.000000000000000e+00 0.000000000000000e+00 6.599999999983016e+00 1.000000000000000e+00 0.000000000000000e+00 6.799999999982433e+00 1.000000000000000e+00 0.000000000000000e+00 6.999999999981850e+00 1.000000000000000e+00 0.000000000000000e+00 7.199999999981268e+00 1.000000000000000e+00 0.000000000000000e+00 7.399999999980683e+00 1.000000000000000e+00 0.000000000000000e+00 7.599999999980102e+00 1.000000000000000e+00 0.000000000000000e+00 7.799999999979519e+00 1.000000000000000e+00 0.000000000000000e+00 7.999999999979108e+00 1.000000000000000e+00 0.000000000000000e+00 8.199999999979463e+00 1.000000000000000e+00 0.000000000000000e+00 8.399999999979988e+00 1.000000000000000e+00 0.000000000000000e+00 8.599999999980515e+00 1.000000000000000e+00 0.000000000000000e+00 8.799999999981042e+00 1.000000000000000e+00 0.000000000000000e+00 8.999999999981569e+00 1.000000000000000e+00 0.000000000000000e+00 9.199999999982095e+00 1.000000000000000e+00 0.000000000000000e+00 9.399999999982622e+00 1.000000000000000e+00 0.000000000000000e+00 9.599999999983149e+00 1.000000000000000e+00 0.000000000000000e+00 9.799999999983674e+00 1.000000000000000e+00 0.000000000000000e+00 9.999999999984201e+00 1.000000000000000e+00 0.000000000000000e+00 1.019999999998473e+01 1.000000000000000e+00 0.000000000000000e+00 1.039999999998525e+01 1.000000000000000e+00 0.000000000000000e+00 1.059999999998578e+01 1.000000000000000e+00 0.000000000000000e+00 1.079999999998631e+01 1.000000000000000e+00 0.000000000000000e+00 1.099999999998684e+01 1.000000000000000e+00 0.000000000000000e+00 1.119999999998736e+01 1.000000000000000e+00 0.000000000000000e+00 1.139999999998789e+01 1.000000000000000e+00 0.000000000000000e+00 1.159999999998842e+01 1.000000000000000e+00 0.000000000000000e+00 1.179999999998894e+01 1.000000000000000e+00 0.000000000000000e+00 1.199999999998947e+01 1.000000000000000e+00 0.000000000000000e+00 1.219999999998999e+01 1.000000000000000e+00 0.000000000000000e+00 1.239999999999052e+01 1.000000000000000e+00 0.000000000000000e+00 1.259999999999105e+01 1.000000000000000e+00 0.000000000000000e+00 1.279999999999157e+01 1.000000000000000e+00 0.000000000000000e+00 1.299999999999210e+01 1.000000000000000e+00 0.000000000000000e+00 1.319999999999263e+01 1.000000000000000e+00 0.000000000000000e+00 1.339999999999315e+01 1.000000000000000e+00 0.000000000000000e+00 1.359999999999368e+01 1.000000000000000e+00 0.000000000000000e+00 1.379999999999421e+01 1.000000000000000e+00 0.000000000000000e+00 1.399999999999473e+01 1.000000000000000e+00 0.000000000000000e+00 1.419999999999526e+01 1.000000000000000e+00 0.000000000000000e+00 1.439999999999579e+01 1.000000000000000e+00 0.000000000000000e+00 1.459999999999631e+01 1.000000000000000e+00 0.000000000000000e+00 1.479999999999684e+01 1.000000000000000e+00 0.000000000000000e+00 1.499999999999737e+01 1.000000000000000e+00 0.000000000000000e+00 1.519999999999789e+01 1.000000000000000e+00 0.000000000000000e+00 1.539999999999842e+01 1.000000000000000e+00 0.000000000000000e+00 1.559999999999895e+01 1.000000000000000e+00 0.000000000000000e+00 1.579999999999947e+01 1.000000000000000e+00 0.000000000000000e+00 1.600000000000000e+01 7.999999999999998e-01 0.000000000000000e+00 1.600000000000000e+01 6.000000000013869e-01 0.000000000000000e+00 1.600000000000000e+01 4.000000000016644e-01 0.000000000000000e+00 1.600000000000000e+01 2.000000000008322e-01 0.000000000000000e+00 1.579999999999917e+01 0.000000000000000e+00 0.000000000000000e+00 1.559999999999833e+01 0.000000000000000e+00 0.000000000000000e+00 1.539999999999750e+01 0.000000000000000e+00 0.000000000000000e+00 1.519999999999667e+01 0.000000000000000e+00 0.000000000000000e+00 1.499999999999584e+01 0.000000000000000e+00 0.000000000000000e+00 1.479999999999500e+01 0.000000000000000e+00 0.000000000000000e+00 1.459999999999417e+01 0.000000000000000e+00 0.000000000000000e+00 1.439999999999334e+01 0.000000000000000e+00 0.000000000000000e+00 1.419999999999250e+01 0.000000000000000e+00 0.000000000000000e+00 1.399999999999202e+01 0.000000000000000e+00 0.000000000000000e+00 1.379999999999306e+01 0.000000000000000e+00 0.000000000000000e+00 1.359999999999445e+01 0.000000000000000e+00 0.000000000000000e+00 1.339999999999583e+01 0.000000000000000e+00 0.000000000000000e+00 1.319999999999722e+01 0.000000000000000e+00 0.000000000000000e+00 1.299999999999861e+01 0.000000000000000e+00 0.000000000000000e+00 1.280000000000000e+01 0.000000000000000e+00 0.000000000000000e+00 1.260000000000138e+01 0.000000000000000e+00 0.000000000000000e+00 1.240000000000277e+01 0.000000000000000e+00 0.000000000000000e+00 1.220000000000416e+01 0.000000000000000e+00 0.000000000000000e+00 1.200000000000555e+01 0.000000000000000e+00 0.000000000000000e+00 1.180000000000693e+01 0.000000000000000e+00 0.000000000000000e+00 1.160000000000832e+01 0.000000000000000e+00 0.000000000000000e+00 1.140000000000971e+01 0.000000000000000e+00 0.000000000000000e+00 1.120000000001109e+01 0.000000000000000e+00 0.000000000000000e+00 1.100000000001248e+01 0.000000000000000e+00 0.000000000000000e+00 1.080000000001387e+01 0.000000000000000e+00 0.000000000000000e+00 1.060000000001525e+01 0.000000000000000e+00 0.000000000000000e+00 1.040000000001664e+01 0.000000000000000e+00 0.000000000000000e+00 1.020000000001803e+01 0.000000000000000e+00 0.000000000000000e+00 1.000000000001942e+01 0.000000000000000e+00 0.000000000000000e+00 9.800000000020802e+00 0.000000000000000e+00 0.000000000000000e+00 9.600000000022190e+00 0.000000000000000e+00 0.000000000000000e+00 9.400000000023578e+00 0.000000000000000e+00 0.000000000000000e+00 9.200000000024964e+00 0.000000000000000e+00 0.000000000000000e+00 9.000000000026350e+00 0.000000000000000e+00 0.000000000000000e+00 8.800000000027737e+00 0.000000000000000e+00 0.000000000000000e+00 8.600000000029127e+00 0.000000000000000e+00 0.000000000000000e+00 8.400000000030513e+00 0.000000000000000e+00 0.000000000000000e+00 8.200000000031899e+00 0.000000000000000e+00 0.000000000000000e+00 8.000000000032939e+00 0.000000000000000e+00 0.000000000000000e+00 7.800000000032455e+00 0.000000000000000e+00 0.000000000000000e+00 7.600000000031622e+00 0.000000000000000e+00 0.000000000000000e+00 7.400000000030790e+00 0.000000000000000e+00 0.000000000000000e+00 7.200000000029958e+00 0.000000000000000e+00 0.000000000000000e+00 7.000000000029125e+00 0.000000000000000e+00 0.000000000000000e+00 6.800000000028295e+00 0.000000000000000e+00 0.000000000000000e+00 6.600000000027460e+00 0.000000000000000e+00 0.000000000000000e+00 6.400000000026630e+00 0.000000000000000e+00 0.000000000000000e+00 6.200000000025797e+00 0.000000000000000e+00 0.000000000000000e+00 6.000000000024965e+00 0.000000000000000e+00 0.000000000000000e+00 5.800000000024133e+00 0.000000000000000e+00 0.000000000000000e+00 5.600000000023302e+00 0.000000000000000e+00 0.000000000000000e+00 5.400000000022469e+00 0.000000000000000e+00 0.000000000000000e+00 5.200000000021635e+00 0.000000000000000e+00 0.000000000000000e+00 5.000000000020805e+00 0.000000000000000e+00 0.000000000000000e+00 4.800000000019972e+00 0.000000000000000e+00 0.000000000000000e+00 4.600000000019140e+00 0.000000000000000e+00 0.00000000000000
[...]
<PointData Scalars="pressure_p1," Vectors="" Tensors="">
<DataArray type="Float64" Name="pressure_p1" format="ascii">
-6.894195907364581e-03 -6.897246610912986e-03 -1.573861960263334e+00 -1.573885373311096e+00 -5.768988778397942e-03 -6.128039882656484e-03 -6.513893555323170e-03 -6.152835016241930e-03 -2.091118498282281e-02 -4.008544228432988e-02 -6.001955770693097e-02 -8.000894519626831e-02 -1.000038341498790e-01 -1.200015395445539e-01 -1.400005169907856e-01 -1.600000658722905e-01 -1.799999150830166e-01 -1.999998832759306e-01 -2.199998058495662e-01 -2.399996818463984e-01 -2.599996239934483e-01 -2.799996877379985e-01 -2.999998053845603e-01 -3.199999021161910e-01 -3.399999579748602e-01 -3.599999840003241e-01 -3.799999944592172e-01 -3.999999982231453e-01 -4.199999994650943e-01 -4.399999998468972e-01 -4.599999999574405e-01 -4.799999999874897e-01 -4.999999999938567e-01 -5.199999999897068e-01 -5.399999999681105e-01 -5.599999998929885e-01 -5.799999996514009e-01 -5.999999989273128e-01 -6.199999969298853e-01 -6.399999919448427e-01 -6.599999809272179e-01 -6.799999598792411e-01 -6.999999257737158e-01 -7.199998787362940e-01 -7.399998283276342e-01 -7.599997989167276e-01 -7.799997615681220e-01 -7.999996687021328e-01 -8.199995747309131e-01 -8.399995708513690e-01 -8.599996685417679e-01 -8.799997997176242e-01 -8.999999006457209e-01 -9.199999576121805e-01 -9.399999839102104e-01 -9.599999944356363e-01 -9.799999982164094e-01 -9.999999994628919e-01 -1.019999999846037e+00 -1.039999999957138e+00 -1.059999999987861e+00 -1.079999999996224e+00 -1.099999999999192e+00 -1.120000000002787e+00 -1.140000000012990e+00 -1.160000000043189e+00 -1.180000000120842e+00 -1.200000000265898e+00 -1.220000000280002e+00 -1.239999998682613e+00 -1.259999988592248e+00 -1.279999944728968e+00 -1.299999790635002e+00 -1.319999341002236e+00 -1.339998281822578e+00 -1.359996403646470e+00 -1.379997065975789e+00 -1.399997352029540e+00 -1.419993136541415e+00 -1.439992227963773e+00 -1.459980058895206e+00 -1.479936515427897e+00 -1.499798322171641e+00 -1.519383666059284e+00 -1.538146696986384e+00 -1.555187854233919e+00 -1.568152662287651e+00 -1.574254571887105e+00 -1.574129310053805e+00 -1.573966824038244e+00 -1.574099919212778e+00 -1.568193308573518e+00 -1.555368581326610e+00 -1.538285783265492e+00 -1.519403073750001e+00 -1.499804634873261e+00 -1.479940134598903e+00 -1.459984071096050e+00 -1.439998475738049e+00 -1.420003895848202e+00 -1.400016624878918e+00 -1.380027576191422e+00 -1.360018349743499e+00 -1.340002877824131e+00 -1.320001516296212e+00 -1.300000650818654e+00 -1.280000250006540e+00 -1.260000088231075e+00 -1.240000028976896e+00 -1.220000008938536e+00 -1.200000002610050e+00 -1.180000000726553e+00 -1.160000000194294e+00 -1.140000000050587e+00 -1.120000000013274e+00 -1.100000000003568e+00 -1.079999999999448e+00 -1.059999999991216e+00 -1.039999999961507e+00 -1.019999999853582e+00 -9.999999994805360e-01 -9.799999982683189e-01 -9.599999946201955e-01 -9.399999847053135e-01 -9.199999616073516e-01 -8.999999224265602e-01 -8.799999230541533e-01 -8.600003985378363e-01 -8.399944614426698e-01 -8.199823576369060e-01 -7.999522853609197e-01 -7.798725713191472e-01 -7.599030037461406e-01 -7.399957026632079e-01 -7.199982948680250e-01 -6.999993005111862e-01 -6.799997257115632e-01 -6.599998996057240e-01 -6.399999657756343e-01 -6.199999890795320e-01 -5.999999967166921e-01 -5.799999990643028e-01 -5.599999997465038e-01 -5.399999999351217e-01 -5.199999999846532e-01 -4.999999999956092e-01 -4.799999999919373e-01 -4.599999999674902e-01 -4.399999998783077e-01 -4.199999995782231e-01 -3.999999986372242e-01 -3.799999959415383e-01 -3.599999891654959e-01 -3.399999757074029e-01 -3.199999639700814e-01 -3.000000369917675e-01 -2.800006887100999e-01 -2.599952952220695e-01 -2.399883335249849e-01 -2.199624208138874e-01 -1.998839172432609e-01 -1.799104855624016e-01 -1.599963210424598e-01 -1.399999108328850e-01 -1.200032507436717e-01 -1.000090446929965e-01 -8.001983455160180e-02 -6.014451661783665e-02 -4.030395557268548e-02 -2.097634910428109e-02 -1.370093370584678e+00 -1.330002270991133e+00 -1.290000378618109e+00 -1.250000047142739e+00 -1.210000004523832e+00 -1.170000000353646e+00 -1.410027744383454e+00 -7.001317676966647e-02 -1.130000000024291e+00 -1.100025295058902e-01 -1.090000000001264e+00 -2.099984622999937e-01 -1.500002663938750e-01 -1.049999999981054e+00 -1.570457212622877e+00 -2.499995249208980e-01 -1.009999999719282e+00 -2.899996863373304e-01 -1.528836981352882e+00 -1.489887528325709e+00 -1.449988243282310e+00 -3.299999282385422e-01 -9.699999968161300e-01 -3.699999901185231e-01 -9.299999727127464e-01 -4.099999990062144e-01 -4.499999999190156e-01 -8.899998474258425e-01 -4.899999999921061e-01 -8.499980269402246e-01 -5.299999999810723e-01 -5.699999997865915e-01 -8.098862935481606e-01 -6.099999979258954e-01 -6.499999852901763e-01 -6.899999346913311e-01 -7.299998442126645e-01 -7.699997696944793e-01 -1.699512314327875e-01 -1.349997415185606e+00 -1.309999698623121e+00 -1.390005130443597e+00 -5.092504267338521e-02 -1.269999986211161e+00 -1.509655939793349e+00 -1.469968136765537e+00 -9.001316514735595e-02 -1.230000001078087e+00 -1.300014961769607e-01 -1.190000000273352e+00 -2.299065243724447e-01 -1.150000000029506e+00 -2.699978478820242e-01 -3.099999062190988e-01 -1.110000000000911e+00 -3.499999797812929e-01 -1.069999999993327e+00 -3.899999974485899e-01 -1.029999999917902e+00 -4.299999997634864e-01 -4.699999999828363e-01 -9.899999989929329e-01 -5.099999999921875e-01 -9.499999899792971e-01 -5.499999998766617e-01 -9.099999270727360e-01 -5.899999983392342e-01 -6.299999819015022e-01 -8.699996767488422e-01 -6.699998486630472e-01 -8.299994425994931e-01 -7.099990927798868e-01 -7.499472950235745e-01 -1.547165291094677e+00 -1.642534066905844e-02 -3.040025616746938e-02 -1.562066428587286e+00 -8.099995581014655e-01 -8.199928347793605e-01 -7.999841770910828e-01 -8.399990255077522e-01 -8.299856762086736e-01 -8.499985059924596e-01 -8.599993308898606e-01 -8.699993306513595e-01 -8.099032089101138e-01 -7.898626556418628e-01 -7.799902982320409e-01 -7.699587742340870e-01 -7.797147343709043e-01 -7.600002829827112e-01 -7.500005282556277e-01 -7.399998514586019e-01 -7.299997575170415e-01 -7.199998316663353e-01 -7.099997097976002e-01 -6.999998702509173e-01 -6.899998277101494e-01 -6.799999274549982e-01 -6.699999201762297e-01 -6.599999667544941e-01 -6.499999681478433e-01 -6.399999867309759e-01 -6.299999885819633e-01 -6.199999952285432e-01 -6.099999962355608e-01 -5.999999984202765e-01 -5.899999988402552e-01 -5.799999995107006e-01 -5.699999996617030e-01 -5.599999998559921e-01 -5.499999999049723e-01 -5.399999999586075e-01 -5.299999999731062e-01 -5.199999999871027e-01 -5.099999999905109e-01 -4.999999999929248e-01 -4.899999999914347e-01 -4.799999999870575e-01 -4.699999999777990e-01 -4.599999999574153e-01 -4.499999999225382e-01 -4.399999998468382e-01 -4.299999997224410e-01 -4.199999994577932e-01 -4.099999990320203e-01 -3.999999981560182e-01 -3.899999967626080e-01 -3.799999940370363e-01 -3.699999896823922e-01 -3.599999818057346e-01 -3.499999687675540e-01 -3.399999480636828e-01 -3.299999101909159e-01 -3.199998629425159e-01 -3.099997534745049e-01 -2.999996733723203e-01 -2.899993509578582e-01 -2.799993418882889e-01 -2.699978201762775e-01 -2.599990514652793e-01 -2.499853230711073e-01 -2.399927469176526e-01 -2.299107870174608e-01 -2.199836595426528e-01 -2.098978564289637e-01 -1.999856986096639e-01 -1.899711201121053e-01 -1.799962101337486e-01 -1.699988325705127e-01 -1.998320620699484e-01 -1.599999031499620e-01 -1.500005852254173e-01 -1.400006963797274e-01 -1.300014072284451e-01 -1.200018697165812e-01 -1.100036873021367e-01 -1.000042595872609e-01 -9.000795314892589e-02 -8.000799329901609e-02 -6.996680141029034e-02 -5.989921418831005e-02 -4.861289462952351e-02 -3.978746364014885e-02 -1.899987487154971e-01 -1.430007624102473e+00 -1.420095057292032e+00 -1.440012376087370e+00 -1.400168430347550e+00 -1.430089349824857e+00 -1.449998192390849e+00 -1.459984403217432e+00 -1.469966947586364e+00 -1.479939619906728e+00 -1.489889961859458e+00 -1.499804007371219e+00 -1.509650246448402e+00 -1.519398575110733e+00 -1.528988474854944e+00 -1.538382716691331e+00 -1.548359543095162e+00 -1.555578925438925e+00 -1.562498124921766e+00 -1.449994035660912e+00 -1.289999923885961e+00 -1.280000025408550e+00 -1.260000015299154e+00 -1.270000067353772e+00 -1.250000024796575e+00 -1.290000167369904e+00 -1.240000006832406e+00 -1.230000008446721e+00 -1.300000008872726e+00 -1.319999830994107e+00 -1.310000375485535e+00 -1.330000738854000e+00 -1.339998933990439e+00 -1.350012040094354e+00 -1.360004973087144e+00 -1.370084106527907e+00 -1.380014736723889e+00 -1.329999024488279e+00 -1.170000000095644e+00 -1.160000000082956e+00 -1.140000000022452e+00 -1.150000000061972e+00 -1.130000000015571e+00 -1.170000000229541e+00 -1.120000000005015e+00 -1.110000000003015e+00 -1.180000000282343e+00 -1.190000000806813e+00 -1.200000000894236e+00 -1.210000002689021e+00 -1.220000002607659e+00 -1.210000000655635e+00 -1.009999999706801e+00 -9.999999994358276e-01 -9.799999980780871e-01 -9.899999989471998e-01 -9.699999964620988e-01 -1.009999999700498e+00 -9.599999937808817e-01 -9.499999886997549e-01 -8.899998335039205e-01 -8.999998584586345e-01 -9.199999460399376e-01 -9.099999025258597e-01 -9.299999658443560e-01 -8.899997370597238e-01 -9.399999810398395e-01 -8.799996658047454e-01 -1.089999999997978e+00 -1.079999999996323e+00 -1.059999999987816e+00 -1.069999999993933e+00 -1.049999999977938e+00 -1.089999999998723e+00 -1.039999999956428e+00 -1.029999999917932e+00 -1.099999999999701e+00 -1.019999999841208e+00 -1.528981020044134e+00 -6.099999943563273e-01 -6.899996123698058e-01 -4.499999999343073e-01 -3.299999521516240e-01 -5.299999999689756e-01 -7.299980621810321e-01 -2.899998664521378e-01 -2.499807492674786e-01 -3.699999924710296e-01 -4.899999999947244e-01 -4.099999991980246e-01 -5.699999995359920e-01 -6.499999456656815e-01 -1.369997755856559e+00 -1.400077769147268e+00 -1.410009152511126e+00 -7.013093131228909e-02 -1.100054033042119e-01 -1.499991208395561e-01 -9.699999967195175e-01 -9.299999716625570e-01 -3.104959580248116e-02 -1.489890695253072e+00 -1.249999999563777e+00 -1.546373689140231e+00 -7.899997430557066e-01 -1.130000000007738e+00 -1.049999999977251e+00 -1.429999908857335e+00 -8.499995028087600e-01 -1.469965139435687e+00 -1.509644536255987e+00 -1.390100687355474e+00 -1.300009814197766e-01 -5.003409284335308e-02 -9.000575489168909e-02 -6.299999942072919e-01 -3.899999967635995e-01 -7.099998913269401e-01 -5.099999999927206e-01 -3.499999720762176e-01 -2.299990615084298e-01 -7.499998406069260e-01 -2.699995320292620e-01 -4.699999999773016e-01 -3.099998367471755e-01 -5.899999993133083e-01 -5.499999999365949e-01 -4.299999997107141e-01 -6.699999667435041e-01 -1.270000138486732e+00 -1.069999999996451e+00 -8.299775079490445e-01 -1.150000000093367e+00 -9.899999990257854e-01 -9.099999309318026e-01 -1.190000001293212e+00 -8.699997149273747e-01 -9.499999902850310e-01 -1.350015452897432e+00 -1.029999999923819e+00 -1.230000015034342e+00 -1.110000000006496e+00 -1.310000959801836e+00 -1.699997055500144e-01 -1.862585859518127e-02 -1.570700143498282e+00 -1.589170538351336e-02 -1.569241791558818e+00 -1.561654509833215e+00 -3.175216657158753e-02 -7.996657476262455e-01 -2.197122330961800e-01 -1.380279392794460e+00 -1.410274698646461e+00 -1.897359433151241e-01 -7.696947191025164e-01 -1.320001202109321e+00 -1.340008201746312e+00 -1.300000475365112e+00 -1.360088010339177e+00 -1.280000180936134e+00 -1.260000064623428e+00 -1.240000021600912e+00 -1.220000006787369e+00 -1.440005851053407e+00 -1.459981066493801e+00 -1.479938531525561e+00 -1.499803304735924e+00 -1.200000002017329e+00 -1.180000000570755e+00 -1.519342290470452e+00 -1.160000000154682e+00 -1.537669707239081e+00 -1.140000000040469e+00 -1.120000000010325e+00 -1.100000000002232e+00 -1.079999999998470e+00 -1.059999999990548e+00 -1.039999999960371e+00 -1.019999999848899e+00 -9.999999994553296e-01 -9.799999981332990e-01 -9.599999939338378e-01 -9.399999813916420e-01 -9.199999462441218e-01 -8.999998527019780e-01 -8.799996029527941e-01 -8.599988322571538e-01 -8.399906132852920e-01 -8.199014402754435e-01 -2.399069737959473e-01 -6.068535746270532e-02 -2.599872491844810e-01 -2.999996570685263e-01 -1.600003526308520e-01 -8.006131393404277e-02 -1.400006926145790e-01 -1.000073010843993e-01 -2.799982487446360e-01 -1.200028163345110e-01 -3.199998759560791e-01 -3.399999548753701e-01 -3.599999842726750e-01 -3.799999948165813e-01 -4.199999995211609e-01 -3.999999983841713e-01 -4.599999999620730e-01 -4.399999998639113e-01 -4.799999999883989e-01 -4.999999999928161e-01 -5.399999999422810e-01 -5.199999999837898e-01 -5.799999992324726e-01 -5.599999997863970e-01 -5.999999973671416e-01 -6.199999914662211e-01 -6.399999741428043e-01 -6.599999277468238e-01 -6.999995967083312e-01 -6.799998173946450e-01 -7.199992900474933e-01 -7.399994518880644e-01 -7.599173986275556e-01 -1.420085267388571e+00 -1.799395127187565e-01 -1.390117803551433e+00 -7.897847942275336e-01 -2.098280681459444e-01 -1.571553521631623e+00 -1.397740079179897e-02 -1.571462158881289e+00 -1.417067287662982e-02 -4.489985526702062e-02 -1.551594172302404e+00 -1.562119412103079e+00 -3.108605281236063e-02 
</DataArray>
</PointData>
<CellData Scalars="pressure_p0," Vectors="velocity_p0," Tensors="">
<DataArray type="Float64" Name="pressure_p0" format="ascii">