<?xml version="1.0"?>
<VTKFile type="UnstructuredGrid" version="0.1" byte_order="LittleEndian">
<UnstructuredGrid>
<Piece NumberOfPoints="570" NumberOfCells="968">
<Points>
<DataArray type="Float64" NumberOfComponents="3" format="ascii">
0 0 0 0 1 0 16 1 0 16 0 0 0 0.199999999999558 0 0 0.399999999998975 0 0 0.599999999998947 0 0 0.799999999999473 0 0.199999999999623 1 0 0.399999999999246 1 0 0.599999999998836 1 0 0.799999999998394 1 0 0.999999999997972 1 0 1.19999999999764 1 0 1.39999999999734 1 0 1.59999999999703 1 0 1.79999999999673 1 0 1.99999999999638 1 0 2.19999999999584 1 0 2.39999999999526 1 0 2.59999999999468 1 0 2.79999999999409 1 0 2.99999999999351 1 0 3.19999999999293 1 0 3.39999999999234 1 0 3.59999999999176 1 0 3.79999999999118 1 0 3.99999999999059 1 0 4.19999999999001 1 0 4.39999999998943 1 0 4.59999999998885 1 0 4.79999999998826 1 0 4.99999999998768 1 0 5.1999999999871 1 0 5.39999999998651 1 0 5.59999999998593 1 0 5.79999999998535 1 0 5.99999999998476 1 0 6.19999999998418 1 0 6.3999999999836 1 0 6.59999999998302 1 0 6.79999999998243 1 0 6.99999999998185 1 0 7.19999999998127 1 0 7.39999999998068 1 0 7.5999999999801 1 0 7.79999999997952 1 0 7.99999999997911 1 0 8.19999999997946 1 0 8.39999999997999 1 0 8.59999999998051 1 0 8.79999999998104 1 0 8.99999999998157 1 0 9.1999999999821 1 0 9.39999999998262 1 0 9.59999999998315 1 0 9.79999999998367 1 0 9.9999999999842 1 0 10.1999999999847 1 0 10.3999999999852 1 0 10.5999999999858 1 0 10.7999999999863 1 0 10.9999999999868 1 0 11.1999999999874 1 0 11.3999999999879 1 0 11.5999999999884 1 0 11.7999999999889 1 0 11.9999999999895 1 0 12.19999999999 1 0 12.3999999999905 1 0 12.5999999999911 1 0 12.7999999999916 1 0 12.9999999999921 1 0 13.1999999999926 1 0 13.3999999999932 1 0 13.5999999999937 1 0 13.7999999999942 1 0 13.9999999999947 1 0 14.1999999999953 1 0 14.3999999999958 1 0 14.5999999999963 1 0 14.7999999999968 1 0 14.9999999999974 1 0 15.1999999999979 1 0 15.3999999999984 1 0 15.5999999999989 1 0 15.7999999999995 1 0 16 0.8 0 16 0.600000000001387 0 16 0.400000000001664 0 16 0.200000000000832 0 15.7999999999992 0 0 15.5999999999983 0 0 15.3999999999975 0 0 15.1999999999967 0 0 14.9999999999958 0 0 14.799999999995 0 0 14.5999999999942 0 0 14.3999999999933 0 0 14.1999999999925 0 0 13.999999999992 0 0 13.7999999999931 0 0 13.5999999999945 0 0 13.3999999999958 0 0 13.1999999999972 0 0 12.9999999999986 0 0 12.8 0 0 12.6000000000014 0 0 12.4000000000028 0 0 12.2000000000042 0 0 12.0000000000055 0 0 11.8000000000069 0 0 11.6000000000083 0 0 11.4000000000097 0 0 11.2000000000111 0 0 11.0000000000125 0 0 10.8000000000139 0 0 10.6000000000152 0 0 10.4000000000166 0 0 10.200000000018 0 0 10.0000000000194 0 0 9.8000000000208 0 0 9.60000000002219 0 0 9.40000000002358 0 0 9.20000000002496 0 0 9.00000000002635 0 0 8.80000000002774 0 0 8.60000000002913 0 0 8.40000000003051 0 0 8.2000000000319 0 0 8.00000000003294 0 0 7.80000000003245 0 0 7.60000000003162 0 0 7.40000000003079 0 0 7.20000000002996 0 0 7.00000000002913 0 0 6.8000000000283 0 0 6.60000000002746 0 0 6.40000000002663 0 0 6.2000000000258 0 0 6.00000000002496 0 0 5.80000000002413 0 0 5.6000000000233 0 0 5.40000000002247 0 0 5.20000000002164 0 0 5.0000000000208 0 0 4.80000000001997 0 0 4.60000000001914 0 0 4.40000000001831 0 0 4.20000000001748 0 0 4.00000000001664 0 0 3.80000000001581 0 0 3.60000000001498 0 0 3.40000000001415 0 0 3.20000000001331 0 0 3.00000000001248 0 0 2.80000000001165 0 0 2.60000000001082 0 0 2.40000000000998 0 0 2.20000000000916 0 0 2.00000000000832 0 0 1.80000000000749 0 0 1.60000000000666 0 0 1.40000000000583 0 0 1.20000000000499 0 0 1.00000000000416 0 0 0.800000000003328 0 0 0.600000000002495 0 0 0.400000000001665 0 0 0.200000000000832 0 0 13.700657105669 0.16981258116099 0 13.2999999999965 0.173205080755686 0 12.8999999999993 0.173205080755686 0 12.5000000000021 0.173205080755686 0 12.1000000000048 0.173205080755686 0 11.7000000000076 0.173205080755686 0 14.0999999999922 0.173205080756647 0 0.699999999998615 0.826794919243495 0 11.3000000000104 0.173205080755686 0 1.09999999999781 0.826794919243437 0 10.9000000000132 0.173205080755687 0 2.09999999999211 0.826794919240002 0 1.49999999999719 0.826794919243377 0 10.5000000000159 0.173205080755686 0 15.8338849492515 0.508577035510267 0 2.49999999999102 0.826794919240213 0 10.1000000000187 0.173205080755686 0 2.8999999999938 0.826794919243617 0 15.2993574447989 0.831314592868588 0 14.8999999999971 0.826794919242657 0 14.4999999999961 0.826794919242658 0 3.29999999999263 0.826794919243617 0 9.70000000002149 0.173205080755686 0 3.69999999999147 0.826794919243617 0 9.30000000002427 0.173205080755686 0 4.0999999999903 0.826794919243617 0 4.49999999998914 0.826794919243617 0 8.90000000002705 0.173205080755686 0 4.89999999998797 0.826794919243617 0 8.50000000002983 0.173205080755686 0 5.29999999998681 0.826794919243617 0 5.69999999998449 0.826794919242383 0 8.09910141477586 0.166485795059121 0 6.09999999998447 0.826794919243617 0 6.49999999998331 0.826794919243617 0 6.89999999998214 0.826794919243617 0 7.29999999998075 0.826794919243018 0 7.69999999997987 0.826794919243148 0 1.70000000000707 0.173205080757607 0 13.499999999993 0.826794919242336 0 13.0999999999923 0.826794919242697 0 13.9000884253257 0.828379939256167 0 0.506641475208022 0.168637425096977 0 12.6999999999914 0.826794919242744 0 15.0999999999958 0.173205080758772 0 14.7000008112358 0.173203284806108 0 0.900000000003744 0.173205080757609 0 12.2999999999903 0.826794919242657 0 1.30000000000541 0.173205080757607 0 11.8999999999891 0.826794919242668 0 2.29940860489605 0.165793056170904 0 11.4999999999882 0.826794919242758 0 2.70000000001123 0.173205080757609 0 3.1000000000129 0.173205080757609 0 11.0999999999873 0.826794919242715 0 3.50000000001456 0.173205080757607 0 10.6999999999861 0.826794919242764 0 3.90000000001623 0.173205080757609 0 10.2999999999852 0.826794919242759 0 4.30000000001789 0.173205080757607 0 4.70000000001956 0.173205080757609 0 9.89999999998405 0.826794919242736 0 5.10000000002122 0.173205080757607 0 9.49999999998289 0.826794919242657 0 5.50000000002288 0.173205080757608 0 9.09999999998171 0.826794919242731 0 5.90000000002455 0.173205080757608 0 6.30000000002622 0.173205080757608 0 8.69999999998059 0.82679491924274 0 6.70000000002787 0.173205080757607 0 8.29999999997969 0.82679491924282 0 7.10000000002954 0.173205080757608 0 7.50000000003121 0.173205080757609 0 15.4999999999974 0.173205080759918 0 0.166115050745933 0.491422964488694 0 0.302985888731723 0.83439513050655 0 15.6922736942162 0.815654138696531 0 8.09999999997948 0.826794919242848 0 8.19999999997958 0.653589838485829 0 7.99999999997967 0.653589838485872 0 8.39999999997957 0.653589838485763 0 8.29999999997951 0.480384757728964 0 8.49999999997927 0.480384757728878 0 8.5999999999797 0.653589838485656 0 8.69999999997898 0.480384757728697 0 8.09936479783543 0.483984524751002 0 7.89889995640994 0.483443222557347 0 7.79999999997985 0.653589838485708 0 7.69999999998024 0.482568040765242 0 7.79645162934511 0.316140149424588 0 7.59999999998004 0.653832425489461 0 7.49999999998032 0.480384757728063 0 7.39999999998017 0.653616792596627 0 7.29999999998032 0.480384757727631 0 7.19999999998034 0.653592833386099 0 7.0999999999803 0.480384757727202 0 6.99999999998044 0.653589838484526 0 6.89999999998028 0.480384757726783 0 6.7999999999806 0.653589838484268 0 6.69999999998025 0.480384757726355 0 6.59999999998073 0.65358983848395 0 6.49999999998023 0.480384757725918 0 6.39999999998085 0.653589838483615 0 6.2999999999802 0.480384757725469 0 6.19999999998097 0.653589838483274 0 6.09999999998018 0.480384757725009 0 5.99999999998109 0.653589838482929 0 5.89999999998015 0.480384757724548 0 5.79999999998125 0.653589838482601 0 5.69999999998011 0.480384757724105 0 5.59999999998118 0.653589838482109 0 5.49999999998009 0.480384757723655 0 5.39999999998145 0.653589838481903 0 5.29999999998006 0.480384757723202 0 5.19999999998159 0.653589838481573 0 5.09999999998003 0.480384757722739 0 4.99999999998171 0.653589838481231 0 4.89999999998 0.480384757722284 0 4.79999999998184 0.653589838480891 0 4.69999999997997 0.480384757721832 0 4.59999999998196 0.653589838480548 0 4.49999999997994 0.480384757721369 0 4.39999999998208 0.653589838480199 0 4.29999999997992 0.480384757720903 0 4.19999999998221 0.653589838479851 0 4.09999999997989 0.480384757720439 0 3.99999999997947 0.653589838477122 0 3.89999999997986 0.480384757719978 0 3.79999999997944 0.653589838476661 0 3.69999999997983 0.480384757719518 0 3.59999999997941 0.653589838476202 0 3.4999999999798 0.480384757719058 0 3.39999999997938 0.65358983847574 0 3.29999999997977 0.480384757718598 0 3.19999999997935 0.653589838475281 0 3.09999999997974 0.480384757718137 0 2.99999999997932 0.653589838474822 0 2.89999999997971 0.480384757717679 0 2.7999999999793 0.653589838474364 0 2.69999999997968 0.480384757717221 0 2.59999999997927 0.653589838473905 0 2.49999999997965 0.480384757716762 0 2.39999999997924 0.653589838473444 0 2.29940860487266 0.483873901626366 0 2.19993428941465 0.653977521131915 0 2.09920417199692 0.483093795650007 0 1.99990427347715 0.653933918540785 0 1.89976951723567 0.483875882968814 0 1.79996375451097 0.654015972399612 0 1.69999999997939 0.480384757714885 0 1.99881720977017 0.315897138893714 0 1.59999999997892 0.653589838471666 0 1.49999999997923 0.48038475771442 0 1.39999999997875 0.653589838471227 0 1.29999999997906 0.480384757713966 0 1.19999999997858 0.653589838470776 0 1.09999999997889 0.480384757713518 0 0.99999999997842 0.65358983847032 0 0.899999999978739 0.480384757713072 0 0.799999999978276 0.653589838469859 0 0.699999999978606 0.480384757712627 0 0.599999999978152 0.653589838469396 0 0.488902152079335 0.480182833362319 0 0.397961476484174 0.663879545519049 0 1.89999999999457 0.826794919240091 0 14.2999999999927 0.173205080757313 0 14.2005913950999 0.34510091248886 0 14.4000657105598 0.346264689401101 0 14.0013223237587 0.34128270625806 0 14.300738229825 0.5135282064438
[...]
<PointData Scalars="pressure_p1," Vectors="" Tensors="">
<DataArray type="Float64" Name="pressure_p1" format="ascii">
-0.0819084575935108 -0.0819114861141424 -18.2024828744785 -18.2027049480054 -0.068551968688814 -0.0728305435495419 -0.0773632421442457 -0.0730110228064381 -0.250512749274497 -0.480672282134949 -0.720061866161547 -0.960050924761764 -1.20004470925573 -1.44003891459328 -1.68003333400161 -1.92002810811636 -2.16002337742674 -2.40001910536957 -2.64001517384576 -2.88001163685007 -3.12000867991507 -3.36000639823041 -3.60000469654797 -3.84000342024521 -4.08000245442392 -4.32000172604167 -4.56000118366081 -4.80000078637018 -5.04000050012337 -5.28000029673193 -5.52000015340131 -5.76000005222458 -5.99999997957618 -6.23999992547555 -6.47999988299863 -6.71999984780197 -6.959999817819 -7.19999979319332 -7.43999977654279 -7.67999977363905 -7.9199997943989 -8.15999985325667 -8.39999996567101 -8.64000013472558 -8.88000033421056 -9.12000050356233 -9.3600005112574 -9.60000025900094 -9.83999984935322 -10.0799994876953 -10.3199992812484 -10.5599991830979 -10.7999990785985 -11.0399988565763 -11.2799983936912 -11.5199975047395 -11.7599958803251 -11.9999929989563 -12.2399879911774 -12.4799794264294 -12.7199649818966 -12.9599409354486 -13.199901401165 -13.4398371947357 -13.6797341761532 -13.9195708677325 -14.1593150864301 -14.3989192616101 -14.6383140352117 -14.8773996650835 -15.1160346806062 -15.3540211812198 -15.5910861316947 -15.8268579928063 -16.0608380021733 -16.2923655191168 -16.52060963161 -16.7444081092978 -16.9623037899624 -17.1726684694029 -17.3732338653376 -17.5613432130949 -17.7337836523334 -17.8866729394559 -18.0148737330677 -18.1142436037536 -18.1780795537729 -18.204023673066 -18.2035304632598 -18.2029082821605 -18.2034826503683 -18.1783325983435 -18.1152440867995 -18.0157025193876 -17.8867484497748 -17.7338008112903 -17.5613600318991 -17.3732512344651 -17.172685483797 -16.9623299509783 -16.7444899208996 -16.5208303329085 -16.2925287913958 -16.0608369788771 -15.8268576348624 -15.591086294996 -15.3540215358486 -15.1160350520732 -14.8773999854414 -14.6383142878018 -14.3989194507982 -14.15931522342 -13.9195709645055 -13.6797342432017 -13.4398372404741 -13.1999014320326 -12.9599409562613 -12.7199649962695 -12.4799794372163 -12.2399880009501 -11.9999930106076 -11.7599958979648 -11.5199975352109 -11.2799984493907 -11.0399989613926 -10.799999283917 -10.559999630678 -10.3200005513101 -10.0799154164298 -9.83975939832668 -9.59938879459139 -9.35846175043353 -9.11887843960358 -8.87999638294895 -8.63999844452513 -8.39999912844224 -8.15999941640289 -7.91999956280054 -7.67999965030679 -7.43999971080117 -7.19999975816724 -6.95999979920277 -6.71999983798739 -6.47999987796841 -6.23999992316573 -5.99999997903396 -5.76000005322028 -5.52000015633525 -5.28000030279813 -5.04000051179682 -4.80000080841881 -4.5600012251103 -4.32000180400364 -4.08000260207827 -3.84000370702254 -3.60000530038442 -3.36000797602827 -3.11992821773577 -2.87983729275628 -2.6395260105803 -2.39862499410223 -2.15899503713906 -1.92002531656231 -1.68003399399276 -1.44004240402987 -1.20005212926118 -0.960064021051036 -0.721446616428363 -0.483283764189998 -0.251356752619039 -16.4079657671785 -15.9441174343612 -15.4726945921763 -14.9967870868076 -14.5186495685495 -14.0394576996691 -16.8544317668542 -0.840064534608147 -13.5597919416878 -1.32004198056817 -13.0799236957924 -2.51999973885009 -1.8000307745409 -12.5999731766494 -18.1882073187577 -3.0000100152049 -12.1199908558681 -3.48000544877498 -17.9537253083877 -17.6498204346522 -17.2743770804536 -3.96000290645384 -11.6399968361684 -4.44000143732024 -11.1599987331614 -4.92000063232504 -5.40000021908706 -10.6799993526985 -5.88000001304895 -10.1999818386945 -6.35999990285721 -6.83999983123754 -9.71859969046917 -7.31999978031336 -7.7999997701966 -8.27999988118107 -8.76000028704308 -9.24000009171878 -2.03946370386593 -16.1769573269333 -15.7091614378866 -16.6332426775484 -0.610827539548401 -15.2351240177349 -17.8129733919857 -17.4690483753303 -1.08005707952377 -14.7579031942899 -1.56003806648371 -14.2791384134985 -2.75885645671718 -13.7996617713996 -3.23998368114861 -3.72000432379335 -13.3198731262236 -4.20000215844521 -12.8399544652802 -4.68000099636762 -12.35998427317 -5.16000039712566 -5.64000010006557 -11.879994641724 -6.11999994937165 -11.3999980199808 -6.59999985806879 -10.919998989175 -7.07999978099681 -7.55999968966833 -10.4399991882973 -8.03999953044403 -9.95999959275541 -8.51999907494378 -8.99939653113144 -18.0695601274156 -0.197209062425627 -0.364456913949464 -18.1495069814333 -9.720000079132 -9.83992249240989 -9.59981270274826 -10.0799991219621 -9.95985560444938 -10.1999985643192 -10.3199990544587 -10.4399990050558 -9.71884709946594 -9.47832546845761 -9.35988313009412 -9.23947801892618 -9.35650857529258 -9.12000565920595 -9.0000008363182 -8.88000044350849 -8.76000014995004 -8.64000009016468 -8.51999978229608 -8.39999987232978 -8.27999968884981 -8.15999977618236 -8.03999968068476 -7.91999974422107 -7.79999970000413 -7.67999974407318 -7.55999972801707 -7.43999975993756 -7.31999975908846 -7.19999978409508 -7.07999979150567 -6.95999981290544 -6.83999982512138 -6.71999984518357 -6.59999986093038 -6.47999988164292 -6.35999990121547 -6.23999992484254 -6.119999949899 -5.9999999794141 -5.88000001301318 -5.7600000524714 -5.64000009927254 -5.52000015415833 -5.40000022074276 -5.28000029829678 -5.16000039358702 -5.04000050308115 -4.92000063884186 -4.80000079172843 -4.68000098311234 -4.5600011929162 -4.44000145889873 -4.32000174064309 -4.20000210371886 -4.08000247281366 -3.96000295532113 -3.84000342746234 -3.72000403424382 -3.60000463893181 -3.48000529159562 -3.36000616894014 -3.23999819297646 -3.12000828162406 -2.99986162400902 -2.87993234558091 -2.75895135682838 -2.63981966343011 -2.51877177671477 -2.39984260760614 -2.27964583814531 -2.15997645170472 -2.03999815188542 -2.39796338654167 -1.92002473984833 -1.80003161298103 -1.68003386174037 -1.56003735452886 -1.44003968238176 -1.3200439987269 -1.20004561266837 -1.08005078462957 -0.960050343762235 -0.839477742214929 -0.718650019353894 -0.583228054491395 -0.477232275407123 -2.28000676529373 -17.0686451684401 -16.9633471565562 -17.1728333967058 -16.7462249353372 -17.0695994609026 -17.2744606503681 -17.3732548617186 -17.4691024475077 -17.5613546165485 -17.6498272842429 -17.7337954735135 -17.813009066055 -17.8867082999497 -17.9546020704184 -18.0162673960148 -18.0763979406585 -18.116268011337 -18.1516580792437 -17.2743541284008 -15.4726893989455 -15.354021254321 -15.1160347605529 -15.2351277497578 -14.9967869813857 -15.4726945609521 -14.8773997375481 -14.7579050464015 -15.5910861807442 -15.8268580815784 -15.709168440451 -15.9441183716799 -16.0608388101878 -16.1770984285404 -16.2924666935333 -16.4079422603332 -16.5208171174414 -15.9441090178745 -14.0394570829041 -13.9195708924036 -13.6797341935903 -13.7996621545141 -13.5597919238492 -14.0394576625395 -13.4398372068436 -13.3198732873474 -14.1593151205738 -14.2791392790244 -14.3989193075434 -14.5186494985142 -14.6383140946396 -14.5186482234481 -12.1199908344727 -11.9999930019912 -11.7599958846152 -11.8799946554958 -11.6399968261484 -12.1199908519667 -11.5199975113175 -11.3999980382395 -10.6799991284348 -10.7999990732656 -11.0399988662541 -10.9199990185941 -11.1599986925153 -10.6799991263171 -11.2799984031511 -10.559999113515 -13.0799235849878 -12.9599409411203 -12.7199649858516 -12.8399545300368 -12.5999731725655 -13.0799236876267 -12.4799794294017 -12.3599842990867 -13.1999014094653 -12.2399879938273 -17.9545343416647 -7.31999973909254 -8.27999937214719 -5.40000022253372 -3.96000307633481 -6.35999989981599 -8.75999845878403 -3.48000602803374 -2.99977371185923 -4.44000148526838 -5.88000001312817 -4.92000064566726 -6.83999981959873 -7.79999962521806 -16.4069810363037 -16.7453267666597 -16.8543715200345 -0.841338699990131 -1.32004660684391 -1.8000305470437 -11.6399968120911 -11.1599986669151 -0.372398249009776 -17.6497605883488 -14.9967843309547 -18.0650939423476 -9.48000051948963 -13.5597916738488 -12.5999731318649 -17.0686759954285 -10.1999992936736 -17.4690950882049 -17.813000297956 -16.6341879376098 -1.56003625012515 -0.600186281162505 -1.08004769079754 -7.55999976699189 -4.68000097100594 -8.52000003316803 -6.11999995060476 -4.20000206806991 -2.76000537025695 -9.00000094108151 -3.24000738219196 -5.64000009861947 -3.7200040062385 -7.07999980294351 -6.59999986416152 -5.16000039019958 -8.03999980219397 -15.2351278496306 -12.8399545356323 -9.95973014780473 -13.7996621804838 -11.8799946612122 -10.9199991105899 -14.2791393308644 -10.4399995883948 -11.3999980576756 -16.1770924681278 -12.3599843025808 -14.7579051363365 -13.3198732994432 -15.7091682320371 -2.04002274882341 -0.223413983831617 -18.1892187695215 -0.190796071203915 -18.1827812843725 -18.1476018416318 -0.381059634453516 -9.59593594888101 -2.63651744880399 -16.523747228014 -16.8572556733783 -2.27682580599126 -9.23629875792736 -15.8268737597527 -16.0609176153452 -15.5910978939319 -16.2933427060648 -15.3540297487248 -15.1160408033796 -14.8774039682927 -14.6383170138797 -17.1728921969385 -17.3733460242545 -17.5614839915922 -17.733944498868 -14.3989212941979 -14.1593164546131 -17.8864930656508 -13.9195717765734 -18.0121818283297 -13.6797347721092 -13.4398375806159 -13.1999016479983 -12.9599410915981 -12.7199650798895 -12.4799794879765 -12.2399880308661 -11.9999930269924 -11.7599959046815 -11.519997532958 -11.279998434209 -11.039998917915 -10.7999991583162 -10.5599992095734 -10.3199988203555 -10.0799163891618 -9.83883590462517 -2.8789126021397 -0.728010411844524 -3.11988241035528 -3.60000480157747 -1.92002915449746 -0.960611556543151 -1.68003448436369 -1.20004977370045 -3.35999766593825 -1.44004151848304 -3.84000354790507 -4.08000254109305 -4.32000177705407 -4.56000121193497 -5.04000050804076 -4.80000080152972 -5.52000015520063 -5.28000030071195 -5.76000005268775 -5.99999997896788 -6.47999987910248 -6.23999992359392 -6.95999980373223 -6.71999984032059 -7.19999976685939 -7.43999972759034 -7.67999968340117 -7.91999963062679 -8.39999949291417 -8.15999956519145 -8.63999949539684 -8.88000013197775 -9.11897887090219 -16.9633700047711 -2.15926247401893 -16.6344653543302 -9.47737142656854 -2.51792063583012 -18.1929071285109 -0.16764044808512 -18.1926041481772 -0.169835495572373 -0.538669818532671 -18.0952716399999 -18.1498924296302 -0.372990880234906 
</DataArray>
</PointData>
<CellData Scalars="pressure_p0," Vectors="velocity_p0," Tensors="">
<DataArray type="Float64" Name="pressure_p0" format="ascii">