<?xml version="1.0"?>
<VTKFile type="UnstructuredGrid" version="0.1" byte_order="LittleEndian">
<UnstructuredGrid>
<Piece NumberOfPoints="567" NumberOfCells="966">
<Points>
<DataArray type="Float64" NumberOfComponents="3" format="ascii">
0.000000000000000e+00 0.000000000000000e+00 0.000000000000000e+00 0.000000000000000e+00 1.000000000000000e+00 0.000000000000000e+00 1.600000000000000e+01 1.000000000000000e+00 0.000000000000000e+00 1.600000000000000e+01 0.000000000000000e+00 0.000000000000000e+00 0.000000000000000e+00 2.499999999993998e-01 0.000000000000000e+00 0.000000000000000e+00 4.999999999990217e-01 0.000000000000000e+00 0.000000000000000e+00 7.499999999993374e-01 0.000000000000000e+00 2.025316455691341e-01 1.000000000000000e+00 0.000000000000000e+00 4.050632911382681e-01 1.000000000000000e+00 0.000000000000000e+00 6.075949367074022e-01 1.000000000000000e+00 0.000000000000000e+00 8.101265822765362e-01 1.000000000000000e+00 0.000000000000000e+00 1.012658227845670e+00 1.000000000000000e+00 0.000000000000000e+00 1.215189873414804e+00 1.000000000000000e+00 0.000000000000000e+00 1.417721518983938e+00 1.000000000000000e+00 0.000000000000000e+00 1.620253164553072e+00 1.000000000000000e+00 0.000000000000000e+00 1.822784810122207e+00 1.000000000000000e+00 0.000000000000000e+00 2.025316455691340e+00 1.000000000000000e+00 0.000000000000000e+00 2.227848101260475e+00 1.000000000000000e+00 0.000000000000000e+00 2.430379746829609e+00 1.000000000000000e+00 0.000000000000000e+00 2.632911392398743e+00 1.000000000000000e+00 0.000000000000000e+00 2.835443037967877e+00 1.000000000000000e+00 0.000000000000000e+00 3.037974683537010e+00 1.000000000000000e+00 0.000000000000000e+00 3.240506329106145e+00 1.000000000000000e+00 0.000000000000000e+00 3.443037974675279e+00 1.000000000000000e+00 0.000000000000000e+00 3.645569620244413e+00 1.000000000000000e+00 0.000000000000000e+00 3.848101265813547e+00 1.000000000000000e+00 0.000000000000000e+00 4.050632911382726e+00 1.000000000000000e+00 0.000000000000000e+00 4.253164556952040e+00 1.000000000000000e+00 0.000000000000000e+00 4.455696202521353e+00 1.000000000000000e+00 0.000000000000000e+00 4.658227848090667e+00 1.000000000000000e+00 0.000000000000000e+00 4.860759493659981e+00 1.000000000000000e+00 0.000000000000000e+00 5.063291139229296e+00 1.000000000000000e+00 0.000000000000000e+00 5.265822784798610e+00 1.000000000000000e+00 0.000000000000000e+00 5.468354430367923e+00 1.000000000000000e+00 0.000000000000000e+00 5.670886075937237e+00 1.000000000000000e+00 0.000000000000000e+00 5.873417721506551e+00 1.000000000000000e+00 0.000000000000000e+00 6.075949367075864e+00 1.000000000000000e+00 0.000000000000000e+00 6.278481012645178e+00 1.000000000000000e+00 0.000000000000000e+00 6.481012658214492e+00 1.000000000000000e+00 0.000000000000000e+00 6.683544303783806e+00 1.000000000000000e+00 0.000000000000000e+00 6.886075949353121e+00 1.000000000000000e+00 0.000000000000000e+00 7.088607594922435e+00 1.000000000000000e+00 0.000000000000000e+00 7.291139240491749e+00 1.000000000000000e+00 0.000000000000000e+00 7.493670886061063e+00 1.000000000000000e+00 0.000000000000000e+00 7.696202531630375e+00 1.000000000000000e+00 0.000000000000000e+00 7.898734177199691e+00 1.000000000000000e+00 0.000000000000000e+00 8.101265822769285e+00 1.000000000000000e+00 0.000000000000000e+00 8.303797468339161e+00 1.000000000000000e+00 0.000000000000000e+00 8.506329113909036e+00 1.000000000000000e+00 0.000000000000000e+00 8.708860759478913e+00 1.000000000000000e+00 0.000000000000000e+00 8.911392405048788e+00 1.000000000000000e+00 0.000000000000000e+00 9.113924050618664e+00 1.000000000000000e+00 0.000000000000000e+00 9.316455696188541e+00 1.000000000000000e+00 0.000000000000000e+00 9.518987341758416e+00 1.000000000000000e+00 0.000000000000000e+00 9.721518987328292e+00 1.000000000000000e+00 0.000000000000000e+00 9.924050632898169e+00 1.000000000000000e+00 0.000000000000000e+00 1.012658227846805e+01 1.000000000000000e+00 0.000000000000000e+00 1.032911392403792e+01 1.000000000000000e+00 0.000000000000000e+00 1.053164556960780e+01 1.000000000000000e+00 0.000000000000000e+00 1.073417721517767e+01 1.000000000000000e+00 0.000000000000000e+00 1.093670886074755e+01 1.000000000000000e+00 0.000000000000000e+00 1.113924050631742e+01 1.000000000000000e+00 0.000000000000000e+00 1.134177215188730e+01 1.000000000000000e+00 0.000000000000000e+00 1.154430379745718e+01 1.000000000000000e+00 0.000000000000000e+00 1.174683544302705e+01 1.000000000000000e+00 0.000000000000000e+00 1.194936708859693e+01 1.000000000000000e+00 0.000000000000000e+00 1.215189873416701e+01 1.000000000000000e+00 0.000000000000000e+00 1.235443037973717e+01 1.000000000000000e+00 0.000000000000000e+00 1.255696202530733e+01 1.000000000000000e+00 0.000000000000000e+00 1.275949367087749e+01 1.000000000000000e+00 0.000000000000000e+00 1.296202531644764e+01 1.000000000000000e+00 0.000000000000000e+00 1.316455696201780e+01 1.000000000000000e+00 0.000000000000000e+00 1.336708860758796e+01 1.000000000000000e+00 0.000000000000000e+00 1.356962025315812e+01 1.000000000000000e+00 0.000000000000000e+00 1.377215189872827e+01 1.000000000000000e+00 0.000000000000000e+00 1.397468354429843e+01 1.000000000000000e+00 0.000000000000000e+00 1.417721518986859e+01 1.000000000000000e+00 0.000000000000000e+00 1.437974683543874e+01 1.000000000000000e+00 0.000000000000000e+00 1.458227848100890e+01 1.000000000000000e+00 0.000000000000000e+00 1.478481012657906e+01 1.000000000000000e+00 0.000000000000000e+00 1.498734177214921e+01 1.000000000000000e+00 0.000000000000000e+00 1.518987341771937e+01 1.000000000000000e+00 0.000000000000000e+00 1.539240506328953e+01 1.000000000000000e+00 0.000000000000000e+00 1.559493670885968e+01 1.000000000000000e+00 0.000000000000000e+00 1.579746835442984e+01 1.000000000000000e+00 0.000000000000000e+00 1.600000000000000e+01 7.500000000003469e-01 0.000000000000000e+00 1.600000000000000e+01 5.000000000013878e-01 0.000000000000000e+00 1.600000000000000e+01 2.500000000010407e-01 0.000000000000000e+00 1.579746835443066e+01 0.000000000000000e+00 0.000000000000000e+00 1.559493670886132e+01 0.000000000000000e+00 0.000000000000000e+00 1.539240506329198e+01 0.000000000000000e+00 0.000000000000000e+00 1.518987341772264e+01 0.000000000000000e+00 0.000000000000000e+00 1.498734177215330e+01 0.000000000000000e+00 0.000000000000000e+00 1.478481012658396e+01 0.000000000000000e+00 0.000000000000000e+00 1.458227848101463e+01 0.000000000000000e+00 0.000000000000000e+00 1.437974683544529e+01 0.000000000000000e+00 0.000000000000000e+00 1.417721518987595e+01 0.000000000000000e+00 0.000000000000000e+00 1.397468354430661e+01 0.000000000000000e+00 0.000000000000000e+00 1.377215189873727e+01 0.000000000000000e+00 0.000000000000000e+00 1.356962025316793e+01 0.000000000000000e+00 0.000000000000000e+00 1.336708860759859e+01 0.000000000000000e+00 0.000000000000000e+00 1.316455696202925e+01 0.000000000000000e+00 0.000000000000000e+00 1.296202531645991e+01 0.000000000000000e+00 0.000000000000000e+00 1.275949367089057e+01 0.000000000000000e+00 0.000000000000000e+00 1.255696202532123e+01 0.000000000000000e+00 0.000000000000000e+00 1.235443037975189e+01 0.000000000000000e+00 0.000000000000000e+00 1.215189873418256e+01 0.000000000000000e+00 0.000000000000000e+00 1.194936708861336e+01 0.000000000000000e+00 0.000000000000000e+00 1.174683544304458e+01 0.000000000000000e+00 0.000000000000000e+00 1.154430379747580e+01 0.000000000000000e+00 0.000000000000000e+00 1.134177215190703e+01 0.000000000000000e+00 0.000000000000000e+00 1.113924050633825e+01 0.000000000000000e+00 0.000000000000000e+00 1.093670886076947e+01 0.000000000000000e+00 0.000000000000000e+00 1.073417721520070e+01 0.000000000000000e+00 0.000000000000000e+00 1.053164556963192e+01 0.000000000000000e+00 0.000000000000000e+00 1.032911392406314e+01 0.000000000000000e+00 0.000000000000000e+00 1.012658227849436e+01 0.000000000000000e+00 0.000000000000000e+00 9.924050632925587e+00 0.000000000000000e+00 0.000000000000000e+00 9.721518987356809e+00 0.000000000000000e+00 0.000000000000000e+00 9.518987341788034e+00 0.000000000000000e+00 0.000000000000000e+00 9.316455696219256e+00 0.000000000000000e+00 0.000000000000000e+00 9.113924050650478e+00 0.000000000000000e+00 0.000000000000000e+00 8.911392405081703e+00 0.000000000000000e+00 0.000000000000000e+00 8.708860759512925e+00 0.000000000000000e+00 0.000000000000000e+00 8.506329113944147e+00 0.000000000000000e+00 0.000000000000000e+00 8.303797468375370e+00 0.000000000000000e+00 0.000000000000000e+00 8.101265822806592e+00 0.000000000000000e+00 0.000000000000000e+00 7.898734177237253e+00 0.000000000000000e+00 0.000000000000000e+00 7.696202531667353e+00 0.000000000000000e+00 0.000000000000000e+00 7.493670886097451e+00 0.000000000000000e+00 0.000000000000000e+00 7.291139240527549e+00 0.000000000000000e+00 0.000000000000000e+00 7.088607594957649e+00 0.000000000000000e+00 0.000000000000000e+00 6.886075949387747e+00 0.000000000000000e+00 0.000000000000000e+00 6.683544303817845e+00 0.000000000000000e+00 0.000000000000000e+00 6.481012658247945e+00 0.000000000000000e+00 0.000000000000000e+00 6.278481012678045e+00 0.000000000000000e+00 0.000000000000000e+00 6.075949367108143e+00 0.000000000000000e+00 0.000000000000000e+00 5.873417721538242e+00 0.000000000000000e+00 0.000000000000000e+00 5.670886075968340e+00 0.000000000000000e+00 0.000000000000000e+00 5.468354430398438e+00 0.000000000000000e+00 0.000000000000000e+00 5.265822784828536e+00 0.000000000000000e+00 0.000000000000000e+00 5.063291139258636e+00 0.000000000000000e+00 0.000000000000000e+00 4.860759493688734e+00 0.000000000000000e+00 0.000000000000000e+00 4.658227848118834e+00 0.000000000000000e+00 0.000000000000000e+00 4.455696202548932e+00 0.000000000000000e+00 0.000000000000000e+00 4.253164556979030e+00 0.000000000000000e+00 0.000000000000000e+00 4.050632911409130e+00 0.000000000000000e+00 0.000000000000000e+00 3.848101265838807e+00 0.000000000000000e+00 0.00000000000000
[...]
<PointData Scalars="pressure_p1," Vectors="" Tensors="">
<DataArray type="Float64" Name="pressure_p1" format="ascii">
-1.192303688470358e-01 -1.106366123782456e-01 -2.697412176636523e+01 -2.697503012740125e+01 -1.052968963329090e-01 -1.423279796486835e-01 -1.590096901126365e-01 -3.586742821901841e-01 -7.182488613791737e-01 -1.092417036366243e+00 -1.456372456762581e+00 -1.817869653980225e+00 -2.182770002034868e+00 -2.554055417142369e+00 -2.919064553425548e+00 -3.280530117541570e+00 -3.643946753876425e+00 -4.008077725740158e+00 -4.372428186474992e+00 -4.736990304181981e+00 -5.100585155302074e+00 -5.462246519173511e+00 -5.821173400721880e+00 -6.175334652284147e+00 -6.572513914879552e+00 -6.948061982321204e+00 -7.296320680841801e+00 -7.656463399129469e+00 -8.019375478612993e+00 -8.383314063565543e+00 -8.747824695045473e+00 -9.111994924914908e+00 -9.476213561160213e+00 -9.840943225060718e+00 -1.020545890438311e+01 -1.056987972650011e+01 -1.093465161407945e+01 -1.129928878465561e+01 -1.166387572281354e+01 -1.202852458475524e+01 -1.239262697020846e+01 -1.275700105138421e+01 -1.311966130169071e+01 -1.347320810221070e+01 -1.385369374495279e+01 -1.423690803952161e+01 -1.459103932910116e+01 -1.494971508168366e+01 -1.530905938133799e+01 -1.567308269416280e+01 -1.604325545820615e+01 -1.640547720393690e+01 -1.676769906366420e+01 -1.713716927437854e+01 -1.749931496403565e+01 -1.786157470386037e+01 -1.823100022684782e+01 -1.859301627681772e+01 -1.895500566234660e+01 -1.932407868029447e+01 -1.968565946589124e+01 -2.004724786490478e+01 -2.041622199579450e+01 -2.077848879199430e+01 -2.113552190373827e+01 -2.149095625004414e+01 -2.184150418324385e+01 -2.223313384119622e+01 -2.260112244949450e+01 -2.294117008997997e+01 -2.328954454315600e+01 -2.363528476382045e+01 -2.398024720790055e+01 -2.432448617402321e+01 -2.465381833403623e+01 -2.497423929921346e+01 -2.529013305758007e+01 -2.558714619703515e+01 -2.586468835592221e+01 -2.612305626707296e+01 -2.635706787659282e+01 -2.656205058376847e+01 -2.673288663437897e+01 -2.686280704786198e+01 -2.694389249805761e+01 -2.697508565825119e+01 -2.697016811950566e+01 -2.696869271668263e+01 -2.694718279063689e+01 -2.686431818206137e+01 -2.673119890004424e+01 -2.656110885337945e+01 -2.635808948437200e+01 -2.612390871260942e+01 -2.586025360831859e+01 -2.558017457725495e+01 -2.528585605804214e+01 -2.497610427380887e+01 -2.465457569505051e+01 -2.432362448922530e+01 -2.398473138337218e+01 -2.364020935518744e+01 -2.329216630284309e+01 -2.294407560093618e+01 -2.260109190084508e+01 -2.222465243689806e+01 -2.184257468357198e+01 -2.149190557145333e+01 -2.113555801702358e+01 -2.077604105900457e+01 -2.041422225499560e+01 -2.005077420881942e+01 -1.968708038978017e+01 -1.932313173723280e+01 -1.895853830498019e+01 -1.859404168190246e+01 -1.822951182906375e+01 -1.786469261848943e+01 -1.750016510990962e+01 -1.713576067921840e+01 -1.677111653629666e+01 -1.640677213445138e+01 -1.604233402461369e+01 -1.567761553276470e+01 -1.531380148457220e+01 -1.495155681389304e+01 -1.459164114612598e+01 -1.423689467134989e+01 -1.385201636713643e+01 -1.347613554372923e+01 -1.313446479161380e+01 -1.276554933032400e+01 -1.239573348097641e+01 -1.203225755706291e+01 -1.166263822320259e+01 -1.130049729085045e+01 -1.093829862458160e+01 -1.056896567347873e+01 -1.020696994329915e+01 -9.844734888791026e+00 -9.475296210191550e+00 -9.113248982826988e+00 -8.751015568561447e+00 -8.380918238517154e+00 -8.016948117612539e+00 -7.657113027633382e+00 -7.299074873403838e+00 -6.948080541942807e+00 -6.564147024427948e+00 -6.176657948581848e+00 -5.822605780810997e+00 -5.464519649002979e+00 -5.105572637979343e+00 -4.741619129392808e+00 -4.371404311911837e+00 -4.009034521539249e+00 -3.646435414126787e+00 -3.275738751042143e+00 -2.910551110629213e+00 -2.548345984536101e+00 -2.184158392676336e+00 -1.819562685185974e+00 -1.454791321874127e+00 -1.089171574181470e+00 -7.250675047950649e-01 -3.740716645308423e-01 -2.665572426402668e+01 -1.262918931947108e+00 -2.600080780343046e+01 -2.129191221694270e+01 -2.360355736523527e+00 -2.513701462013510e+01 -2.023801687485436e+01 -2.415739555695607e+01 -3.456037017760440e+00 -1.914604932186316e+01 -2.311966472197311e+01 -1.805123795561547e+01 -4.551543215755974e+00 -1.695639908210652e+01 -5.611162243179835e+00 -1.586141953882734e+01 -7.475410631366599e+00 -1.479455175752598e+01 -8.561373545380357e+00 -9.654330838602972e+00 -1.074805768423988e+01 -1.184230843876491e+01 -1.287638708655008e+01 -1.383370834411960e+01 -2.219404450618781e+01 -6.527298826450262e+00 -2.687055465564662e+01 -6.937391689837852e-01 -1.238982482448241e+01 -1.129681900917050e+01 -1.020320774786970e+01 -1.529919006312361e+01 -9.109842776047657e+00 -8.000630090306219e+00 -1.640808706723493e+01 -1.750241449591280e+01 -1.859772409439283e+01 -1.969032054948359e+01 -2.079265320703736e+01 -2.362427136611228e+01 -2.637099447057819e+01 -2.465712534275744e+01 -2.557394530155477e+01 -5.113168449737512e+00 -1.796957372933147e+00 -4.004712704415438e+00 -2.927021109345851e+00 -2.077959949986206e+01 -1.969384716001494e+01 -1.860044559866219e+01 -1.750460610362140e+01 -1.641104446282461e+01 -1.531784112356213e+01 -2.891987788778680e+00 -2.560204481430090e+01 -2.636359960296465e+01 -1.808174295125405e+00 -2.465866070929326e+01 -4.002041023110031e+00 -2.364333495445704e+01 -5.093867406126406e+00 -8.013824293674690e+00 -9.106939929185581e+00 -1.019929383054537e+01 -1.129369190548184e+01 -1.238416611389710e+01 -1.337376516409179e+01 -1.344135829108771e+01 -2.261706085763238e+01 -2.267744686860171e+01 -6.961885519780417e+00 -7.023954999325424e+00 -1.429389337148967e+01 -6.108310171046198e+00 -2.178219855250918e+01 -6.097160566311192e+00 -1.429403238233084e+01 -2.177188640907260e+01 -7.653866361101600e-01 -2.684964694480010e+01 -1.585872259316223e+01 -1.298455983587774e+01 -1.184580054779583e+01 -1.695377137330712e+01 -1.075177751455402e+01 -9.658164438672783e+00 -1.804826597140467e+01 -8.564016239619406e+00 -7.482915256725497e+00 -1.914192597249617e+01 -2.023431781469563e+01 -2.311911255924009e+01 -1.272898981445882e+00 -4.555171049695738e+00 -2.665142281024427e+01 -2.415427233751217e+01 -2.599692495267879e+01 -2.365877649154796e+00 -2.513623949105271e+01 -3.457998986808367e+00 -2.023592686812142e+01 -2.513353408098205e+01 -2.599988762719731e+01 -3.460214979054106e+00 -2.415777112126520e+01 -2.361730562401161e+00 -2.665466042900983e+01 -1.914450377073093e+01 -2.312533985327596e+01 -4.551660535365624e+00 -1.804973890487423e+01 -1.266151184328489e+00 -1.695574232154239e+01 -1.586225884604336e+01 -7.478694488409467e+00 -8.563178511458583e+00 -9.655260954973194e+00 -1.074899929852033e+01 -1.184351443348657e+01 -1.293582291644986e+01 -2.130434648216662e+01 -2.130569801945224e+01 -5.628473918144135e+00 -1.478177673891534e+01 -5.632460515881518e+00 -1.477923618163891e+01 -1.384779794498651e+01 -1.385160800266275e+01 -6.619713652929347e+00 -2.223317011465076e+01 -2.228253253513986e+01 -6.570520681040468e+00 -2.692527520033590e+01 -4.505789560380103e-01 -2.680621970042800e+01 -8.980012015068061e-01 -4.893917818191543e-01 -2.692004443173340e+01 -3.077196445509768e+00 -2.545362703356455e+01 -1.996842925001727e+00 -2.624638107732181e+01 -2.449284202402513e+01 -2.347030621890221e+01 -2.059789440775544e+01 -4.186843470127631e+00 -1.950922008098257e+01 -1.841515682062766e+01 -8.198868259225847e+00 -9.290663499055134e+00 -1.732057857223749e+01 -1.038411823233258e+01 -1.147840746414106e+01 -1.622740400981966e+01 -1.257012058849155e+01 -2.545120383478056e+01 -2.625860005885166e+01 -3.079628508668538e+00 -2.450423189758693e+01 -2.346643794436439e+01 -1.977994566626394e+00 -8.181472336726808e+00 -9.278360427553666e+00 -1.037148505803276e+01 -1.146573404859023e+01 -2.061439118119615e+01 -1.254774456970628e+01 -1.952235372859336e+01 -1.842880125682547e+01 -4.173562269605409e+00 -1.733303622972995e+01 -5.272604419945680e+00 -1.623905970800277e+01 -1.513751443961247e+01 -5.274999676776834e+00 -1.513746803212364e+01 -1.257133192685303e+01 -1.147032785542857e+01 -1.623509712968120e+01 -1.037677061839735e+01 -9.283042025934789e+00 -1.732930848286830e+01 -8.185084428068961e+00 -1.842374463372858e+01 -1.951662112091518e+01 -2.061099810449325e+01 -4.178724909643837e+00 -2.346166143845304e+01 -2.450042392550826e+01 -2.625427473904482e+01 -2.543390626770850e+01 -1.985069816027792e+00 -2.646637489280252e+01 -2.571391127734588e+01 -1.632100935975777e+00 -3.100722693805477e+00 -2.747869149189318e+00 -2.480794181637844e+01 -2.379701165521076e+01 -3.835822140183648e+00 -4.934816615908876e+00 -1.985840305298564e+01 -1.876601325192186e+01 -7.835115284559734e+00 -1.767183946188015e+01 -8.940780983317866e+00 -1.003449214232605e+01 -1.657755991902905e+01 -1.112789017322599e+01 -1.222290218368975e+01 -1.547913710751339e+01 -1.512991276412461e+01 -5.283344460845857e+00 -2.095757436514981e+01 -1.446188667597656e+01 -6.239281342159441e+00 -2.161446072845774e+01 -2.274044627750595e+01 -7.087517116043867e+00 -1.347863144547088e+01 -1.767505225662952e+01 -1.658088271869711e+01 -1.986339760270392e+01 -1.548288683429969e+01 -1.877086431934715e+01 -2.095561283021489e+01 -8.937247583786018e+00 -1.221554601599082e+01 -7.832008314686388e+00 -1.002961540949936e+01 -1.112359387353980e+01 -2.572207395634607e+01 -2.737551429035545e+00 -2.647043144484423e+01 -2.481037285329634e+01 -1.624412908462927e+00 -2.380088502769611e+01 -3.831708285141550e+00 -4.929375862491305e+00 -2.691160663631612e+01 -5.401319698797339e-01 -1.768456689300598e+01 -1.549796851460280e+01 -1.987229082393664e+01 -1.877949560988662e+01 -1.659105717463514e+01 -4.915553507231269e+00 -3.823299742076227e+00 -7.837109892678105e+00 -1.220760531902151e+01 -1.002008128852143e+01 -8.927553058680006e+00 -1.111412584860347e+01 -2.381561923041363e+01 -2.481824936444596e+01 -2.646607304786222e+01 -1.632262155609616e+00 -2.573313748841432e+01 -2.723178146692401e+00 -2.095484246052416e+01 -2.680779865770526e+01 -8.894390056406204e-01 -9.072158275315552e-01 -2.680227932234678e+01 -1.410684897360574e+01 -2.196797677153931e+01 -1.410749624152032e+01 -2.197109213239965e+01 -6.300132865343261e+00 -6.303947912578916e+00 -1.328799755922416e+01 -7.143870947795648e+00 -1.331447446271093e+01 -2.279369127584308e+01 -7.132914907196407e+00 -2.278295164988467e+01 -1.267461755610929e+01 -1.158398557395311e+01 -1.612083674572906e+01 -1.049004063367147e+01 -9.396450152006601e+00 -1.721525841760609e+01 -8.299268247841487e+00 -1.831042829445383e+01 -1.940376987689235e+01 -2.049783681523891e+01 -4.292230300782512e+00 -2.329173663866688e+01 -2.439681327675275e+01 -2.528854911854539e+01 -2.618137609445909e+01 -3.276374573169714e+00 -2.098130550067549e+00 -5.449427318897364e+00 -1.496053975006674e+01 -2.164444082318439e+01 -2.164743816580338e+01 -1.443453109516648e+01 -5.972516485197244e+00 -5.976282600345645e+00 -1.443390564107844e+01 -2.580598806802481e+01 -2.656518225475169e+01 -2.627699922614697e+00 -1.448320734892207e+00 -2.491186724464586e+01 -2.390880579254276e+01 -3.717414694855158e+00 -4.816518325446590e+00 -1.997666708546144e+01 -1.888446115304352e+01 -7.657491334590595e+00 -1.778959956375278e+01 -8.823107234784269e+00 -1.669507251784809e+01 -9.916226816763853e+00 -1.100980245954832e+01 -1.559667920097374e+01 -1.210369500380306e+01 -2.112687846192276e+01 -2.695093979928712e+01 -3.203797636449265e-01 -1.317077089091368e+01 -2.244912948420202e+01 -6.789135600723982e+00 -1.313365720115782e+01 -3.192308093213275e+00 -2.173872650404161e+00 -2.535947869589139e+01 -1.604777043490387e+01 -1.714142048754684e+01 -1.823641235562739e+01 -1.933119464391794e+01 -2.042137542723705e+01 -2.612978180350835e+01 -1.274120649721772e+01 -1.165731917242728e+01 -1.056265820516302e+01 -9.469157055565121e+00 -8.376952862204126e+00 -4.365426541569512e+00 -2.432943190682737e+01 -2.329940969201863e+01 -1.496553283901625e+01 -5.443229821888384e+00 -1.567902344645584e+01 -1.677325589898287e+01 -1.786737273277143e+01 -1.896328475107326e+01 -2.005534585226948e+01 -1.202487283056112e+01 -1.093077368893009e+01 -9.836654824971333e+00 -8.745216405333251e+00 -7.656418809543560e+00 -4.733779578076549e+00 -3.640510561916587e+00 -2.398719521948834e+01 -2.497757186025528e+01 -2.656680027745645e+01 -1.444700040069854e+00 -2.587010178701408e+01 -2.541067806960100e+00 -6.829014083456202e+00 -1.360374266562256e+01 -6.841209993132620e+00 -2.248562674151931e+01 -2.249757361448330e+01 -1.359486175920283e+01 -2.112606733523401e+01 -1.398961715408204e+01 -1.398764843330598e+01 -6.415275012416885e+00 -2.202623896733337e+01 -2.208348872292860e+01 -6.356096795330989e+00 -2.145959198774160e+01 -2.146217508736224e+01 -1.462214030899720e+01 -5.781139313671843e+00 -1.462070041760492e+01 -5.785441867636837e+00 -7.311993462358159e+00 -2.295982630418107e+01 -7.299424847709926e+00 -2.294645805698707e+01 -2.673157892652783e+01 -1.091268709465820e+00 -2.240893506416753e+01 -6.748502978025961e+00 -1.075014716850689e+00 -2.673794181225226e+01 -1.370055342077090e+01 -1.368799919094057e+01 -2.696256966063273e+01 -2.447839580105184e-01 -2.696625844690517e+01 -2.134903019433296e-01 -1.414476875316781e+01 -2.191268736327122e+01 -5.936586266373422e+00 
</DataArray>
</PointData>
<CellData Scalars="pressure_p0," Vectors="velocity_p0," Tensors="">
<DataArray type="Float64" Name="pressure_p0" format="ascii">