<?xml version="1.0"?>
<VTKFile type="UnstructuredGrid" version="0.1" byte_order="LittleEndian">
<UnstructuredGrid>
<Piece NumberOfPoints="570" NumberOfCells="968">
<Points>
<DataArray type="Float64" NumberOfComponents="3" format="ascii">
0.000000000000000e+00 0.000000000000000e+00 0.000000000000000e+00 0.000000000000000e+00 1.000000000000000e+00 0.000000000000000e+00 1.600000000000000e+01 1.000000000000000e+00 0.000000000000000e+00 1.600000000000000e+01 0.000000000000000e+00 0.000000000000000e+00 0.000000000000000e+00 1.999999999995579e-01 0.000000000000000e+00 0.000000000000000e+00 3.999999999989749e-01 0.000000000000000e+00 0.000000000000000e+00 5.999999999989468e-01 0.000000000000000e+00 0.000000000000000e+00 7.999999999994734e-01 0.000000000000000e+00 1.999999999996227e-01 1.000000000000000e+00 0.000000000000000e+00 3.999999999992458e-01 1.000000000000000e+00 0.000000000000000e+00 5.999999999988365e-01 1.000000000000000e+00 0.000000000000000e+00 7.999999999983944e-01 1.000000000000000e+00 0.000000000000000e+00 9.999999999979721e-01 1.000000000000000e+00 0.000000000000000e+00 1.199999999997645e+00 1.000000000000000e+00 0.000000000000000e+00 1.399999999997340e+00 1.000000000000000e+00 0.000000000000000e+00 1.599999999997035e+00 1.000000000000000e+00 0.000000000000000e+00 1.799999999996729e+00 1.000000000000000e+00 0.000000000000000e+00 1.999999999996380e+00 1.000000000000000e+00 0.000000000000000e+00 2.199999999995840e+00 1.000000000000000e+00 0.000000000000000e+00 2.399999999995257e+00 1.000000000000000e+00 0.000000000000000e+00 2.599999999994675e+00 1.000000000000000e+00 0.000000000000000e+00 2.799999999994092e+00 1.000000000000000e+00 0.000000000000000e+00 2.999999999993509e+00 1.000000000000000e+00 0.000000000000000e+00 3.199999999992926e+00 1.000000000000000e+00 0.000000000000000e+00 3.399999999992343e+00 1.000000000000000e+00 0.000000000000000e+00 3.599999999991760e+00 1.000000000000000e+00 0.000000000000000e+00 3.799999999991177e+00 1.000000000000000e+00 0.000000000000000e+00 3.999999999990594e+00 1.000000000000000e+00 0.000000000000000e+00 4.199999999990011e+00 1.000000000000000e+00 0.000000000000000e+00 4.399999999989427e+00 1.000000000000000e+00 0.000000000000000e+00 4.599999999988845e+00 1.000000000000000e+00 0.000000000000000e+00 4.799999999988263e+00 1.000000000000000e+00 0.000000000000000e+00 4.999999999987679e+00 1.000000000000000e+00 0.000000000000000e+00 5.199999999987096e+00 1.000000000000000e+00 0.000000000000000e+00 5.399999999986513e+00 1.000000000000000e+00 0.000000000000000e+00 5.599999999985930e+00 1.000000000000000e+00 0.000000000000000e+00 5.799999999985348e+00 1.000000000000000e+00 0.000000000000000e+00 5.999999999984764e+00 1.000000000000000e+00 0.000000000000000e+00 6.199999999984182e+00 1.000000000000000e+00 0.000000000000000e+00 6.399999999983598e+00 1.000000000000000e+00 0.000000000000000e+00 6.599999999983016e+00 1.000000000000000e+00 0.000000000000000e+00 6.799999999982433e+00 1.000000000000000e+00 0.000000000000000e+00 6.999999999981850e+00 1.000000000000000e+00 0.000000000000000e+00 7.199999999981268e+00 1.000000000000000e+00 0.000000000000000e+00 7.399999999980683e+00 1.000000000000000e+00 0.000000000000000e+00 7.599999999980102e+00 1.000000000000000e+00 0.000000000000000e+00 7.799999999979519e+00 1.000000000000000e+00 0.000000000000000e+00 7.999999999979108e+00 1.000000000000000e+00 0.000000000000000e+00 8.199999999979463e+00 1.000000000000000e+00 0.000000000000000e+00 8.399999999979988e+00 1.000000000000000e+00 0.000000000000000e+00 8.599999999980515e+00 1.000000000000000e+00 0.000000000000000e+00 8.799999999981042e+00 1.000000000000000e+00 0.000000000000000e+00 8.999999999981569e+00 1.000000000000000e+00 0.000000000000000e+00 9.199999999982095e+00 1.000000000000000e+00 0.000000000000000e+00 9.399999999982622e+00 1.000000000000000e+00 0.000000000000000e+00 9.599999999983149e+00 1.000000000000000e+00 0.000000000000000e+00 9.799999999983674e+00 1.000000000000000e+00 0.000000000000000e+00 9.999999999984201e+00 1.000000000000000e+00 0.000000000000000e+00 1.019999999998473e+01 1.000000000000000e+00 0.000000000000000e+00 1.039999999998525e+01 1.000000000000000e+00 0.000000000000000e+00 1.059999999998578e+01 1.000000000000000e+00 0.000000000000000e+00 1.079999999998631e+01 1.000000000000000e+00 0.000000000000000e+00 1.099999999998684e+01 1.000000000000000e+00 0.000000000000000e+00 1.119999999998736e+01 1.000000000000000e+00 0.000000000000000e+00 1.139999999998789e+01 1.000000000000000e+00 0.000000000000000e+00 1.159999999998842e+01 1.000000000000000e+00 0.000000000000000e+00 1.179999999998894e+01 1.000000000000000e+00 0.000000000000000e+00 1.199999999998947e+01 1.000000000000000e+00 0.000000000000000e+00 1.219999999998999e+01 1.000000000000000e+00 0.000000000000000e+00 1.239999999999052e+01 1.000000000000000e+00 0.000000000000000e+00 1.259999999999105e+01 1.000000000000000e+00 0.000000000000000e+00 1.279999999999157e+01 1.000000000000000e+00 0.000000000000000e+00 1.299999999999210e+01 1.000000000000000e+00 0.000000000000000e+00 1.319999999999263e+01 1.000000000000000e+00 0.000000000000000e+00 1.339999999999315e+01 1.000000000000000e+00 0.000000000000000e+00 1.359999999999368e+01 1.000000000000000e+00 0.000000000000000e+00 1.379999999999421e+01 1.000000000000000e+00 0.000000000000000e+00 1.399999999999473e+01 1.000000000000000e+00 0.000000000000000e+00 1.419999999999526e+01 1.000000000000000e+00 0.000000000000000e+00 1.439999999999579e+01 1.000000000000000e+00 0.000000000000000e+00 1.459999999999631e+01 1.000000000000000e+00 0.000000000000000e+00 1.479999999999684e+01 1.000000000000000e+00 0.000000000000000e+00 1.499999999999737e+01 1.000000000000000e+00 0.000000000000000e+00 1.519999999999789e+01 1.000000000000000e+00 0.000000000000000e+00 1.539999999999842e+01 1.000000000000000e+00 0.000000000000000e+00 1.559999999999895e+01 1.000000000000000e+00 0.000000000000000e+00 1.579999999999947e+01 1.000000000000000e+00 0.000000000000000e+00 1.600000000000000e+01 7.999999999999998e-01 0.000000000000000e+00 1.600000000000000e+01 6.000000000013869e-01 0.000000000000000e+00 1.600000000000000e+01 4.000000000016644e-01 0.000000000000000e+00 1.600000000000000e+01 2.000000000008322e-01 0.000000000000000e+00 1.579999999999917e+01 0.000000000000000e+00 0.000000000000000e+00 1.559999999999833e+01 0.000000000000000e+00 0.000000000000000e+00 1.539999999999750e+01 0.000000000000000e+00 0.000000000000000e+00 1.519999999999667e+01 0.000000000000000e+00 0.000000000000000e+00 1.499999999999584e+01 0.000000000000000e+00 0.000000000000000e+00 1.479999999999500e+01 0.000000000000000e+00 0.000000000000000e+00 1.459999999999417e+01 0.000000000000000e+00 0.000000000000000e+00 1.439999999999334e+01 0.000000000000000e+00 0.000000000000000e+00 1.419999999999250e+01 0.000000000000000e+00 0.000000000000000e+00 1.399999999999202e+01 0.000000000000000e+00 0.000000000000000e+00 1.379999999999306e+01 0.000000000000000e+00 0.000000000000000e+00 1.359999999999445e+01 0.000000000000000e+00 0.000000000000000e+00 1.339999999999583e+01 0.000000000000000e+00 0.000000000000000e+00 1.319999999999722e+01 0.000000000000000e+00 0.000000000000000e+00 1.299999999999861e+01 0.000000000000000e+00 0.000000000000000e+00 1.280000000000000e+01 0.000000000000000e+00 0.000000000000000e+00 1.260000000000138e+01 0.000000000000000e+00 0.000000000000000e+00 1.240000000000277e+01 0.000000000000000e+00 0.000000000000000e+00 1.220000000000416e+01 0.000000000000000e+00 0.000000000000000e+00 1.200000000000555e+01 0.000000000000000e+00 0.000000000000000e+00 1.180000000000693e+01 0.000000000000000e+00 0.000000000000000e+00 1.160000000000832e+01 0.000000000000000e+00 0.000000000000000e+00 1.140000000000971e+01 0.000000000000000e+00 0.000000000000000e+00 1.120000000001109e+01 0.000000000000000e+00 0.000000000000000e+00 1.100000000001248e+01 0.000000000000000e+00 0.000000000000000e+00 1.080000000001387e+01 0.000000000000000e+00 0.000000000000000e+00 1.060000000001525e+01 0.000000000000000e+00 0.000000000000000e+00 1.040000000001664e+01 0.000000000000000e+00 0.000000000000000e+00 1.020000000001803e+01 0.000000000000000e+00 0.000000000000000e+00 1.000000000001942e+01 0.000000000000000e+00 0.000000000000000e+00 9.800000000020802e+00 0.000000000000000e+00 0.000000000000000e+00 9.600000000022190e+00 0.000000000000000e+00 0.000000000000000e+00 9.400000000023578e+00 0.000000000000000e+00 0.000000000000000e+00 9.200000000024964e+00 0.000000000000000e+00 0.000000000000000e+00 9.000000000026350e+00 0.000000000000000e+00 0.000000000000000e+00 8.800000000027737e+00 0.000000000000000e+00 0.000000000000000e+00 8.600000000029127e+00 0.000000000000000e+00 0.000000000000000e+00 8.400000000030513e+00 0.000000000000000e+00 0.000000000000000e+00 8.200000000031899e+00 0.000000000000000e+00 0.000000000000000e+00 8.000000000032939e+00 0.000000000000000e+00 0.000000000000000e+00 7.800000000032455e+00 0.000000000000000e+00 0.000000000000000e+00 7.600000000031622e+00 0.000000000000000e+00 0.000000000000000e+00 7.400000000030790e+00 0.000000000000000e+00 0.000000000000000e+00 7.200000000029958e+00 0.000000000000000e+00 0.000000000000000e+00 7.000000000029125e+00 0.000000000000000e+00 0.000000000000000e+00 6.800000000028295e+00 0.000000000000000e+00 0.000000000000000e+00 6.600000000027460e+00 0.000000000000000e+00 0.000000000000000e+00 6.400000000026630e+00 0.000000000000000e+00 0.000000000000000e+00 6.200000000025797e+00 0.000000000000000e+00 0.000000000000000e+00 6.000000000024965e+00 0.000000000000000e+00 0.000000000000000e+00 5.800000000024133e+00 0.000000000000000e+00 0.000000000000000e+00 5.600000000023302e+00 0.000000000000000e+00 0.000000000000000e+00 5.400000000022469e+00 0.000000000000000e+00 0.000000000000000e+00 5.200000000021635e+00 0.000000000000000e+00 0.000000000000000e+00 5.000000000020805e+00 0.000000000000000e+00 0.000000000000000e+00 4.800000000019972e+00 0.000000000000000e+00 0.000000000000000e+00 4.600000000019140e+00 0.000000000000000e+00 0.00000000000000
[...]
<PointData Scalars="pressure_p1," Vectors="" Tensors="">
<DataArray type="Float64" Name="pressure_p1" format="ascii">
-6.830336854807172e-02 -6.830639702188501e-02 -1.523982961252982e+01 -1.524002786460476e+01 -5.718532090766119e-02 -6.075781474352976e-02 -6.454418382220052e-02 -6.091102309981524e-02 -2.087693603030237e-01 -4.005695211758191e-01 -6.000588951972632e-01 -8.000479453101720e-01 -1.000041269627057e+00 -1.200035169068299e+00 -1.400029437782250e+00 -1.600024206966664e+00 -1.800019599251743e+00 -2.000015554303151e+00 -2.200011927129115e+00 -2.400008744320748e+00 -2.600006165736385e+00 -2.800004264299237e+00 -3.000002926933638e+00 -3.200001986037369e+00 -3.400001318459623e+00 -3.600000847116732e+00 -3.800000519979106e+00 -4.000000298123131e+00 -4.200000151207479e+00 -4.400000055695213e+00 -4.599999993759652e+00 -4.799999952310032e+00 -4.999999922077518e+00 -5.199999896813964e+00 -5.399999872655509e+00 -5.599999847685415e+00 -5.799999821725898e+00 -5.999999796396352e+00 -6.199999775507691e+00 -6.399999765858336e+00 -6.599999778315662e+00 -6.799999828245118e+00 -6.999999932041640e+00 -7.200000093732836e+00 -7.400000288061324e+00 -7.600000455456623e+00 -7.800000465543441e+00 -8.000000221605534e+00 -8.199999828769185e+00 -8.399999497012542e+00 -8.599999342037403e+00 -8.799999332495288e+00 -8.999999381833872e+00 -9.199999428596294e+00 -9.399999435789844e+00 -9.599999365581773e+00 -9.799999156019293e+00 -9.999998694622448e+00 -1.019999777770815e+01 -1.039999604197201e+01 -1.059999284925230e+01 -1.079998709536756e+01 -1.099997689846447e+01 -1.119995909981320e+01 -1.139992847832177e+01 -1.159987653680337e+01 -1.179978966085533e+01 -1.199964637821259e+01 -1.219941335687616e+01 -1.239903967542126e+01 -1.259844878280267e+01 -1.279752744556421e+01 -1.299611086919523e+01 -1.319396308965585e+01 -1.339075166568784e+01 -1.358601575557400e+01 -1.377915423555580e+01 -1.396928117284789e+01 -1.415524534826685e+01 -1.433572164667368e+01 -1.450879683517680e+01 -1.467216324233000e+01 -1.482295352388264e+01 -1.495761913607688e+01 -1.507138640950668e+01 -1.516023778837290e+01 -1.521772680285673e+01 -1.524122917969810e+01 -1.524078075436883e+01 -1.524021503430879e+01 -1.524073609536969e+01 -1.521795423984770e+01 -1.516113536627245e+01 -1.507212710450751e+01 -1.495768775999060e+01 -1.482296922551587e+01 -1.467217774972404e+01 -1.450881150125640e+01 -1.433573639254302e+01 -1.415526910611961e+01 -1.396935398965897e+01 -1.377934548267879e+01 -1.358615776767899e+01 -1.339075375507734e+01 -1.319396459346070e+01 -1.299611198029555e+01 -1.279752823762401e+01 -1.259844932918218e+01 -1.239904004322304e+01 -1.219941359990897e+01 -1.199964653638915e+01 -1.179978976244920e+01 -1.159987660126694e+01 -1.139992851877312e+01 -1.119995912497363e+01 -1.099997691408410e+01 -1.079998710525031e+01 -1.059999285600015e+01 -1.039999604756090e+01 -1.019999778400721e+01 -9.999998703991000e+00 -9.799999172178310e+00 -9.599999395099923e+00 -9.399999490875336e+00 -9.199999533011932e+00 -8.999999586882755e+00 -8.799999779883958e+00 -8.600000611948873e+00 -8.399929930949924e+00 -8.199800160883035e+00 -7.999491529272059e+00 -7.798718533150915e+00 -7.599064911598309e+00 -7.399996336731999e+00 -7.199998403476493e+00 -6.999999094765223e+00 -6.799999391350958e+00 -6.599999546683553e+00 -6.399999642498313e+00 -6.199999709743555e+00 -5.999999761352122e+00 -5.799999803094868e+00 -5.599999837858324e+00 -5.399999867613889e+00 -5.199999894492453e+00 -4.999999921521780e+00 -4.799999953288690e+00 -4.599999996671110e+00 -4.400000061731370e+00 -4.200000162841070e+00 -4.000000320119780e+00 -3.800000561362309e+00 -3.600000924996179e+00 -3.400001466013694e+00 -3.200002272695530e+00 -3.000003530630539e+00 -2.800005841931601e+00 -2.599939694162394e+00 -2.399864221163618e+00 -2.199605105661357e+00 -1.998854022480307e+00 -1.799162138388044e+00 -1.600021415156531e+00 -1.400030097635199e+00 -1.200038658415914e+00 -1.000048689577643e+00 -8.000610415728689e-01 -6.012148926261567e-01 -4.027460753218441e-01 -2.094718004075859e-01 -1.368375086448822e+01 -1.329252296593649e+01 -1.289689744517840e+01 -1.249877906181862e+01 -1.209954446017012e+01 -1.169983885842558e+01 -1.406306888827827e+01 -7.000599867792333e-01 -1.129994593232164e+01 -1.100038368403890e+00 -1.089998274994836e+01 -2.099999249621671e+00 -1.500026858587749e+00 -1.049999469713320e+01 -1.522688885291769e+01 -2.500007310307437e+00 -1.009999832069771e+01 -2.900003499907659e+00 -1.501701012758818e+01 -1.474939392135951e+01 -1.442335271095352e+01 -3.300001626345374e+00 -9.699999304475305e+00 -3.700000671158826e+00 -9.299999505994045e+00 -4.100000217974146e+00 -4.500000021746138e+00 -8.899999567800576e+00 -4.899999936255564e+00 -8.499984880499975e+00 -5.299999884503188e+00 -5.699999833807078e+00 -8.098833863614677e+00 -6.099999781771252e+00 -6.499999758399432e+00 -6.899999851760609e+00 -7.300000234202645e+00 -7.700000134587184e+00 -1.699553322791738e+00 -1.348860942522376e+01 -1.309514660697554e+01 -1.387473902640396e+01 -5.090317627616779e-01 -1.269803832488383e+01 -1.489258084990510e+01 -1.459187229527150e+01 -9.000538505115688e-01 -1.229924817819323e+01 -1.300034225952555e+00 -1.189972682228593e+01 -2.299046960202618e+00 -1.149990587837536e+01 -2.699985469153281e+00 -3.100002726146752e+00 -1.109996921639051e+01 -3.500001156359318e+00 -1.069999038747279e+01 -3.900000425292725e+00 -1.029999704418975e+01 -4.300000105868317e+00 -4.699999972779204e+00 -9.899998967535426e+00 -5.099999907824544e+00 -9.499999415311509e+00 -5.499999853742700e+00 -9.099999408112199e+00 -5.899999785067017e+00 -6.299999685500231e+00 -8.699999287362553e+00 -6.699999509883924e+00 -8.299999585070076e+00 -7.099999037362466e+00 -7.499496800976590e+00 -1.512020142715463e+01 -1.643411451758486e-01 -3.037225584162299e-01 -1.519194387954080e+01 -8.100000048853175e+00 -8.199935357795043e+00 -7.999844004898967e+00 -8.399999131249698e+00 -8.299879345434462e+00 -8.499998595726753e+00 -8.599999115210593e+00 -8.699999103818080e+00 -8.099039274827263e+00 -7.898605148990632e+00 -7.799902757253256e+00 -7.699565602986688e+00 -7.797091745998329e+00 -7.600004797387636e+00 -7.500000891035142e+00 -7.400000397432458e+00 -7.300000113802150e+00 -7.200000049161787e+00 -7.099999745888653e+00 -6.999999838690816e+00 -6.899999659410599e+00 -6.799999751162866e+00 -6.699999660143837e+00 -6.599999728131519e+00 -6.499999688202464e+00 -6.399999736287683e+00 -6.299999723863237e+00 -6.199999758899019e+00 -6.099999760555240e+00 -5.999999787295796e+00 -5.899999795586646e+00 -5.799999816810853e+00 -5.699999827713774e+00 -5.599999845066100e+00 -5.499999856613321e+00 -5.399999871299072e+00 -5.299999882902680e+00 -5.199999896179982e+00 -5.099999908361237e+00 -4.999999921913733e+00 -4.899999936287030e+00 -4.799999952553853e+00 -4.699999971998305e+00 -4.599999994511748e+00 -4.500000023502960e+00 -4.400000057252547e+00 -4.300000102347592e+00 -4.200000154154497e+00 -4.100000224626767e+00 -4.000000303466927e+00 -3.900000412064572e+00 -3.800000529215588e+00 -3.700000692891578e+00 -3.600000861694359e+00 -3.500001101672343e+00 -3.400001336820576e+00 -3.300001675343517e+00 -3.200001993221096e+00 -3.100002436652128e+00 -3.000002869280606e+00 -2.900003342769612e+00 -2.800004034970863e+00 -2.699997278570528e+00 -2.600005767406696e+00 -2.499883385689026e+00 -2.399942651901236e+00 -2.299125295488800e+00 -2.199849079942076e+00 -2.098976352949593e+00 -1.999868621590330e+00 -1.899705276342157e+00 -1.799980583281076e+00 -1.699999192229155e+00 -1.998303240306736e+00 -1.600021474340101e+00 -1.500027695151463e+00 -1.400029965521714e+00 -1.300033513789552e+00 -1.200035936867009e+00 -1.100040385836764e+00 -1.000042173069255e+00 -9.000475556898389e-01 -8.000473643775559e-01 -6.995715682382188e-01 -5.988818829397697e-01 -4.860297100101655e-01 -3.977007416656703e-01 -1.900005518265024e+00 -1.424635345060151e+01 -1.415613668676639e+01 -1.433586270645823e+01 -1.397082752415325e+01 -1.424716585378721e+01 -1.442342432570182e+01 -1.450881456642162e+01 -1.459191466137886e+01 -1.467217321838847e+01 -1.474940012341541e+01 -1.482296467018955e+01 -1.489260789852909e+01 -1.495765238995830e+01 -1.501779421195768e+01 -1.507263204601028e+01 -1.512632017015841e+01 -1.516205692609231e+01 -1.519388174316586e+01 -1.442333711445558e+01 -1.289689390354252e+01 -1.279752765524619e+01 -1.259844892562141e+01 -1.269804049968823e+01 -1.249877890361331e+01 -1.289689712310162e+01 -1.239903977190996e+01 -1.229924912606334e+01 -1.299611118145766e+01 -1.319396360101032e+01 -1.309515130355499e+01 -1.329252261774141e+01 -1.339075277175735e+01 -1.348872773926764e+01 -1.358610115150802e+01 -1.368372702252975e+01 -1.377932899935702e+01 -1.329251583061874e+01 -1.169983858646673e+01 -1.159987655449380e+01 -1.139992848955060e+01 -1.149990602931353e+01 -1.129994592148864e+01 -1.169983883059323e+01 -1.119995910687150e+01 -1.109996927178062e+01 -1.179978968840332e+01 -1.189972721157215e+01 -1.199964642058763e+01 -1.209954439173127e+01 -1.219941342123840e+01 -1.209954377983744e+01 -1.009999831148207e+01 -9.999998697016059e+00 -9.799999159889085e+00 -9.899998974393773e+00 -9.699999294834628e+00 -1.009999831768307e+01 -9.599999371887266e+00 -9.499999431077578e+00 -8.899999344127011e+00 -8.999999376425405e+00 -9.199999438159992e+00 -9.099999436666291e+00 -9.299999465511922e+00 -8.899999341500319e+00 -9.399999445073959e+00 -8.799999262860721e+00 -1.089998271278235e+01 -1.079998709817861e+01 -1.059999285116537e+01 -1.069999040703243e+01 -1.049999469501312e+01 -1.089998274575812e+01 -1.039999604352561e+01 -1.029999705191476e+01 -1.099997690288480e+01 -1.019999777939501e+01 -1.501773540911775e+01 -6.099999740546997e+00 -6.899999342685866e+00 -4.500000025279305e+00 -3.300001796310618e+00 -5.299999881494308e+00 -7.299998416202094e+00 -2.900004079141530e+00 -2.499810702491739e+00 -3.700000719228324e+00 -4.899999936391609e+00 -4.100000231430073e+00 -5.699999822181469e+00 -6.499999613399834e+00 -1.368291456382947e+01 -1.397006071191824e+01 -1.406301375907482e+01 -7.011242115329591e-01 -1.100042993934592e+00 -1.500026631582114e+00 -9.699999284953796e+00 -9.299999441384387e+00 -3.103381970225304e-01 -1.474934636570064e+01 -1.249877745692697e+01 -1.511620071707874e+01 -7.900000477061361e+00 -1.129994582945232e+01 -1.049999468319852e+01 -1.424637557741732e+01 -8.499999325267027e+00 -1.459190839362683e+01 -1.489259932242820e+01 -1.387554471699661e+01 -1.300032410229721e+00 -5.001630491688401e-01 -9.000444624923200e-01 -6.299999762835796e+00 -3.900000399809656e+00 -7.099999994522000e+00 -5.099999909013852e+00 -3.500001065873841e+00 -2.300003634719478e+00 -7.500000813120935e+00 -2.700005059114964e+00 -4.699999971261808e+00 -3.100002408551660e+00 -5.899999807008847e+00 -5.499999859813154e+00 -4.300000098840975e+00 -6.699999781664558e+00 -1.269804073113318e+01 -1.069999040979572e+01 -8.299775291670100e+00 -1.149990604675696e+01 -9.899998979527915e+00 -9.099999528550001e+00 -1.189972725549153e+01 -8.699999687092770e+00 -9.499999450266303e+00 -1.348872497173682e+01 -1.029999705407722e+01 -1.229924923113276e+01 -1.109996927848079e+01 -1.309515170587233e+01 -1.700019394460132e+00 -1.861818549780560e-01 -1.522780568094844e+01 -1.589970936631033e-01 -1.522198359003209e+01 -1.519022269533012e+01 -3.175525280048786e-01 -7.996614326151495e+00 -2.197098022285890e+00 -1.378181390684787e+01 -1.406547377091437e+01 -1.897355290731732e+00 -7.696916433292333e+00 -1.319397384080068e+01 -1.339081686218785e+01 -1.299611832120244e+01 -1.358684145272527e+01 -1.279753252015401e+01 -1.259845218249261e+01 -1.239904191769035e+01 -1.219941481353677e+01 -1.433590572263354e+01 -1.450888459548088e+01 -1.467227649361566e+01 -1.482308640309515e+01 -1.199964731060879e+01 -1.179979024904753e+01 -1.495745259480605e+01 -1.159987690256546e+01 -1.506897447428561e+01 -1.139992870257476e+01 -1.119995923543619e+01 -1.099997697946819e+01 -1.079998714332266e+01 -1.059999287771510e+01 -1.039999605949420e+01 -1.019999778992313e+01 -9.999998705754573e+00 -9.799999170116273e+00 -9.599999387653002e+00 -9.399999472665797e+00 -9.199999487795402e+00 -8.999999460297857e+00 -8.799999358230970e+00 -8.599998880700182e+00 -8.399929984169852e+00 -8.199029811197308e+00 -2.399092813661173e+00 -6.066835084835372e-01 -2.599900708311257e+00 -3.000003032119270e+00 -1.600025252181050e+00 -8.005164388643221e-01 -1.400030586783078e+00 -1.000046332689735e+00 -2.799996930026458e+00 -1.200037771530474e+00 -3.200002113940527e+00 -3.400001405422538e+00 -3.600000898442258e+00 -3.800000548561627e+00 -4.200000159379841e+00 -4.000000313569448e+00 -4.599999995740498e+00 -4.400000059893724e+00 -4.799999952920164e+00 -4.999999921585640e+00 -5.399999868828453e+00 -5.199999895022871e+00 -5.799999807675555e+00 -5.599999840255393e+00 -5.999999770085648e+00 -6.199999726565987e+00 -6.399999675618766e+00 -6.599999614529065e+00 -6.999999459243463e+00 -6.799999540152146e+00 -7.199999454349133e+00 -7.400000085762906e+00 -7.599149682005804e+00 -1.415615083490566e+01 -1.799386194423766e+00 -1.387577699632588e+01 -7.897810494844137e+00 -2.098267357918373e+00 -1.523114547979878e+01 -1.397033453008285e-01 -1.523086928113948e+01 -1.415344385548996e-01 -4.488977861828879e-01 -1.514319751837182e+01 -1.519228657439522e+01 -3.108296231694957e-01 
</DataArray>
</PointData>
<CellData Scalars="pressure_p0," Vectors="velocity_p0," Tensors="">
<DataArray type="Float64" Name="pressure_p0" format="ascii">