<?xml version="1.0"?>
<VTKFile type="UnstructuredGrid" version="0.1" byte_order="LittleEndian">
<UnstructuredGrid>
<Piece NumberOfPoints="570" NumberOfCells="968">
<Points>
<DataArray type="Float64" NumberOfComponents="3" format="ascii">
0.000000000000000e+00 0.000000000000000e+00 0.000000000000000e+00 0.000000000000000e+00 1.000000000000000e+00 0.000000000000000e+00 1.600000000000000e+01 1.000000000000000e+00 0.000000000000000e+00 1.600000000000000e+01 0.000000000000000e+00 0.000000000000000e+00 0.000000000000000e+00 1.999999999995579e-01 0.000000000000000e+00 0.000000000000000e+00 3.999999999989749e-01 0.000000000000000e+00 0.000000000000000e+00 5.999999999989468e-01 0.000000000000000e+00 0.000000000000000e+00 7.999999999994734e-01 0.000000000000000e+00 1.999999999996227e-01 1.000000000000000e+00 0.000000000000000e+00 3.999999999992458e-01 1.000000000000000e+00 0.000000000000000e+00 5.999999999988365e-01 1.000000000000000e+00 0.000000000000000e+00 7.999999999983944e-01 1.000000000000000e+00 0.000000000000000e+00 9.999999999979721e-01 1.000000000000000e+00 0.000000000000000e+00 1.199999999997645e+00 1.000000000000000e+00 0.000000000000000e+00 1.399999999997340e+00 1.000000000000000e+00 0.000000000000000e+00 1.599999999997035e+00 1.000000000000000e+00 0.000000000000000e+00 1.799999999996729e+00 1.000000000000000e+00 0.000000000000000e+00 1.999999999996380e+00 1.000000000000000e+00 0.000000000000000e+00 2.199999999995840e+00 1.000000000000000e+00 0.000000000000000e+00 2.399999999995257e+00 1.000000000000000e+00 0.000000000000000e+00 2.599999999994675e+00 1.000000000000000e+00 0.000000000000000e+00 2.799999999994092e+00 1.000000000000000e+00 0.000000000000000e+00 2.999999999993509e+00 1.000000000000000e+00 0.000000000000000e+00 3.199999999992926e+00 1.000000000000000e+00 0.000000000000000e+00 3.399999999992343e+00 1.000000000000000e+00 0.000000000000000e+00 3.599999999991760e+00 1.000000000000000e+00 0.000000000000000e+00 3.799999999991177e+00 1.000000000000000e+00 0.000000000000000e+00 3.999999999990594e+00 1.000000000000000e+00 0.000000000000000e+00 4.199999999990011e+00 1.000000000000000e+00 0.000000000000000e+00 4.399999999989427e+00 1.000000000000000e+00 0.000000000000000e+00 4.599999999988845e+00 1.000000000000000e+00 0.000000000000000e+00 4.799999999988263e+00 1.000000000000000e+00 0.000000000000000e+00 4.999999999987679e+00 1.000000000000000e+00 0.000000000000000e+00 5.199999999987096e+00 1.000000000000000e+00 0.000000000000000e+00 5.399999999986513e+00 1.000000000000000e+00 0.000000000000000e+00 5.599999999985930e+00 1.000000000000000e+00 0.000000000000000e+00 5.799999999985348e+00 1.000000000000000e+00 0.000000000000000e+00 5.999999999984764e+00 1.000000000000000e+00 0.000000000000000e+00 6.199999999984182e+00 1.000000000000000e+00 0.000000000000000e+00 6.399999999983598e+00 1.000000000000000e+00 0.000000000000000e+00 6.599999999983016e+00 1.000000000000000e+00 0.000000000000000e+00 6.799999999982433e+00 1.000000000000000e+00 0.000000000000000e+00 6.999999999981850e+00 1.000000000000000e+00 0.000000000000000e+00 7.199999999981268e+00 1.000000000000000e+00 0.000000000000000e+00 7.399999999980683e+00 1.000000000000000e+00 0.000000000000000e+00 7.599999999980102e+00 1.000000000000000e+00 0.000000000000000e+00 7.799999999979519e+00 1.000000000000000e+00 0.000000000000000e+00 7.999999999979108e+00 1.000000000000000e+00 0.000000000000000e+00 8.199999999979463e+00 1.000000000000000e+00 0.000000000000000e+00 8.399999999979988e+00 1.000000000000000e+00 0.000000000000000e+00 8.599999999980515e+00 1.000000000000000e+00 0.000000000000000e+00 8.799999999981042e+00 1.000000000000000e+00 0.000000000000000e+00 8.999999999981569e+00 1.000000000000000e+00 0.000000000000000e+00 9.199999999982095e+00 1.000000000000000e+00 0.000000000000000e+00 9.399999999982622e+00 1.000000000000000e+00 0.000000000000000e+00 9.599999999983149e+00 1.000000000000000e+00 0.000000000000000e+00 9.799999999983674e+00 1.000000000000000e+00 0.000000000000000e+00 9.999999999984201e+00 1.000000000000000e+00 0.000000000000000e+00 1.019999999998473e+01 1.000000000000000e+00 0.000000000000000e+00 1.039999999998525e+01 1.000000000000000e+00 0.000000000000000e+00 1.059999999998578e+01 1.000000000000000e+00 0.000000000000000e+00 1.079999999998631e+01 1.000000000000000e+00 0.000000000000000e+00 1.099999999998684e+01 1.000000000000000e+00 0.000000000000000e+00 1.119999999998736e+01 1.000000000000000e+00 0.000000000000000e+00 1.139999999998789e+01 1.000000000000000e+00 0.000000000000000e+00 1.159999999998842e+01 1.000000000000000e+00 0.000000000000000e+00 1.179999999998894e+01 1.000000000000000e+00 0.000000000000000e+00 1.199999999998947e+01 1.000000000000000e+00 0.000000000000000e+00 1.219999999998999e+01 1.000000000000000e+00 0.000000000000000e+00 1.239999999999052e+01 1.000000000000000e+00 0.000000000000000e+00 1.259999999999105e+01 1.000000000000000e+00 0.000000000000000e+00 1.279999999999157e+01 1.000000000000000e+00 0.000000000000000e+00 1.299999999999210e+01 1.000000000000000e+00 0.000000000000000e+00 1.319999999999263e+01 1.000000000000000e+00 0.000000000000000e+00 1.339999999999315e+01 1.000000000000000e+00 0.000000000000000e+00 1.359999999999368e+01 1.000000000000000e+00 0.000000000000000e+00 1.379999999999421e+01 1.000000000000000e+00 0.000000000000000e+00 1.399999999999473e+01 1.000000000000000e+00 0.000000000000000e+00 1.419999999999526e+01 1.000000000000000e+00 0.000000000000000e+00 1.439999999999579e+01 1.000000000000000e+00 0.000000000000000e+00 1.459999999999631e+01 1.000000000000000e+00 0.000000000000000e+00 1.479999999999684e+01 1.000000000000000e+00 0.000000000000000e+00 1.499999999999737e+01 1.000000000000000e+00 0.000000000000000e+00 1.519999999999789e+01 1.000000000000000e+00 0.000000000000000e+00 1.539999999999842e+01 1.000000000000000e+00 0.000000000000000e+00 1.559999999999895e+01 1.000000000000000e+00 0.000000000000000e+00 1.579999999999947e+01 1.000000000000000e+00 0.000000000000000e+00 1.600000000000000e+01 7.999999999999998e-01 0.000000000000000e+00 1.600000000000000e+01 6.000000000013869e-01 0.000000000000000e+00 1.600000000000000e+01 4.000000000016644e-01 0.000000000000000e+00 1.600000000000000e+01 2.000000000008322e-01 0.000000000000000e+00 1.579999999999917e+01 0.000000000000000e+00 0.000000000000000e+00 1.559999999999833e+01 0.000000000000000e+00 0.000000000000000e+00 1.539999999999750e+01 0.000000000000000e+00 0.000000000000000e+00 1.519999999999667e+01 0.000000000000000e+00 0.000000000000000e+00 1.499999999999584e+01 0.000000000000000e+00 0.000000000000000e+00 1.479999999999500e+01 0.000000000000000e+00 0.000000000000000e+00 1.459999999999417e+01 0.000000000000000e+00 0.000000000000000e+00 1.439999999999334e+01 0.000000000000000e+00 0.000000000000000e+00 1.419999999999250e+01 0.000000000000000e+00 0.000000000000000e+00 1.399999999999202e+01 0.000000000000000e+00 0.000000000000000e+00 1.379999999999306e+01 0.000000000000000e+00 0.000000000000000e+00 1.359999999999445e+01 0.000000000000000e+00 0.000000000000000e+00 1.339999999999583e+01 0.000000000000000e+00 0.000000000000000e+00 1.319999999999722e+01 0.000000000000000e+00 0.000000000000000e+00 1.299999999999861e+01 0.000000000000000e+00 0.000000000000000e+00 1.280000000000000e+01 0.000000000000000e+00 0.000000000000000e+00 1.260000000000138e+01 0.000000000000000e+00 0.000000000000000e+00 1.240000000000277e+01 0.000000000000000e+00 0.000000000000000e+00 1.220000000000416e+01 0.000000000000000e+00 0.000000000000000e+00 1.200000000000555e+01 0.000000000000000e+00 0.000000000000000e+00 1.180000000000693e+01 0.000000000000000e+00 0.000000000000000e+00 1.160000000000832e+01 0.000000000000000e+00 0.000000000000000e+00 1.140000000000971e+01 0.000000000000000e+00 0.000000000000000e+00 1.120000000001109e+01 0.000000000000000e+00 0.000000000000000e+00 1.100000000001248e+01 0.000000000000000e+00 0.000000000000000e+00 1.080000000001387e+01 0.000000000000000e+00 0.000000000000000e+00 1.060000000001525e+01 0.000000000000000e+00 0.000000000000000e+00 1.040000000001664e+01 0.000000000000000e+00 0.000000000000000e+00 1.020000000001803e+01 0.000000000000000e+00 0.000000000000000e+00 1.000000000001942e+01 0.000000000000000e+00 0.000000000000000e+00 9.800000000020802e+00 0.000000000000000e+00 0.000000000000000e+00 9.600000000022190e+00 0.000000000000000e+00 0.000000000000000e+00 9.400000000023578e+00 0.000000000000000e+00 0.000000000000000e+00 9.200000000024964e+00 0.000000000000000e+00 0.000000000000000e+00 9.000000000026350e+00 0.000000000000000e+00 0.000000000000000e+00 8.800000000027737e+00 0.000000000000000e+00 0.000000000000000e+00 8.600000000029127e+00 0.000000000000000e+00 0.000000000000000e+00 8.400000000030513e+00 0.000000000000000e+00 0.000000000000000e+00 8.200000000031899e+00 0.000000000000000e+00 0.000000000000000e+00 8.000000000032939e+00 0.000000000000000e+00 0.000000000000000e+00 7.800000000032455e+00 0.000000000000000e+00 0.000000000000000e+00 7.600000000031622e+00 0.000000000000000e+00 0.000000000000000e+00 7.400000000030790e+00 0.000000000000000e+00 0.000000000000000e+00 7.200000000029958e+00 0.000000000000000e+00 0.000000000000000e+00 7.000000000029125e+00 0.000000000000000e+00 0.000000000000000e+00 6.800000000028295e+00 0.000000000000000e+00 0.000000000000000e+00 6.600000000027460e+00 0.000000000000000e+00 0.000000000000000e+00 6.400000000026630e+00 0.000000000000000e+00 0.000000000000000e+00 6.200000000025797e+00 0.000000000000000e+00 0.000000000000000e+00 6.000000000024965e+00 0.000000000000000e+00 0.000000000000000e+00 5.800000000024133e+00 0.000000000000000e+00 0.000000000000000e+00 5.600000000023302e+00 0.000000000000000e+00 0.000000000000000e+00 5.400000000022469e+00 0.000000000000000e+00 0.000000000000000e+00 5.200000000021635e+00 0.000000000000000e+00 0.000000000000000e+00 5.000000000020805e+00 0.000000000000000e+00 0.000000000000000e+00 4.800000000019972e+00 0.000000000000000e+00 0.000000000000000e+00 4.600000000019140e+00 0.000000000000000e+00 0.00000000000000
[...]
<PointData Scalars="pressure_p1," Vectors="" Tensors="">
<DataArray type="Float64" Name="pressure_p1" format="ascii">
-4.101203976300757e-02 -4.101506872531938e-02 -9.244320555672351e+00 -9.244461745592595e+00 -3.433497818386669e-02 -3.647932653094176e-02 -3.875444000610809e-02 -3.657549090285347e-02 -1.252814967880736e-01 -2.403620270405458e-01 -3.600502615479928e-01 -4.800388443652043e-01 -6.000310936197829e-01 -7.200245073244185e-01 -8.400188340937795e-01 -9.600141173894023e-01 -1.080010366827917e+00 -1.200007400941730e+00 -1.320004960279967e+00 -1.440002974114754e+00 -1.560001527855589e+00 -1.680000644334042e+00 -1.800000182915076e+00 -1.919999967079561e+00 -2.039999878639624e+00 -2.159999854605097e+00 -2.279999862011090e+00 -2.399999882687696e+00 -2.519999906393702e+00 -2.639999927552899e+00 -2.759999943373832e+00 -2.879999952610113e+00 -2.999999954735753e+00 -3.119999949454396e+00 -3.239999936500771e+00 -3.359999915712339e+00 -3.479999887370651e+00 -3.599999852833090e+00 -3.719999815500273e+00 -3.839999782144429e+00 -3.959999764421882e+00 -4.079999779556909e+00 -4.199999846886215e+00 -4.319999974202068e+00 -4.440000140328751e+00 -4.560000289435995e+00 -4.680000293884065e+00 -4.800000058195319e+00 -4.919999687063170e+00 -5.039999388622606e+00 -5.159999276058247e+00 -5.279999316072697e+00 -5.399999422582333e+00 -5.519999539764907e+00 -5.639999645771302e+00 -5.759999734736302e+00 -5.879999806265704e+00 -5.999999861485025e+00 -6.119999901512824e+00 -6.239999926202098e+00 -6.359999931989866e+00 -6.479999907518258e+00 -6.599999824526883e+00 -6.719999619043707e+00 -6.839999153194751e+00 -6.959998139306212e+00 -7.079995992555401e+00 -7.199991551795019e+00 -7.319982563729392e+00 -7.439964754175154e+00 -7.559930199911552e+00 -7.679864552228488e+00 -7.799742436888006e+00 -7.919520063127847e+00 -8.039123745735870e+00 -8.158432715179650e+00 -8.277270894071151e+00 -8.395310358219753e+00 -8.512066717890869e+00 -8.626929903232639e+00 -8.738871986811766e+00 -8.846515523052979e+00 -8.947964796979454e+00 -9.040651075196973e+00 -9.120865842221045e+00 -9.185089374474016e+00 -9.227644924467134e+00 -9.245386846130069e+00 -9.245044142591484e+00 -9.244611486450566e+00 -9.245006212205061e+00 -9.227811147777983e+00 -9.185744625416952e+00 -9.121399894931582e+00 -9.040703331721950e+00 -8.947977400403211e+00 -8.846525728547304e+00 -8.738882233064388e+00 -8.626941624782683e+00 -8.512086949107385e+00 -8.395364390201154e+00 -8.277398583210205e+00 -8.158528038108741e+00 -8.039130696717793e+00 -7.919524307265995e+00 -7.799744858157375e+00 -7.679865901219595e+00 -7.559930942079224e+00 -7.439965158459944e+00 -7.319982781852597e+00 -7.199991668310205e+00 -7.079996054144153e+00 -6.959998171510985e+00 -6.839999169865888e+00 -6.719999627630810e+00 -6.599999829025651e+00 -6.479999910112446e+00 -6.359999933987090e+00 -6.239999928617567e+00 -6.119999905530652e+00 -5.999999868985340e+00 -5.879999820636326e+00 -5.759999762315729e+00 -5.639999698613935e+00 -5.519999641542387e+00 -5.399999624563631e+00 -5.279999759984859e+00 -5.160000542154456e+00 -5.039958829197413e+00 -4.919881581591017e+00 -4.799696906229132e+00 -4.679232014852794e+00 -4.559437782666360e+00 -4.439996186197234e+00 -4.319998281712621e+00 -4.199999007933880e+00 -4.079999341496240e+00 -3.959999532055414e+00 -3.839999658388839e+00 -3.719999749583067e+00 -3.599999817789355e+00 -3.479999868818073e+00 -3.359999905981240e+00 -3.239999931525452e+00 -3.119999947130871e+00 -2.999999954074337e+00 -2.879999953341569e+00 -2.759999945851176e+00 -2.639999932911467e+00 -2.519999917036743e+00 -2.399999903298781e+00 -2.279999901521757e+00 -2.159999930028045e+00 -2.040000023057867e+00 -1.920000249837115e+00 -1.800000781882068e+00 -1.680002216389203e+00 -1.559963031345929e+00 -1.439918085706133e+00 -1.319762813692747e+00 -1.199311016054679e+00 -1.079494653161287e+00 -9.600113157987301e-01 -8.400194844044236e-01 -7.200279875974754e-01 -6.000385053105235e-01 -4.800519335430534e-01 -3.607487440839288e-01 -2.416687123086305e-01 -1.257008046315420e-01 -8.218458694608772e+00 -7.979356228621364e+00 -7.739814777699010e+00 -7.499950886934506e+00 -7.259988008380117e+00 -7.019997310856824e+00 -8.454019466864096e+00 -4.200479374034241e-01 -6.779999444713664e+00 -6.600278769824001e-01 -6.539999879672337e+00 -1.259997517198316e+00 -9.000164609723438e-01 -6.299999933948090e+00 -9.234529784273233e+00 -1.500002117484990e+00 -6.059999888474294e+00 -1.740000336212698e+00 -9.082268029208789e+00 -8.898187887860034e+00 -8.683356749323529e+00 -1.979999914211754e+00 -5.819999790925963e+00 -2.219999858561949e+00 -5.579999659074339e+00 -2.459999895564601e+00 -2.699999936490241e+00 -5.339999575722415e+00 -2.939999954580883e+00 -5.099990809532701e+00 -3.179999943700146e+00 -3.419999901477439e+00 -4.859302112774316e+00 -3.659999830902780e+00 -3.899999760276074e+00 -4.139999784726546e+00 -4.380000081510455e+00 -4.620000144618365e+00 -1.019730562589158e+00 -8.098825383020115e+00 -7.859647729306556e+00 -8.336465134150385e+00 -3.054378081610257e-01 -7.619902589691299e+00 -8.995616772992989e+00 -8.793345434883612e+00 -5.400441278309934e-01 -7.379975166535714e+00 -7.800235193064213e-01 -7.139994171801702e+00 -1.379427741994894e+00 -6.899998743546152e+00 -1.619989574004725e+00 -1.860000360120603e+00 -6.659999743775091e+00 -2.099999953503712e+00 -6.419999924902858e+00 -2.339999897657476e+00 -6.179999916090952e+00 -2.579999924559206e+00 -2.819999950294191e+00 -5.939999836491949e+00 -3.059999951748898e+00 -5.699999694238645e+00 -3.299999920616800e+00 -5.459999481553627e+00 -3.539999847067964e+00 -3.779999714309810e+00 -5.219999245060522e+00 -4.019999478151214e+00 -4.979999458432478e+00 -4.259998932670708e+00 -4.499697274827557e+00 -9.155951625098441e+00 -9.860444691915117e-02 -1.822523026909792e-01 -9.208432955888158e+00 -4.859999894412707e+00 -4.919960986997324e+00 -4.799906519576329e+00 -5.039999021788251e+00 -4.979926714511805e+00 -5.099998505466828e+00 -5.159999048216836e+00 -5.219999059833207e+00 -4.859423530013779e+00 -4.739164423745946e+00 -4.679941930396680e+00 -4.619740693888197e+00 -4.678258004565842e+00 -4.560003003098990e+00 -4.500000935794176e+00 -4.440000249134841e+00 -4.379999993400389e+00 -4.319999929043624e+00 -4.259999644296088e+00 -4.199999753092876e+00 -4.139999591745201e+00 -4.079999702167445e+00 -4.019999628800710e+00 -3.959999714045764e+00 -3.899999689862869e+00 -3.839999752472377e+00 -3.779999752787152e+00 -3.719999798855221e+00 -3.659999809698693e+00 -3.599999843737506e+00 -3.539999857576098e+00 -3.479999882481736e+00 -3.419999895465715e+00 -3.359999913124167e+00 -3.299999923460845e+00 -3.239999935167751e+00 -3.179999942160893e+00 -3.119999948825619e+00 -3.059999952314708e+00 -2.999999954549326e+00 -2.939999954613102e+00 -2.879999952793062e+00 -2.819999949658599e+00 -2.759999944014357e+00 -2.699999938156885e+00 -2.639999928932425e+00 -2.579999921382994e+00 -2.519999909077703e+00 -2.459999901977067e+00 -2.399999887661174e+00 -2.339999885095097e+00 -2.279999870744330e+00 -2.219999879790059e+00 -2.159999868519817e+00 -2.099999899953718e+00 -2.039999896151619e+00 -1.979999962252133e+00 -1.919999973203962e+00 -1.860000072372889e+00 -1.800000123972083e+00 -1.740000177379499e+00 -1.680000413473811e+00 -1.619995980897948e+00 -1.560001127761329e+00 -1.499927123201656e+00 -1.439963277351424e+00 -1.379472950767757e+00 -1.319907437047577e+00 -1.259384744971118e+00 -1.199919595629782e+00 -1.139822785925288e+00 -1.079987167802385e+00 -1.019999279953535e+00 -1.198981885020564e+00 -9.600126535323336e-01 -9.000172889689964e-01 -8.400193593632217e-01 -7.800228104452457e-01 -7.200252728015469e-01 -6.600298879511590e-01 -6.000319950232194e-01 -5.400378363822026e-01 -4.800382618471685e-01 -4.197562645838357e-01 -3.593429209021272e-01 -2.916307078327325e-01 -2.386357135199037e-01 -1.140001662351232e+00 -8.569841808713731e+00 -8.512630018928691e+00 -8.627020770015676e+00 -8.396277506826143e+00 -8.570346719151219e+00 -8.683403017966539e+00 -8.738883912177798e+00 -8.793363903255708e+00 -8.846522958251208e+00 -8.898192866626365e+00 -8.947974537960294e+00 -8.995625863051117e+00 -9.040679107521981e+00 -9.082835059956601e+00 -9.121764692729288e+00 -9.160385944724604e+00 -9.186425886534694e+00 -9.209868051600713e+00 -8.683356043510571e+00 -7.739812871664597e+00 -7.679864916897349e+00 -7.559930400988446e+00 -7.619903243549174e+00 -7.499950668621268e+00 -7.739814055814229e+00 -7.439964863816567e+00 -7.379975359100038e+00 -7.799743085821953e+00 -7.919521161884822e+00 -7.859649852859691e+00 -7.979353920209170e+00 -8.039125309917258e+00 -8.098898142963208e+00 -8.158485241175931e+00 -8.218436672253715e+00 -8.277377570423569e+00 -7.979350155369730e+00 -7.019997265186127e+00 -6.959998148063444e+00 -6.839999157727847e+00 -6.899998757840329e+00 -6.779999439948071e+00 -7.019997293118798e+00 -6.719999621376743e+00 -6.659999747432997e+00 -7.079996009296354e+00 -7.139994225678048e+00 -7.199991583445217e+00 -7.259987944882854e+00 -7.319982622933559e+00 -7.259987842349752e+00 -6.059999883725310e+00 -5.999999863351456e+00 -5.879999809641180e+00 -5.939999841002717e+00 -5.819999782003737e+00 -6.059999886181551e+00 -5.759999740514396e+00 -5.699999708652817e+00 -5.339999354912719e+00 -5.399999416353984e+00 -5.519999548621698e+00 -5.459999508725164e+00 -5.579999619576513e+00 -5.339999350758526e+00 -5.639999654451341e+00 -5.279999245510966e+00 -6.539999876415003e+00 -6.479999908216165e+00 -6.359999932520419e+00 -6.419999926073001e+00 -6.299999933095241e+00 -6.539999878330122e+00 -6.239999926833765e+00 -6.179999917514983e+00 -6.599999825745697e+00 -6.119999902543779e+00 -9.082796219148454e+00 -3.659999789655859e+00 -4.139999274437812e+00 -2.699999939701044e+00 -1.980000081791530e+00 -3.179999940758619e+00 -4.379998281956648e+00 -1.740000911669185e+00 -1.499884895131408e+00 -2.219999905244741e+00 -2.939999954638777e+00 -2.459999908292829e+00 -3.419999889963325e+00 -3.899999614827951e+00 -8.217936682495170e+00 -8.395792931176864e+00 -8.453975294527703e+00 -4.206922711181160e-01 -6.600324924868894e-01 -9.000162263673316e-01 -5.819999773766764e+00 -5.579999596749072e+00 -1.862165143010461e-01 -8.898166361788510e+00 -7.499950311602923e+00 -9.153043224644257e+00 -4.740000307503291e+00 -6.779999432712117e+00 -6.299999932056298e+00 -8.569845845260531e+00 -5.099999236817315e+00 -8.793359480933573e+00 -8.995617756537237e+00 -8.336972937379954e+00 -7.800217136057225e-01 -3.001142226801328e-01 -5.400347491013262e-01 -3.779999791838540e+00 -2.339999873194037e+00 -4.259999889291330e+00 -3.059999952932930e+00 -2.099999864857510e+00 -1.379999946873105e+00 -4.500000493859151e+00 -1.620000946252491e+00 -2.819999948961986e+00 -1.860000045556102e+00 -3.539999868935825e+00 -3.299999926581904e+00 -2.579999918031198e+00 -4.019999750723499e+00 -7.619903642527066e+00 -6.419999926948819e+00 -4.979865464921668e+00 -6.899998767070950e+00 -5.939999845463638e+00 -5.459999599448953e+00 -7.139994259414629e+00 -5.219999641614113e+00 -5.699999727011863e+00 -8.098900653278543e+00 -6.179999918775382e+00 -7.379975477411375e+00 -6.659999749901949e+00 -7.859651145621910e+00 -1.020010697292553e+00 -1.117166259370564e-01 -9.235223567517268e+00 -9.539830184092161e-02 -9.230851761783541e+00 -9.207145569847135e+00 -1.905367011882824e-01 -4.797970989333542e+00 -1.318258682373014e+00 -8.278916304891224e+00 -8.455518595993402e+00 -1.138412882481068e+00 -4.618151705548364e+00 -7.919525030358979e+00 -8.039163293824499e+00 -7.799745214161526e+00 -8.158942026172612e+00 -7.679866094893804e+00 -7.559931047328334e+00 -7.439965213873946e+00 -7.319982809841378e+00 -8.627033186722512e+00 -8.738911814477078e+00 -8.846572155500560e+00 -8.948037909099158e+00 -7.199991681791354e+00 -7.079996060288224e+00 -9.040518608118326e+00 -6.959998174122965e+00 -9.119111062233850e+00 -6.839999170869778e+00 -6.719999627947446e+00 -6.599999829062427e+00 -6.479999910019646e+00 -6.359999933776655e+00 -6.239999928191867e+00 -6.119999904654808e+00 -5.999999867169855e+00 -5.879999816845431e+00 -5.759999754213845e+00 -5.639999680385409e+00 -5.519999596694671e+00 -5.399999498590103e+00 -5.279999339095329e+00 -5.159998811762578e+00 -5.039957044582038e+00 -4.919417521022350e+00 -1.439453244744250e+00 -3.640269804087188e-01 -1.559937690703134e+00 -1.800000285835233e+00 -9.600151523779994e-01 -4.803230525517418e-01 -8.400199718516793e-01 -6.000361452923776e-01 -1.679996102977348e+00 -7.200270981105398e-01 -1.920000093319393e+00 -2.039999964401054e+00 -2.159999905078655e+00 -2.279999890002236e+00 -2.519999914307064e+00 -2.399999897734511e+00 -2.759999945278807e+00 -2.639999931596263e+00 -2.879999953208211e+00 -2.999999954286034e+00 -3.239999932798338e+00 -3.119999947751882e+00 -3.479999873452024e+00 -3.359999908425186e+00 -3.599999826598414e+00 -3.719999766518068e+00 -3.839999691673059e+00 -3.959999600129596e+00 -4.199999372808559e+00 -4.079999490604007e+00 -4.319999333082777e+00 -4.439999935848802e+00 -4.559491232019069e+00 -8.512627536832229e+00 -1.079631950007107e+00 -8.337110086753462e+00 -4.738688543579336e+00 -1.258960036211760e+00 -9.237741019105805e+00 -8.382840186764373e-02 -9.237527146053667e+00 -8.493157885916358e-02 -2.693515402798389e-01 -9.172588056260610e+00 -9.208675388337046e+00 -1.865055272270660e-01 
</DataArray>
</PointData>
<CellData Scalars="pressure_p0," Vectors="velocity_p0," Tensors="">
<DataArray type="Float64" Name="pressure_p0" format="ascii">