<?xml version="1.0"?>
<VTKFile type="UnstructuredGrid" version="0.1" byte_order="LittleEndian">
<UnstructuredGrid>
<Piece NumberOfPoints="880" NumberOfCells="299">
<Points>
<DataArray type="Float64" NumberOfComponents="3" format="ascii">
-0 0 0 0.18653882694645291 0.22249173546702489 0 0 0.25000000000104189 0 -0 0 0 0.18653882694645291 0.22249173546702489 0 0.24999999999941089 0 0 0.24999999999941089 0 0 0.35015135319464608 0.1900339269648805 0 0.49999999999869182 0 0 0.18653882694645291 0.22249173546702489 0 0.24999999999941089 0 0 0.35015135319464608 0.1900339269648805 0 0.35015135319464608 0.1900339269648805 0 0.49924741621175961 0.21507969613896921 0 0.49999999999869182 0 0 0.35015135319464608 0.1900339269648805 0 0.49924741621175961 0.21507969613896921 0 0.40587285776242238 0.32419148732968017 0 0.37764981543668408 0.41341486499350411 0 0.41576443813007791 0.48093483781626972 0 0.45418244162583959 0.41624787166862259 0 0.37764981543668408 0.41341486499350411 0 0.45418244162583959 0.41624787166862259 0 0.40587285776242238 0.32419148732968017 0 0.41576443813007791 0.48093483781626972 0 0.46566719828045178 0.47702825415921918 0 0.45418244162583959 0.41624787166862259 0 0.41576443813007791 0.48093483781626972 0 0.46566719828045178 0.47702825415921918 0 0.4638583922372429 0.51470588235294135 0 0.46566719828045178 0.47702825415921918 0 0.49954900152271581 0.45107191084564019 0 0.5 0.5 0 0.46566719828045178 0.47702825415921918 0 0.4638583922372429 0.51470588235294135 0 0.5 0.5 0 0.46566719828045178 0.47702825415921918 0 0.49954900152271581 0.45107191084564019 0 0.45418244162583959 0.41624787166862259 0 0.45418244162583959 0.41624787166862259 0 0.49435464945626773 0.33318442629318029 0 0.54876010062294855 0.39662628167175101 0 0.45418244162583959 0.41624787166862259 0 0.49435464945626773 0.33318442629318029 0 0.40587285776242238 0.32419148732968017 0 0.49924741621175961 0.21507969613896921 0 0.49435464945626773 0.33318442629318029 0 0.40587285776242238 0.32419148732968017 0 0.35015135319464608 0.1900339269648805 0 0.40587285776242238 0.32419148732968017 0 0.29145599617909779 0.35026601625021492 0 0.37764981543668408 0.41341486499350411 0 0.40587285776242238 0.32419148732968017 0 0.29145599617909779 0.35026601625021492 0 0.18653882694645291 0.22249173546702489 0 0.35015135319464608 0.1900339269648805 0 0.29145599617909779 0.35026601625021492 0 0.29145599617909779 0.35026601625021492 0 0.32540781287085369 0.49175159894608172 0 0.17872124008781709 0.39692711089439497 0 0.37764981543668408 0.41341486499350411 0 0.29145599617909779 0.35026601625021492 0 0.32540781287085369 0.49175159894608172 0 0.37764981543668408 0.41341486499350411 0 0.41576443813007791 0.48093483781626972 0 0.32540781287085369 0.49175159894608172 0 0.17872124008781709 0.39692711089439497 0 0 0.25000000000104189 0 0 0.50000000000206157 0 0.17872124008781709 0.39692711089439497 0 0 0.50000000000206157 0 0.22453074737734591 0.51613635929252633 0 0.32540781287085369 0.49175159894608172 0 0.17872124008781709 0.39692711089439497 0 0.22453074737734591 0.51613635929252633 0 0.18653882694645291 0.22249173546702489 0 0.29145599617909779 0.35026601625021492 0 0.17872124008781709 0.39692711089439497 0 0.18653882694645291 0.22249173546702489 0 0.17872124008781709 0.39692711089439497 0 0 0.25000000000104189 0 0 0.50000000000206157 0 0.18442368612951149 0.62734948407416979 0 0 0.75000000000034772 0 0.18442368612951149 0.62734948407416979 0 0.22727208279115291 0.72949159435386135 0 0 0.75000000000034772 0 0.18442368612951149 0.62734948407416979 0 0.22727208279115291 0.72949159435386135 0 0.31346558946927339 0.67110784456164874 0 0.18442368612951149 0.62734948407416979 0 0.22453074737734591 0.51613635929252633 0 0.31771010312359771 0.58585679504088894 0 0 0.50000000000206157 0 0.18442368612951149 0.62734948407416979 0 0.22453074737734591 0.51613635929252633 0 0 1 0 0.096516139048187316 0.89789944498939644 0 0 0.75000000000034772 0 0 1 0 0.096516139048187316 0.89789944498939644 0 0.1596341872805197 1 0 0.096516139048187316 0.89789944498939644 0 0 0.75000000000034772 0 0.1644705180525495 0.8200994301041713 0 0.1644705180525495 0.8200994301041713 0 0.2386314078659193 0.92924778694987087 0 0.27155609766735261 0.80398965554903801 0 0.22727208279115291 0.72949159435386135 0 0 0.75000000000034772 0 0.1644705180525495 0.8200994301041713 0 0.22727208279115291 0.72949159435386135 0 0.1644705180525495 0.8200994301041713 0 0.27155609766735261 0.80398965554903801 0 0.096516139048187316 0.89789944498939644 0 0.1644705180525495 0.8200994301041713 0 0.2386314078659193 0.92924778694987087 0 0.096516139048187316 0.89789944498939644 0 0.2386314078659193 0.92924778694987087 0 0.1596341872805197 1 0 0.2386314078659193 0.92924778694987087 0 0.1596341872805197 1 0 0.27591592301363282 1 0 0.36061858902161292 1 0 0.32789203369730929 0.94219211037003092 0 0.27591592301363282 1 0 0.36061858902161292 1 0 0.32789203369730929 0.94219211037003092 0 0.39382242252278338 0.95440420122950598 0 0.2386314078659193 0.92924778694987087 0 0.32789203369730929 0.94219211037003092 0 0.27591592301363282 1 0 0.2386314078659193 0.92924778694987087 0 0.32789203369730929 0.94219211037003092 0 0.31834856208730472 0.88134829947972904 0 0.32789203369730929 0.94219211037003092 0 0.37746652222901839 0.8987532801416368 0 0.39382242252278338 0.95440420122950598 0 0.32789203369730929 0.94219211037003092 0 0.31834856208730472 0.88134829947972904 0 0.37746652222901839 0.8987532801416368 0 0.2386314078659193 0.92924778694987087 0 0.31834856208730472 0.88134829947972904 0 0.27155609766735261 0.80398965554903801 0 0.31834856208730472 0.88134829947972904 0 0.36493375430404612 0.82333914183704071 0 0.37746652222901839 0.8987532801416368 0 0.31834856208730472 0.88134829947972904 0 0.36493375430404612 0.82333914183704071 0 0.27155609766735261 0.80398965554903801 0 0.22727208279115291 0.72949159435386135 0 0.27155609766735261 0.80398965554903801 0 0.32984265945580837 0.74432890077789404 0 0.36493375430404612 0.82333914183704071 0 0.27155609766735261 0.80398965554903801 0 0.32984265945580837 0.74432890077789404 0 0.36493375430404612 0.82333914183704071 0 0.39746869305290999 0.7595658224757349 0 0.32984265945580837 0.74432890077789404 0 0.36493375430404612 0.82333914183704071 0 0.39746869305290999 0.7595658224757349 0 0.42893012659725649 0.81084715169569632 0 0.39746869305290999 0.7595658224757349 0 0.42893012659725649 0.81084715169569632 0 0.44651949253391748 0.77225997208621999 0 0.39746869305290999 0.7595658224757349 0 0.44651949253391748 0.77225997208621999 0 0.43412357948152142 0.72128778687215156 0 0.44651949253391748 0.77225997208621999 0 0.47786860714145291 0.77730227330627721 0 0.47220206448452873 0.74892462649306213 0 0.47786860714145291 0.77730227330627721 0 0.47220206448452873 0.74892462649306213 0 0.5 0.76470588235294124 0 0.47786860714145291 0.77730227330627721 0 0.5 0.79411764705882359 0 0.5 0.76470588235294124 0 0.47062147868881782 0.80650323854033878 0 0.5 0.82352941176470584 0 0.5 0.79411764705882359 0 0.47786860714145291 0.77730227330627721 0 0.47062147868881782 0.80650323854033878 0 0.5 0.79411764705882359 0 0.44651949253391748 0.77225997208621999 0 0.47786860714145291 0.77730227330627721 0 0.47062147868881782 0.80650323854033878 0 0.42893012659725649 0.81084715169569632 0 0.44651949253391748 0.77225997208621999 0 0.47062147868881782 0.80650323854033878 0 0.42893012659725649 0.81084715169569632 0 0.47062147868881782 0.80650323854033878 0 0.46181179062043481 0.83858979842637782 0 0.42893012659725649 0.81084715169569632 0 0.46181179062043481 0.83858979842637782 0 0.42880856207355889 0.86677159981903118 0 0.46181179062043481 0.83858979842637782 0 0.5 0.85294117647058831 0 0.5 0.82352941176470584 0 0.47062147868881782 0.80650323854033878 0 0.46181179062043481 0.83858979842637782 0 0.5 0.82352941176470584 0 0.46181179062043481 0.83858979842637782 0 0.47032448519202857 0.86718057681700655 0 0.5 0.85294117647058831 0 0.47032448519202857 0.86718057681700655 0 0.5 0.88235294117647056 0 0.5 0.85294117647058831 0 0.46181179062043481 0.83858979842637782 0 0.47032448519202857 0.86718057681700655 0 0.42880856207355889 0.86677159981903118 0 0.36493375430404612 0.82333914183704071 0 0.42880856207355889 0.86677159981903118 0 0.37746652222901839 0.8987532801416368 0 0.36493375430404612 0.82333914183704071 0 0.42893012659725649 0.81084715169569632 0 0.42880856207355889 0.86677159981903118 0 0.37746652222901839 0.8987532801416368 0 0.42822627495986648 0.92083108049218854 0 0.39382242252278338 0.95440420122950598 0 0.42880856207355889 0.86677159981903118 0 0.37746652222901839 0.8987532801416368 0 0.42822627495986648 0.92083108049218854 0 0.47032448519202857 0.86718057681700655 0 0.42880856207355889 0.86677159981903118 0 0.46100207326614928 0.89524736819256467 0 0.42880856207355889 0.86677159981903118 0 0.42822627495986648 0.92083108049218854 0 0.46100207326614928 0.89524736819256467 0 0.47032448519202857 0.86718057681700655 0 0.46100207326614928 0.89524736819256467 0 0.5 0.88235294117647056 0 0.46100207326614928 0.89524736819256467 0 0.5 0.91176470588235292 0 0.5 0.88235294117647056 0 0.46100207326614928 0.89524736819256467 0 0.46949408183482899 0.92833826413560594 0 0.5 0.91176470588235292 0 0.46949408183482899 0.92833826413560594 0 0.5 0.94117647058823528 0 0.5 0.91176470588235292 0 0.42822627495986648 0.92083108049218854 0 0.46100207326614928 0.89524736819256467 0 0.46949408183482899 0.92833826413560594 0 0.46949408183482899 0.92833826413560594 0 0.44768478605684647 0.9646709673379662 0 0.47596308696979028 0.95620709615192379 0 0.42822627495986648 0.92083108049218854 0 0.46949408183482899 0.92833826413560594 0 0.44768478605684647 0.9646709673379662 0 0.44768478605684647 0.9646709673379662 0 0.47596308696979028 0.95620709615192379 0 0.47818194888216242 0.97829325975680159 0 0.46949408183482899 0.92833826413560594 0 0.47596308696979028 0.95620709615192379 0 0.5 0.94117647058823528 0 0.47596308696979028 0.95620709615192379 0 0.4781
[...]
<PointData Scalars="" Vectors="displacement," Tensors="">
<DataArray type="Float64" Name="displacement" NumberOfComponents="3" format="ascii">
5.6010374936749766e-05 2.7258738751600155e-05 0 0.030935619866848996 0.0076512684204897491 0 3.5039748390774511e-05 -3.5200176228117777e-06 0 5.6010374936749766e-05 2.7258738751600155e-05 0 0.030935619866848993 0.0076512684204897465 0 0.049196351455081153 0.02321297339966033 0 0.049196351455081153 0.02321297339966033 0 0.06249446684348807 0.014932933482603579 0 0.094388777194652496 0.029298275702104137 0 0.030935619866848996 0.0076512684204897491 0 0.049196351455081153 0.02321297339966033 0 0.06249446684348807 0.014932933482603579 0 0.06249446684348807 0.014932933482603579 0 0.090258648993027962 0.015666549169195562 0 0.094388777194652496 0.029298275702104137 0 0.06249446684348807 0.014932933482603579 0 0.090258648993027962 0.015666549169195562 0 0.070732758263320594 0.0077730195041916441 0 0.064515594705394835 0.0027640197253351729 0 0.071677576005151525 -0.0011170987855160977 0 0.078833891515308521 0.0017328095529503121 0 0.064515594705394835 0.0027640197253351729 0 0.078833891515308521 0.0017328095529503121 0 0.070732758263320594 0.0077730195041916441 0 0.071677576005151525 -0.0011170987855160977 0 0.080782774334753601 -0.0025995909520573983 0 0.078833891515308521 0.0017328095529503121 0 0.071677576005151525 -0.0011170987855160977 0 0.080782774334753615 -0.0025995909520573979 0 0.081101645631713112 -0.0045929228862284293 0 0.080782774334753615 -0.0025995909520573979 0 0.087746088495859242 -0.0013334580158836967 0 0.087718803182349092 -0.007708962751684598 0 0.080782774334753615 -0.0025995909520573979 0 0.081101645631713112 -0.0045929228862284285 0 0.087718803182349092 -0.007708962751684598 0 0.080782774334753615 -0.0025995909520573979 0 0.087746088495859242 -0.0013334580158836967 0 0.078833891515308521 0.0017328095529503121 0 0.078833891515308521 0.0017328095529503121 0 0.087705995763648806 0.0078212033453685832 0 0.097750807070213871 0.0039936924738583979 0 0.078833891515308521 0.0017328095529503121 0 0.087705995763648806 0.0078212033453685832 0 0.070732758263320594 0.0077730195041916441 0 0.090258648993027962 0.015666549169195562 0 0.087705995763648806 0.0078212033453685832 0 0.070732758263320594 0.0077730195041916441 0 0.06249446684348807 0.014932933482603579 0 0.070732758263320594 0.0077730195041916441 0 0.048903423596432322 0.0052340231709719631 0 0.064515594705394835 0.0027640197253351729 0 0.070732758263320594 0.0077730195041916441 0 0.048903423596432322 0.0052340231709719631 0 0.030935619866848996 0.0076512684204897491 0 0.06249446684348807 0.014932933482603579 0 0.048903423596432322 0.0052340231709719631 0 0.048903423596432322 0.0052340231709719631 0 0.055318843805474326 -0.00016571732727596055 0 0.028882841987279678 0.0025998344491401666 0 0.064515594705394835 0.0027640197253351729 0 0.048903423596432322 0.0052340231709719631 0 0.055318843805474326 -0.00016571732727596055 0 0.064515594705394835 0.0027640197253351729 0 0.071677576005151525 -0.0011170987855160979 0 0.055318843805474326 -0.00016571732727596055 0 0.028882841987279678 0.0025998344491401666 0 3.5039748390774511e-05 -3.5200176228117777e-06 0 4.1082711559649314e-05 1.7999073184268169e-06 0 0.028882841987279678 0.0025998344491401666 0 4.1082711559649314e-05 1.7999073184268169e-06 0 0.037743998020939307 -0.00062831839929096357 0 0.055318843805474326 -0.00016571732727596055 0 0.028882841987279678 0.0025998344491401666 0 0.037743998020939307 -0.00062831839929096357 0 0.030935619866848996 0.0076512684204897491 0 0.048903423596432322 0.0052340231709719631 0 0.028882841987279678 0.0025998344491401666 0 0.030935619866848996 0.0076512684204897491 0 0.028882841987279678 0.0025998344491401666 0 3.5039748390774511e-05 -3.5200176228117777e-06 0 4.1082711559649314e-05 1.7999073184268169e-06 0 0.030448994162374413 -0.0034461574061541078 0 3.562289119011337e-05 -2.1685621913444985e-06 0 0.030448994162374413 -0.0034461574061541078 0 0.039083140439938678 -0.0078765033958868944 0 3.562289119011337e-05 -2.1685621913444985e-06 0 0.030448994162374413 -0.0034461574061541078 0 0.039083140439938678 -0.0078765033958868944 0 0.054570708518287298 -0.0070912646954162436 0 0.030448994162374413 -0.0034461574061541078 0 0.037743998020939307 -0.00062831839929096357 0 0.054693320843162793 -0.0038017934168618124 0 4.1082711559649314e-05 1.7999073184268169e-06 0 0.03044899416237442 -0.0034461574061541065 0 0.037743998020939307 -0.00062831839929096357 0 5.3832256115552244e-05 -1.9481393760147032e-05 0 0.015969252480020114 -0.0073383485332311907 0 3.562289119011337e-05 -2.1685621913444985e-06 0 5.3832256115552244e-05 -1.9481393760147032e-05 0 0.015969252480020114 -0.0073383485332311916 0 0.032050710597243917 -0.01824928838075195 0 0.015969252480020114 -0.0073383485332311907 0 3.562289119011337e-05 -2.1685621913444985e-06 0 0.028031937929947147 -0.0083739111008213404 0 0.028031937929947147 -0.0083739111008213404 0 0.043454490580427683 -0.018195971831163622 0 0.047849552687555946 -0.012374792277880273 0 0.039083140439938678 -0.0078765033958868944 0 3.5622891190110056e-05 -2.1685621913425088e-06 0 0.028031937929947147 -0.0083739111008213404 0 0.039083140439938678 -0.0078765033958868944 0 0.028031937929947147 -0.0083739111008213404 0 0.047849552687555946 -0.012374792277880273 0 0.015969252480020114 -0.0073383485332311907 0 0.02803193792994715 -0.0083739111008213421 0 0.043454490580427683 -0.018195971831163622 0 0.015969252480020114 -0.0073383485332311907 0 0.043454490580427683 -0.018195971831163622 0 0.032050710597243917 -0.01824928838075195 0 0.043454490580427683 -0.018195971831163622 0 0.032050710597243917 -0.01824928838075195 0 0.051227543042028277 -0.023111477909324496 0 0.064474387906575822 -0.023157456145536149 0 0.059369293152023418 -0.020326140412931872 0 0.051227543042028277 -0.023111477909324496 0 0.064474387906575822 -0.023157456145536149 0 0.059369293152023418 -0.020326140412931872 0 0.070789758393038138 -0.01980276808601281 0 0.043454490580427683 -0.018195971831163622 0 0.059369293152023418 -0.020326140412931872 0 0.051227543042028277 -0.023111477909324496 0 0.043454490580427683 -0.018195971831163622 0 0.059369293152023418 -0.020326140412931872 0 0.057300388015060884 -0.01690345217882 0 0.059369293152023418 -0.020326140412931872 0 0.068109250695117085 -0.017320358336645213 0 0.070789758393038138 -0.01980276808601281 0 0.059369293152023418 -0.020326140412931872 0 0.057300388015060884 -0.01690345217882 0 0.068109250695117085 -0.017320358336645213 0 0.043454490580427683 -0.018195971831163622 0 0.057300388015060884 -0.01690345217882 0 0.047849552687555946 -0.012374792277880273 0 0.057300388015060884 -0.01690345217882 0 0.065411711540797085 -0.014056683499506995 0 0.068109250695117085 -0.017320358336645213 0 0.057300388015060884 -0.01690345217882 0 0.065411711540797085 -0.014056683499506995 0 0.047849552687555946 -0.012374792277880273 0 0.039083140439938678 -0.0078765033958868944 0 0.047849552687555946 -0.012374792277880273 0 0.058294668923435426 -0.010390891490292386 0 0.065411711540797085 -0.014056683499506995 0 0.047849552687555946 -0.012374792277880273 0 0.058294668923435426 -0.010390891490292386 0 0.065411711540797085 -0.014056683499506995 0 0.070813277941242508 -0.011326723618524092 0 0.058294668923435426 -0.010390891490292386 0 0.065411711540797085 -0.014056683499506995 0 0.070813277941242508 -0.011326723618524092 0 0.076706524606772353 -0.01263448407356522 0 0.070813277941242508 -0.011326723618524092 0 0.076706524606772353 -0.012634484073565218 0 0.079487563190034777 -0.011352204484082947 0 0.070813277941242508 -0.011326723618524092 0 0.079487563190034777 -0.011352204484082947 0 0.077022839035426949 -0.010116360772169776 0 0.079487563190034777 -0.011352204484082947 0 0.084828253010237581 -0.011042104436321157 0 0.083748573559257869 -0.010606305237881759 0 0.084828253010237581 -0.011042104436321157 0 0.083748573559257869 -0.010606305237881759 0 0.088429424855296021 -0.010538102544277863 0 0.084828253010237581 -0.011042104436321157 0 0.088589824763229449 -0.010866767268801071 0 0.088429424855296021 -0.010538102544277863 0 0.083816885026403831 -0.011717957225273017 0 0.088760434589515297 -0.011183668089737571 0 0.088589824763229449 -0.010866767268801071 0 0.084828253010237581 -0.011042104436321157 0 0.083816885026403831 -0.011717957225273017 0 0.088589824763229449 -0.010866767268801071 0 0.079487563190034777 -0.011352204484082947 0 0.084828253010237567 -0.011042104436321155 0 0.083816885026403831 -0.011717957225273017 0 0.076706524606772353 -0.01263448407356522 0 0.079487563190034777 -0.011352204484082947 0 0.083816885026403831 -0.011717957225273017 0 0.076706524606772353 -0.01263448407356522 0 0.083816885026403817 -0.011717957225273017 0 0.082630550568101896 -0.012612981160468538 0 0.076706524606772353 -0.01263448407356522 0 0.082630550568101882 -0.012612981160468538 0 0.077169204791503201 -0.014514219562209343 0 0.082630550568101896 -0.012612981160468538 0 0.088931162423206617 -0.011485561574668259 0 0.088760434589515297 -0.011183668089737571 0 0.083816885026403831 -0.011717957225273017 0 0.082630550568101896 -0.012612981160468538 0 0.088760434589515297 -0.011183668089737571 0 0.082630550568101896 -0.012612981160468538 0 0.084182655649009938 -0.012899855296601211 0 0.088931162423206617 -0.011485561574668259 0 0.084182655649009938 -0.012899855296601211 0 0.089097651793613813 -0.011758466690959949 0 0.088931162423206617 -0.011485561574668259 0 0.082630550568101896 -0.012612981160468538 0 0.084182655649009938 -0.012899855296601211 0 0.077169204791503201 -0.014514219562209343 0 0.065411711540797085 -0.014056683499506995 0 0.077169204791503201 -0.014514219562209343 0 0.068109250695117085 -0.017320358336645213 0 0.065411711540797085 -0.014056683499506995 0 0.076706524606772353 -0.01263448407356522 0 0.077169204791503201 -0.014514219562209343 0 0.068109250695117085 -0.017320358336645213 0 0.077179564100835041 -0.016583039752103925 0 0.070789758393038138 -0.01980276808601281 0 0.077169204791503201 -0.014514219562209343 0 0.068109250695117085 -0.017320358336645213 0 0.077179564100835041 -0.016583039752103925 0 0.084182655649009938 -0.012899855296601211 0 0.077169204791503201 -0.014514219562209343 0 0.082836848622998796 -0.013942041984020189 0 0.077169204791503201 -0.014514219562209343 0 0.077179564100835041 -0.016583039752103925 0 0.082836848622998796 -0.013942041984020189 0 0.084182655649009938 -0.012899855296601211 0 0.082836848622998796 -0.013942041984020189 0 0.089097651793613813 -0.011758466690959949 0 0.082836848622998796 -0.013942041984020189 0 0.089253630960307445 -0.012011441530017958 0 0.089097651793613813 -0.011758466690959949 0 0.082836848622998796 -0.013942041984020189 0 0.084372467291448663 -0.014262942578218611 0 0.089253630960307445 -0.012011441530017958 0 0.084372467291448663 -0.014262942578218611 0 0.089376373502007209 -0.012225170126324673 0 0.089253630960307445 -0.012011441530017958 0 0.077179564100835041 -0.016583039752103925 0 0.082836848622998796 -0.013942041984020189 0 0.084372467291448663 -0.014262942578218611 0 0.084372467291448663 -0.014262942578218611 0 0.080192839710448507 -0.017345867880445297 0 0.085320153967955545 -0.014455763854852264 0 0.077179564100835041 -0.016583039752103925 0 0.084372467291448663 -0.014262942578218611 0 0.080192839710448521 -0.017345867880445297 0 0.080192839710448521 -0.017345867880445297 0 0.085320153967955545 -0.014455763854852264 0 0.085501170406116905 -0.014888816818881261 0 0.084372467291448663 -0.014262942578218611 0 0.085320153967955545 -0.014455763854852264 0 0.089376373502007209 -0.012225170126324673 0 0.085320153967955545 -0.014455763854852264 0 0.085501170406116905 -0.014888816818881261 0 0.089465207669194788 -0.012387524191061313 0 0.085320153967955545 -0.014455763854852264 0 0.089465207669194788 -0.012387524191061313 0 0.089376373502007209 -0.012225170126324673 0 0.085501170406116905 -0.014888816818881261 0 0.081973633717701888 -0.017655464917215709 0 0.089500234302658327 -0.012538477432538388 0 0.085501170406116905 -0.014888816818881261 0 0.089465207669194788 -0.012387524191061313 0 0.089500234302658327 -0.012538477432538388 0 0.080192839710448521 -0.017345867880445297 0 0.085501170406116905 -0.014888816818881261 0 0.081973633717701888 -0.017655464917215709 0 0.080192839710448521 -0.017345867880445297 0 0.081973633717701888 -0.017655464917215709 0 0.074234294294331538 -0.020991536329435689 0 0.080192839710448521 -0.017345867880445297 0 0.074234294294331524 -0.020991536329435692 0 0.070789758393038138 -0.01980276808601281 0 0.077179564100835041 -0.016583039752103925 0 0.080192839710448521 -0.017345867880445297 0 0.070789758393038138 -0.01980276808601281 0 0.064474387906575822 -0.023157456145536149 0 0.074234294294331538 -0.020991536329435689 0 0.070789758393038138 -0.01980276808601281 0 0.054693320843162793 -0.0038017934168618124 0 0.067883204752150844 -0.0066562588324657864 0 0.073337621771998318 -0.0046070259837151656 0 0.055318843805474326 -0.00016571732727596055 0 0.054693320843162793 -0.0038017934168618124 0 0.073337621771998318 -0.0046070259837151656 0 0.055318843805474326 -0.00016571732727596055 0 0.037743998020939307 -0.00062831839929096379 0 0.054693320843162793 -0.0038017934168618124 0 0.030448994162374413 -0.0034461574061541078 0 0.054693320843162793 -0.0038017934168618124 0 0.054570708518287298 -0.0070912646954162436 0 0.039083140439938678 -0.0078765033958868944 0 0.058294668923435426 -0.010390891490292386 0 0.054570708518287298 -0.0070912646954162436 0 0.070813277941242508 -0.011326723618524092 0 0.058294668923435426 -0.010390891490292386 0 0.068017671424309881 -0.0088909614062542344 0 0.058294668923435426 -0.010390891490292386 0 0.054570708518287298 -0.0070912646954162436 0 0.068017671424309881 -0.0088909614062542344 0 0.054693320843162793 -0.0038017934168618124 0 0.054570708518287298 -0.0070912646954162436 0 0.067883204752150844 -0.0066562588324657864 0 0.054570708518287298 -0.0070912646954162436 0 0.067883204752150844 -0.0066562588324657864 0 0.068017671424309881 -0.0088909614062542344 0 0.067883204752150844 -0.0066562588324657864 0 0.068017671424309881 -0.0088909614062542344 0 0.07749622517044423 -0.0085143043703865707 0 0.067883204752150844 -0.0066562588324657864 0 0.07749622517044423 -0.0085143043703865707 0 0.078668610471462383 -0.0071771554696558786 0 0.070813277941242508 -0.011326723618524092 0 0.068017671424309881 -0.0088909614062542344 0 0.077022839035426949 -0.010116360772169776 0 0.068017671424309881 -0.0088909614062542344 0 0.077022839035426949 -0.010116360772169776 0 0.07749622517044423 -0.0085143043703865707 0 0.077022839035426949 -0.010116360772169776 0 0.08426332444143099 -0.010050912169521512 0 0.083748573559257869 -0.010606305237881759 0 0.079487563190034777 -0.011352204484082947 0 0.077022839035426949 -0.010116360772169776 0 0.083748573559257869 -0.010606305237881759 0 0.077022839035426949 -0.010116360772169776 0 0.081956931992842347 -0.0095656799198384351 0 0.07749622517044423 -0.0085143043703865707 0 0.077022839035426949 -0.010116360772169776 0 0.081956931992842347 -0.0095656799198384351 0 0.084263324441430976 -0.01005091216952151 0 0.081956931992842347 -0.0095656799198384351 0 0.084263324441430976 -0.01005091216952151 0 0.088145755410388021 -0.0098582627899144633 0 0.081956931992842347 -0.0095656799198384351 0 0.088027089697340896 -0.0095141259418771041 0 0.088145755410388021 -0.0098582627899144633 0 0.084263324441430976 -0.01005091216952151 0 0.08828110169975624 -0.010199080140444589 0 0.088145755410388021 -0.0098582627899144633 0 0.083748573559257869 -0.010606305237881759 0 0.08828110169975624 -0.010199080140444589 0 0.088429424855296021 -0.010538102544277863 0 0.084263324441430976 -0.01005091216952151 0 0.083748573559257869 -0.010606305237881759 0 0.08828110169975624 -0.010199080140444589 0 0.07749622517044423 -0.0085143043703865707 0 0.083745893053918635 -0.0090369857987427256 0 0.083293157513737962 -0.0084060741384590961 0 0.07749622517044423 -0.0085143043703865707 0 0.083293157513737962 -0.0084060741384590961 0 0.078668610471462383 -0.0071771554696558786 0 0.081956931992842347 -0.0095656799198384351 0 0.077496225170444216 -0.0085143043703865707 0 0.083745893053918635 -0.0090369857987427256 0 0.081956931992842347 -0.0095656799198384351 0 0.083745893053918635 -0.0090369857987427256 0 0.088027089697340896 -0.0095141259418771041 0 0.083745893053918635 -0.0090369857987427256 0 0.087923672361243738 -0.0091779217558754459 0 0.088027089697340896 -0.0095141259418771041 0 0.083745893053918635 -0.0090369857987427256 0 0.083293157513737948 -0.0084060741384590961 0 0.087923672361243738 -0.0091779217558754459 0 0.083293157513737962 -0.0084060741384590961 0 0.087836507160291635 -0.0088495514912751341 0 0.087923672361243738 -0.0091779217558754459 0 0.084044458281560028 -0.0079811033375112358 0 0.087764887830179078 -0.0085452768240037395 0 0.087836507160291635 -0.0088495514912751341 0 0.083293157513737962 -0.0084060741384590961 0 0.084044458281560028 -0.0079811033375112358 0 0.087836507160291635 -0.0088495514912751341 0 0.082489037571391213 -0.0070486392850397251 0 0.087724122669305987 -0.0082464433785874522 0 0.087764887830179078 -0.0085452768240037395 0 0.084044458281560028 -0.0079811033375112358 0 0.082489037571391213 -0.0070486392850397251 0 0.087764887830179078 -0.0085452768240037395 0 0.082489037571391213 -0.0070486392850397251 0 0.078668610471462383 -0.0071771554696558786 0 0.073337621771998318 -0.0046070259837151656 0 0.084044458281560028 -0.0079811033375112358 0 0.082489037571391213 -0.0070486392850397251 0 0.078668610471462383 -0.0071771554696558786 0 0.083293157513737962 -0.0084060741384590961 0 0.084044458281560028 -0.0079811033375112358 0 0.078668610471462383 -0.0071771554696558786 0 0.067883204752150844 -0.0066562588324657864 0 0.078668610471462383 -0.0071771554696558786 0 0.073337621771998318 -0.0046070259837151656 0 0.071677576005151525 -0.0011170987855160977 0 0.055318843805474326 -0.0001657173272759606 0 0.073337621771998318 -0.0046070259837151656 0 0.071677576005151525 -0.0011170987855160977 0 0.073337621771998318 -0.0046070259837151656 0 0.081101645631713112 -0.0045929228862284293 0 0.073337621771998318 -0.0046070259837151656 0 0.081101645631713112 -0.0045929228862284293 0 0.082611696901825099 -0.006239166205390413 0 0.082489037571391213 -0.0070486392850397251 0 0.073337621771998318 -0.0046070259837151647 0 0.082611696901825099 -0.006239166205390413 0 0.082489037571391213 -0.0070486392850397251 0 0.082611696901825099 -0.006239166205390413 0 0.087724122669305987 -0.0082464433785874522 0 0.082611696901825099 -0.006239166205390413 0 0.087679830124462316 -0.0080242335375021144 0 0.087724122669305987 -0.0082464433785874522 0 0.081101645631713112 -0.0045929228862284293 0 0.082611696901825099 -0.006239166205390413 0 0.087679830124462316 -0.0080242335375021144 0 0.081101645631713112 -0.0045929228862284293 0 0.087718803182349078 -0.0077089627516845971 0 0.087679830124462316 -0.0080242335375021144 0 0.087760773382663915 -0.0080261125872770206 0 0.092321307877588368 -0.0052639023758509216 0 0.092565274306519771 -0.0062965301918717371 0 0.087718803182349092 -0.007708962751684598 0 0.087760773382663901 -0.0080261125872770206 0 0.092321307877588368 -0.0052639023758509216 0 0.087718604111710397 -0.0078033248093187582 0 0.087720612590047917 -0.0080062739452670378 0 0.087760773382663915 -0.0080261125872770206 0 0.087780209797401129 -0.0082620810370719992 0 0.092565274306519771 -0.0062965301918717371 0 0.087720612590047917 -0.0080062739452670378 0 0.087751840666195471 -0.0082672172115062191 0 0.087780209797401129 -0.0082620810370719992 0 0.092565274306519771 -0.0062965301918717371 0 0.091585792541760982 -0.0073357499170303656 0 0.092565274306519771 -0.0062965301918717371 0 0.099010858593419487 -0.0032821701606951716 0 0.098008433165659561 -0.0058516802962156958 0 0.092321307877588368 -0.0052639023758509216 0 0.099010858593419487 -0.003282170