<?xml version="1.0"?>
<VTKFile type="UnstructuredGrid" version="0.1" byte_order="LittleEndian">
<UnstructuredGrid>
<Piece NumberOfPoints="880" NumberOfCells="299">
<Points>
<DataArray type="Float64" NumberOfComponents="3" format="ascii">
-0 0 0 0.18653882694645291 0.22249173546702489 0 0 0.25000000000104189 0 -0 0 0 0.18653882694645291 0.22249173546702489 0 0.24999999999941089 0 0 0.24999999999941089 0 0 0.35015135319464608 0.1900339269648805 0 0.49999999999869182 0 0 0.18653882694645291 0.22249173546702489 0 0.24999999999941089 0 0 0.35015135319464608 0.1900339269648805 0 0.35015135319464608 0.1900339269648805 0 0.49924741621175961 0.21507969613896921 0 0.49999999999869182 0 0 0.35015135319464608 0.1900339269648805 0 0.49924741621175961 0.21507969613896921 0 0.40587285776242238 0.32419148732968017 0 0.37764981543668408 0.41341486499350411 0 0.41576443813007791 0.48093483781626972 0 0.45418244162583959 0.41624787166862259 0 0.37764981543668408 0.41341486499350411 0 0.45418244162583959 0.41624787166862259 0 0.40587285776242238 0.32419148732968017 0 0.41576443813007791 0.48093483781626972 0 0.46566719828045178 0.47702825415921918 0 0.45418244162583959 0.41624787166862259 0 0.41576443813007791 0.48093483781626972 0 0.46566719828045178 0.47702825415921918 0 0.4638583922372429 0.51470588235294135 0 0.46566719828045178 0.47702825415921918 0 0.49954900152271581 0.45107191084564019 0 0.5 0.5 0 0.46566719828045178 0.47702825415921918 0 0.4638583922372429 0.51470588235294135 0 0.5 0.5 0 0.46566719828045178 0.47702825415921918 0 0.49954900152271581 0.45107191084564019 0 0.45418244162583959 0.41624787166862259 0 0.45418244162583959 0.41624787166862259 0 0.49435464945626773 0.33318442629318029 0 0.54876010062294855 0.39662628167175101 0 0.45418244162583959 0.41624787166862259 0 0.49435464945626773 0.33318442629318029 0 0.40587285776242238 0.32419148732968017 0 0.49924741621175961 0.21507969613896921 0 0.49435464945626773 0.33318442629318029 0 0.40587285776242238 0.32419148732968017 0 0.35015135319464608 0.1900339269648805 0 0.40587285776242238 0.32419148732968017 0 0.29145599617909779 0.35026601625021492 0 0.37764981543668408 0.41341486499350411 0 0.40587285776242238 0.32419148732968017 0 0.29145599617909779 0.35026601625021492 0 0.18653882694645291 0.22249173546702489 0 0.35015135319464608 0.1900339269648805 0 0.29145599617909779 0.35026601625021492 0 0.29145599617909779 0.35026601625021492 0 0.32540781287085369 0.49175159894608172 0 0.17872124008781709 0.39692711089439497 0 0.37764981543668408 0.41341486499350411 0 0.29145599617909779 0.35026601625021492 0 0.32540781287085369 0.49175159894608172 0 0.37764981543668408 0.41341486499350411 0 0.41576443813007791 0.48093483781626972 0 0.32540781287085369 0.49175159894608172 0 0.17872124008781709 0.39692711089439497 0 0 0.25000000000104189 0 0 0.50000000000206157 0 0.17872124008781709 0.39692711089439497 0 0 0.50000000000206157 0 0.22453074737734591 0.51613635929252633 0 0.32540781287085369 0.49175159894608172 0 0.17872124008781709 0.39692711089439497 0 0.22453074737734591 0.51613635929252633 0 0.18653882694645291 0.22249173546702489 0 0.29145599617909779 0.35026601625021492 0 0.17872124008781709 0.39692711089439497 0 0.18653882694645291 0.22249173546702489 0 0.17872124008781709 0.39692711089439497 0 0 0.25000000000104189 0 0 0.50000000000206157 0 0.18442368612951149 0.62734948407416979 0 0 0.75000000000034772 0 0.18442368612951149 0.62734948407416979 0 0.22727208279115291 0.72949159435386135 0 0 0.75000000000034772 0 0.18442368612951149 0.62734948407416979 0 0.22727208279115291 0.72949159435386135 0 0.31346558946927339 0.67110784456164874 0 0.18442368612951149 0.62734948407416979 0 0.22453074737734591 0.51613635929252633 0 0.31771010312359771 0.58585679504088894 0 0 0.50000000000206157 0 0.18442368612951149 0.62734948407416979 0 0.22453074737734591 0.51613635929252633 0 0 1 0 0.096516139048187316 0.89789944498939644 0 0 0.75000000000034772 0 0 1 0 0.096516139048187316 0.89789944498939644 0 0.1596341872805197 1 0 0.096516139048187316 0.89789944498939644 0 0 0.75000000000034772 0 0.1644705180525495 0.8200994301041713 0 0.1644705180525495 0.8200994301041713 0 0.2386314078659193 0.92924778694987087 0 0.27155609766735261 0.80398965554903801 0 0.22727208279115291 0.72949159435386135 0 0 0.75000000000034772 0 0.1644705180525495 0.8200994301041713 0 0.22727208279115291 0.72949159435386135 0 0.1644705180525495 0.8200994301041713 0 0.27155609766735261 0.80398965554903801 0 0.096516139048187316 0.89789944498939644 0 0.1644705180525495 0.8200994301041713 0 0.2386314078659193 0.92924778694987087 0 0.096516139048187316 0.89789944498939644 0 0.2386314078659193 0.92924778694987087 0 0.1596341872805197 1 0 0.2386314078659193 0.92924778694987087 0 0.1596341872805197 1 0 0.27591592301363282 1 0 0.36061858902161292 1 0 0.32789203369730929 0.94219211037003092 0 0.27591592301363282 1 0 0.36061858902161292 1 0 0.32789203369730929 0.94219211037003092 0 0.39382242252278338 0.95440420122950598 0 0.2386314078659193 0.92924778694987087 0 0.32789203369730929 0.94219211037003092 0 0.27591592301363282 1 0 0.2386314078659193 0.92924778694987087 0 0.32789203369730929 0.94219211037003092 0 0.31834856208730472 0.88134829947972904 0 0.32789203369730929 0.94219211037003092 0 0.37746652222901839 0.8987532801416368 0 0.39382242252278338 0.95440420122950598 0 0.32789203369730929 0.94219211037003092 0 0.31834856208730472 0.88134829947972904 0 0.37746652222901839 0.8987532801416368 0 0.2386314078659193 0.92924778694987087 0 0.31834856208730472 0.88134829947972904 0 0.27155609766735261 0.80398965554903801 0 0.31834856208730472 0.88134829947972904 0 0.36493375430404612 0.82333914183704071 0 0.37746652222901839 0.8987532801416368 0 0.31834856208730472 0.88134829947972904 0 0.36493375430404612 0.82333914183704071 0 0.27155609766735261 0.80398965554903801 0 0.22727208279115291 0.72949159435386135 0 0.27155609766735261 0.80398965554903801 0 0.32984265945580837 0.74432890077789404 0 0.36493375430404612 0.82333914183704071 0 0.27155609766735261 0.80398965554903801 0 0.32984265945580837 0.74432890077789404 0 0.36493375430404612 0.82333914183704071 0 0.39746869305290999 0.7595658224757349 0 0.32984265945580837 0.74432890077789404 0 0.36493375430404612 0.82333914183704071 0 0.39746869305290999 0.7595658224757349 0 0.42893012659725649 0.81084715169569632 0 0.39746869305290999 0.7595658224757349 0 0.42893012659725649 0.81084715169569632 0 0.44651949253391748 0.77225997208621999 0 0.39746869305290999 0.7595658224757349 0 0.44651949253391748 0.77225997208621999 0 0.43412357948152142 0.72128778687215156 0 0.44651949253391748 0.77225997208621999 0 0.47786860714145291 0.77730227330627721 0 0.47220206448452873 0.74892462649306213 0 0.47786860714145291 0.77730227330627721 0 0.47220206448452873 0.74892462649306213 0 0.5 0.76470588235294124 0 0.47786860714145291 0.77730227330627721 0 0.5 0.79411764705882359 0 0.5 0.76470588235294124 0 0.47062147868881782 0.80650323854033878 0 0.5 0.82352941176470584 0 0.5 0.79411764705882359 0 0.47786860714145291 0.77730227330627721 0 0.47062147868881782 0.80650323854033878 0 0.5 0.79411764705882359 0 0.44651949253391748 0.77225997208621999 0 0.47786860714145291 0.77730227330627721 0 0.47062147868881782 0.80650323854033878 0 0.42893012659725649 0.81084715169569632 0 0.44651949253391748 0.77225997208621999 0 0.47062147868881782 0.80650323854033878 0 0.42893012659725649 0.81084715169569632 0 0.47062147868881782 0.80650323854033878 0 0.46181179062043481 0.83858979842637782 0 0.42893012659725649 0.81084715169569632 0 0.46181179062043481 0.83858979842637782 0 0.42880856207355889 0.86677159981903118 0 0.46181179062043481 0.83858979842637782 0 0.5 0.85294117647058831 0 0.5 0.82352941176470584 0 0.47062147868881782 0.80650323854033878 0 0.46181179062043481 0.83858979842637782 0 0.5 0.82352941176470584 0 0.46181179062043481 0.83858979842637782 0 0.47032448519202857 0.86718057681700655 0 0.5 0.85294117647058831 0 0.47032448519202857 0.86718057681700655 0 0.5 0.88235294117647056 0 0.5 0.85294117647058831 0 0.46181179062043481 0.83858979842637782 0 0.47032448519202857 0.86718057681700655 0 0.42880856207355889 0.86677159981903118 0 0.36493375430404612 0.82333914183704071 0 0.42880856207355889 0.86677159981903118 0 0.37746652222901839 0.8987532801416368 0 0.36493375430404612 0.82333914183704071 0 0.42893012659725649 0.81084715169569632 0 0.42880856207355889 0.86677159981903118 0 0.37746652222901839 0.8987532801416368 0 0.42822627495986648 0.92083108049218854 0 0.39382242252278338 0.95440420122950598 0 0.42880856207355889 0.86677159981903118 0 0.37746652222901839 0.8987532801416368 0 0.42822627495986648 0.92083108049218854 0 0.47032448519202857 0.86718057681700655 0 0.42880856207355889 0.86677159981903118 0 0.46100207326614928 0.89524736819256467 0 0.42880856207355889 0.86677159981903118 0 0.42822627495986648 0.92083108049218854 0 0.46100207326614928 0.89524736819256467 0 0.47032448519202857 0.86718057681700655 0 0.46100207326614928 0.89524736819256467 0 0.5 0.88235294117647056 0 0.46100207326614928 0.89524736819256467 0 0.5 0.91176470588235292 0 0.5 0.88235294117647056 0 0.46100207326614928 0.89524736819256467 0 0.46949408183482899 0.92833826413560594 0 0.5 0.91176470588235292 0 0.46949408183482899 0.92833826413560594 0 0.5 0.94117647058823528 0 0.5 0.91176470588235292 0 0.42822627495986648 0.92083108049218854 0 0.46100207326614928 0.89524736819256467 0 0.46949408183482899 0.92833826413560594 0 0.46949408183482899 0.92833826413560594 0 0.44768478605684647 0.9646709673379662 0 0.47596308696979028 0.95620709615192379 0 0.42822627495986648 0.92083108049218854 0 0.46949408183482899 0.92833826413560594 0 0.44768478605684647 0.9646709673379662 0 0.44768478605684647 0.9646709673379662 0 0.47596308696979028 0.95620709615192379 0 0.47818194888216242 0.97829325975680159 0 0.46949408183482899 0.92833826413560594 0 0.47596308696979028 0.95620709615192379 0 0.5 0.94117647058823528 0 0.47596308696979028 0.95620709615192379 0 0.4781
[...]
<PointData Scalars="" Vectors="displacement," Tensors="">
<DataArray type="Float64" Name="displacement" NumberOfComponents="3" format="ascii">
-8.0779983718019654e-06 2.0748201960268614e-07 0 -0.0025515963744666978 -0.0088640696444351706 0 -0.0016819002688147095 -0.00072594131359468713 0 -8.0779983718019654e-06 2.0748201960268614e-07 0 -0.0025515963744666978 -0.0088640696444351706 0 -3.4281327056603776e-06 -1.4624950367074263e-05 0 -3.4281327056603776e-06 -1.4624950367074263e-05 0 -0.0022652307006655451 -0.016319877708728153 0 -2.6463539573075805e-06 -3.2004829435553206e-05 0 -0.0025515963744666978 -0.0088640696444351706 0 -3.4281327056603776e-06 -1.4624950367074263e-05 0 -0.0022652307006655451 -0.016319877708728153 0 -0.0022652307006655451 -0.016319877708728153 0 0.0019454307515272332 -0.027883130227437596 0 -2.6463539573075805e-06 -3.2004829435553206e-05 0 -0.0022652307006655451 -0.016319877708728153 0 0.0019454307515272332 -0.027883130227437596 0 0.0063007037959342538 -0.034284784127005113 0 0.014922232419908353 -0.039646153395069737 0 0.02607013217388874 -0.05326506922310513 0 0.017573092175587779 -0.053235505463340417 0 0.014922232419908353 -0.039646153395069737 0 0.017573092175587779 -0.053235505463340417 0 0.0063007037959342538 -0.034284784127005113 0 0.02607013217388874 -0.05326506922310513 0 0.028031710596066895 -0.064458540436868231 0 0.017573092175587779 -0.053235505463340417 0 0.02607013217388874 -0.05326506922310513 0 0.028031710596066895 -0.064458540436868231 0 0.035120251330851657 -0.069409412331133152 0 0.028031710596066895 -0.064458540436868231 0 0.025720857794458835 -0.067600962611804954 0 0.037858285891252876 -0.083011418942889603 0 0.028031710596066895 -0.064458540436868231 0 0.035120251330851657 -0.069409412331133152 0 0.037858285891252876 -0.083011418942889603 0 0.028031710596066895 -0.064458540436868231 0 0.025720857794458835 -0.067600962611804954 0 0.017573092175587779 -0.053235505463340417 0 0.017573092175587779 -0.053235505463340417 0 0.010768565731993647 -0.045432617642583065 0 0.020534091118223508 -0.062308407274533038 0 0.017573092175587779 -0.053235505463340417 0 0.010768565731993647 -0.045432617642583065 0 0.0063007037959342538 -0.034284784127005113 0 0.0019454307515272332 -0.027883130227437596 0 0.010768565731993647 -0.045432617642583065 0 0.0063007037959342538 -0.034284784127005113 0 -0.0022652307006655451 -0.016319877708728153 0 0.0063007037959342538 -0.034284784127005113 0 0.0062924038511601053 -0.024066030406538087 0 0.014922232419908353 -0.039646153395069737 0 0.0063007037959342538 -0.034284784127005113 0 0.0062924038511601053 -0.024066030406538087 0 -0.0025515963744666978 -0.0088640696444351706 0 -0.0022652307006655451 -0.016319877708728153 0 0.0062924038511601053 -0.024066030406538087 0 0.0062924038511601053 -0.024066030406538087 0 0.023691984068694754 -0.037511276870559801 0 0.0094090755953471165 -0.014579523666536257 0 0.014922232419908353 -0.039646153395069737 0 0.0062924038511601053 -0.024066030406538087 0 0.023691984068694754 -0.037511276870559801 0 0.014922232419908353 -0.039646153395069737 0 0.02607013217388874 -0.05326506922310513 0 0.023691984068694754 -0.037511276870559801 0 0.0094090755953471165 -0.014579523666536257 0 -0.0016819002688147095 -0.00072594131359468713 0 0.020401530966359625 0.0029663652795346969 0 0.0094090755953471165 -0.014579523666536257 0 0.020401530966359625 0.0029663652795346969 0 0.025172065865009832 -0.024825858649573637 0 0.023691984068694754 -0.037511276870559801 0 0.0094090755953471165 -0.014579523666536257 0 0.025172065865009832 -0.024825858649573637 0 -0.0025515963744666978 -0.0088640696444351706 0 0.0062924038511601053 -0.024066030406538087 0 0.0094090755953471165 -0.014579523666536257 0 -0.0025515963744666978 -0.0088640696444351706 0 0.0094090755953471165 -0.014579523666536257 0 -0.0016819002688147095 -0.00072594131359468713 0 0.020401530966359625 0.0029663652795346969 0 0.039434163490162211 -0.023034880026267864 0 0.05725020056254615 0.0036069184355532382 0 0.039434163490162211 -0.023034880026267864 0 0.055365802082203312 -0.032323175184437364 0 0.05725020056254615 0.0036069184355532382 0 0.039434163490162211 -0.023034880026267864 0 0.055365802082203312 -0.032323175184437364 0 0.048086998563240883 -0.046053103843702044 0 0.039434163490162211 -0.023034880026267864 0 0.025172065865009832 -0.024825858649573637 0 0.036942126017761076 -0.042683962912383175 0 0.020401530966359625 0.0029663652795346969 0 0.039434163490162211 -0.023034880026267864 0 0.025172065865009832 -0.024825858649573637 0 0.098747515607208208 0.0041000063264987818 0 0.081641023742985111 -0.012034393964081009 0 0.05725020056254615 0.0036069184355532382 0 0.098747515607208208 0.0041000063264987818 0 0.081641023742985111 -0.012034393964081009 0 0.099147411321360512 -0.022908943823414154 0 0.081641023742985111 -0.012034393964081009 0 0.05725020056254615 0.0036069184355532382 0 0.068880491305090844 -0.023132286968440465 0 0.068880491305090844 -0.023132286968440465 0 0.086780705147360498 -0.036838515900162599 0 0.066625755212009849 -0.041909994619757307 0 0.055365802082203312 -0.032323175184437364 0 0.05725020056254615 0.0036069184355532382 0 0.068880491305090844 -0.023132286968440465 0 0.055365802082203312 -0.032323175184437364 0 0.068880491305090844 -0.023132286968440465 0 0.066625755212009849 -0.041909994619757307 0 0.081641023742985111 -0.012034393964081009 0 0.068880491305090844 -0.023132286968440465 0 0.086780705147360498 -0.036838515900162599 0 0.081641023742985111 -0.012034393964081009 0 0.086780705147360498 -0.036838515900162599 0 0.099147411321360512 -0.022908943823414154 0 0.086780705147360498 -0.036838515900162599 0 0.099147411321360512 -0.022908943823414154 0 0.099530266112266452 -0.043876993060276905 0 0.099083480189943604 -0.060824051505516084 0 0.088519030491376882 -0.054207541718424332 0 0.099530266112266452 -0.043876993060276905 0 0.099083480189943604 -0.060824051505516084 0 0.088519030491376882 -0.054207541718424332 0 0.089507748977606758 -0.068321789930489762 0 0.086780705147360498 -0.036838515900162599 0 0.088519030491376882 -0.054207541718424332 0 0.099530266112266452 -0.043876993060276905 0 0.086780705147360498 -0.036838515900162599 0 0.088519030491376882 -0.054207541718424332 0 0.078683172259583531 -0.052078010369038495 0 0.088519030491376882 -0.054207541718424332 0 0.080766453604457916 -0.064602851370679351 0 0.089507748977606758 -0.068321789930489762 0 0.088519030491376882 -0.054207541718424332 0 0.078683172259583531 -0.052078010369038495 0 0.080766453604457916 -0.064602851370679351 0 0.086780705147360498 -0.036838515900162599 0 0.078683172259583531 -0.052078010369038495 0 0.066625755212009849 -0.041909994619757307 0 0.078683172259583531 -0.052078010369038495 0 0.069664672904628841 -0.060907685401870131 0 0.080766453604457916 -0.064602851370679351 0 0.078683172259583531 -0.052078010369038495 0 0.069664672904628841 -0.060907685401870131 0 0.066625755212009849 -0.041909994619757307 0 0.055365802082203312 -0.032323175184437364 0 0.066625755212009849 -0.041909994619757307 0 0.058498136255792747 -0.051818531589959207 0 0.069664672904628841 -0.060907685401870131 0 0.066625755212009849 -0.041909994619757307 0 0.058498136255792747 -0.051818531589959207 0 0.069664672904628841 -0.060907685401870131 0 0.061055663690942591 -0.066374147004777437 0 0.058498136255792747 -0.051818531589959207 0 0.069664672904628841 -0.060907685401870131 0 0.061055663690942591 -0.066374147004777437 0 0.067959804956290698 -0.074445570002759934 0 0.061055663690942591 -0.066374147004777437 0 0.067959804956290698 -0.074445570002759934 0 0.062929734208434618 -0.07736602050803984 0 0.061055663690942591 -0.066374147004777437 0 0.062929734208434618 -0.07736602050803984 0 0.056530397589757232 -0.073267373060832433 0 0.062929734208434618 -0.07736602050803984 0 0.063636925015384926 -0.084340007217112115 0 0.060151547516304492 -0.082382451021144762 0 0.063636925015384926 -0.084340007217112115 0 0.060151547516304492 -0.082382451021144762 0 0.062119198733599362 -0.088849899120492057 0 0.063636925015384926 -0.084340007217112115 0 0.065741554029851795 -0.089573670946674705 0 0.062119198733599362 -0.088849899120492057 0 0.067355335219473969 -0.083468471818762782 0 0.069461167583312666 -0.09026804883791939 0 0.065741554029851795 -0.089573670946674705 0 0.063636925015384926 -0.084340007217112115 0 0.067355335219473969 -0.083468471818762782 0 0.065741554029851795 -0.089573670946674705 0 0.062929734208434618 -0.07736602050803984 0 0.063636925015384926 -0.084340007217112115 0 0.067355335219473969 -0.083468471818762782 0 0.067959804956290698 -0.074445570002759934 0 0.062929734208434618 -0.07736602050803984 0 0.067355335219473969 -0.083468471818762782 0 0.067959804956290698 -0.074445570002759934 0 0.067355335219473969 -0.083468471818762782 0 0.071565993681148091 -0.082275013984611664 0 0.067959804956290698 -0.074445570002759934 0 0.071565993681148091 -0.082275013984611664 0 0.075536294163810566 -0.075577030625686104 0 0.071565993681148091 -0.082275013984611664 0 0.073252006193729388 -0.090921408759136416 0 0.069461167583312666 -0.09026804883791939 0 0.067355335219473969 -0.083468471818762782 0 0.071565993681148091 -0.082275013984611664 0 0.069461167583312666 -0.09026804883791939 0 0.071565993681148091 -0.082275013984611664 0 0.075317164881580329 -0.084735243321957157 0 0.073252006193729388 -0.090921408759136416 0 0.075317164881580329 -0.084735243321957157 0 0.077082933256838029 -0.091523451363151334 0 0.073252006193729388 -0.090921408759136416 0 0.071565993681148091 -0.082275013984611664 0 0.075317164881580329 -0.084735243321957157 0 0.075536294163810566 -0.075577030625686104 0 0.069664672904628841 -0.060907685401870131 0 0.075536294163810566 -0.075577030625686104 0 0.080766453604457916 -0.064602851370679351 0 0.069664672904628841 -0.060907685401870131 0 0.067959804956290698 -0.074445570002759934 0 0.075536294163810566 -0.075577030625686104 0 0.080766453604457916 -0.064602851370679351 0 0.08328434004110076 -0.07615512965224755 0 0.089507748977606758 -0.068321789930489762 0 0.075536294163810566 -0.075577030625686104 0 0.080766453604457916 -0.064602851370679351 0 0.08328434004110076 -0.07615512965224755 0 0.075317164881580329 -0.084735243321957157 0 0.075536294163810566 -0.075577030625686104 0 0.079170206650056599 -0.083251876284854587 0 0.075536294163810566 -0.075577030625686104 0 0.08328434004110076 -0.07615512965224755 0 0.079170206650056599 -0.083251876284854587 0 0.075317164881580329 -0.084735243321957157 0 0.079170206650056599 -0.083251876284854587 0 0.077082933256838029 -0.091523451363151334 0 0.079170206650056599 -0.083251876284854587 0 0.080890831390483448 -0.092072680194443438 0 0.077082933256838029 -0.091523451363151334 0 0.079170206650056599 -0.083251876284854587 0 0.083461008006931139 -0.085700455960699223 0 0.080890831390483448 -0.092072680194443438 0 0.083461008006931139 -0.085700455960699223 0 0.084550579350053778 -0.092572243202510562 0 0.080890831390483448 -0.092072680194443438 0 0.08328434004110076 -0.07615512965224755 0 0.079170206650056599 -0.083251876284854587 0 0.083461008006931139 -0.085700455960699223 0 0.083461008006931139 -0.085700455960699223 0 0.089422101732707676 -0.080832643455367559 0 0.087097898478436131 -0.087550890406113135 0 0.08328434004110076 -0.07615512965224755 0 0.083461008006931139 -0.085700455960699223 0 0.089422101732707676 -0.080832643455367559 0 0.089422101732707676 -0.080832643455367559 0 0.087097898478436131 -0.087550890406113135 0 0.089893448046515223 -0.088259436803973829 0 0.083461008006931139 -0.085700455960699223 0 0.087097898478436131 -0.087550890406113135 0 0.084550579350053778 -0.092572243202510562 0 0.087097898478436131 -0.087550890406113135 0 0.089893448046515223 -0.088259436803973829 0 0.087752048943021757 -0.093027194775237271 0 0.087097898478436131 -0.087550890406113135 0 0.087752048943021757 -0.093027194775237271 0 0.084550579350053778 -0.092572243202510562 0 0.089893448046515223 -0.088259436803973829 0 0.094871029636076284 -0.084874890639250591 0 0.09033939566078357 -0.093300969725159555 0 0.089893448046515223 -0.088259436803973829 0 0.087752048943021757 -0.093027194775237271 0 0.09033939566078357 -0.093300969725159555 0 0.089422101732707676 -0.080832643455367559 0 0.089893448046515223 -0.088259436803973829 0 0.094871029636076284 -0.084874890639250591 0 0.089422101732707676 -0.080832643455367559 0 0.094871029636076284 -0.084874890639250591 0 0.097542763375028721 -0.074399504160510749 0 0.089422101732707676 -0.080832643455367559 0 0.097542763375028721 -0.074399504160510749 0 0.089507748977606758 -0.068321789930489762 0 0.08328434004110076 -0.07615512965224755 0 0.089422101732707676 -0.080832643455367559 0 0.089507748977606758 -0.068321789930489762 0 0.099083480189943604 -0.060824051505516084 0 0.097542763375028721 -0.074399504160510749 0 0.089507748977606758 -0.068321789930489762 0 0.036942126017761076 -0.042683962912383175 0 0.044741424186213859 -0.059298299096665008 0 0.037627328853133878 -0.061705489528518571 0 0.023691984068694754 -0.037511276870559801 0 0.036942126017761076 -0.042683962912383175 0 0.037627328853133878 -0.061705489528518571 0 0.023691984068694754 -0.037511276870559801 0 0.025172065865009832 -0.024825858649573637 0 0.036942126017761076 -0.042683962912383175 0 0.039434163490162211 -0.023034880026267864 0 0.036942126017761076 -0.042683962912383175 0 0.048086998563240883 -0.046053103843702044 0 0.055365802082203312 -0.032323175184437364 0 0.058498136255792747 -0.051818531589959207 0 0.048086998563240883 -0.046053103843702044 0 0.061055663690942591 -0.066374147004777437 0 0.058498136255792747 -0.051818531589959207 0 0.05241615815066674 -0.061636369939942565 0 0.058498136255792747 -0.051818531589959207 0 0.048086998563240883 -0.046053103843702044 0 0.05241615815066674 -0.061636369939942565 0 0.036942126017761076 -0.042683962912383175 0 0.048086998563240883 -0.046053103843702044 0 0.044741424186213859 -0.059298299096665008 0 0.048086998563240883 -0.046053103843702044 0 0.044741424186213859 -0.059298299096665008 0 0.05241615815066674 -0.061636369939942565 0 0.044741424186213859 -0.059298299096665008 0 0.05241615815066674 -0.061636369939942565 0 0.04972866239316396 -0.072300361224155382 0 0.044741424186213859 -0.059298299096665008 0 0.04972866239316396 -0.072300361224155382 0 0.044548485962441722 -0.071737251661246157 0 0.061055663690942591 -0.066374147004777437 0 0.05241615815066674 -0.061636369939942565 0 0.056530397589757232 -0.073267373060832433 0 0.05241615815066674 -0.061636369939942565 0 0.056530397589757232 -0.073267373060832433 0 0.04972866239316396 -0.072300361224155382 0 0.056530397589757232 -0.073267373060832433 0 0.056809106290071291 -0.082503142580635069 0 0.060151547516304492 -0.082382451021144762 0 0.062929734208434618 -0.07736602050803984 0 0.056530397589757232 -0.073267373060832433 0 0.060151547516304492 -0.082382451021144762 0 0.056530397589757232 -0.073267373060832433 0 0.053933913713989638 -0.078906295158112219 0 0.04972866239316396 -0.072300361224155382 0 0.056530397589757232 -0.073267373060832433 0 0.053933913713989638 -0.078906295158112219 0 0.056809106290071291 -0.082503142580635069 0 0.053933913713989638 -0.078906295158112219 0 0.056809106290071291 -0.082503142580635069 0 0.055255283882957293 -0.087355313857650871 0 0.053933913713989638 -0.078906295158112219 0 0.05204560329749193 -0.086602472368052824 0 0.055255283882957293 -0.087355313857650871 0 0.056809106290071291 -0.082503142580635069 0 0.058617775008833285 -0.088106965826831099 0 0.055255283882957293 -0.087355313857650871 0 0.060151547516304492 -0.082382451021144762 0 0.058617775008833285 -0.088106965826831099 0 0.062119198733599362 -0.088849899120492057 0 0.056809106290071291 -0.082503142580635069 0 0.060151547516304492 -0.082382451021144762 0 0.058617775008833285 -0.088106965826831099 0 0.04972866239316396 -0.072300361224155382 0 0.050392998773959585 -0.08050971706104243 0 0.047456781854441049 -0.078968508772937027 0 0.04972866239316396 -0.072300361224155382 0 0.047456781854441049 -0.078968508772937027 0 0.044548485962441722 -0.071737251661246157 0 0.053933913713989638 -0.078906295158112219 0 0.04972866239316396 -0.072300361224155382 0 0.050392998773959585 -0.08050971706104243 0 0.053933913713989638 -0.078906295158112219 0 0.050392998773959585 -0.08050971706104243 0 0.05204560329749193 -0.086602472368052824 0 0.050392998773959585 -0.08050971706104243 0 0.049001736320470904 -0.085864212666474801 0 0.05204560329749193 -0.086602472368052824 0 0.050392998773959585 -0.08050971706104243 0 0.047456781854441049 -0.078968508772937027 0 0.049001736320470904 -0.085864212666474801 0 0.047456781854441049 -0.078968508772937027 0 0.046141755448355908 -0.085152264310241477 0 0.049001736320470904 -0.085864212666474801 0 0.044746132980391227 -0.079215314031344172 0 0.043498780909585685 -0.084497913786552331 0 0.046141755448355908 -0.085152264310241477 0 0.047456781854441049 -0.078968508772937027 0 0.044746132980391227 -0.079215314031344172 0 0.046141755448355908 -0.085152264310241477 0 0.041829346681406497 -0.075847730737525335 0 0.04113295758094402 -0.083875032553898998 0 0.043498780909585685 -0.084497913786552331 0 0.044746132980391227 -0.079215314031344172 0 0.041829346681406497 -0.075847730737525335 0 0.043498780909585685 -0.084497913786552331 0 0.041829346681406497 -0.075847730737525335 0 0.044548485962441722 -0.071737251661246157 0 0.037627328853133878 -0.061705489528518571 0 0.044746132980391227 -0.079215314031344172 0 0.041829346681406497 -0.075847730737525335 0 0.044548485962441722 -0.071737251661246157 0 0.047456781854441049 -0.078968508772937027 0 0.044746132980391227 -0.079215314031344172 0 0.044548485962441722 -0.071737251661246157 0 0.044741424186213859 -0.059298299096665008 0 0.044548485962441722 -0.071737251661246157 0 0.037627328853133878 -0.061705489528518571 0 0.02607013217388874 -0.05326506922310513 0 0.023691984068694754 -0.037511276870559801 0 0.037627328853133878 -0.061705489528518571 0 0.02607013217388874 -0.05326506922310513 0 0.037627328853133878 -0.061705489528518571 0 0.035120251330851657 -0.069409412331133152 0 0.037627328853133878 -0.061705489528518571 0 0.035120251330851657 -0.069409412331133152 0 0.03931505461686309 -0.074366073410185321 0 0.041829346681406497 -0.075847730737525335 0 0.037627328853133878 -0.061705489528518571 0 0.03931505461686309 -0.074366073410185321 0 0.041829346681406497 -0.075847730737525335 0 0.03931505461686309 -0.074366073410185321 0 0.04113295758094402 -0.083875032553898998 0 0.03931505461686309 -0.074366073410185321 0 0.039091905677096202 -0.083433328439767057 0 0.04113295758094402 -0.083875032553898998 0 0.035120251330851657 -0.069409412331133152 0 0.03931505461686309 -0.074366073410185321 0 0.039091905677096202 -0.083433328439767057 0 0.035120251330851657 -0.069409412331133152 0 0.037858285891252876 -0.083011418942889603 0 0.039091905677096202 -0.083433328439767057 0 0.039157453688000464 -0.084083305875688533 0 0.037041715882050852 -0.081341971399562313 0 0.039211034822599064 -0.084381062361273323 0 0.037858285891252876 -0.083011418942889603 0 0.039157453688000464 -0.084083305875688533 0 0.037041715882050852 -0.081341971399562313 0 0.037903421474888468 -0.08326090819222913 0 0.039119738574285974 -0.083715831894123641 0 0.039157453688000464 -0.084083305875688533 0 0.041195367941906827 -0.084647862778699137 0 0.039211034822599064 -0.084381062361273323 0 0.039119738574285974 -0.083715831894123641 0 0.041169418523696363 -0.084289455119422443 0 0.041195367941906827 -0.084647862778699137 0 0.039211034822599064 -0.084381062361273323 0 0.04176626431795246 -0.086200398461195496 0 0.039211034822599064 -0.084381062361273323 0 0.037195885333017376 -0.083295422548091053 0 0.041495813641869446 -0.089491894903677205 0 0.037041715882050852 -0.081341971399562313 0 0.037195885333017376 -0.083295422548091053 0 0.032192989665544194 -0.075488286842984878 0 0.037041715882050852 -0.081341971399562313 0 0.039211034822599064 -0.08438106