<?xml version="1.0"?>
<VTKFile type="UnstructuredGrid" version="0.1" byte_order="LittleEndian">
<UnstructuredGrid>
<Piece NumberOfPoints="9" NumberOfCells="11">
<Points>
<DataArray type="Float64" NumberOfComponents="3" format="ascii">
0.0000000000 0.0000000000 0.0000000000 1.0000000000 0.0000000000 0.0000000000 0.0000000000 1.0000000000 0.0000000000 0.0000000000 0.0000000000 2.0000000000 1.0000000000 0.0000000000 2.0000000000 0.0000000000 1.0000000000 2.0000000000 0.5000000000 0.0000000000 1.0000000000 0.5000000000 0.5000000000 1.0000000000 0.0000000000 0.5000000000 1.0000000000 
</DataArray>
</Points>
<Cells>
<DataArray type="UInt32" Name="connectivity" format="ascii">
1 6 4 7 8 6 7 3 5 8 7 3 1 2 0 7 8 5 7 2 2 8 0 7 3 6 7 4 8 6 0 7 5 3 7 4 6 1 0 7 6 8 0 3 
</DataArray>
<DataArray type="UInt32" Name="offsets" format="ascii">
4 8 12 16 20 24 28 32 36 40 44 
</DataArray>
<DataArray type="UInt32" Name="types" format="ascii">
10 10 10 10 10 10 10 10 10 10 10 
</DataArray>
</Cells>
<CellData Scalars="pressure_p0,cross_section,conductivity,sigma,water_source_density,init_pressure,storativity," Vectors="velocity_p0," Tensors="anisotropy,">
<DataArray type="Float64" Name="pressure_p0" format="ascii">
0.1000000000 0.1000000000 0.1000000000 0.1000000000 0.1000000000 0.1000000000 0.1000000000 0.1000000000 0.1000000000 0.1000000000 0.1000000000 
</DataArray>
<DataArray type="Float64" Name="velocity_p0" NumberOfComponents="3" format="ascii">
0.0000000000 0.0000000000 0.0000000000 0.0000000000 0.0000000000 0.0000000000 0.0000000000 0.0000000000 0.0000000000 0.0000000000 0.0000000000 0.0000000000 0.0000000000 0.0000000000 0.0000000000 0.0000000000 0.0000000000 0.0000000000 0.0000000000 0.0000000000 0.0000000000 0.0000000000 0.0000000000 0.0000000000 0.0000000000 0.0000000000 0.0000000000 0.0000000000 0.0000000000 0.0000000000 0.0000000000 0.0000000000 0.0000000000 
</DataArray>
<DataArray type="Float64" Name="anisotropy" NumberOfComponents="9" format="ascii">
10.0000000000 0.0000000000 0.0000000000 0.0000000000 10.0000000000 0.0000000000 0.0000000000 0.0000000000 10.0000000000 10.0000000000 0.0000000000 0.0000000000 0.0000000000 10.0000000000 0.0000000000 0.0000000000 0.0000000000 10.0000000000 10.0000000000 0.0000000000 0.0000000000 0.0000000000 10.0000000000 0.0000000000 0.0000000000 0.0000000000 10.0000000000 10.0000000000 0.0000000000 0.0000000000 0.0000000000 10.0000000000 0.0000000000 0.0000000000 0.0000000000 10.0000000000 10.0000000000 0.0000000000 0.0000000000 0.0000000000 10.0000000000 0.0000000000 0.0000000000 0.0000000000 10.0000000000 10.0000000000 0.0000000000 0.0000000000 0.0000000000 10.0000000000 0.0000000000 0.0000000000 0.0000000000 10.0000000000 10.0000000000 0.0000000000 0.0000000000 0.0000000000 10.0000000000 0.0000000000 0.0000000000 0.0000000000 10.0000000000 10.0000000000 0.0000000000 0.0000000000 0.0000000000 10.0000000000 0.0000000000 0.0000000000 0.0000000000 10.0000000000 10.0000000000 0.0000000000 0.0000000000 0.0000000000 10.0000000000 0.0000000000 0.0000000000 0.0000000000 10.0000000000 10.0000000000 0.0000000000 0.0000000000 0.0000000000 10.0000000000 0.0000000000 0.0000000000 0.0000000000 10.0000000000 10.0000000000 0.0000000000 0.0000000000 0.0000000000 10.0000000000 0.0000000000 0.0000000000 0.0000000000 10.0000000000 
</DataArray>
<DataArray type="Float64" Name="cross_section" format="ascii">
1.0000000000 1.0000000000 1.0000000000 1.0000000000 1.0000000000 1.0000000000 1.0000000000 1.0000000000 1.0000000000 1.0000000000 1.0000000000 
</DataArray>
<DataArray type="Float64" Name="conductivity" format="ascii">
1.0000000000 1.0000000000 1.0000000000 1.0000000000 1.0000000000 1.0000000000 1.0000000000 1.0000000000 1.0000000000 1.0000000000 1.0000000000 
</DataArray>
<DataArray type="Float64" Name="sigma" format="ascii">
0.1000000000 0.1000000000 0.1000000000 0.1000000000 0.1000000000 0.1000000000 0.1000000000 0.1000000000 0.1000000000 0.1000000000 0.1000000000 
</DataArray>
<DataArray type="Float64" Name="water_source_density" format="ascii">
24.0000000000 24.0000000000 24.0000000000 24.0000000000 24.0000000000 24.0000000000 24.0000000000 24.0000000000 24.0000000000 24.0000000000 24.0000000000 
</DataArray>
<DataArray type="Float64" Name="init_pressure" format="ascii">
0.1000000000 0.1000000000 0.1000000000 0.1000000000 0.1000000000 0.1000000000 0.1000000000 0.1000000000 0.1000000000 0.1000000000 0.1000000000 
</DataArray>
<DataArray type="Float64" Name="storativity" format="ascii">
1.0000000000 1.0000000000 1.0000000000 1.0000000000 1.0000000000 1.0000000000 1.0000000000 1.0000000000 1.0000000000 1.0000000000 1.0000000000 
</DataArray>
</CellData>
</Piece>
</UnstructuredGrid>
</VTKFile>
