<?xml version="1.0"?>
<VTKFile type="UnstructuredGrid" version="0.1" byte_order="LittleEndian">
<UnstructuredGrid>
<Piece NumberOfPoints="9" NumberOfCells="11">
<Points>
<DataArray type="Float64" NumberOfComponents="3" format="ascii">
0 0 0 0 1 0 1 0 0 1 0 2 0 1 2 0 0.5 1 0.5 0 1 0.5 0.49999999999999989 1 0 0 2 
</DataArray>
</Points>
<Cells>
<DataArray type="UInt32" Name="connectivity" format="ascii">
0 1 2 7 0 2 6 7 0 5 6 7 0 1 5 7 2 3 6 7 1 4 5 7 0 5 6 8 5 6 7 8 4 5 7 8 3 6 7 8 3 4 7 8 
</DataArray>
<DataArray type="UInt32" Name="offsets" format="ascii">
4 8 12 16 20 24 28 32 36 40 44 
</DataArray>
<DataArray type="UInt32" Name="types" format="ascii">
10 10 10 10 10 10 10 10 10 10 10 
</DataArray>
</Cells>
<CellData Scalars="pressure_p0,cross_section,conductivity,sigma,water_source_density,storativity," Vectors="velocity_p0," Tensors="anisotropy,">
<DataArray type="Float64" Name="pressure_p0" format="ascii">
0.043401110863826552 0.066826130865128175 0.063064780027808631 0.02932613086512794 0.08649652810438202 0.023996528104382599 0.022016200698573615 0.063064780027810047 0.029326130865129862 0.066826130865128022 0.043401110863826545 
</DataArray>
<DataArray type="Float64" Name="velocity_p0" NumberOfComponents="3" format="ascii">
-1.9377997166721781 1.0622002833278232 -31.062200611166851 -2.1435424329451944 -2.124400845760519 -31.435406050265499 -5.425833308839854 -2.4258333088398194 -31.999995770593362 -5.1244008457604977 0.85645756705486076 -31.435406050265453 1.138751394966864 -6.3869466341999592e-07 -29.999999999999957 -3.0000006386946505 4.1387513949670298 -30.000000000000128 -6.4258327801631454 -3.4258327801631534 -30.000000000000025 -5.4258333088396729 -2.4258333088406236 -28.000004229407018 -5.1244008457604204 0.85645756705507792 -28.564593949734142 -2.1435424329451518 -2.1244008457606172 -28.564593949734601 -1.9377997166722221 1.0622002833278696 -28.937799388833142 
</DataArray>
<DataArray type="Float64" Name="anisotropy" NumberOfComponents="9" format="ascii">
10 0 0 0 10 0 0 0 10 10 0 0 0 10 0 0 0 10 10 0 0 0 10 0 0 0 10 10 0 0 0 10 0 0 0 10 10 0 0 0 10 0 0 0 10 10 0 0 0 10 0 0 0 10 10 0 0 0 10 0 0 0 10 10 0 0 0 10 0 0 0 10 10 0 0 0 10 0 0 0 10 10 0 0 0 10 0 0 0 10 10 0 0 0 10 0 0 0 10 
</DataArray>
<DataArray type="Float64" Name="cross_section" format="ascii">
4.4000000000000004 4.4000000000000004 4.4000000000000004 4.4000000000000004 4.4000000000000004 4.4000000000000004 4.4000000000000004 4.4000000000000004 4.4000000000000004 4.4000000000000004 4.4000000000000004 
</DataArray>
<DataArray type="Float64" Name="conductivity" format="ascii">
3 3 3 3 3 3 3 3 3 3 3 
</DataArray>
<DataArray type="Float64" Name="sigma" format="ascii">
0.59999999999999998 1.2 1 0.80000000000000004 0.29999999999999999 0.69999999999999996 1.3 0.40000000000000002 0.5 0.90000000000000002 1.1000000000000001 
</DataArray>
<DataArray type="Float64" Name="water_source_density" format="ascii">
24 24 24 24 24 24 24 24 24 24 24 
</DataArray>
<DataArray type="Float64" Name="storativity" format="ascii">
1 1 1 1 1 1 1 1 1 1 1 
</DataArray>
</CellData>
</Piece>
</UnstructuredGrid>
</VTKFile>
