<?xml version="1.0"?>
<VTKFile type="UnstructuredGrid" version="0.1" byte_order="LittleEndian">
<UnstructuredGrid>
<Piece NumberOfPoints="9" NumberOfCells="11">
<Points>
<DataArray type="Float64" NumberOfComponents="3" format="ascii">
0 0 0 0 1 0 1 0 0 1 0 2 0 1 2 0 0.5 1 0.5 0 1 0.5 0.49999999999999989 1 0 0 2 
</DataArray>
</Points>
<Cells>
<DataArray type="UInt32" Name="connectivity" format="ascii">
2 1 0 7 6 2 0 7 5 6 0 7 1 5 0 7 2 6 3 7 5 4 7 1 6 5 0 8 5 6 7 8 4 5 7 8 8 6 7 3 4 8 7 3 
</DataArray>
<DataArray type="UInt32" Name="offsets" format="ascii">
4 8 12 16 20 24 28 32 36 40 44 
</DataArray>
<DataArray type="UInt32" Name="types" format="ascii">
10 10 10 10 10 10 10 10 10 10 10 
</DataArray>
</Cells>
<CellData Scalars="pressure_p0,cross_section,conductivity,sigma,water_source_density," Vectors="velocity_p0," Tensors="anisotropy,">
<DataArray type="Float64" Name="pressure_p0" format="ascii">
0.052845560871876543 0.074326156299840296 0.068620414673046484 0.0368261562998402 0.097329877724614322 0.034829877724614919 0.032571770334928252 0.068620414673048205 0.036826156299842205 0.074326156299840365 0.052845560871876668 
</DataArray>
<DataArray type="Float64" Name="velocity_p0" NumberOfComponents="3" format="ascii">
-1.9377990430622234 1.0622009569377731 -31.062200956937783 -2.1435406698564488 -2.1244019138755457 -31.435406698564599 -5.4258373205742227 -2.4258373205742112 -32.000000000000192 -5.1244019138755572 0.85645933014359488 -31.435406698564549 1.138755980861142 -3.5527136788005011e-16 -29.999999999999993 -2.9999999999999964 4.1387559808613537 -30.000000000000142 -6.4258373205741552 -3.4258373205741606 -30.000000000000021 -5.4258373205740282 -2.4258373205750106 -28.000000000000199 -5.1244019138755181 0.85645933014382225 -28.564593301435035 -2.1435406698564234 -2.1244019138756904 -28.564593301435469 -1.9377990430622425 1.0622009569378448 -28.937799043062199 
</DataArray>
<DataArray type="Float64" Name="anisotropy" NumberOfComponents="9" format="ascii">
10 0 0 0 10 0 0 0 10 10 0 0 0 10 0 0 0 10 10 0 0 0 10 0 0 0 10 10 0 0 0 10 0 0 0 10 10 0 0 0 10 0 0 0 10 10 0 0 0 10 0 0 0 10 10 0 0 0 10 0 0 0 10 10 0 0 0 10 0 0 0 10 10 0 0 0 10 0 0 0 10 10 0 0 0 10 0 0 0 10 10 0 0 0 10 0 0 0 10 
</DataArray>
<DataArray type="Float64" Name="cross_section" format="ascii">
5 5 5 5 5 5 5 5 5 5 5 
</DataArray>
<DataArray type="Float64" Name="conductivity" format="ascii">
3 3 3 3 3 3 3 3 3 3 3 
</DataArray>
<DataArray type="Float64" Name="sigma" format="ascii">
0.59999999999999998 1.2 1 0.80000000000000004 0.29999999999999999 0.69999999999999996 1.3 0.40000000000000002 0.5 0.90000000000000002 1.1000000000000001 
</DataArray>
<DataArray type="Float64" Name="water_source_density" format="ascii">
24 24 24 24 24 24 24 24 24 24 24 
</DataArray>
</CellData>
</Piece>
</UnstructuredGrid>
</VTKFile>
