<?xml version="1.0"?>
<VTKFile type="UnstructuredGrid" version="0.1" byte_order="LittleEndian">
<UnstructuredGrid>
<Piece NumberOfPoints="510" NumberOfCells="942">
<Points>
<DataArray type="Float64" NumberOfComponents="3" format="ascii">
0.000000000000000e+00 0.000000000000000e+00 0.000000000000000e+00 0.000000000000000e+00 1.000000000000000e+00 0.000000000000000e+00 1.000000000000000e+00 1.000000000000000e+00 0.000000000000000e+00 1.000000000000000e+00 0.000000000000000e+00 0.000000000000000e+00 0.000000000000000e+00 5.263157894724208e-02 0.000000000000000e+00 0.000000000000000e+00 1.052631578944842e-01 0.000000000000000e+00 0.000000000000000e+00 1.578947368417263e-01 0.000000000000000e+00 0.000000000000000e+00 2.105263157889683e-01 0.000000000000000e+00 0.000000000000000e+00 2.631578947362221e-01 0.000000000000000e+00 0.000000000000000e+00 3.157894736835109e-01 0.000000000000000e+00 0.000000000000000e+00 3.684210526307997e-01 0.000000000000000e+00 0.000000000000000e+00 4.210526315780885e-01 0.000000000000000e+00 0.000000000000000e+00 4.736842105253773e-01 0.000000000000000e+00 0.000000000000000e+00 5.263157894727392e-01 0.000000000000000e+00 0.000000000000000e+00 5.789473684201740e-01 0.000000000000000e+00 0.000000000000000e+00 6.315789473676089e-01 0.000000000000000e+00 0.000000000000000e+00 6.842105263150439e-01 0.000000000000000e+00 0.000000000000000e+00 7.368421052624787e-01 0.000000000000000e+00 0.000000000000000e+00 7.894736842099684e-01 0.000000000000000e+00 0.000000000000000e+00 8.421052631574764e-01 0.000000000000000e+00 0.000000000000000e+00 8.947368421049843e-01 0.000000000000000e+00 0.000000000000000e+00 9.473684210524922e-01 0.000000000000000e+00 5.263157894724208e-02 1.000000000000000e+00 0.000000000000000e+00 1.052631578944842e-01 1.000000000000000e+00 0.000000000000000e+00 1.578947368417263e-01 1.000000000000000e+00 0.000000000000000e+00 2.105263157889683e-01 1.000000000000000e+00 0.000000000000000e+00 2.631578947362221e-01 1.000000000000000e+00 0.000000000000000e+00 3.157894736835109e-01 1.000000000000000e+00 0.000000000000000e+00 3.684210526307997e-01 1.000000000000000e+00 0.000000000000000e+00 4.210526315780885e-01 1.000000000000000e+00 0.000000000000000e+00 4.736842105253773e-01 1.000000000000000e+00 0.000000000000000e+00 5.263157894727392e-01 1.000000000000000e+00 0.000000000000000e+00 5.789473684201740e-01 1.000000000000000e+00 0.000000000000000e+00 6.315789473676089e-01 1.000000000000000e+00 0.000000000000000e+00 6.842105263150439e-01 1.000000000000000e+00 0.000000000000000e+00 7.368421052624787e-01 1.000000000000000e+00 0.000000000000000e+00 7.894736842099684e-01 1.000000000000000e+00 0.000000000000000e+00 8.421052631574764e-01 1.000000000000000e+00 0.000000000000000e+00 8.947368421049843e-01 1.000000000000000e+00 0.000000000000000e+00 9.473684210524922e-01 1.000000000000000e+00 0.000000000000000e+00 1.000000000000000e+00 9.473684210527046e-01 0.000000000000000e+00 1.000000000000000e+00 8.947368421054093e-01 0.000000000000000e+00 1.000000000000000e+00 8.421052631581138e-01 0.000000000000000e+00 1.000000000000000e+00 7.894736842108185e-01 0.000000000000000e+00 1.000000000000000e+00 7.368421052635596e-01 0.000000000000000e+00 1.000000000000000e+00 6.842105263164103e-01 0.000000000000000e+00 1.000000000000000e+00 6.315789473692610e-01 0.000000000000000e+00 1.000000000000000e+00 5.789473684221118e-01 0.000000000000000e+00 1.000000000000000e+00 5.263157894749624e-01 0.000000000000000e+00 1.000000000000000e+00 4.736842105276671e-01 0.000000000000000e+00 1.000000000000000e+00 4.210526315802255e-01 0.000000000000000e+00 1.000000000000000e+00 3.684210526327841e-01 0.000000000000000e+00 1.000000000000000e+00 3.157894736853426e-01 0.000000000000000e+00 1.000000000000000e+00 2.631578947379012e-01 0.000000000000000e+00 1.000000000000000e+00 2.105263157903502e-01 0.000000000000000e+00 1.000000000000000e+00 1.578947368427626e-01 0.000000000000000e+00 1.000000000000000e+00 1.052631578951750e-01 0.000000000000000e+00 1.000000000000000e+00 5.263157894758752e-02 0.000000000000000e+00 9.473684210527046e-01 0.000000000000000e+00 0.000000000000000e+00 8.947368421054093e-01 0.000000000000000e+00 0.000000000000000e+00 8.421052631581138e-01 0.000000000000000e+00 0.000000000000000e+00 7.894736842108185e-01 0.000000000000000e+00 0.000000000000000e+00 7.368421052635596e-01 0.000000000000000e+00 0.000000000000000e+00 6.842105263164103e-01 0.000000000000000e+00 0.000000000000000e+00 6.315789473692610e-01 0.000000000000000e+00 0.000000000000000e+00 5.789473684221118e-01 0.000000000000000e+00 0.000000000000000e+00 5.263157894749624e-01 0.000000000000000e+00 0.000000000000000e+00 4.736842105276671e-01 0.000000000000000e+00 0.000000000000000e+00 4.210526315802255e-01 0.000000000000000e+00 0.000000000000000e+00 3.684210526327841e-01 0.000000000000000e+00 0.000000000000000e+00 3.157894736853426e-01 0.000000000000000e+00 0.000000000000000e+00 2.631578947379012e-01 0.000000000000000e+00 0.000000000000000e+00 2.105263157903502e-01 0.000000000000000e+00 0.000000000000000e+00 1.578947368427626e-01 0.000000000000000e+00 0.000000000000000e+00 1.052631578951750e-01 0.000000000000000e+00 0.000000000000000e+00 5.263157894758752e-02 0.000000000000000e+00 0.000000000000000e+00 5.031605205316716e-01 4.972204671541604e-01 0.000000000000000e+00 7.018426345490237e-01 2.903961232561490e-01 0.000000000000000e+00 7.124371303406183e-01 7.090403108987684e-01 0.000000000000000e+00 2.959265031394954e-01 2.966663041294382e-01 0.000000000000000e+00 2.938186736531156e-01 7.067766661704963e-01 0.000000000000000e+00 7.801937928777617e-01 4.904391120978470e-01 0.000000000000000e+00 4.931688450815972e-01 2.090043942654225e-01 0.000000000000000e+00 5.076595809067114e-01 7.864384670220363e-01 0.000000000000000e+00 2.135556561893741e-01 5.065362727025884e-01 0.000000000000000e+00 1.650664472902759e-01 8.338016493463405e-01 0.000000000000000e+00 8.342573608178855e-01 8.350202932814157e-01 0.000000000000000e+00 1.662185978925142e-01 1.650759962470238e-01 0.000000000000000e+00 8.355533113566691e-01 1.666700417113507e-01 0.000000000000000e+00 6.519512560047181e-01 4.312189365808246e-01 0.000000000000000e+00 5.621362444622332e-01 6.475298679778593e-01 0.000000000000000e+00 4.294822249996804e-01 3.549700593229496e-01 0.000000000000000e+00 3.536320720593975e-01 5.735590631903335e-01 0.000000000000000e+00 8.479412021123137e-01 6.441783643631318e-01 0.000000000000000e+00 6.465300124854763e-01 1.543069656979213e-01 0.000000000000000e+00 3.538793194897916e-01 8.442389788902098e-01 0.000000000000000e+00 1.557822789109310e-01 3.538322345572719e-01 0.000000000000000e+00 8.460132357852174e-01 3.583090328733871e-01 0.000000000000000e+00 6.409161858563438e-01 8.499201512288731e-01 0.000000000000000e+00 3.582865798996975e-01 1.537687516567927e-01 0.000000000000000e+00 1.541020176305262e-01 6.424933554336261e-01 0.000000000000000e+00 6.771662389406350e-01 5.788258972593741e-01 0.000000000000000e+00 5.826653097442865e-01 3.227153096450745e-01 0.000000000000000e+00 4.405851692511507e-01 6.717155615406296e-01 0.000000000000000e+00 3.108661768679045e-01 4.401587694435696e-01 0.000000000000000e+00 8.903374935751628e-01 5.298317609647162e-01 0.000000000000000e+00 5.337636846781881e-01 1.119457793706089e-01 0.000000000000000e+00 4.638071633258602e-01 8.894176464235550e-01 0.000000000000000e+00 1.103440217916095e-01 4.632948884003149e-01 0.000000000000000e+00 8.824677636795267e-01 7.368504859991440e-01 0.000000000000000e+00 7.370212440244595e-01 1.097964253678729e-01 0.000000000000000e+00 2.631396110533883e-01 8.809959638333399e-01 0.000000000000000e+00 1.190164503433553e-01 2.631521887657299e-01 0.000000000000000e+00 7.443262711786142e-01 8.870417634529453e-01 0.000000000000000e+00 8.868891732995268e-01 2.560221101450181e-01 0.000000000000000e+00 1.133218330296390e-01 7.441525939691115e-01 0.000000000000000e+00 2.559203017974330e-01 1.133295436221165e-01 0.000000000000000e+00 7.424808716016663e-01 3.986138223761216e-01 0.000000000000000e+00 6.054188573345922e-01 7.456941782159050e-01 0.000000000000000e+00 3.975872913300728e-01 2.526241588284512e-01 0.000000000000000e+00 2.580577183819916e-01 6.036739595749223e-01 0.000000000000000e+00 6.142080896929100e-01 5.220348583106467e-01 0.000000000000000e+00 5.208873425879845e-01 3.990422995790012e-01 0.000000000000000e+00 8.801665666670318e-02 9.102492524341748e-01 0.000000000000000e+00 9.102746851557741e-01 9.119861045675308e-01 0.000000000000000e+00 8.975126566524898e-02 8.801675238434796e-02 0.000000000000000e+00 9.121416801897935e-01 8.974623443180933e-02 0.000000000000000e+00 2.567236372031509e-01 3.821817147517051e-01 0.000000000000000e+00 3.836391856424191e-01 7.416011822662060e-01 0.000000000000000e+00 9.061229917788641e-01 4.397661165780427e-01 0.000000000000000e+00 4.396213509955152e-01 9.333436263400724e-02 0.000000000000000e+00 5.637395784657693e-01 9.050557920462406e-01 0.000000000000000e+00 9.425593221899588e-02 5.600143706998297e-01 0.000000000000000e+00 8.002282847878114e-01 7.413173225210187e-01 0.000000000000000e+00 7.475917500378439e-01 2.096060652455219e-01 0.000000000000000e+00 2.599332046268639e-01 7.969400291049720e-01 0.000000000000000e+00 2.032842424601615e-01 2.601622424388323e-01 0.000000000000000e+00 7.069255671821791e-01 7.923707150543984e-01 0.000000000000000e+00 7.919804277156113e-01 2.945639063861095e-01 0.000000000000000e+00 2.091144006854190e-01 7.060131151561713e-01 0.000000000000000e+00 2.951311216040563e-01 2.095654819556469e-01 0.000000000000000e+00 4.976508486218936e-01 5.864607765828778e-01 0.000000000000000e+00 4.255382448089687e-01 4.475656033583242e-01 0.000000000000000e+00 7.732905559451674e-01 5.845670180351498e-01 0.000000000000000e+00 6.327830359598302e-01 2.420497192047414e-01 0.000000000000000e+00 7.020317895612186e-01 4.994170690152414e-01 0.000000000000000e+00 4.982282759495711e-01 3.074262406441871e-01 0.000000000000000e+00 3.400347475592928e-01 3.571757225350826e-01 0.00000000000000
[...]
<PointData Scalars="pressure_p1," Vectors="" Tensors="">
<DataArray type="Float64" Name="pressure_p1" format="ascii">
0.000000000000000e+00 0.000000000000000e+00 0.000000000000000e+00 0.000000000000000e+00 0.000000000000000e+00 0.000000000000000e+00 0.000000000000000e+00 0.000000000000000e+00 0.000000000000000e+00 0.000000000000000e+00 0.000000000000000e+00 0.000000000000000e+00 0.000000000000000e+00 0.000000000000000e+00 0.000000000000000e+00 0.000000000000000e+00 0.000000000000000e+00 0.000000000000000e+00 0.000000000000000e+00 0.000000000000000e+00 0.000000000000000e+00 0.000000000000000e+00 0.000000000000000e+00 0.000000000000000e+00 0.000000000000000e+00 0.000000000000000e+00 0.000000000000000e+00 0.000000000000000e+00 0.000000000000000e+00 0.000000000000000e+00 0.000000000000000e+00 0.000000000000000e+00 0.000000000000000e+00 0.000000000000000e+00 0.000000000000000e+00 0.000000000000000e+00 0.000000000000000e+00 0.000000000000000e+00 0.000000000000000e+00 0.000000000000000e+00 0.000000000000000e+00 0.000000000000000e+00 0.000000000000000e+00 0.000000000000000e+00 0.000000000000000e+00 0.000000000000000e+00 0.000000000000000e+00 0.000000000000000e+00 0.000000000000000e+00 0.000000000000000e+00 0.000000000000000e+00 0.000000000000000e+00 0.000000000000000e+00 0.000000000000000e+00 0.000000000000000e+00 0.000000000000000e+00 0.000000000000000e+00 0.000000000000000e+00 0.000000000000000e+00 0.000000000000000e+00 0.000000000000000e+00 0.000000000000000e+00 0.000000000000000e+00 0.000000000000000e+00 0.000000000000000e+00 0.000000000000000e+00 0.000000000000000e+00 0.000000000000000e+00 0.000000000000000e+00 0.000000000000000e+00 0.000000000000000e+00 0.000000000000000e+00 0.000000000000000e+00 0.000000000000000e+00 0.000000000000000e+00 0.000000000000000e+00 0.000000000000000e+00 0.000000000000000e+00 0.000000000000000e+00 0.000000000000000e+00 0.000000000000000e+00 0.000000000000000e+00 0.000000000000000e+00 0.000000000000000e+00 0.000000000000000e+00 0.000000000000000e+00 0.000000000000000e+00 0.000000000000000e+00 0.000000000000000e+00 0.000000000000000e+00 0.000000000000000e+00 0.000000000000000e+00 0.000000000000000e+00 0.000000000000000e+00 0.000000000000000e+00 0.000000000000000e+00 0.000000000000000e+00 0.000000000000000e+00 0.000000000000000e+00 0.000000000000000e+00 0.000000000000000e+00 0.000000000000000e+00 0.000000000000000e+00 0.000000000000000e+00 0.000000000000000e+00 0.000000000000000e+00 0.000000000000000e+00 0.000000000000000e+00 0.000000000000000e+00 0.000000000000000e+00 0.000000000000000e+00 0.000000000000000e+00 0.000000000000000e+00 0.000000000000000e+00 0.000000000000000e+00 0.000000000000000e+00 0.000000000000000e+00 0.000000000000000e+00 0.000000000000000e+00 0.000000000000000e+00 0.000000000000000e+00 0.000000000000000e+00 0.000000000000000e+00 0.000000000000000e+00 0.000000000000000e+00 0.000000000000000e+00 0.000000000000000e+00 0.000000000000000e+00 0.000000000000000e+00 0.000000000000000e+00 0.000000000000000e+00 0.000000000000000e+00 0.000000000000000e+00 0.000000000000000e+00 0.000000000000000e+00 0.000000000000000e+00 0.000000000000000e+00 0.000000000000000e+00 0.000000000000000e+00 0.000000000000000e+00 0.000000000000000e+00 0.000000000000000e+00 0.000000000000000e+00 0.000000000000000e+00 0.000000000000000e+00 0.000000000000000e+00 0.000000000000000e+00 0.000000000000000e+00 0.000000000000000e+00 0.000000000000000e+00 0.000000000000000e+00 0.000000000000000e+00 0.000000000000000e+00 0.000000000000000e+00 0.000000000000000e+00 0.000000000000000e+00 0.000000000000000e+00 0.000000000000000e+00 0.000000000000000e+00 0.000000000000000e+00 0.000000000000000e+00 0.000000000000000e+00 0.000000000000000e+00 0.000000000000000e+00 0.000000000000000e+00 0.000000000000000e+00 0.000000000000000e+00 0.000000000000000e+00 0.000000000000000e+00 0.000000000000000e+00 0.000000000000000e+00 0.000000000000000e+00 0.000000000000000e+00 0.000000000000000e+00 0.000000000000000e+00 0.000000000000000e+00 0.000000000000000e+00 0.000000000000000e+00 0.000000000000000e+00 0.000000000000000e+00 0.000000000000000e+00 0.000000000000000e+00 0.000000000000000e+00 0.000000000000000e+00 0.000000000000000e+00 0.000000000000000e+00 0.000000000000000e+00 0.000000000000000e+00 0.000000000000000e+00 0.000000000000000e+00 0.000000000000000e+00 0.000000000000000e+00 0.000000000000000e+00 0.000000000000000e+00 0.000000000000000e+00 0.000000000000000e+00 0.000000000000000e+00 0.000000000000000e+00 0.000000000000000e+00 0.000000000000000e+00 0.000000000000000e+00 0.000000000000000e+00 0.000000000000000e+00 0.000000000000000e+00 0.000000000000000e+00 0.000000000000000e+00 0.000000000000000e+00 0.000000000000000e+00 0.000000000000000e+00 0.000000000000000e+00 0.000000000000000e+00 0.000000000000000e+00 0.000000000000000e+00 0.000000000000000e+00 0.000000000000000e+00 0.000000000000000e+00 0.000000000000000e+00 0.000000000000000e+00 0.000000000000000e+00 0.000000000000000e+00 0.000000000000000e+00 0.000000000000000e+00 0.000000000000000e+00 0.000000000000000e+00 0.000000000000000e+00 0.000000000000000e+00 0.000000000000000e+00 0.000000000000000e+00 0.000000000000000e+00 0.000000000000000e+00 0.000000000000000e+00 0.000000000000000e+00 0.000000000000000e+00 0.000000000000000e+00 0.000000000000000e+00 0.000000000000000e+00 0.000000000000000e+00 0.000000000000000e+00 0.000000000000000e+00 0.000000000000000e+00 0.000000000000000e+00 0.000000000000000e+00 0.000000000000000e+00 0.000000000000000e+00 0.000000000000000e+00 0.000000000000000e+00 0.000000000000000e+00 0.000000000000000e+00 0.000000000000000e+00 0.000000000000000e+00 0.000000000000000e+00 0.000000000000000e+00 0.000000000000000e+00 0.000000000000000e+00 0.000000000000000e+00 0.000000000000000e+00 0.000000000000000e+00 0.000000000000000e+00 0.000000000000000e+00 0.000000000000000e+00 0.000000000000000e+00 0.000000000000000e+00 0.000000000000000e+00 0.000000000000000e+00 0.000000000000000e+00 0.000000000000000e+00 0.000000000000000e+00 0.000000000000000e+00 0.000000000000000e+00 0.000000000000000e+00 0.000000000000000e+00 0.000000000000000e+00 0.000000000000000e+00 0.000000000000000e+00 0.000000000000000e+00 0.000000000000000e+00 0.000000000000000e+00 0.000000000000000e+00 0.000000000000000e+00 0.000000000000000e+00 0.000000000000000e+00 0.000000000000000e+00 0.000000000000000e+00 0.000000000000000e+00 0.000000000000000e+00 0.000000000000000e+00 0.000000000000000e+00 0.000000000000000e+00 0.000000000000000e+00 0.000000000000000e+00 0.000000000000000e+00 0.000000000000000e+00 0.000000000000000e+00 0.000000000000000e+00 0.000000000000000e+00 0.000000000000000e+00 0.000000000000000e+00 0.000000000000000e+00 0.000000000000000e+00 0.000000000000000e+00 0.000000000000000e+00 0.000000000000000e+00 0.000000000000000e+00 0.000000000000000e+00 0.000000000000000e+00 0.000000000000000e+00 0.000000000000000e+00 0.000000000000000e+00 0.000000000000000e+00 0.000000000000000e+00 0.000000000000000e+00 0.000000000000000e+00 0.000000000000000e+00 0.000000000000000e+00 0.000000000000000e+00 0.000000000000000e+00 0.000000000000000e+00 0.000000000000000e+00 0.000000000000000e+00 0.000000000000000e+00 0.000000000000000e+00 0.000000000000000e+00 0.000000000000000e+00 0.000000000000000e+00 0.000000000000000e+00 0.000000000000000e+00 0.000000000000000e+00 0.000000000000000e+00 0.000000000000000e+00 0.000000000000000e+00 0.000000000000000e+00 0.000000000000000e+00 0.000000000000000e+00 0.000000000000000e+00 0.000000000000000e+00 0.000000000000000e+00 0.000000000000000e+00 0.000000000000000e+00 0.000000000000000e+00 0.000000000000000e+00 0.000000000000000e+00 0.000000000000000e+00 0.000000000000000e+00 0.000000000000000e+00 0.000000000000000e+00 0.000000000000000e+00 0.000000000000000e+00 0.000000000000000e+00 0.000000000000000e+00 0.000000000000000e+00 0.000000000000000e+00 0.000000000000000e+00 0.000000000000000e+00 0.000000000000000e+00 0.000000000000000e+00 0.000000000000000e+00 0.000000000000000e+00 0.000000000000000e+00 0.000000000000000e+00 0.000000000000000e+00 0.000000000000000e+00 0.000000000000000e+00 0.000000000000000e+00 0.000000000000000e+00 0.000000000000000e+00 0.000000000000000e+00 0.000000000000000e+00 0.000000000000000e+00 0.000000000000000e+00 0.000000000000000e+00 0.000000000000000e+00 0.000000000000000e+00 0.000000000000000e+00 0.000000000000000e+00 0.000000000000000e+00 0.000000000000000e+00 0.000000000000000e+00 0.000000000000000e+00 0.000000000000000e+00 0.000000000000000e+00 0.000000000000000e+00 0.000000000000000e+00 0.000000000000000e+00 0.000000000000000e+00 0.000000000000000e+00 0.000000000000000e+00 0.000000000000000e+00 0.000000000000000e+00 0.000000000000000e+00 0.000000000000000e+00 0.000000000000000e+00 0.000000000000000e+00 0.000000000000000e+00 0.000000000000000e+00 0.000000000000000e+00 0.000000000000000e+00 0.000000000000000e+00 0.000000000000000e+00 0.000000000000000e+00 0.000000000000000e+00 0.000000000000000e+00 0.000000000000000e+00 0.000000000000000e+00 0.000000000000000e+00 0.000000000000000e+00 0.000000000000000e+00 0.000000000000000e+00 0.000000000000000e+00 0.000000000000000e+00 0.000000000000000e+00 0.000000000000000e+00 0.000000000000000e+00 0.000000000000000e+00 0.000000000000000e+00 0.000000000000000e+00 0.000000000000000e+00 0.000000000000000e+00 0.000000000000000e+00 0.000000000000000e+00 0.000000000000000e+00 0.000000000000000e+00 0.000000000000000e+00 0.000000000000000e+00 0.000000000000000e+00 0.000000000000000e+00 0.000000000000000e+00 0.000000000000000e+00 0.000000000000000e+00 0.000000000000000e+00 0.000000000000000e+00 0.000000000000000e+00 0.000000000000000e+00 0.000000000000000e+00 0.000000000000000e+00 0.000000000000000e+00 0.000000000000000e+00 0.000000000000000e+00 0.000000000000000e+00 0.000000000000000e+00 0.000000000000000e+00 0.000000000000000e+00 0.000000000000000e+00 0.000000000000000e+00 0.000000000000000e+00 0.000000000000000e+00 0.000000000000000e+00 0.000000000000000e+00 0.000000000000000e+00 0.000000000000000e+00 0.000000000000000e+00 0.000000000000000e+00 0.000000000000000e+00 0.000000000000000e+00 0.000000000000000e+00 0.000000000000000e+00 0.000000000000000e+00 0.000000000000000e+00 0.000000000000000e+00 0.000000000000000e+00 0.000000000000000e+00 0.000000000000000e+00 0.000000000000000e+00 0.000000000000000e+00 0.000000000000000e+00 0.000000000000000e+00 0.000000000000000e+00 0.000000000000000e+00 0.000000000000000e+00 0.000000000000000e+00 0.000000000000000e+00 0.000000000000000e+00 0.000000000000000e+00 0.000000000000000e+00 0.000000000000000e+00 0.000000000000000e+00 0.000000000000000e+00 0.000000000000000e+00 0.000000000000000e+00 0.000000000000000e+00 0.000000000000000e+00 0.000000000000000e+00 0.000000000000000e+00 0.000000000000000e+00 0.000000000000000e+00 0.000000000000000e+00 0.000000000000000e+00 0.000000000000000e+00 0.000000000000000e+00 0.000000000000000e+00 0.000000000000000e+00 0.000000000000000e+00 0.000000000000000e+00 0.000000000000000e+00 0.000000000000000e+00 0.000000000000000e+00 0.000000000000000e+00 0.000000000000000e+00 0.000000000000000e+00 0.000000000000000e+00 0.000000000000000e+00 0.000000000000000e+00 0.000000000000000e+00 0.000000000000000e+00 0.000000000000000e+00 0.000000000000000e+00 0.000000000000000e+00 0.000000000000000e+00 0.000000000000000e+00 0.000000000000000e+00 0.000000000000000e+00 
</DataArray>
</PointData>
<CellData Scalars="pressure_p0," Vectors="velocity_p0," Tensors="">
<DataArray type="Float64" Name="pressure_p0" format="ascii">