<?xml version="1.0"?>
<VTKFile type="UnstructuredGrid" version="0.1" byte_order="LittleEndian">
<UnstructuredGrid>
<Piece NumberOfPoints="360" NumberOfCells="124">
<Points>
<DataArray type="Float64" NumberOfComponents="3" format="ascii">
0 0 0 0.084352422163911631 0.086451712656266194 0 0 0.12500000000034689 0 0 0 0 0.084352422163911631 0.086451712656266194 0 0.1249999999997554 0 0 0 0.12500000000034689 0 0.1008171452988615 0.18885703697250469 0 0 0.25 0 0.084352422163911631 0.086451712656266194 0 0 0.12500000000034689 0 0.1008171452988615 0.18885703697250469 0 0.084352422163911631 0.086451712656266194 0 0.1008171452988615 0.18885703697250469 0 0.18402761812864499 0.1117324051466445 0 0.1008171452988615 0.18885703697250469 0 0.2403886547178353 0.24188814792673841 0 0.1249999999997599 0.31249999999987998 0 0.1008171452988615 0.18885703697250469 0 0.2403886547178353 0.24188814792673841 0 0.18402761812864499 0.1117324051466445 0 0.2403886547178353 0.24188814792673841 0 0.18402761812864499 0.1117324051466445 0 0.31250000000020822 0.12500000000041631 0 0.1249999999997554 0 0 0.18402761812864499 0.1117324051466445 0 0.25 -0 0 0.18402761812864499 0.1117324051466445 0 0.25 -0 0 0.31250000000020822 0.12500000000041631 0 0.084352422163911631 0.086451712656266194 0 0.1249999999997554 0 0 0.18402761812864499 0.1117324051466445 0 0.25 -0 0 0.31250000000020822 0.12500000000041631 0 0.25 -0 0 0.31250000000020822 0.12500000000041631 0 0.43749999999913258 0 0 0.2403886547178353 0.24188814792673841 0 0.31250000000020822 0.12500000000041631 0 0.37500000000027761 0.25000000000055511 0 0.31250000000020822 0.12500000000041631 0 0.37500000000027761 0.25000000000055511 0 0.31250000000020822 0.12500000000041631 0 0.4287911518546233 0.15455445427966699 0 0.37500000000027761 0.25000000000055511 0 0.4287911518546233 0.15455445427966699 0 0.49457493289300231 0.26251703776555491 0 0.37500000000027761 0.25000000000055511 0 0.4287911518546233 0.15455445427966699 0 0.49457493289300231 0.26251703776555491 0 0.54475767668582953 0.1431838882066932 0 0.31250000000020822 0.12500000000041631 0 0.4287911518546233 0.15455445427966699 0 0.43749999999913258 0 0 0.4287911518546233 0.15455445427966699 0 0.43749999999913258 0 0 0.54475767668582953 0.1431838882066932 0 0.37499999999973488 0.43749999999986738 0 0.5 0.5 -0 0.43750000000006939 0.37500000000013878 0 0.37499999999973488 0.43749999999986738 0 0.5 0.5 -0 0.43750000000006939 0.37500000000013878 0 0.33819444444448321 0.33819444444456342 0 0.37499999999973488 0.43749999999986738 0 0.43750000000006939 0.37500000000013878 0 0.5 0.5 -0 0.43750000000006939 0.37500000000013878 0 0.49457493289300231 0.26251703776555491 0 0.37500000000027761 0.25000000000055511 0 0.43750000000006939 0.37500000000013878 0 0.37500000000027761 0.25000000000055511 0 0.43750000000006939 0.37500000000013878 0 0.37500000000027761 0.25000000000055511 0 0.33819444444448321 0.33819444444456342 0 0.2403886547178353 0.24188814792673841 0 0.33819444444448321 0.33819444444456342 0 0.24999999999960859 0.37499999999980432 0 0.2403886547178353 0.24188814792673841 0 0.37500000000027761 0.25000000000055511 0 0.33819444444448321 0.33819444444456342 0 0.33819444444448321 0.33819444444456342 0 0.37499999999973488 0.43749999999986738 0 0.24999999999960859 0.37499999999980432 0 0.37499999999973488 0.43749999999986738 0 0.24999999999960859 0.37499999999980432 0 0.37499999999973488 0.43749999999986738 0 0.24999999999960859 0.37499999999980432 0 0.26452443700674649 0.51563531581639865 0 0.14929124186975251 0.44582793568106382 0 0.24999999999960859 0.37499999999980432 0 0.26452443700674649 0.51563531581639865 0 0.14929124186975251 0.44582793568106382 0 0.24999999999960859 0.37499999999980432 0 0.1249999999997599 0.31249999999987998 0 0.2403886547178353 0.24188814792673841 0 0.24999999999960859 0.37499999999980432 0 0.1249999999997599 0.31249999999987998 0 0.24999999999960859 0.37499999999980432 0 0.1249999999997599 0.31249999999987998 0 0.1249999999997599 0.31249999999987998 0 0 0.25 0 0 0.43750000000034689 0 0.1008171452988615 0.18885703697250469 0 0.1249999999997599 0.31249999999987998 0 0 0.25 0 0.1249999999997599 0.31249999999987998 0 0 0.25 0 0.14929124186975251 0.44582793568106382 0 0 0.43750000000034689 0 0.13928587515912139 0.57339806105677438 0 0.14929124186975251 0.44582793568106382 0 0.1249999999997599 0.31249999999987998 0 0 0.43750000000034689 0 0 0.43750000000034689 0 0 0.62500000000069389 0 0.13928587515912139 0.57339806105677438 0 0 0.62500000000069389 0 0.13900789599611679 0.72618316107059999 0 0.13928587515912139 0.57339806105677438 0 0 0.62500000000069389 0 0.13900789599611679 0.72618316107059999 0 0 0.81250000000104083 0 0.13900789599611679 0.72618316107059999 0 0.13928587515912139 0.57339806105677438 0 0.27589467050686478 0.66058853156435704 0 0.13900789599611679 0.72618316107059999 0 0.27987960212930818 0.83442741470570525 0 0.27589467050686478 0.66058853156435704 0 0.13928587515912139 0.57339806105677438 0 0.26452443700674649 0.51563531581639865 0 0.27589467050686478 0.66058853156435704 0 0.14929124186975251 0.44582793568106382 0 0.13928587515912139 0.57339806105677438 0 0.26452443700674649 0.51563531581639865 0 0 1 0 0.12710107136012311 0.87094806618203435 0 0.1875000000005205 1 0 0 1 0 0 0.81250000000104083 0 0.12710107136012311 0.87094806618203435 0 0.13900789599611679 0.72618316107059999 0 0 0.81250000000104083 0 0.12710107136012311 0.87094806618203435 0 0.13900789599611679 0.72618316107059999 0 0.12710107136012311 0.87094806618203435 0 0.27987960212930818 0.83442741470570525 0 0.12710107136012311 0.87094806618203435 0 0.1875000000005205 1 0 0.27987960212930818 0.83442741470570525 0 0.27987960212930818 0.83442741470570525 0 0.44927105396715372 0.85565124085155886 0 0.37500000000069389 1 0 0.1875000000005205 1 0 0.27987960212930818 0.83442741470570525 0 0.37500000000069389 1 0 0.27987960212930818 0.83442741470570525 0 0.44927105396715372 0.85565124085155886 0 0.38136204680495073 0.74038592213831234 0 0.44927105396715372 0.85565124085155886 0 0.38136204680495073 0.74038592213831234 0 0.50145856933078625 0.73674663046504862 0 0.44927105396715372 0.85565124085155886 0 0.37500000000069389 1 0 0.56250000000086742 1 0 0.26452443700674649 0.51563531581639865 0 0.27589467050686478 0.66058853156435704 0 0.4139414069912184 0.60563252640100373 0 0.37499999999973488 0.43749999999986738 0 0.26452443700674649 0.51563531581639865 0 0.4139414069912184 0.60563252640100373 0 0.27987960212930818 0.83442741470570525 0 0.27589467050686478 0.66058853156435704 0 0.38136204680495073 0.74038592213831234 0 0.27589467050686478 0.66058853156435704 0 0.38136204680495073 0.74038592213831234 0 0.4139414069912184 0.60563252640100373 0 0.38136204680495073 0.74038592213831234 0 0.4139414069912184 0.60563252640100373 0 0.50145856933078625 0.73674663046504862 0 0.4139414069912184 0.60563252640100373 0 0.50145856933078625 0.73674663046504862 0 0.5625 0.625 0 0.37499999999973488 0.43749999999986738 0 0.4139414069912184 0.60563252640100373 0 0.5 0.5 -0 0.4139414069912184 0.60563252640100373 0 0.5 0.5 -0 0.5625 0.625 0 0.5 0.5 -0 0.5625 0.625 0 0.63236534182377013 0.50296756406332266 0 0.5 0.5 -0 0.5625 0.625 0 0.50145856933078625 0.73674663046504862 0 0.5625 0.625 0 0.625 0.75 0 0.5625 0.625 0 0.625 0.75 0 0.71259747807844409 0.63846691315701831 0 0.625 0.75 0 0.73857795170433571 0.77736788564284653 0 0.5625 0.625 0 0.71259747807844409 0.63846691315701831 0 0.625 0.75 0 0.71259747807844409 0.63846691315701831 0 0.63236534182377013 0.50296756406332266 0 0.75338430262320943 0.49294443423175599 0 0.5625 0.625 0 0.71259747807844409 0.63846691315701831 0 0.63236534182377013 0.50296756406332266 0 0.56250000000086742 1 0 0.56777512057187585 0.8470224641095303 0 0.6875 0.875 0 0.44927105396715372 0.85565124085155886 0 0.56250000000086742 1 0 0.56777512057187585 0.8470224641095303 0 0.44927105396715372 0.85565124085155886 0 0.50145856933078625 0.73674663046504862 0 0.56777512057187585 0.8470224641095303 0 0.50145856933078625 0.73674663046504862 0 0.56777512057187585 0.8470224641095303 0 0.625 0.75 0 0.625 0.75 0 0.73857795170433571 0.77736788564284653 0 0.6875 0.875 0 0.73857795170433571 0.77736788564284653 0 0.6875 0.875 0 0.80552984491000901 0.88711122872127413 0 0.625 0.75 0 0.6875 0.875 0 0.56777512057187585 0.8470224641095303 0 0.625 0.75 0 0.6875 0.875 0 0.56250000000086742 1 0 0.6875 0.875 0 0.75 1 0 0.6875 0.875 0 0.75 1 0 0.80552984491000901 0.88711122872127413 0 0.6875 0.875 0 0.75 1 0 0.75 1 0 0.80552984491000901 0.88711122872127413 0 0.875 1 0 0.80552984491000901 0.88711122872127413 0 0.90637953422180084 0.90208583328057301 0 0.875 1 0 0.80552984491000901 0.88711122872127413 0 0.85787927391517405 0.753532520882502 0 0.90637953422180084 0.90208583328057301 0 0.73857795170433571 0.77736788564284653 0 0.80552984491000901 0.88711122872127413 0 0.85787927391517405 0.753532520882502 0 0.85787927391517405 0.753532520882502 0 1 0.83333333333356463 0 1 0.66666666666736052 0 0.85787927391517405 0.753532520882502 0 1 0.83333333333356463 0 0.90637953422180084 0.90208583328057301 0 1 0.83333333333356463 0 0.90637953422180084 0.90208583328057301 0 1 1 0 0.90637953422180084 0.90208583328057301 0 1 1 0 0.875 1 0 0.71259747807844409 0.63846691315701831 0 0.86127466977819722 0.57948076978797636 0 0.75338430262320943 0.49294443423175599 0 0.71259747807844409 0.63846691315701831 0 0.85787927391517405 0.753532520882502 0 0.86127466977819722 0.57948076978797636 0 0.71259747807844409 0.63846691315701831 0 0.73857795170433571 0.77736788564284653 0 0.85787927391517405 0.753532520882502 0 0.85787927391517405 0.753532520882502 0 0.86127466977819722 0.57948076978797636 0 1 0.66666666666736052 0 0.86127466977819722 0.57948076978797636 0 1 0.66666666666736052 0 1 0.50000000000138767 0 1 0.50000000000138767 0 0.86569408477091048 0.40983673916766611 0 1 0.33333333333448978 0 0.86127466977819722 0.57948076978797636 0 1 0.50000000000138767 0 0.86569408477091048 0.40983673916766611 0 0.86127466977819722 0.57948076978797636 0 0.75338430262320943 0.49294443423175599 0 0.86569408477091048 0.40983673916766611 0 0.75338430262320943 0.49294443423175599 0 0.86569408477091048 0.40983673916766611 0 0.71826039492840632 0.34564020717216182 0 0.86087286690217635 0.25206523597959418 0 0.71508993406183785 0.15715956854777599 0 0.71826039492840632 0.34564020717216182 0 0.86569408477091048 0.40983673916766611 0 0.86087286690217635 0.25206523597959418 0 0.71826039492840632 0.34564020717216182 0 0.86087286690217635 0.25206523597959418 0 1 0.33333333333448978 0 1 0.16666666666736049 0 0.86569408477091048 0.40983673916766611 0 0.86087286690217635 0.25206523597959418 0 1 0.33333333333448978 0 0.86087286690217635 0.25206523597959418 0 1 0.16666666666736049 0 0.87698901648812122 0.1160638338657984 0 1 0 0 0.87698901648812122 0.1160638338657984 0 0.81249999999947953 0 0 1 0.16666666666736049 0 1 0 0 0.87698901648812122 0.1160638338657984 0 0.87698901648812122 0.1160638338657984 0 0.81249999999947953 0 0 0.71508993406183785 0.15715956854777599 0 0.86087286690217635 0.25206523597959418 0 0.87698901648812122 0.1160638338657984 0 0.71508993406183785 0.15715956854777599 0 0.71508993406183785 0.15715956854777599 0 0.62499999999895905 0 0 0.54475767668582953 0.1431838882066932 0 0.81249999999947953 0 0 0.71508993406183785 0.15715956854777599 0 0.62499999999895905 0 0 0.43749999999913258 0 0 0.62499999999895905 0 0 0.54475767668582953 0.1431838882066932 0 0.71508993406183785 0.15715956854777599 0 0.54475767668582953 0.1431838882066932 0 0.61108462585082757 0.25750599582343231 0 0.49457493289300231 0.26251703776555491 0 0.54475767668582953 0.1431838882066932 0 0.61108462585082757 0.25750599582343231 0 0.49457493289300231 0.26251703776555491 0 0.61108462585082757 0.25750599582343231 0 0.56986707178436635 0.37762093650871992 0 0.43750000000006939 0.37500000000013878 0 0.49457493289300231 0.26251703776555491 0 0.56986707178436635 0.37762093650871992 0 0.43750000000006939 0.37500000000013878 0 0.5 0.5 -0 0.56986707178436635 0.37762093650871992 0 0.5 0.5 -0 0.63236534182377013 0.50296756406332266 0 0.56986707178436635 0.37762093650871992 0 0.63236534182377013 0.50296756406332266 0 0.75338430262320943 0.49294443423175599 0 0.71826039492840632 0.34564020717216182 0 0.63236534182377013 0.50296756406332266 0 0.56986707178436635 0.37762093650871992 0 0.71826039492840632 0.34564020717216182 0 0.71508993406183785 0.15715956854777599 0 0.61108462585082757 0.25750599582343231 0 0.71826039492840632 0.34564020717216182 0 0.61108462585082757 0.25750599582343231 0 0.56986707178436635 0.37762093650871992 0 0.71826039492840632 0.34564020717216182 0 
</DataArray>
</Points>
<Cells>
<DataArray type="UInt32" Name="connectivity" format="ascii">
0 1 2 3 4 5 6 7 8 9 10 11 12 13 14 15 16 17 18 19 20 21 22 23 24 25 26 27 28 29 30 31 32 33 34 35 36 37 38 39 40 41 42 43 44 45 46 47 48 49 50 51 52 53 54 55 56 57 58 59 60 61 62 63 64 65 66 67 68 69 70 71 72 73 74 75 76 77 78 79 80 81 82 83 84 85 86 87 88 89 90 91 92 93 94 95 96 97 98 99 100 101 102 103 104 105 106 107 108 109 110 111 112 113 114 115 116 117 118 119 120 121 122 123 124 125 126 127 128 129 130 131 132 133 134 135 136 137 138 139 140 141 142 143 144 145 146 147 148 149 150 151 152 153 154 155 156 157 158 159 160 161 162 163 164 165 166 167 168 169 170 171 172 173 174 175 176 177 178 179 180 181 182 183 184 185 186 187 188 189 190 191 192 193 194 195 196 197 198 199 200 201 202 203 204 205 206 207 208 209 210 211 212 213 214 215 216 217 218 219 220 221 222 223 224 225 226 227 228 229 230 231 232 233 234 235 236 237 238 239 240 241 242 243 244 245 246 247 248 249 250 251 252 253 254 255 256 257 258 259 260 261 262 263 264 265 266 267 268 269 270 271 272 273 274 275 276 277 278 279 280 281 282 283 284 285 286 287 288 289 290 291 292 293 294 295 296 297 298 299 300 301 302 303 304 305 306 307 308 309 310 311 312 313 314 315 316 317 318 319 320 321 322 323 324 325 326 327 328 329 330 331 332 333 334 335 336 337 338 339 340 341 342 343 344 345 346 347 348 349 350 351 352 353 354 355 356 357 358 359 
</DataArray>
<DataArray type="UInt32" Name="offsets" format="ascii">
3 6 9 12 15 18 21 24 27 30 33 35 38 41 43 46 49 52 55 58 60 63 66 68 71 73 76 79 82 85 87 90 93 96 99 101 104 107 109 112 115 118 121 124 127 130 133 136 139 142 145 148 151 154 157 160 163 166 169 172 175 178 181 184 187 190 193 195 198 200 203 206 209 212 215 218 221 224 227 230 232 235 238 241 243 246 249 252 255 258 261 264 267 270 273 276 279 282 285 288 291 294 297 300 303 306 309 312 315 318 321 324 327 330 333 336 339 342 345 348 351 354 357 360 
</DataArray>
<DataArray type="UInt32" Name="types" format="ascii">
5 5 5 5 5 5 5 5 5 5 5 3 5 5 3 5 5 5 5 5 3 5 5 3 5 3 5 5 5 5 3 5 5 5 5 3 5 5 3 5 5 5 5 5 5 5 5 5 5 5 5 5 5 5 5 5 5 5 5 5 5 5 5 5 5 5 5 3 5 3 5 5 5 5 5 5 5 5 5 5 3 5 5 5 3 5 5 5 5 5 5 5 5 5 5 5 5 5 5 5 5 5 5 5 5 5 5 5 5 5 5 5 5 5 5 5 5 5 5 5 5 5 5 5 
</DataArray>
</Cells>
<PointData Scalars="age_conc,U235_conc," Vectors="" Tensors="">
<DataArray type="Float64" Name="age_conc" format="ascii">
249507.61793657677 249816.9133561503 251335.81046525258 249594.47789491116 250010.5997995146 251275.6928166147 252624.68746068282 252525.15661584723 233255.504717654 249737.52569925101 251583.63280739408 251497.4916510082 250211.72796325394 251222.23473731452 251789.23020968633 250895.33615218799 257831.29334507047 227205.96473457289 251166.663886097 256485.46155459597 251905.17959356177 257629.41308099512 252005.48258684791 228731.00503961372 251797.72470159217 252824.42266529502 234791.10956818445 254923.68290513271 231745.36985793032 227268.29288797395 249975.94487565372 251457.08478478054 251973.18574032711 226230.74986048829 216916.4568547268 249994.45532333083 249968.9519580176 250069.11583756795 261607.09031291067 223643.13850685279 216702.45925724669 216765.80788223652 203797.42567493833 249999.49095539653 250000.14228592927 250009.98356559573 249996.74169934282 250021.88505470572 250014.25588115788 249988.75093231458 250001.61456608213 250040.45907315222 249963.72664364125 249982.58073047793 250070.07313866625 249996.88196914349 250078.2687867464 250012.23922175233 177968.6454944835 142830.0244446299 214019.11717499697 210987.67274229825 153989.49902011562 215609.3130126757 247767.13526497752 213401.76467629612 183473.5172448839 145436.5401345953 249886.93787521351 250039.30943900626 250007.94822016775 184045.39478095196 203512.95378757422 203103.87383469701 207283.38735195354 257543.67351698954 262912.95319344039 254885.05520796057 213959.0641946597 262495.8916557706 216042.43078230557 254244.35602384614 258592.94652834808 200115.33234201994 204569.33893499995 178815.72300244353 200106.57210261957 254200.32284256164 249996.69734459717 248553.56868219154 250173.96427457884 249556.90792849401 249314.55696248644 250132.24141987457 249615.75766367416 249999.22561710532 262247.12327969261 214453.74141391716 221778.20373387865 200387.92468917204 214377.78686221151 249996.08390734953 249993.3067151696 250079.711916545 254635.44944775163 225133.54427491219 229949.28781446934 214535.63153137677 224579.6234012483 249743.80044020101 250264.32216948169 249624.21585480741 249909.99728914237 249990.29122588303 250093.45892591443 250292.41596853477 248992.67291285106 251102.88523721808 248991.21708014418 253035.12942637681 251211.9115187783 250561.89488608591 248372.74890516192 251869.51109161627 255564.05614009182 249362.2226504542 248616.99363945454 256437.30826891316 239303.00179251106 248815.12422953456 249064.2456495924 250246.41563373231 249533.92870121414 250060.6817403546 249174.98368842088 250195.83616788112 16769.604674011469 223741.85994400753 20160.318621238355 39095.357805229003 259383.50434570483 216835.79875002394 250319.67572009822 249178.9963252302 213341.84781462152 265808.07436554984 201209.16413221665 239022.13667349078 193413.86901564684 40607.692377651838 237385.45805171755 219437.08491444061 221144.34768682483 38267.480448258117 22906.379954269523 249824.2692142404 23116.234555210391 225418.07552854213 224323.27628744015 257244.15529958747 212756.00013674609 242762.11805666331 257370.32881523506 232693.45139920438 13003.325961139712 16632.442683666177 249829.89483082568 250306.41365406345 252641.204355503 255070.98724733503 247845.46500409037 257358.30431697756 231087.2218087957 255610.49920384094 254082.85179157919 250229.13334345314 246801.50204081429 253285.50218266118 242975.84615552321 258323.37137030103 257169.36015745415 278234.13091633585 270180.2372768101 162139.58807050681 253357.30484921194 266391.84400634724 211190.22753205124 274046.20787430019 201968.91359886219 169433.03310757226 249941.18842965848 249152.87513941599 252046.75786048401 142026.6705460439 110635.37166895218 279030.66664333735 144077.26282858526 129384.48102524056 109091.79390925456 73703.460083364742 250658.30664877698 250084.34363459781 249345.976710491 250127.64700014878 250388.68118701558 250260.70486958401 258223.77423519149 251670.39283433146 242221.28624661759 248767.43012178587 252788.50335750857 252503.37009157587 45322.936503170939 208195.39627651329 152211.1847998545 212408.38280038023 65985.159142596734 199307.94027490378 206565.76378585811 262660.47107600723 211207.68801680455 269977.84719157679 251613.48067187055 135434.2015395218 248606.68936879776 253340.40913624596 207584.89920219927 258677.88386836278 200035.29668489698 204487.20159322154 72684.238670360297 32973.235074762699 255688.82386468211 123232.61911755959 121127.01031362564 35717.480346298071 153632.18692570465 6808.8122622956244 195857.92663222013 25695.05167928556 194286.20610989651 32628.910308106628 -1953.8646696468256 10666.820947128017 201666.14388727257 12900.679938137604 190553.17351528522 184714.27879493524 22423.474059691369 214232.40220722609 233637.03089427287 186179.3628751722 248196.69547351994 217140.09760361438 233554.43832668691 232856.46493138187 17943.239457021871 16372.560021503537 220167.12434049338 27220.959786686097 178385.16131391693 7524.4941300290675 183169.59194080436 7524.4941300307228 190737.83403041761 8358.176648391458 8667.855293033108 260846.76651344908 215606.91345101784 240104.56167830742 268223.14409700013 226979.26029807108 208508.47175591439 252673.34248499377 246492.37398468971 238086.82543229641 220551.34021349088 200288.55370981357 37603.049826237439 225731.10293009441 17971.133615521489 15030.584175757082 16223.074407353331 222086.02605792566 14229.102971108774 214215.47352631125 35432.95092064239 195959.19582994099 217835.85817227318 262170.5913221637 201402.27567317319 256356.42302154438 209960.84536006759 248425.47630759128 223505.59435731731 248855.68587625591 253670.74890526934 216612.12186167389 215293.59586275855 259690.83861799026 229375.22318436258 18734.214616204008 17227.446491289284 211800.93754481958 203580.1422522543 34413.954154620558 219638.35441792774 32721.287986426883 192518.23680737463 38021.285242936669 210746.69984119397 262784.26094984787 18395.493662360037 16338.268261334997 216697.80015130463 213697.25498467096 245678.83807693396 255196.59620137015 224910.69342177096 205382.14287658903 268030.4449490757 250411.3500323082 250273.60205145783 249505.96891206672 248915.21965028683 252405.6025175043 251412.56245454075 250012.2957694942 249841.89182184322 249858.60198956772 249556.4949583509 250032.90712596918 250680.60542702753 249967.79332069788 250063.58064769913 250366.33754882522 249954.03344443475 250387.85724495671 250063.91968995534 249855.34227831051 250064.44192223507 249800.47908504083 249943.92448891408 250486.95613986917 249534.33233429975 250624.69614905721 250516.13736035215 249388.9436964762 249042.44109772111 249844.16944571261 251711.0788714001 249061.58849761618 249901.71082910855 251535.97374422691 249106.32708181755 251108.32878556068 252765.47178586735 250490.43671802417 250015.3785733979 251451.91769817268 
</DataArray>
<DataArray type="Float64" Name="U235_conc" format="ascii">
0.0039101322540938087 0.0063169838467562536 -0.0068112055943914014 0.0035016664755312494 0.0065942132405249314 -0.0062655694960256463 -0.016021930044822483 -0.013649717479013333 0.098287283252988938 0.008043542690140508 -0.0081426642760251324 9.9121585884624807e-05 -0.00012770151299375124 0.0066039520490071228 0.0046601191360227919 -0.0058613175912419664 -0.047520066498582134 0.13499282878309882 0.016102471049044186 -0.029688261685694536 0.013585790636650349 -0.046055323640344245 -0.012751617087147163 0.12545266599945343 -0.011033775614804757 -0.015823917250930544 0.089165821410912338 -0.025921777835051958 0.10496735877106496 0.13150229327437135 0.0091470786252631324 -0.0065811165535139765 -0.002565962071749155 0.13286999439641672 0.1800038076415777 0.00017025696310995759 0.00040362534033561409 -0.00057388230344557168 -0.065216534276639621 0.15181355907202498 0.1887717539334654 0.18142703585223724 0.24376189539241042 -7.7037930322978269e-06 6.3102909835668535e-06 3.0266447177810736e-05 8.0244431281028874e-05 -0.00014629555587615037 6.6051124595121487e-05 -0.0001032690800810387 -0.00010634456614910459 0.00072923627846802888 0.00049240263211738737 0.00098802842361458759 -0.0006391371765238793 0.0013959810768162026 -0.0011750139516461342 -0.00022096712517006857 0.37007591818778224 0.51875450024880909 0.20369146985217892 0.22399155208157626 0.48623709101464052 0.19495127228109271 0.01650277508897233 0.2100951722878138 0.33909124201714852 0.50372481715881512 0.00072097046867358988 -0.00030941256747076809 -6.1945919895311309e-05 0.33455745208946547 0.24619322732193516 0.25297349861708929 0.23233443196837797 -0.030530749132812663 -0.077964394127247261 -0.024707308567065534 0.20589294898129129 -0.07510933225144166 0.19298250933348479 -0.021050981583138208 -0.036206571617982651 0.27175154921705891 0.24874953040855052 0.3643988730493245 0.26646021976481732 -0.014433502161315483 -0.0015643904410217754 0.027387536187081087 -0.0032148720765675532 0.0067580467066182988 0.013483487213626594 -0.0021458324927382073 0.0054367943543737716 -0.00025344909974459138 -0.069145635377890161 0.20257495989625204 0.16330799126512505 0.26405721440998486 0.19598352149665665 0.00020741803606508756 0.00044977726862263846 -0.00065719530468772596 -0.023677929145673803 0.14419563103475574 0.11544743112295384 0.1944809034838354 0.14304083292462824 0.0021417633614245046 -0.0029161909247141455 0.0041798423078395963 0.00058266150501339747 0.00023815217202103874 -0.00082081367703443621 -0.0048793285811442339 0.012599908423556034 -0.006124848335751166 0.013002281944066243 -0.0098126921835338006 -0.0027498196917829978 -0.00062963924871242639 0.0068201594512846278 0.0090104800785260515 -0.024892083117868398 0.0095328988011336609 0.015605399019410085 -0.030797830646771857 0.086121410270110416 0.010508144308832464 0.010329416856517115 -0.0028607857702485397 0.0071887007390684611 -0.0010580704505345167 0.0086701673983845904 -0.0021512464043839993 0.98591238985305196 0.29770906580736228 0.98120725231304318 0.95488777022088644 0.015801654844560708 0.28288120891848589 -0.020343482766260267 0.045557074950394107 0.24825320563598818 -0.096811476176962855 0.29022667930666834 0.13447605351256514 0.32206256103945557 0.9505888163938816 0.17872911246261772 0.20143459502451916 0.25229461026944505 0.96857690339389835 0.97378455867446123 0.17784406433049482 0.98147644899918729 0.16772621033329355 0.20578524045941049 -0.045557271904054918 0.23913374114100694 0.046160777334093274 -0.054190970469055674 0.26877568136038976 0.99791315376931133 0.9868993491758461 -0.00016984648482304475 -0.00055606990506721374 0.0026549958539069649 -0.011282855596960368 0.040575635617793447 -0.029292780020833076 0.13144032495786978 -0.027643847081863866 -0.022685366595994971 -0.0033572972996102381 0.0274153720880881 0.0045609200801237613 0.056097860930786003 -0.011706889016210597 -0.044390971914575403 -0.16174212281648973 -0.10037659383258554 0.47960250630568924 -0.022563447256870775 -0.10025612179784403 0.23136642064191415 -0.1346283918398781 0.27850562860087136 0.44782594984285518 -0.00036152460992645505 0.0084365652784124112 -0.0061465971306766095 0.52021542159643075 0.64668197752234124 -0.12385281729724303 0.55077624037098238 0.59539927494479561 0.6550359193998152 0.78484307673507681 0.00043104293899071556 -6.0786089341514666e-06 -0.00042264622908779099 -0.00022506293956172675 0.0021924368853590056 -0.0019666882015260592 -0.052796976188972791 -0.0031253255900641924 0.055928584080743152 0.014720637840009288 -0.010130643928840331 -0.0045875501678307954 0.90728736638718777 0.28945285807735532 0.56242747587800113 0.25670317235136619 0.87852998239246338 0.29366078921908623 0.27199923791426733 -0.080986013245843744 0.23107257170268009 -0.094097654727249444 0.0677008915756869 0.56036309562479347 0.0056906759397456434 -0.027473999080022907 0.2698592260158944 -0.056794463528024905 0.31392840551449253 0.30525153275161254 0.79093184670751338 0.92063708122653598 0.083323002540205859 0.58251451314271407 0.65499119662865879 0.91359730559944452 0.57574508979031536 1.0001411925128121 0.32969491859368916 0.98791518428132308 0.38574393566215698 0.92124735016718085 1.008506133556418 1.0010101554381374 0.39362441301835138 0.9953890108592035 0.35586223782255683 0.43760733075588071 0.99118340621618806 0.21283606275096545 0.11796109221021789 0.41611034341391312 0.0034310677758444697 0.19770686168732826 0.11182873851511881 0.25392001268009995 0.99004403543996478 0.99385560499123704 0.21807860240439195 0.98585188637107146 0.45863871324342437 0.99831890932456857 0.48312454423445189 0.99831890932458922 0.45291446096554699 0.99808439143345096 0.99694564664605734 -0.071648359510527504 0.21941659448800754 0.069941695510340254 -0.11653668995768074 0.18317648998891917 0.25856205639473206 -0.017508720385536115 0.017421566347822586 0.077344989732068603 0.25090797482760446 0.29720134077248073 0.96718319206784498 0.29375387469049219 0.98718709328820864 0.99058064785516486 0.98969201253091188 0.31232689619088855 0.99141324705226674 0.28675733702200423 0.9688588464657798 0.3190622729122698 0.24503104569401293 -0.072169130792884922 0.29502386048749685 -0.04259280374310654 0.25066675249203674 0.013421696888143073 0.17064005299456053 0.0084924959624743113 -0.026690997716123429 0.24318536329777074 0.22035801600916693 -0.063818748425768249 0.27436506146387452 0.98677372246540407 0.98615045865438489 0.30167861776564431 0.28258589434223341 0.9706600669723694 0.27030278906045507 0.96960822276572234 0.33318998395069127 0.95766992163752684 0.30992771418834925 0.0052805784856124645 0.98600871352474473 0.98743088031834314 0.32517201171639093 0.24081015140131948 0.058318639051599772 -0.049603029277891141 0.20465508816284389 0.27332458539663818 -0.11187721989045167 -0.0019536719044981722 0.004732463549378888 0.0018290932246973317 0.02499402568956844 -0.02134587107305096 -0.00067919193279182717 -0.0019459522234284456 0.0072847042815620024 -0.0010854971770573414 0.0042071123662394856 -0.0012362490988256591 0.0039066626761786964 -8.8638645474026348e-05 0.00072768310573929657 0.0023006169084322644 -0.00022308270786105335 0.0016087987238125171 0.00072656398853952178 0.00091790705330528275 -0.00051912953041846968 0.0020571551692885382 0.00016625933347873763 -0.0024997575014821141 0.0040323979541002693 -0.0035322174098571693 0.0025730012994025072 0.0051882048539244312 0.013445748664993665 0.0014934456630421534 -0.0099996871978190703 0.012638472602950842 0.0016108723336750027 -0.0078676431113548079 0.0098979650127953393 0.0060647636949067553 -0.01595191932406375 0.0030670858726498883 0.0021980017819839925 -0.0052650876546338808 
</DataArray>
</PointData>
</Piece>
</UnstructuredGrid>
</VTKFile>
