<?xml version="1.0"?>
<VTKFile type="UnstructuredGrid" version="0.1" byte_order="LittleEndian">
<UnstructuredGrid>
<Piece NumberOfPoints="360" NumberOfCells="124">
<Points>
<DataArray type="Float64" NumberOfComponents="3" format="ascii">
0 0 0 0.084352422163911631 0.086451712656266194 0 0 0.12500000000034689 0 0 0 0 0.084352422163911631 0.086451712656266194 0 0.1249999999997554 0 0 0 0.12500000000034689 0 0.1008171452988615 0.18885703697250469 0 0 0.25 0 0.084352422163911631 0.086451712656266194 0 0 0.12500000000034689 0 0.1008171452988615 0.18885703697250469 0 0.084352422163911631 0.086451712656266194 0 0.1008171452988615 0.18885703697250469 0 0.18402761812864499 0.1117324051466445 0 0.1008171452988615 0.18885703697250469 0 0.2403886547178353 0.24188814792673841 0 0.1249999999997599 0.31249999999987998 0 0.1008171452988615 0.18885703697250469 0 0.2403886547178353 0.24188814792673841 0 0.18402761812864499 0.1117324051466445 0 0.2403886547178353 0.24188814792673841 0 0.18402761812864499 0.1117324051466445 0 0.31250000000020822 0.12500000000041631 0 0.1249999999997554 0 0 0.18402761812864499 0.1117324051466445 0 0.25 -0 0 0.18402761812864499 0.1117324051466445 0 0.25 -0 0 0.31250000000020822 0.12500000000041631 0 0.084352422163911631 0.086451712656266194 0 0.1249999999997554 0 0 0.18402761812864499 0.1117324051466445 0 0.25 -0 0 0.31250000000020822 0.12500000000041631 0 0.25 -0 0 0.31250000000020822 0.12500000000041631 0 0.43749999999913258 0 0 0.2403886547178353 0.24188814792673841 0 0.31250000000020822 0.12500000000041631 0 0.37500000000027761 0.25000000000055511 0 0.31250000000020822 0.12500000000041631 0 0.37500000000027761 0.25000000000055511 0 0.31250000000020822 0.12500000000041631 0 0.4287911518546233 0.15455445427966699 0 0.37500000000027761 0.25000000000055511 0 0.4287911518546233 0.15455445427966699 0 0.49457493289300231 0.26251703776555491 0 0.37500000000027761 0.25000000000055511 0 0.4287911518546233 0.15455445427966699 0 0.49457493289300231 0.26251703776555491 0 0.54475767668582953 0.1431838882066932 0 0.31250000000020822 0.12500000000041631 0 0.4287911518546233 0.15455445427966699 0 0.43749999999913258 0 0 0.4287911518546233 0.15455445427966699 0 0.43749999999913258 0 0 0.54475767668582953 0.1431838882066932 0 0.37499999999973488 0.43749999999986738 0 0.5 0.5 -0 0.43750000000006939 0.37500000000013878 0 0.37499999999973488 0.43749999999986738 0 0.5 0.5 -0 0.43750000000006939 0.37500000000013878 0 0.33819444444448321 0.33819444444456342 0 0.37499999999973488 0.43749999999986738 0 0.43750000000006939 0.37500000000013878 0 0.5 0.5 -0 0.43750000000006939 0.37500000000013878 0 0.49457493289300231 0.26251703776555491 0 0.37500000000027761 0.25000000000055511 0 0.43750000000006939 0.37500000000013878 0 0.37500000000027761 0.25000000000055511 0 0.43750000000006939 0.37500000000013878 0 0.37500000000027761 0.25000000000055511 0 0.33819444444448321 0.33819444444456342 0 0.2403886547178353 0.24188814792673841 0 0.33819444444448321 0.33819444444456342 0 0.24999999999960859 0.37499999999980432 0 0.2403886547178353 0.24188814792673841 0 0.37500000000027761 0.25000000000055511 0 0.33819444444448321 0.33819444444456342 0 0.33819444444448321 0.33819444444456342 0 0.37499999999973488 0.43749999999986738 0 0.24999999999960859 0.37499999999980432 0 0.37499999999973488 0.43749999999986738 0 0.24999999999960859 0.37499999999980432 0 0.37499999999973488 0.43749999999986738 0 0.24999999999960859 0.37499999999980432 0 0.26452443700674649 0.51563531581639865 0 0.14929124186975251 0.44582793568106382 0 0.24999999999960859 0.37499999999980432 0 0.26452443700674649 0.51563531581639865 0 0.14929124186975251 0.44582793568106382 0 0.24999999999960859 0.37499999999980432 0 0.1249999999997599 0.31249999999987998 0 0.2403886547178353 0.24188814792673841 0 0.24999999999960859 0.37499999999980432 0 0.1249999999997599 0.31249999999987998 0 0.24999999999960859 0.37499999999980432 0 0.1249999999997599 0.31249999999987998 0 0.1249999999997599 0.31249999999987998 0 0 0.25 0 0 0.43750000000034689 0 0.1008171452988615 0.18885703697250469 0 0.1249999999997599 0.31249999999987998 0 0 0.25 0 0.1249999999997599 0.31249999999987998 0 0 0.25 0 0.14929124186975251 0.44582793568106382 0 0 0.43750000000034689 0 0.13928587515912139 0.57339806105677438 0 0.14929124186975251 0.44582793568106382 0 0.1249999999997599 0.31249999999987998 0 0 0.43750000000034689 0 0 0.43750000000034689 0 0 0.62500000000069389 0 0.13928587515912139 0.57339806105677438 0 0 0.62500000000069389 0 0.13900789599611679 0.72618316107059999 0 0.13928587515912139 0.57339806105677438 0 0 0.62500000000069389 0 0.13900789599611679 0.72618316107059999 0 0 0.81250000000104083 0 0.13900789599611679 0.72618316107059999 0 0.13928587515912139 0.57339806105677438 0 0.27589467050686478 0.66058853156435704 0 0.13900789599611679 0.72618316107059999 0 0.27987960212930818 0.83442741470570525 0 0.27589467050686478 0.66058853156435704 0 0.13928587515912139 0.57339806105677438 0 0.26452443700674649 0.51563531581639865 0 0.27589467050686478 0.66058853156435704 0 0.14929124186975251 0.44582793568106382 0 0.13928587515912139 0.57339806105677438 0 0.26452443700674649 0.51563531581639865 0 0 1 0 0.12710107136012311 0.87094806618203435 0 0.1875000000005205 1 0 0 1 0 0 0.81250000000104083 0 0.12710107136012311 0.87094806618203435 0 0.13900789599611679 0.72618316107059999 0 0 0.81250000000104083 0 0.12710107136012311 0.87094806618203435 0 0.13900789599611679 0.72618316107059999 0 0.12710107136012311 0.87094806618203435 0 0.27987960212930818 0.83442741470570525 0 0.12710107136012311 0.87094806618203435 0 0.1875000000005205 1 0 0.27987960212930818 0.83442741470570525 0 0.27987960212930818 0.83442741470570525 0 0.44927105396715372 0.85565124085155886 0 0.37500000000069389 1 0 0.1875000000005205 1 0 0.27987960212930818 0.83442741470570525 0 0.37500000000069389 1 0 0.27987960212930818 0.83442741470570525 0 0.44927105396715372 0.85565124085155886 0 0.38136204680495073 0.74038592213831234 0 0.44927105396715372 0.85565124085155886 0 0.38136204680495073 0.74038592213831234 0 0.50145856933078625 0.73674663046504862 0 0.44927105396715372 0.85565124085155886 0 0.37500000000069389 1 0 0.56250000000086742 1 0 0.26452443700674649 0.51563531581639865 0 0.27589467050686478 0.66058853156435704 0 0.4139414069912184 0.60563252640100373 0 0.37499999999973488 0.43749999999986738 0 0.26452443700674649 0.51563531581639865 0 0.4139414069912184 0.60563252640100373 0 0.27987960212930818 0.83442741470570525 0 0.27589467050686478 0.66058853156435704 0 0.38136204680495073 0.74038592213831234 0 0.27589467050686478 0.66058853156435704 0 0.38136204680495073 0.74038592213831234 0 0.4139414069912184 0.60563252640100373 0 0.38136204680495073 0.74038592213831234 0 0.4139414069912184 0.60563252640100373 0 0.50145856933078625 0.73674663046504862 0 0.4139414069912184 0.60563252640100373 0 0.50145856933078625 0.73674663046504862 0 0.5625 0.625 0 0.37499999999973488 0.43749999999986738 0 0.4139414069912184 0.60563252640100373 0 0.5 0.5 -0 0.4139414069912184 0.60563252640100373 0 0.5 0.5 -0 0.5625 0.625 0 0.5 0.5 -0 0.5625 0.625 0 0.63236534182377013 0.50296756406332266 0 0.5 0.5 -0 0.5625 0.625 0 0.50145856933078625 0.73674663046504862 0 0.5625 0.625 0 0.625 0.75 0 0.5625 0.625 0 0.625 0.75 0 0.71259747807844409 0.63846691315701831 0 0.625 0.75 0 0.73857795170433571 0.77736788564284653 0 0.5625 0.625 0 0.71259747807844409 0.63846691315701831 0 0.625 0.75 0 0.71259747807844409 0.63846691315701831 0 0.63236534182377013 0.50296756406332266 0 0.75338430262320943 0.49294443423175599 0 0.5625 0.625 0 0.71259747807844409 0.63846691315701831 0 0.63236534182377013 0.50296756406332266 0 0.56250000000086742 1 0 0.56777512057187585 0.8470224641095303 0 0.6875 0.875 0 0.44927105396715372 0.85565124085155886 0 0.56250000000086742 1 0 0.56777512057187585 0.8470224641095303 0 0.44927105396715372 0.85565124085155886 0 0.50145856933078625 0.73674663046504862 0 0.56777512057187585 0.8470224641095303 0 0.50145856933078625 0.73674663046504862 0 0.56777512057187585 0.8470224641095303 0 0.625 0.75 0 0.625 0.75 0 0.73857795170433571 0.77736788564284653 0 0.6875 0.875 0 0.73857795170433571 0.77736788564284653 0 0.6875 0.875 0 0.80552984491000901 0.88711122872127413 0 0.625 0.75 0 0.6875 0.875 0 0.56777512057187585 0.8470224641095303 0 0.625 0.75 0 0.6875 0.875 0 0.56250000000086742 1 0 0.6875 0.875 0 0.75 1 0 0.6875 0.875 0 0.75 1 0 0.80552984491000901 0.88711122872127413 0 0.6875 0.875 0 0.75 1 0 0.75 1 0 0.80552984491000901 0.88711122872127413 0 0.875 1 0 0.80552984491000901 0.88711122872127413 0 0.90637953422180084 0.90208583328057301 0 0.875 1 0 0.80552984491000901 0.88711122872127413 0 0.85787927391517405 0.753532520882502 0 0.90637953422180084 0.90208583328057301 0 0.73857795170433571 0.77736788564284653 0 0.80552984491000901 0.88711122872127413 0 0.85787927391517405 0.753532520882502 0 0.85787927391517405 0.753532520882502 0 1 0.83333333333356463 0 1 0.66666666666736052 0 0.85787927391517405 0.753532520882502 0 1 0.83333333333356463 0 0.90637953422180084 0.90208583328057301 0 1 0.83333333333356463 0 0.90637953422180084 0.90208583328057301 0 1 1 0 0.90637953422180084 0.90208583328057301 0 1 1 0 0.875 1 0 0.71259747807844409 0.63846691315701831 0 0.86127466977819722 0.57948076978797636 0 0.75338430262320943 0.49294443423175599 0 0.71259747807844409 0.63846691315701831 0 0.85787927391517405 0.753532520882502 0 0.86127466977819722 0.57948076978797636 0 0.71259747807844409 0.63846691315701831 0 0.73857795170433571 0.77736788564284653 0 0.85787927391517405 0.753532520882502 0 0.85787927391517405 0.753532520882502 0 0.86127466977819722 0.57948076978797636 0 1 0.66666666666736052 0 0.86127466977819722 0.57948076978797636 0 1 0.66666666666736052 0 1 0.50000000000138767 0 1 0.50000000000138767 0 0.86569408477091048 0.40983673916766611 0 1 0.33333333333448978 0 0.86127466977819722 0.57948076978797636 0 1 0.50000000000138767 0 0.86569408477091048 0.40983673916766611 0 0.86127466977819722 0.57948076978797636 0 0.75338430262320943 0.49294443423175599 0 0.86569408477091048 0.40983673916766611 0 0.75338430262320943 0.49294443423175599 0 0.86569408477091048 0.40983673916766611 0 0.71826039492840632 0.34564020717216182 0 0.86087286690217635 0.25206523597959418 0 0.71508993406183785 0.15715956854777599 0 0.71826039492840632 0.34564020717216182 0 0.86569408477091048 0.40983673916766611 0 0.86087286690217635 0.25206523597959418 0 0.71826039492840632 0.34564020717216182 0 0.86087286690217635 0.25206523597959418 0 1 0.33333333333448978 0 1 0.16666666666736049 0 0.86569408477091048 0.40983673916766611 0 0.86087286690217635 0.25206523597959418 0 1 0.33333333333448978 0 0.86087286690217635 0.25206523597959418 0 1 0.16666666666736049 0 0.87698901648812122 0.1160638338657984 0 1 0 0 0.87698901648812122 0.1160638338657984 0 0.81249999999947953 0 0 1 0.16666666666736049 0 1 0 0 0.87698901648812122 0.1160638338657984 0 0.87698901648812122 0.1160638338657984 0 0.81249999999947953 0 0 0.71508993406183785 0.15715956854777599 0 0.86087286690217635 0.25206523597959418 0 0.87698901648812122 0.1160638338657984 0 0.71508993406183785 0.15715956854777599 0 0.71508993406183785 0.15715956854777599 0 0.62499999999895905 0 0 0.54475767668582953 0.1431838882066932 0 0.81249999999947953 0 0 0.71508993406183785 0.15715956854777599 0 0.62499999999895905 0 0 0.43749999999913258 0 0 0.62499999999895905 0 0 0.54475767668582953 0.1431838882066932 0 0.71508993406183785 0.15715956854777599 0 0.54475767668582953 0.1431838882066932 0 0.61108462585082757 0.25750599582343231 0 0.49457493289300231 0.26251703776555491 0 0.54475767668582953 0.1431838882066932 0 0.61108462585082757 0.25750599582343231 0 0.49457493289300231 0.26251703776555491 0 0.61108462585082757 0.25750599582343231 0 0.56986707178436635 0.37762093650871992 0 0.43750000000006939 0.37500000000013878 0 0.49457493289300231 0.26251703776555491 0 0.56986707178436635 0.37762093650871992 0 0.43750000000006939 0.37500000000013878 0 0.5 0.5 -0 0.56986707178436635 0.37762093650871992 0 0.5 0.5 -0 0.63236534182377013 0.50296756406332266 0 0.56986707178436635 0.37762093650871992 0 0.63236534182377013 0.50296756406332266 0 0.75338430262320943 0.49294443423175599 0 0.71826039492840632 0.34564020717216182 0 0.63236534182377013 0.50296756406332266 0 0.56986707178436635 0.37762093650871992 0 0.71826039492840632 0.34564020717216182 0 0.71508993406183785 0.15715956854777599 0 0.61108462585082757 0.25750599582343231 0 0.71826039492840632 0.34564020717216182 0 0.61108462585082757 0.25750599582343231 0 0.56986707178436635 0.37762093650871992 0 0.71826039492840632 0.34564020717216182 0 
</DataArray>
</Points>
<Cells>
<DataArray type="UInt32" Name="connectivity" format="ascii">
0 1 2 3 4 5 6 7 8 9 10 11 12 13 14 15 16 17 18 19 20 21 22 23 24 25 26 27 28 29 30 31 32 33 34 35 36 37 38 39 40 41 42 43 44 45 46 47 48 49 50 51 52 53 54 55 56 57 58 59 60 61 62 63 64 65 66 67 68 69 70 71 72 73 74 75 76 77 78 79 80 81 82 83 84 85 86 87 88 89 90 91 92 93 94 95 96 97 98 99 100 101 102 103 104 105 106 107 108 109 110 111 112 113 114 115 116 117 118 119 120 121 122 123 124 125 126 127 128 129 130 131 132 133 134 135 136 137 138 139 140 141 142 143 144 145 146 147 148 149 150 151 152 153 154 155 156 157 158 159 160 161 162 163 164 165 166 167 168 169 170 171 172 173 174 175 176 177 178 179 180 181 182 183 184 185 186 187 188 189 190 191 192 193 194 195 196 197 198 199 200 201 202 203 204 205 206 207 208 209 210 211 212 213 214 215 216 217 218 219 220 221 222 223 224 225 226 227 228 229 230 231 232 233 234 235 236 237 238 239 240 241 242 243 244 245 246 247 248 249 250 251 252 253 254 255 256 257 258 259 260 261 262 263 264 265 266 267 268 269 270 271 272 273 274 275 276 277 278 279 280 281 282 283 284 285 286 287 288 289 290 291 292 293 294 295 296 297 298 299 300 301 302 303 304 305 306 307 308 309 310 311 312 313 314 315 316 317 318 319 320 321 322 323 324 325 326 327 328 329 330 331 332 333 334 335 336 337 338 339 340 341 342 343 344 345 346 347 348 349 350 351 352 353 354 355 356 357 358 359 
</DataArray>
<DataArray type="UInt32" Name="offsets" format="ascii">
3 6 9 12 15 18 21 24 27 30 33 35 38 41 43 46 49 52 55 58 60 63 66 68 71 73 76 79 82 85 87 90 93 96 99 101 104 107 109 112 115 118 121 124 127 130 133 136 139 142 145 148 151 154 157 160 163 166 169 172 175 178 181 184 187 190 193 195 198 200 203 206 209 212 215 218 221 224 227 230 232 235 238 241 243 246 249 252 255 258 261 264 267 270 273 276 279 282 285 288 291 294 297 300 303 306 309 312 315 318 321 324 327 330 333 336 339 342 345 348 351 354 357 360 
</DataArray>
<DataArray type="UInt32" Name="types" format="ascii">
5 5 5 5 5 5 5 5 5 5 5 3 5 5 3 5 5 5 5 5 3 5 5 3 5 3 5 5 5 5 3 5 5 5 5 3 5 5 3 5 5 5 5 5 5 5 5 5 5 5 5 5 5 5 5 5 5 5 5 5 5 5 5 5 5 5 5 3 5 3 5 5 5 5 5 5 5 5 5 5 3 5 5 5 3 5 5 5 5 5 5 5 5 5 5 5 5 5 5 5 5 5 5 5 5 5 5 5 5 5 5 5 5 5 5 5 5 5 5 5 5 5 5 5 
</DataArray>
</Cells>
<PointData Scalars="age_conc,U235_conc," Vectors="" Tensors="">
<DataArray type="Float64" Name="age_conc" format="ascii">
187210.67458791853 187268.26601947082 188218.829630425 187240.49123434181 187339.71730193001 188198.40034105597 189102.42587132388 189554.10864961537 179528.33981898171 187131.0796620234 188407.7430978835 188348.72128179285 187489.184324431 188019.37477635127 188221.03033560386 188282.40667408146 192386.85108555635 176374.55286431985 187922.83690003084 191151.8790782303 188193.79008226251 192252.5108116928 188771.23089565185 177048.57729720743 188661.46042670603 189588.13347096604 180258.68110192753 191169.9667511977 178686.2996893602 176140.92042671927 187217.74333609943 188355.39834439827 188566.34979380423 175559.81019930722 169606.59061435494 187490.055933861 187478.33207315326 187555.62794994112 195203.95338439516 174286.08151950993 169797.75140448342 169865.49189132778 161096.03095089787 187499.46231828138 187501.75340177282 187501.77437002369 187501.31580557686 187512.5562441631 187501.71242845556 187502.3489275146 187514.90661533811 187481.22503301426 187466.24902026576 187458.22815664107 187575.34006950108 187424.67427176939 187632.2713002997 187583.2834559278 145125.25323921419 118800.09492211485 170388.48126600322 169218.82189734688 127673.29312809752 170559.18607501962 189034.75852763909 169756.49909079826 148006.78853595341 120124.61499859778 187464.90258467072 187518.49908753429 187502.83551878331 147573.20134108246 161406.50357640017 161288.52504708516 163578.80333317837 196032.03979278021 194968.53128875152 192792.58316265608 168234.19302470324 194781.05446012353 169209.97882839452 192360.97845088449 196759.1235953994 159965.08299842267 162281.40250229347 144849.28032062561 159744.37251852429 189587.00960971494 187432.12823211751 186462.90122082931 187684.69253177353 187229.66876453816 187075.20255178772 187613.82540053996 187287.83902502069 187506.99476295916 195591.15697385778 168729.66082268677 173436.17905977962 159392.37073025276 168753.5655307922 187497.50522460093 187490.23823566243 187546.67743541306 191193.09077498893 175100.24454395135 177825.25826950761 168472.96854501747 174828.15900857991 187356.42962310277 187696.97803460027 187336.17312011469 187462.0186059789 187491.84822321343 187563.26245134664 187844.52330164803 186334.97263908634 188355.78966021424 185781.46189315896 188782.54510143321 188636.92270972376 185555.80038027919 184063.1451380935 195475.5877285754 191537.88187418118 186726.6747834484 185711.29167895604 192937.0678078694 188819.20369616486 185182.39521071332 186864.19597947452 187775.40300497375 186803.11039301992 187579.529195749 186996.72785945883 187671.71590552738 17445.063718486956 197277.36558553699 20012.110868113628 38003.289027300591 209004.07525801982 186904.1983978574 184559.87617692159 196989.74459354792 175275.8849146399 197567.01782877219 164049.45973721665 197820.30076635891 159922.02212856253 39688.126555044066 201679.55080946381 178435.66872611357 191019.02235828229 37728.932307275092 23118.717059153034 216432.18203408935 22910.639322649728 181269.18923332731 187731.63789182165 193034.35096448488 171748.22495712002 184883.65177261244 194755.66692270976 206627.79358311521 13395.2631130993 16370.927168428512 187359.81827301628 187307.87681294946 188783.34758178628 190123.80052964913 185815.80907737231 191719.75547257555 183416.92679878048 188909.32746005195 190547.12581441089 187212.48179581491 186359.67133027635 189146.60471362009 184391.71330319424 191256.12217636441 193445.29395227719 206056.53104694642 205574.07682191805 135108.63881571827 189621.32696054649 198324.38417390012 167499.78531021159 204576.4324043965 162363.81476108238 140947.65202244351 187469.42415128637 187124.14283118988 188137.58335715259 118603.40790558346 94519.787683175746 215119.50566012942 122340.72071576107 109264.42116446939 94176.693347250548 65503.292243749107 187410.15022699357 187989.48524768752 188091.45377561651 187481.24144618414 187474.60847060455 187919.39612900457 191584.78160718491 187683.70089420979 184935.839929729 186874.19502970178 188611.18000688913 188311.31592205807 42259.923646735835 177736.82070818348 138893.74279016803 175042.81547422451 62347.820777993082 166983.36482392947 168003.46838999895 198950.84796774396 173201.65722912879 206940.59347100754 206537.65008846903 112234.26848338178 187951.3797661897 191195.80681049539 171589.08401417438 195194.72312717349 167837.0497004537 172839.10848004909 65480.68608384113 31220.950179028707 214070.4315814444 101712.83593068234 109474.26607154333 33302.143546871521 142553.7299363639 6856.175354837429 165486.67566080662 26325.484616710339 171131.27761233808 31144.513638993973 -1585.8461727752442 11862.949702632182 180935.26333617029 13067.332522329185 162006.83017262662 166419.66358476004 22295.753425157145 174101.60301673203 187712.44041401151 164609.17456021556 187468.05712589584 175035.53901125054 186067.94704694353 204153.44317756765 17989.250363450148 17495.833772100636 183225.79574211704 27024.295933003814 160699.85534400865 7490.2238757925134 169175.47428288194 7490.2238757938921 175269.78967527841 8341.3750328482638 8600.0942843573612 193729.32979247352 173882.32154332203 184147.34175733704 198377.10942174579 187823.02365935381 169940.15098522435 188657.73435098591 186679.70818514569 186783.73595973977 189088.8403726682 165670.04225875947 37688.472680897081 199713.5177936207 18001.747089533055 15677.06188531435 16243.41526729723 197524.89057378293 14750.416650592728 185299.97834625116 35360.317110551245 162854.42719051673 183795.20675361759 198742.77545132159 165340.59773910171 193837.72839767972 170366.46238602558 187220.1594592926 178895.76359216569 187538.7669715221 189930.25361394743 180979.31678633211 175314.0777431147 193718.44566802663 201990.38369531929 18741.230837854502 17835.768578288738 184116.79204918252 168539.54465432285 34221.980408828815 189874.11696438974 32529.562437213455 160939.27016659011 37097.672982300021 182287.01535783644 212312.35830173374 18505.323089434944 17148.176819931588 191673.37013422785 175191.78390517712 193060.49557091334 188136.8259782544 187280.16862832702 168511.24478433107 198674.09893941175 187128.97667455851 186679.88901451047 187828.65889731643 192544.14833673768 186806.98445286119 186518.48165877833 187672.74368124999 186827.56701788094 187798.36458595403 187558.78976238353 187483.17249064823 187485.89258406821 187516.55817557723 187473.47956983902 187527.86927907329 187484.06824800838 187583.34341189099 187525.82159106806 187454.20480890159 187533.74499696243 187424.58247495745 187491.01201831663 187666.33303172453 187297.81815397629 187738.59732507321 187532.97216373586 187214.39070182486 186556.61936737862 189049.86216237067 188874.93962422071 186860.1284890945 187362.57897677046 188583.95842176353 187451.69082670406 187432.27957128832 188864.99864978605 187575.49738913536 187481.12052612859 188321.80612729254 
</DataArray>
<DataArray type="Float64" Name="U235_conc" format="ascii">
0.0020711022339842304 0.0038116991775422313 -0.0045007911810690665 0.0018582959737271302 0.0038352678688296118 -0.0043625159651436941 -0.011561356373731461 -0.014962432791967108 0.052022961425034875 0.0062577604320636516 -0.0045657305712832903 -0.0016920298607803607 -0.00061699786044301251 0.0018328318267359651 0.0010157218093788034 -0.0059069384115179565 -0.036608085271785329 0.074170439170247821 0.01038357998256189 -0.01972725733535766 0.0093436773527957664 -0.035398671890861218 -0.0092886120833356057 0.069606759423001305 -0.0084737858343078183 -0.015213124795440782 0.047268845695294999 -0.025213551358550912 0.055471791631737634 0.073912362003427531 0.0068621822174049617 -0.0038235555024244677 -0.0030386267149804941 0.073319496633419065 0.11017640770477516 0.00020807112923847896 0.0002600157527464556 -0.00046808688198493457 -0.054039574255614176 0.084783617449742277 0.11603756258691672 0.10825007000664359 0.16157228056157377 1.5669753659720704e-06 -2.7272773805974127e-05 2.5705798440002057e-05 4.6549360832641589e-06 -8.9189132487391733e-05 8.4534196404127568e-05 -8.6534821054495777e-05 -0.00026732831545064347 0.00050541204398480604 0.00028111142839166325 0.00087770894487324848 -0.00070750289835470393 0.001970269280592565 -0.001094478084026039 -0.00087579119656652597 0.25862309848480586 0.40819648740781023 0.10412447519911658 0.11307526224016526 0.3693206016623618 0.10448646346412127 -0.014197870619522452 0.11081709672908817 0.24018236409529981 0.39969345927096434 0.00019687339602921951 -0.00012288187190621488 -1.4537196334704757e-05 0.24161305111916609 0.15969454915735024 0.16353646947056727 0.15125034447637475 -0.05909884192464171 -0.053229213231515533 -0.04058493007367351 0.12817163585799307 -0.05178936360082214 0.12139108806634923 -0.037413775175782663 -0.064180621669246818 0.17276838655107413 0.15984347925630776 0.25917958631711152 0.17040039305749929 -0.010560523999361122 -0.0017128183884908999 0.015735386298815865 -0.0026114466819628667 0.0028589959107308406 0.006824332794175797 -0.0015532111761057236 0.0023928275431873264 -7.8024657550984999e-05 -0.056869067024593885 0.1233028268956351 0.090396781563441997 0.17263301621470242 0.11544488137858647 0.00011810219142913036 0.00026487335116378392 -0.00038297554259291425 -0.025355623406884981 0.080669083087227728 0.060846055285469484 0.11756936047807397 0.078027341809039932 0.0014988588723921503 -0.002115650898732327 0.0010789229947756136 0.00037421517612516139 0.00017427643334637984 -0.00054849160947154129 -0.0039454835470744132 0.013277938035739208 -0.0093198856288299031 0.018297260518362016 0.0046208897276066412 -0.012412744518960423 0.0192752798877515 0.049602444745456005 -0.064968407969073744 -0.016339411359321595 0.0032243619630001989 0.021304914024820022 -0.021301703445675318 -0.0048654380386678568 0.026167141484343178 0.0053039863410757372 -0.0028397493126746244 0.0095940249692460754 -0.00080019105134851226 0.0043158451200791172 -0.0017506685276778952 0.93048875355589755 0.038428482007442991 0.93358407897792739 0.87630446015539498 -0.13711213675069872 0.033605734906240442 0.038513673291536224 -0.07148209332371494 0.092264844161062731 -0.051911065043806298 0.16433983194807994 -0.073144899276929687 0.17904679810315391 0.86915692958777635 -0.069297773604826279 0.066069080923513934 -0.014305002893888433 0.89545297184124051 0.91111865635800582 -0.088255254839846531 0.93028233960154527 0.051674787294308876 -0.0075061528647970034 -0.017071718782097442 0.11098124487917747 0.017803905628547105 -0.064963649883969854 -0.023340572025241202 0.95982158418241692 0.94730542004252671 -3.5567017047841912e-05 0.0040022895796311894 -0.0038168481764058152 -0.0060782302879871476 0.028972612771677782 -0.022894382483690631 0.035592674057248475 -0.006713832763631751 0.0021853314813266014 0.00310243006647766 0.017410595933498484 -0.0038375548743432939 0.037277874066972631 0.002124500272361142 -0.039402374339333766 -0.13233291938038472 -0.1305426236517212 0.34517603948446773 -0.015878220948464264 -0.083727506105036875 0.13688687033234662 -0.12321867226627448 0.16545684298382124 0.30970451041888269 2.1210127184480594e-05 0.0015962783274506838 -0.0014939132411859101 0.41036033018908702 0.54147647756127992 -0.17964296191490456 0.41075234416433715 0.48856307415080336 0.54805279256136274 0.69348380095633622 0.0073744278995742504 -0.0037515985175268652 -0.0033159712695442984 -0.00019127738858303771 0.0042817967816693153 -0.0039997441440522705 -0.016219919660203908 0.0008850573391645071 0.016166480645563981 0.0032792413517101614 -0.0011536331298855626 -0.0018021182279495994 0.82850465554192043 0.070240449540140998 0.32166939491915769 0.10058715509371499 0.77024102670501959 0.11342491935033672 0.13647258864636022 -0.095947602287013239 0.074057348572954929 -0.13843742395993913 -0.12815967594848807 0.46648707303504133 -0.0051173192851026415 -0.03112679255559677 0.10426093242632435 -0.065229458724898118 0.12708783074947344 0.10006359060984468 0.70176824370483248 0.85974108204337629 -0.15030575012738068 0.49723309727162751 0.4639736609689965 0.84756323887586937 0.34366357396720332 0.97475439559281574 0.14593830451467729 0.92316536072050592 0.13472641047836695 0.87211556309666249 0.99188396649916166 0.95376096532094001 0.13981819460380004 0.960690772942701 0.16889561206538864 0.15931435788096943 0.94559722882274388 0.075740442039406483 -0.013090080842357467 0.14690949978982765 -0.0013300016854594964 0.078138408070997298 0.0017375860960256884 -0.0091926064090990627 0.9476024978776697 0.93670797129613215 0.037243815025405788 0.93218264710181575 0.18748423715662993 0.97231179365892306 0.21129766845104969 0.97231179365893927 0.17431004885188578 0.97092533804480574 0.96951928748355565 -0.033456393677577898 0.09946761866597835 0.020622659130710971 -0.068130504814731929 -0.0093355247850005485 0.12481785317787886 -0.0020394390997214881 0.0059996573732202753 -0.0011348947736471342 0.0057869503305733871 0.14731956437358257 0.88421386209044051 0.023262354053412676 0.94241209222411748 0.94119710197986983 0.94882216866961844 0.037301269471173473 0.94538944518980805 0.032278531757962151 0.89396330825686376 0.16594294716729505 0.019627372500336311 -0.082955918294749839 0.15312260005057921 -0.043835912553694692 0.12313060026552339 0.0018915959874654994 0.058527428807499504 -0.0027244957111689032 -0.012305002200227412 0.041865695199540372 0.08082458703759475 -0.044417218388738383 0.0074054108097272794 0.94175171509189226 0.93165657416349945 0.041005672489031919 0.12814187604884589 0.89925337034352704 0.01393251413856865 0.89811340102489545 0.17136357114338083 0.87870020672346305 0.063940452932652006 -0.1563179223677259 0.94013833566093197 0.93125918174577282 0.071394069603444632 0.089339733853681463 -0.039905953744623815 0.0036311901024176033 0.0021125077726596511 0.13041962264175805 -0.072068840107483934 0.007954292983792674 0.012408397899289138 -0.0067464423103472783 -0.03779128462995774 0.022721880028002919 0.015069404601954823 -0.0025725824490672911 0.0096659945837620827 -0.0054554137695972784 -0.0022863823561450614 0.00018558371297894237 0.0026677530157141263 -0.00046306007153106075 0.00059257899915525231 0.001059114129324181 -0.00014114322144848042 0.00054845949906918772 5.4338258132037427e-05 0.00024254589652556436 -0.00023424253079350782 0.00056016789584878988 -8.4017311908159259e-06 -0.00076139086341030639 0.0012827162274136033 -0.0012840666670013291 0.0015833176272975766 0.0016790337093663052 0.011514278607762253 -0.0073824329779382438 -0.0041318456298240084 0.0060534740340342699 0.00033100160123556577 -0.005288691145924662 -0.0013351681384611567 0.0047801710332983005 -0.0020141130823286679 0.0017960147571994421 0.0010631739945452547 -0.0028591887517446972 
</DataArray>
</PointData>
</Piece>
</UnstructuredGrid>
</VTKFile>
