<?xml version="1.0"?>
<VTKFile type="UnstructuredGrid" version="0.1" byte_order="LittleEndian">
<UnstructuredGrid>
<Piece NumberOfPoints="2087" NumberOfCells="4016">
<Points>
<DataArray type="Float64" NumberOfComponents="3" format="ascii">
-1.000000000000000e+00 -1.000000000000000e+00 0.000000000000000e+00 -1.000000000000000e+00 1.000000000000000e+00 0.000000000000000e+00 1.000000000000000e+00 1.000000000000000e+00 0.000000000000000e+00 1.000000000000000e+00 -1.000000000000000e+00 0.000000000000000e+00 -1.000000000000000e+00 -9.487179487180910e-01 0.000000000000000e+00 -1.000000000000000e+00 -8.974358974361821e-01 0.000000000000000e+00 -1.000000000000000e+00 -8.461538461542731e-01 0.000000000000000e+00 -1.000000000000000e+00 -7.948717948723643e-01 0.000000000000000e+00 -1.000000000000000e+00 -7.435897435904553e-01 0.000000000000000e+00 -1.000000000000000e+00 -6.923076923085463e-01 0.000000000000000e+00 -1.000000000000000e+00 -6.410256410266374e-01 0.000000000000000e+00 -1.000000000000000e+00 -5.897435897447285e-01 0.000000000000000e+00 -1.000000000000000e+00 -5.384615384628195e-01 0.000000000000000e+00 -1.000000000000000e+00 -4.871794871808928e-01 0.000000000000000e+00 -1.000000000000000e+00 -4.358974358989127e-01 0.000000000000000e+00 -1.000000000000000e+00 -3.846153846169326e-01 0.000000000000000e+00 -1.000000000000000e+00 -3.333333333349525e-01 0.000000000000000e+00 -1.000000000000000e+00 -2.820512820529724e-01 0.000000000000000e+00 -1.000000000000000e+00 -2.307692307709923e-01 0.000000000000000e+00 -1.000000000000000e+00 -1.794871794890122e-01 0.000000000000000e+00 -1.000000000000000e+00 -1.282051282070320e-01 0.000000000000000e+00 -1.000000000000000e+00 -7.692307692505196e-02 0.000000000000000e+00 -1.000000000000000e+00 -2.564102564307180e-02 0.000000000000000e+00 -1.000000000000000e+00 2.564102563897941e-02 0.000000000000000e+00 -1.000000000000000e+00 7.692307692110179e-02 0.000000000000000e+00 -1.000000000000000e+00 1.282051282032244e-01 0.000000000000000e+00 -1.000000000000000e+00 1.794871794853468e-01 0.000000000000000e+00 -1.000000000000000e+00 2.307692307674691e-01 0.000000000000000e+00 -1.000000000000000e+00 2.820512820495917e-01 0.000000000000000e+00 -1.000000000000000e+00 3.333333333317141e-01 0.000000000000000e+00 -1.000000000000000e+00 3.846153846138365e-01 0.000000000000000e+00 -1.000000000000000e+00 4.358974358959591e-01 0.000000000000000e+00 -1.000000000000000e+00 4.871794871780815e-01 0.000000000000000e+00 -1.000000000000000e+00 5.384615384602573e-01 0.000000000000000e+00 -1.000000000000000e+00 5.897435897424510e-01 0.000000000000000e+00 -1.000000000000000e+00 6.410256410246444e-01 0.000000000000000e+00 -1.000000000000000e+00 6.923076923068381e-01 0.000000000000000e+00 -1.000000000000000e+00 7.435897435890317e-01 0.000000000000000e+00 -1.000000000000000e+00 7.948717948712254e-01 0.000000000000000e+00 -1.000000000000000e+00 8.461538461534190e-01 0.000000000000000e+00 -1.000000000000000e+00 8.974358974356127e-01 0.000000000000000e+00 -1.000000000000000e+00 9.487179487178061e-01 0.000000000000000e+00 -9.487179487180910e-01 1.000000000000000e+00 0.000000000000000e+00 -8.974358974361821e-01 1.000000000000000e+00 0.000000000000000e+00 -8.461538461542731e-01 1.000000000000000e+00 0.000000000000000e+00 -7.948717948723643e-01 1.000000000000000e+00 0.000000000000000e+00 -7.435897435904553e-01 1.000000000000000e+00 0.000000000000000e+00 -6.923076923085463e-01 1.000000000000000e+00 0.000000000000000e+00 -6.410256410266374e-01 1.000000000000000e+00 0.000000000000000e+00 -5.897435897447285e-01 1.000000000000000e+00 0.000000000000000e+00 -5.384615384628195e-01 1.000000000000000e+00 0.000000000000000e+00 -4.871794871808928e-01 1.000000000000000e+00 0.000000000000000e+00 -4.358974358989127e-01 1.000000000000000e+00 0.000000000000000e+00 -3.846153846169326e-01 1.000000000000000e+00 0.000000000000000e+00 -3.333333333349525e-01 1.000000000000000e+00 0.000000000000000e+00 -2.820512820529724e-01 1.000000000000000e+00 0.000000000000000e+00 -2.307692307709923e-01 1.000000000000000e+00 0.000000000000000e+00 -1.794871794890122e-01 1.000000000000000e+00 0.000000000000000e+00 -1.282051282070320e-01 1.000000000000000e+00 0.000000000000000e+00 -7.692307692505196e-02 1.000000000000000e+00 0.000000000000000e+00 -2.564102564307180e-02 1.000000000000000e+00 0.000000000000000e+00 2.564102563897941e-02 1.000000000000000e+00 0.000000000000000e+00 7.692307692110179e-02 1.000000000000000e+00 0.000000000000000e+00 1.282051282032244e-01 1.000000000000000e+00 0.000000000000000e+00 1.794871794853468e-01 1.000000000000000e+00 0.000000000000000e+00 2.307692307674691e-01 1.000000000000000e+00 0.000000000000000e+00 2.820512820495917e-01 1.000000000000000e+00 0.000000000000000e+00 3.333333333317141e-01 1.000000000000000e+00 0.000000000000000e+00 3.846153846138365e-01 1.000000000000000e+00 0.000000000000000e+00 4.358974358959591e-01 1.000000000000000e+00 0.000000000000000e+00 4.871794871780815e-01 1.000000000000000e+00 0.000000000000000e+00 5.384615384602573e-01 1.000000000000000e+00 0.000000000000000e+00 5.897435897424510e-01 1.000000000000000e+00 0.000000000000000e+00 6.410256410246444e-01 1.000000000000000e+00 0.000000000000000e+00 6.923076923068381e-01 1.000000000000000e+00 0.000000000000000e+00 7.435897435890317e-01 1.000000000000000e+00 0.000000000000000e+00 7.948717948712254e-01 1.000000000000000e+00 0.000000000000000e+00 8.461538461534190e-01 1.000000000000000e+00 0.000000000000000e+00 8.974358974356127e-01 1.000000000000000e+00 0.000000000000000e+00 9.487179487178061e-01 1.000000000000000e+00 0.000000000000000e+00 1.000000000000000e+00 9.487179487180910e-01 0.000000000000000e+00 1.000000000000000e+00 8.974358974361821e-01 0.000000000000000e+00 1.000000000000000e+00 8.461538461542731e-01 0.000000000000000e+00 1.000000000000000e+00 7.948717948723643e-01 0.000000000000000e+00 1.000000000000000e+00 7.435897435904553e-01 0.000000000000000e+00 1.000000000000000e+00 6.923076923085463e-01 0.000000000000000e+00 1.000000000000000e+00 6.410256410266374e-01 0.000000000000000e+00 1.000000000000000e+00 5.897435897447285e-01 0.000000000000000e+00 1.000000000000000e+00 5.384615384628195e-01 0.000000000000000e+00 1.000000000000000e+00 4.871794871808928e-01 0.000000000000000e+00 1.000000000000000e+00 4.358974358989127e-01 0.000000000000000e+00 1.000000000000000e+00 3.846153846169326e-01 0.000000000000000e+00 1.000000000000000e+00 3.333333333349525e-01 0.000000000000000e+00 1.000000000000000e+00 2.820512820529724e-01 0.000000000000000e+00 1.000000000000000e+00 2.307692307709923e-01 0.000000000000000e+00 1.000000000000000e+00 1.794871794890122e-01 0.000000000000000e+00 1.000000000000000e+00 1.282051282070320e-01 0.000000000000000e+00 1.000000000000000e+00 7.692307692505196e-02 0.000000000000000e+00 1.000000000000000e+00 2.564102564307180e-02 0.000000000000000e+00 1.000000000000000e+00 -2.564102563897941e-02 0.000000000000000e+00 1.000000000000000e+00 -7.692307692110179e-02 0.000000000000000e+00 1.000000000000000e+00 -1.282051282032244e-01 0.000000000000000e+00 1.000000000000000e+00 -1.794871794853468e-01 0.000000000000000e+00 1.000000000000000e+00 -2.307692307674691e-01 0.000000000000000e+00 1.000000000000000e+00 -2.820512820495917e-01 0.000000000000000e+00 1.000000000000000e+00 -3.333333333317141e-01 0.000000000000000e+00 1.000000000000000e+00 -3.846153846138365e-01 0.000000000000000e+00 1.000000000000000e+00 -4.358974358959591e-01 0.000000000000000e+00 1.000000000000000e+00 -4.871794871780815e-01 0.000000000000000e+00 1.000000000000000e+00 -5.384615384602573e-01 0.000000000000000e+00 1.000000000000000e+00 -5.897435897424510e-01 0.000000000000000e+00 1.000000000000000e+00 -6.410256410246444e-01 0.000000000000000e+00 1.000000000000000e+00 -6.923076923068381e-01 0.000000000000000e+00 1.000000000000000e+00 -7.435897435890317e-01 0.000000000000000e+00 1.000000000000000e+00 -7.948717948712254e-01 0.000000000000000e+00 1.000000000000000e+00 -8.461538461534190e-01 0.000000000000000e+00 1.000000000000000e+00 -8.974358974356127e-01 0.000000000000000e+00 1.000000000000000e+00 -9.487179487178061e-01 0.000000000000000e+00 9.487179487180910e-01 -1.000000000000000e+00 0.000000000000000e+00 8.974358974361821e-01 -1.000000000000000e+00 0.000000000000000e+00 8.461538461542731e-01 -1.000000000000000e+00 0.000000000000000e+00 7.948717948723643e-01 -1.000000000000000e+00 0.000000000000000e+00 7.435897435904553e-01 -1.000000000000000e+00 0.000000000000000e+00 6.923076923085463e-01 -1.000000000000000e+00 0.000000000000000e+00 6.410256410266374e-01 -1.000000000000000e+00 0.000000000000000e+00 5.897435897447285e-01 -1.000000000000000e+00 0.000000000000000e+00 5.384615384628195e-01 -1.000000000000000e+00 0.000000000000000e+00 4.871794871808928e-01 -1.000000000000000e+00 0.000000000000000e+00 4.358974358989127e-01 -1.000000000000000e+00 0.000000000000000e+00 3.846153846169326e-01 -1.000000000000000e+00 0.000000000000000e+00 3.333333333349525e-01 -1.000000000000000e+00 0.000000000000000e+00 2.820512820529724e-01 -1.000000000000000e+00 0.000000000000000e+00 2.307692307709923e-01 -1.000000000000000e+00 0.000000000000000e+00 1.794871794890122e-01 -1.000000000000000e+00 0.000000000000000e+00 1.282051282070320e-01 -1.000000000000000e+00 0.000000000000000e+00 7.692307692505196e-02 -1.000000000000000e+00 0.000000000000000e+00 2.564102564307180e-02 -1.000000000000000e+00 0.000000000000000e+00 -2.564102563897941e-02 -1.000000000000000e+00 0.000000000000000e+00 -7.692307692110179e-02 -1.000000000000000e+00 0.000000000000000e+00 -1.282051282032244e-01 -1.000000000000000e+00 0.000000000000000e+00 -1.794871794853468e-01 -1.000000000000000e+00 0.000000000000000e+00 -2.307692307674691e-01 -1.000000000000000e+00 0.000000000000000e+00 -2.820512820495917e-01 -1.000000000000000e+00 0.000000000000000e+00 -3.333333333317141e-01 -1.000000000000000e+00 0.000000000000000e+00 -3.846153846138365e-01 -1.000000000000000e+00 0.000000000000000e+00 -4.358974358959591e-01 -1.000000000000000e+00 0.00000000
[...]
<PointData Scalars="pressure_p1," Vectors="">
<DataArray type="Float64" Name="pressure_p1" format="ascii">
9.508805955114846e-04 9.508807460824533e-04 9.508812269233033e-04 9.508811544081902e-04 2.640225966924137e-03 6.264013070333231e-03 9.725389224815778e-03 1.071476853756283e-02 1.746357608696162e-02 2.140052508917477e-02 1.779762965351691e-02 2.178397006124659e-02 2.144496420257653e-02 2.715444591104397e-02 2.548322302852838e-02 2.459263738436342e-02 2.586046692677703e-02 2.892024661351235e-02 3.413666598990000e-02 2.828993911350793e-02 3.719065866255152e-02 3.483180737966051e-02 2.920182761659369e-02 2.704668524890146e-02 2.600926863797916e-02 3.345784008809805e-02 3.526893001549410e-02 4.026018401297778e-02 2.928444850147401e-02 2.631972824691877e-02 2.676963767681033e-02 2.757460604416212e-02 2.256143387640275e-02 2.286603759119932e-02 1.922168474687063e-02 1.463920156573328e-02 2.030292890460910e-02 1.594498072719203e-02 1.005793150097503e-02 8.367512874914837e-03 5.768396950064925e-03 3.136009051921410e-03 2.640226388172452e-03 6.264014086045662e-03 9.725390800932966e-03 1.071477019680550e-02 1.746357839957383e-02 2.140052624667757e-02 1.779763264708923e-02 2.178399687592728e-02 2.144503711772951e-02 2.715519323088636e-02 2.548632003478303e-02 2.459845491296261e-02 2.587200226030200e-02 2.893568524762626e-02 3.414907014093915e-02 2.829271402970745e-02 3.718962905488637e-02 3.482770829201676e-02 2.919545590606757e-02 2.703972201630430e-02 2.600292175673634e-02 3.345142886007565e-02 3.526521465755056e-02 4.025942578261817e-02 2.928437239215868e-02 2.631969275259678e-02 2.676962170142954e-02 2.757463197149313e-02 2.256139451076593e-02 2.286481279684022e-02 1.921735178229315e-02 1.462794529527419e-02 2.026940088844643e-02 1.593369679210968e-02 1.005673145959894e-02 8.367245553660640e-03 5.768370281717127e-03 3.136007603519641e-03 2.640228223616632e-03 6.264015805500962e-03 9.725389712913701e-03 1.071476398212834e-02 1.746355645482508e-02 2.140049859102942e-02 1.779773463046218e-02 2.178472745060059e-02 2.144627260013985e-02 2.715835623999628e-02 2.548738703908272e-02 2.459546423450677e-02 2.586304403713515e-02 2.895112242393637e-02 3.415586266605884e-02 2.829165318932964e-02 3.719225036005776e-02 3.483228974879987e-02 2.920193699109663e-02 2.704671360424961e-02 2.600928280535164e-02 3.345785016494593e-02 3.526893290594364e-02 4.026017585468689e-02 2.928443512760403e-02 2.631971221807967e-02 2.676961911162630e-02 2.757458839755554e-02 2.256142486557294e-02 2.286603660036913e-02 1.922169007271024e-02 1.463920962300461e-02 2.030294337067329e-02 1.594499243456053e-02 1.005793819470565e-02 8.367517765248760e-03 5.768399867382688e-03 3.136010473981650e-03 2.640227494032591e-03 6.264016542066831e-03 9.725394328140038e-03 1.071477439699089e-02 1.746360590723623e-02 2.140095059870872e-02 1.779897178691076e-02 2.178761003340537e-02 2.144921929975309e-02 2.715868343770838e-02 2.548823944829134e-02 2.459961299829523e-02 2.587241183072402e-02 2.893580729798275e-02 3.414904482603799e-02 2.829269293732902e-02 3.718959221645806e-02 3.482768602351353e-02 2.919549763974238e-02 2.703981350495911e-02 2.600305452988385e-02 3.345172157416595e-02 3.526552728834899e-02 4.025957059894902e-02 2.928433415653697e-02 2.631958461040805e-02 2.676947533533633e-02 2.757444206902572e-02 2.256133388150140e-02 2.286597267523333e-02 1.922165168390570e-02 1.463918778828128e-02 2.030291834065824e-02 1.594497609019520e-02 1.005792936959381e-02 8.367511345902757e-03 5.768395971517994e-03 3.136008542861746e-03 9.987098309792926e-01 6.753287018862074e-01 6.764697457305837e-01 6.779658539612564e-01 6.775555273957932e-01 6.839104760841103e-01 6.838203331575160e-01 6.974418611877066e-01 6.839243543051799e-01 3.282749340277782e-01 3.282809351799976e-01 3.282800512314756e-01 3.282780035503141e-01 8.997491960288636e-01 9.021376335047268e-01 9.034873344650566e-01 9.005071344592878e-01 4.870496803490071e-01 4.870340297558188e-01 4.880418948382997e-01 4.880391847777849e-01 4.849483516691010e-01 4.849576614109505e-01 4.835090722841486e-01 4.849480745033126e-01 8.566815956790600e-01 8.415346762965246e-01 8.420877254506822e-01 8.555106106635396e-01 4.147842939470250e-01 4.148274228222931e-01 4.148439253339211e-01 4.147065474448237e-01 2.977622754784787e-01 2.978491902202891e-01 2.978209343302173e-01 2.977644549551124e-01 3.074914035570305e-01 3.074913688925339e-01 3.075261693872035e-01 3.074910449498338e-01 7.132846225104889e-01 7.344147155155565e-01 7.347281859965724e-01 7.344970979253408e-01 9.590379411406694e-01 9.571255666393074e-01 9.571240298405904e-01 9.584662959515143e-01 1.284397949021075e-01 1.284398184470446e-01 1.284363263421918e-01 1.284399280686217e-01 3.654601571548869e-01 3.654601789012020e-01 3.656274910243452e-01 3.654080906326864e-01 5.030288853381277e-01 5.031703841297687e-01 5.031695774121542e-01 5.030311855541871e-01 5.377065342930474e-01 5.344833515963545e-01 5.344803547649802e-01 5.342547647598688e-01 6.853519941077847e-01 6.847731786446570e-01 6.922315533425244e-01 6.922258330675649e-01 8.384580314521922e-01 8.379635592334508e-01 8.464416774165046e-01 8.374387149120369e-01 1.783382163093621e-01 1.783382346037455e-01 1.783379678562531e-01 1.783503847803225e-01 1.814149676832654e-01 1.814147757098359e-01 1.813945387803017e-01 1.814148018521221e-01 8.212852197389041e-01 8.263496039486414e-01 8.185340133324512e-01 8.178127300868152e-01 2.541347337752020e-01 2.541416646124670e-01 2.540820972006283e-01 2.540855156092398e-01 2.577413014842692e-01 2.577410890796742e-01 2.577250133744725e-01 2.577407030889409e-01 5.659932657219880e-01 5.637622124446361e-01 5.659897126547770e-01 5.659958223790030e-01 6.134526171537161e-01 6.120023845442156e-01 6.122455208067836e-01 6.134358014821787e-01 9.716750956795960e-01 9.706039492366801e-01 9.738335278020603e-01 9.702205533713283e-01 2.268696964791067e-01 2.268632414589496e-01 2.268639437821815e-01 2.268181940757816e-01 9.158949511540250e-01 9.177844843884359e-01 9.194605465531901e-01 9.178724269436690e-01 7.574359719770872e-01 7.574199153904901e-01 7.615679840736616e-01 7.617701779259559e-01 6.319501504918624e-01 6.436328855159200e-01 6.436313704881481e-01 6.445811692052291e-01 2.459364908404666e-01 2.457412884702683e-01 2.459364294353923e-01 2.457427489241760e-01 5.704241456017781e-01 5.709481640688215e-01 5.709510115191812e-01 5.704835941732340e-01 5.258062778160019e-01 5.245745223443525e-01 5.257659342989028e-01 5.257925295316194e-01 3.890313964366600e-01 3.890577215344973e-01 3.890572800351527e-01 3.891400553449998e-01 1.965058684892768e-01 1.965027996481932e-01 1.965014117274287e-01 1.965059016285214e-01 7.770197838106928e-01 7.770248924959345e-01 7.767216802283023e-01 8.348417195085743e-01 5.066251598142388e-02 5.066252484879882e-02 5.066216225727118e-02 5.066254878951344e-02 2.132023411698095e-01 2.131899493663124e-01 2.131918389133603e-01 2.132033922494609e-01 3.531861628101198e-01 3.531861555280260e-01 3.531967281345997e-01 3.531867920315712e-01 1.519501066595760e-01 1.519134626697124e-01 1.518981796977510e-01 1.518980570630623e-01 1.637312842687161e-01 1.637290197423157e-01 1.637309295647651e-01 1.637312618885712e-01 4.259518061470898e-01 4.259933311794852e-01 4.259464591635717e-01 4.259235290838976e-01 4.382210760460641e-01 4.378084965109598e-01 4.378082218881763e-01 4.378088215262958e-01 7.564464920337065e-01 7.727063203023072e-01 7.520248374277245e-01 7.726240659636628e-01 8.322746644342641e-01 8.315246250468835e-01 8.318339521112149e-01 4.752245887338729e-01 4.749807097320308e-01 4.750099246211465e-01 4.752242518686974e-01 9.893849528182742e-02 9.893909792011567e-02 9.893868654760050e-02 9.893866946623996e-02 1.092685695394021e-01 1.092319576751415e-01 1.092685480690456e-01 1.092686676077622e-01 9.030489688188528e-01 9.137808944113196e-01 9.238775881804787e-01 9.032428706938508e-01 6.105140670530976e-01 6.104591445439703e-01 6.104637182841817e-01 7.358323619776429e-01 5.981259908615675e-01 7.557565203622274e-01 5.679301836597743e-01 5.679791711459151e-01 5.709948015679449e-01 5.710160544639661e-01 7.475948981271260e-01 7.476225941272120e-01 7.510696323379379e-01 1.675458885539108e-01 1.675457379079683e-01 1.675443448763543e-01 1.675457499927457e-01 2.174474905102786e-01 2.174475128591863e-01 2.174468445435389e-01 2.174484783662938e-01 9.060490997683318e-01 9.040878795754923e-01 9.288467266216615e-01 9.305610071129652e-01 4.353839411839163e-01 4.354027862626840e-01 4.355243171057720e-01 4.355235927188900e-01 3.789307682990946e-01 3.789304475205678e-01 3.788938661307680e-01 3.789245646849002e-01 9.881899009698437e-01 9.893572760994539e-01 9.847385975624352e-01 9.884166014965498e-01 1.777981116426892e-01 1.777363024525969e-01 1.777980444113602e-01 1.777421207326889e-01 5.615734715686593e-01 5.614837937007516e-01 5.614820777599322e-01 5.559130213949546e-01 8.530908099373676e-01 8.533177124054687e-01 8.518057160555791e-01 6.541513134595335e-01 6.567357833681803e-01 6.566949112118142e-01 6.541946099095197e-01 2.779253415010683e-01 2.779228620384289e-01 2.779240691762521e-01 2.779220294114109e-01 8.206018161898027e-01 3.940082546393117e-01 3.941157412280780e-01 3.939506577418606e-01 3.941166364921123e-01 3.407413873037460e-01 3.406613768734577e-01 3.407766495438996e-01 3.407196388093958e-01 5.838445112955023e-01 5.804641687404876e-01 5.804825006404327e-01 5.838829502717112e-01 1.291544571016172e-01 1.291716996635689e-01 1.291481331192464e-01 1.291396994367848e-01 6.669543171260159e-01 6.669352568772517e-01 6.669747385098707e-01 5.304498562013614e-01 5.304727209126153e-01 5.303016136613912e-01 5.303143150870668e-01 7.707809896607419e-01 7.713641374643457e-01 1.583410827383360e-01 1.584157610269434e-01 1.584151384472888e-01 1.583221596269540e-01 7.667328418897376e-01 7.667833851435041e-01 2.765832270415393e-01 2.765915865719655e-01 2.765833054765081e-01 2.765830120445329e-01 1.942724368070222e-01 1.942724200795279e-01 1.942631214511637e-01 1.942726972471671e-01 7.734156410571628e-01 8.308784378043904e-01 7.734045110782030e-01 7.742715445391560e-01 7.744089987396573e-01 8.319045410697649e-01 8.374661261923279e-01 8.374472761023669e-01 9.952858702257902e-02 9.954214928091011e-02 9.952922986795909e-02 9.952858774693053e-02 8.803966123489269e-02 8.808361844304032e-02 8.808348507986055e-02 8.808356909102021e-02 6.927806269859579e-01 6.928959405943429e-01 8.797856776609414e-01 8.812163105113155e-01 8.637933842955504e-01 8.899013766426690e-01 8.844664122237983e-01 8.634256625403126e-01 8.645610843726895e-01 8.633274596825018e-01 6.855343150703263e-01 6.856097585211707e-01 1.478024731248420e-01 1.478012275649119e-01 1.478020179956063e-01 1.478025455475351e-01 9.912402410643094e-01 4.860735138933652e-01 4.850806421965310e-01 4.850515881796311e-01 4.850810483099418e-01 3.779535454168272e-01 3.780920882078079e-01 3.780916852125996e-01 3.780927165793699e-01 1.374976824443625e-01 1.375203762543420e-01 1.375041409591183e-01 1.375200233273266e-01 7.642030018583049e-01 7.620696822648406e-01 4.968272518883063e-01 4.980128939596873e-01 4.968236377927435e-01 4.968289666125103e-01 3.239784976818854e-01 3.240020142777740e-01 3.241158668363659e-01 3.239945495143122e-01 2.465550354677353e-01 2.465529608997500e-01 2.465531945082027e-01 2.465507435535853e-01 2.507284299391437e-01 2.507285282583739e-01 2.507733573223405e-01 2.507309160544759e-01 9.384126885738929e-01 9.368031328280079e-01 9.556187372056836e-01 9.385266629233967e-01 5.535840968952065e-02 5.535828314960562e-02 5.535838366798285e-02 5.535837424906664e-02 5.686679679572613e-02 5.686680796430986e-02 5.685880176534486e-02 5.686684739792065e-02 6.764992140592316e-01 6.764429579937581e-01 6.771432391450426e-01 6.788418852093598e-01 6.569937274757117e-01 7.491329637793583e-01 3.348972180596410e-01 3.348989067570253e-01 3.348757651418141e-01 3.348763006508154e-01 2.929147714181085e-01 2.929142324485047e-01 2.929144397272431e-01 2.929138501359237e-01 9.601979357054804e-01 9.438447111280792e-01 4.242834428543410e-01 4.242792802397914e-01 4.242984658078633e-01 4.243003337504127e-01 6.005133561748232e-01 6.214023639800832e-01 6.005014686194660e-01 6.005172863411018e-01 9.558547797840012e-01 9.601808188083237e-01 9.606495049732907e-01 5.878389586898454e-01 5.878034476703403e-01 5.810825939667829e-01 5.810720565843375e-01 7.506251781504112e-01 6.268230761386296e-01 8.797998455822228e-01 9.356083654568000e-01 7.943073015141684e-01 7.941337668645203e-01 7.939776085380128e-01 6.283461460452623e-01 6.291296494415030e-01 6.290363629291134e-01 1.496556140640206e-01 1.496079569435317e-01 1.496082909820155e-01 1.496560081340352e-01 9.765022261257036e-01 9.875551708308205e-01 9.751236528899826e-01 9.637163219508257e-01 9.302606376279526e-01 9.301541735641276e-01 4.883049700285894e-01 4.888319122422332e-01 4.888336143249115e-01 4.885311501541890e-01 4.269540027382373e-01 4.263371563839179e-01 4.263367534690107e-01 4.263149824395187e-01 8.067686463897183e-01 6.053509738454793e-01 6.053709364834042e-01 6.056164138364514e-01 6.056735138216581e-01 8.145832611183069e-01 8.158345940273509e-01 9.917991520599088e-01 6.731139780646463e-01 6.731731415631533e-01 6.736683745490863e-01 6.607333734436799e-01 1.108080962562796e-01 1.108329401252435e-01 1.108367436303568e-01 1.107931782245583e-01 1.120828501519163e-01 1.120827685817340e-01 1.120819048442381e-01 1.120827087692995e-01 3.922723441796517e-01 3.920930001236983e-01 3.921370377597869e-01 3.922439625885073e-01 9.805819264229004e-01 1.559060417072341e-01 1.559060775129018e-01 1.559057154642057e-01 1.559067526214407e-01 7.058960894186437e-01 7.057934990834027e-01 7.058961618672122e-01 8.980424033397150e-01 9.001615385055095e-01 2.912365462587196e-01 2.911161393402847e-01 2.911263401302250e-01 2.912343370199906e-01 9.491678291090280e-01 9.354875347434437e-01 9.342434583341017e-01 8.910510310365931e-01 8.905383801948934e-01 1.606041143048032e-02 1.606041409575802e-02 1.606040714632944e-02 1.606042119191319e-02 5.351748307110920e-01 5.351695906720223e-01 5.338256380469832e-01 5.338016558563679e-01 2.458058581043978e-01 2.458033842911962e-01 2.458062295627708e-01 2.458056256822019e-01 1.502954789623813e-01 1.502982153825684e-01 1.503078179573208e-01 1.503078075636952e-01 8.929343668130496e-01 8.948376629067709e-01 7.079726420558825e-01 7.077830950537508e-01 1.298356325238987e-01 1.297856815552974e-01 1.298357160025496e-01 1.297847227027687e-01 7.003921739420002e-01 5.050660663405462e-01 5.050170841152325e-01 5.050246521001306e-01 5.050763049173699e-01 1.047358676827875e-01 1.047357539363556e-01 1.047353714299606e-01 1.047358195309922e-01 2.727787317453135e-01 2.727803731071551e-01 2.727587220848408e-01 2.727805326977197e-01 5.025858415828833e-01 5.014469496978229e-01 5.014601962340839e-01 5.025719804842482e-01 2.574610971355553e-01 2.574654210809833e-01 2.575184349343362e-01 2.575562034136264e-01 6.775421553160527e-02 6.785411101406179e-02 6.785402602725397e-02 6.785405907779087e-02 6.366879637990765e-02 6.366994091033468e-02 6.366880133430253e-02 6.366868912217923e-02 3.388474660436316e-01 3.388858016409319e-01 3.388506778599216e-01 3.388501258054005e-01 9.470237400338986e-01 8.834011142720973e-01 8.764263124938482e-01 2.251786680280517e-01 2.251782334575587e-01 2.251791427554407e-01 2.251785241133070e-01 5.887095301497602e-01 4.235079299103280e-01 4.235047409044850e-01 4.233047570562037e-01 4.232900713945741e-01 7.931779564880356e-01 5.751489412736241e-01 5.751511382301531e-01 5.752267631828116e-01 7.068939245228557e-01 7.004535850897167e-01 7.007896117462287e-01 9.327949344431851e-01 4.388553730563003e-01 4.395727280357984e-01 4.388390429430517e-01 4.388555038961945e-01 9.510032371451242e-01 5.984662893471561e-01 5.984687572810089e-01 6.094213677873240e-01 6.095788870097980e-01 2.593802245107757e-01 2.592291923253127e-01 2.592446910091579e-01 2.593802061131683e-01 9.776982192603895e-01 7.593790019095099e-01 7.604417671612310e-01 7.598134655105667e-01 2.783398021348358e-01 2.783712742666782e-01 2.783774926346238e-01 2.783712448771574e-01 8.854741287872834e-01 5.679677263794848e-01 5.678935723443442e-01 5.678903672994489e-01 5.643074086038048e-01 3.670923483604634e-01 3.671137524719510e-01 3.671142498671581e-01 3.671171690444663e-01 8.664979311459844e-01 8.083505941135410e-01 8.018546828287458e-01 8.087222639046693e-01 9.130630169009676e-02 9.130787487802848e-02 9.132080597355362e-02 9.131973889538876e-02 4.253706127354581e-01 4.254127174476044e-01 4.254142038903639e-01 4.253704215373059e-01 3.721070665901673e-01 3.721171462321627e-01 3.721183909756955e-01 3.721049018431699e-01 8.344029773350828e-02 8.343953823236636e-02 8.344031291160284e-02 8.344035940371557e-02 8.185854936258449e-01 8.186496417662656e-01 8.182209706806266e-01 7.472985268564665e-01 4.534827550205233e-01 4.537916619188818e-01 4.537140041593760e-01 4.537887042023320e-01 3.091124607616882e-01 3.091477945584870e-01 3.091122561863748e-01 3.091166947440738e-01 9.936936212872444e-01 7.467299889307834e-01 7.483855810724513e-01 9.903777039280824e-02 9.903778803772835e-02 9.902666513261307e-02 9.903786320505023e-02 6.326070932049950e-02 6.325234717702967e-02 6.326071942397563e-02 6.326057765395368e-02 2.486576810649739e-01 2.486629399103794e-01 2.487713929520139e-01 2.487653530117689e-01 7.192267603425721e-02 7.192282960924304e-02 7.192654872838758e-02 7.193954824915559e-02 9.367152204023113e-01 9.350130619697594e-01 9.260376155463284e-01 1.864659068099007e-02 1.864659396398373e-02 1.864631610672342e-02 1.864660406805455e-02 2.328897597347787e-02 2.328897207237851e-02 2.328895603994709e-02 2.328898550516462e-02 5.216320339727298e-01 5.233121479421121e-01 5.233070234496014e-01 5.216236916183766e-01 7.434013510128011e-01 7.433116348931008e-01 7.432676290455464e-01 7.056778516518616e-01 7.043807446226643e-01 8.148729993925006e-01 8.149520156856449e-01 7.639454889652848e-01 9.285103684448071e-01 1.254998031573296e-01 1.254994973697348e-01 1.255010925613326e-01 1.255011232012136e-01 7.119198057026407e-01 7.104305417182540e-01 7.102840814108683e-01 7.955230870519833e-01 7.954880235296523e-01 4.804382171905974e-01 4.804484494654878e-01 4.804480992619484e-01 4.669758097149601e-01 4.669708265587378e-01 4.669705965952716e-01 4.830665366319118e-01 4.664088306750934e-01 1.148960985277184e-01 1.148964229898362e-01 1.149095687079910e-01 1.149075822919316e-01 3.754310729338464e-01 3.754280956913973e-01 3.754585409297527e-01 3.754842479639782e-01 7.158761897552832e-01 6.723556987291985e-01 6.398384468747658e-01 6.397297739792380e-01 6.269542937609148e-01 6.272594610732117e-01 3.783816050037863e-01 3.781528480521824e-01 3.781525409744489e-01 3.781508086509361e-01 8.647842355265620e-01 8.646150977837356e-01 8.644634552699244e-01 1.503545021069659e-01 1.503886136907528e-01 1.503885947945878e-01 1.503887743998562e-01 8.264773201271922e-01 8.264351820832447e-01 9.571207872280596e-01 7.589776353806154e-01 7.592029539896786e-01 7.587867212323456e-01 6.167329400405349e-01 8.853957626531507e-01 8.851225975991103e-01 5.733273979255533e-01 5.743122544507967e-01 5.742920277408818e-01 5.740310941907473e-01 4.618612069111071e-01 4.618824696072679e-01 4.619574973286062e-01 4.619431940826678e-01 5.404103475269174e-01 5.401760522285056e-01 5.400371147879235e-01 5.404040990683591e-01 4.507088038640950e-01 4.507080494560025e-01 4.511469198783490e-01 4.505861524782410e-01 8.042391464423885e-01 7.963733049621744e-01 6.226827399721850e-01 6.226982991979758e-01 6.230849145685710e-01 5.708257811690536e-01 5.708174185999860e-01 5.708161873429467e-01 6.735761451662002e-01 6.734775318688263e-01 6.734913765043863e-01 7.972793512069795e-01 5.666801153164199e-01 8.064715635390661e-01 8.064136917975361e-01 2.591433328156386e-01 2.591403292966874e-01 2.591498984575504e-01 2.591561242516920e-01 2.266069591929891e-01 2.266433793899536e-01 2.267047346099820e-01 2.266060728328108e-01 5.537108344447894e-02 5.537116142527092e-02 5.537125343158918e-02 5.537115285698951e-02 4.666468132453121e-02 4.666469304989674e-02 4.664004269029084e-02 4.666