<?xml version="1.0"?>
<VTKFile type="UnstructuredGrid" version="0.1" byte_order="LittleEndian">
<UnstructuredGrid>
<Piece NumberOfPoints="568" NumberOfCells="1054">
<Points>
<DataArray type="Float64" NumberOfComponents="3" format="ascii">
0 0 0 0 1 0 1 1 0 1 0 0 0.049999999999899652 0 0 0.099999999999814668 0 0 0.14999999999970359 0 0 0.19999999999955789 0 0 0.24999999999941211 0 0 0.29999999999926641 0 0 0.34999999999912063 0 0 0.3999999999989749 0 0 0.44999999999882923 0 0 0.49999999999869432 0 0 0.5499999999988151 0 0 0.59999999999894682 0 0 0.64999999999907843 0 0 0.69999999999921003 0 0 0.74999999999934175 0 0 0.79999999999947335 0 0 0.84999999999960507 0 0 0.89999999999973679 0 0 0.94999999999986839 0 0 1 0.049999999999899652 0 1 0.099999999999814668 0 1 0.14999999999970359 0 1 0.19999999999955789 0 1 0.24999999999941211 0 1 0.29999999999926641 0 1 0.34999999999912063 0 1 0.3999999999989749 0 1 0.44999999999882923 0 1 0.49999999999869432 0 1 0.5499999999988151 0 1 0.59999999999894682 0 1 0.64999999999907843 0 1 0.69999999999921003 0 1 0.74999999999934175 0 1 0.79999999999947335 0 1 0.84999999999960507 0 1 0.89999999999973679 0 1 0.94999999999986839 0 0.94999999999979179 1 0 0.89999999999958358 1 0 0.84999999999965292 1 0 0.79999999999999982 1 0 0.75000000000034661 1 0 0.7000000000006934 1 0 0.65000000000104008 1 0 0.60000000000138687 1 0 0.55000000000173355 1 0 0.50000000000205869 1 0 0.45000000000187229 1 0 0.40000000000166441 1 0 0.35000000000145642 1 0 0.30000000000124832 1 0 0.25000000000104028 1 0 0.20000000000083221 1 0 0.15000000000062411 1 0 0.10000000000041601 1 0 0.050000000000207989 1 0 0 0.94999999999979179 0 0 0.89999999999958358 0 0 0.84999999999965292 0 0 0.79999999999999982 0 0 0.75000000000034661 0 0 0.7000000000006934 0 0 0.65000000000104008 0 0 0.60000000000138687 0 0 0.55000000000173355 0 0 0.50000000000205869 0 0 0.45000000000187229 0 0 0.40000000000166441 0 0 0.35000000000145642 0 0 0.30000000000124832 0 0 0.25000000000104028 0 0 0.20000000000083221 0 0 0.15000000000062411 0 0 0.10000000000041601 0 0 0.050000000000207989 0 0.50333998054938722 0.50119715791968966 0 0.70252050881959183 0.70358884261915833 0 0.29641115738084339 0.70252050881958938 0 0.70358884261915744 0.29747949118041561 0 0.29747949118041711 0.2964111573808435 0 0.50000000000002642 0.7803135888501761 0 0.2196864111498267 0.50000000000003153 0 0.78031358885017377 0.49999999999997569 0 0.49999999999997108 0.21968641114982909 0 0.8289812646369813 0.82898126463698818 0 0.17101873536300011 0.82898126463696109 0 0.83199780613337848 0.1690131600686714 0 0.16901316006868169 0.16800219386663079 0 0.56566515596461675 0.63670464971409091 0 0.35984320557492089 0.56698606271778873 0 0.640156794425081 0.43301393728221721 0 0.43301393728221038 0.35984320557492139 0 0.63969251517836323 0.84598529912890386 0 0.1540147008710982 0.63969251517836956 0 0.84598529912889664 0.36030748482164038 0 0.3603074848216346 0.15401470087110539 0 0.84598529912884157 0.63969251517827153 0 0.36030748482174152 0.84598529912882459 0 0.63969251517826664 0.15401470087115929 0 0.15401470087117619 0.36030748482174652 0 0.4434591735942961 0.66641640622551224 0 0.66548584431530877 0.55616712808283064 0 0.33382663527330159 0.44130125047503482 0 0.5586987495249669 0.33382663527330653 0 0.53432142347292233 0.88563193847251998 0 0.1143680615274819 0.53432142347292733 0 0.88561059063756964 0.46572761956237563 0 0.46567857652706018 0.1143680615275231 0 0.74198804864688339 0.90892718720327403 0 0.091072812796719582 0.74198804864687795 0 0.89586000931544074 0.25714619498770419 0 0.25714619498771307 0.1041399906845497 0 0.88949062093135778 0.73694585442531257 0 0.73688246401832591 0.11047754041323141 0 0.26305414557470391 0.88949062093136155 0 0.1104775404132264 0.2631175359816938 0 0.59819537371016407 0.74380966024143391 0 0.25619033975856881 0.59819537371016862 0 0.74380966024142703 0.40180462628984132 0 0.40180462628983732 0.2561903397585753 0 0.74417394063200648 0.6049203001048884 0 0.39507969989512881 0.74417394063201048 0 0.60492030010488373 0.25582605936799729 0 0.25582605936799319 0.39507969989513358 0 0.90045039720880915 0.9020090423547924 0 0.90082758526900886 0.098076845682916511 0 0.097990957645208238 0.90045039720880915 0 0.098076845682915317 0.099172414730993488 0 0.43590673999053309 0.90289902042279657 0 0.097100979577207341 0.43590673999053198 0 0.90289902042272274 0.56409326000946114 0 0.56409326000946236 0.097100979577281268 0 0.73982803480991577 0.79629608696991705 0 0.20370391303007401 0.73982803480989479 0 0.79629608696994103 0.26017196519011448 0 0.26017196519013502 0.20370391303005 0 0.77998481823117694 0.71397317153691997 0 0.28602682846308641 0.77998481823117594 0 0.71397317153692708 0.22001518176882201 0 0.22001518176882229 0.28602682846307981 0 0.49189101320880302 0.59024331187324797 0 0.57387636360620708 0.54318431390135336 0 0.41009598069569558 0.49083935749285379 0 0.54901591374940373 0.42306523525165751 0 0.6519524273377173 0.64249931920594539 0 0.35944937237716967 0.65164789808436319 0 0.6424993192059415 0.3480475726622802 0 0.34804757266227387 0.35750068079406011 0 0.81709574086843206 0.91318696080656769 0 0.086813039193431391 0.81709574086842884 0 0.91838802593870927 0.18172590289757809 0 0.18172590289758209 0.08161197406129285 0 0.91838802593884228 0.81827409710237209 0 0.82118136511706341 0.082875076569723011 0 0.1817259028976386 0.91838802593888857 0 0.08287507656968085 0.1788186348829835 0 0.51484304721220842 0.69707233951836334 0 0.30292766048163949 0.51484304721221474 0 0.70015119067225129 0.48481914991727459 0 0.48378871228000903 0.29745177826977359 0 0.60938371359314658 0.91847489683800321 0 0.081525103161997597 0.6093837135931508 0 0.91890123454466932 0.39094742729597309 0 0.39061628640684498 0.081525103161991672 0 0.92670321183853355 0.65773042910151081 0 0.65773042910151891 0.073296788161472337 0 0.3422695708985129 0.92670321183858773 0 0.073296788161418117 0.34226957089850552 0 0.43087117257049001 0.8215422551712771 0 0.8215422551712277 0.56912882742954496 0 0.17845774482872559 0.43087117257049429 0 0.56912882742954041 0.17845774482877461 0 0.46102425708533701 0.43254199134332588 0 0.56759263990989184 0.81794319034601648 0 0.18205680965398621 0.56759263990989739 0 0.81794319034597418 0.43240736009009317 0 0.43240736009008851 0.18205680965402779 0 0.66820316019503978 0.77769800602796979 0 0.22230199397202771 0.66820316019503168 0 0.77769800602796679 0.33179683980497482 0 0.33179683980498331 0.2223019939720311 0 0.67757268808231397 0.93106206656183088 0 0.068937933438162791 0.67757268808231053 0 0.93106206656185309 0.32242731191769503 0 0.32242731191769902 0.068937933438140794 0 0.43565339604028508 0.55159384357101338 0 0.58981073711177334 0.48140931020849848 0 0.49854341599767982 0.37075914768127122 0 0.44764943295894188 0.73752415265401661 0 0.73752415265401194 0.55235056704108476 0 0.26247584734598628 0.44764943295894732 0 0.55175647814720108 0.26104505532086641 0 0.39419886675318527 0.41912225240070788 0 0.48669777060454272 0.93510666819646593 0 0.064893331803534807 0.48669777060454478 0 0.93510666819640953 0.51330222939551939 0 0.5133022293955174 0.064893331803591428 0 0.40653508887824003 0.61580573377480397 0 0.49771727055908782 0.83998685797641781 0 0.16001314202358469 0.49771727055909287 0 0.83998574657308889 0.50228528270184081 0 0.50228272944093777 0.16001314202359701 0 0.70085728320704077 0.84350379029875056 0 0.1564962097012354 0.70085728320703999 0 0.84350379029877964 0.29914271679296989 0 0.29914271679297122 0.15649620970120659 0 0.839908789927305 0.77106070975262608 0 0.22893929024737289 0.83990878992727813 0 0.77216325087772952 0.15899695163319821 0 0.15899695163321451 0.22783674912227669 0 0.76395804595204597 0.67808171673060369 0 0.32191828326940508 0.76395804595204586 0 0.67808171673060202 0.23604195404795861 0 0.2360419540479583 0.32191828326940741 0 0.64518564541690571 0.69601563325001548 0 0.30421635384321521 0.64514939193436716 0 0.69601563325001248 0.35481435458309712 0 0.35481435458309307 0.30398436674998969 0 0.61233489393901674 0.60846740003560018 0 0.60122390529523662 0.39097801071820221 0 0.93946948561981514 0.60485373571037115 0 0.6048537357103756 0.060530514380187868 0 0.39514626428973221 0.93946948561985189 0 0.06053051438015096 0.39514626428972788 0 0.64455163611866495 0.50369301794551069 0 0.94156647488778256 0.058433525112256718 0 0.058433525112266523 0.058433525112214509 0 0.94156647488775558 0.94156647488774259 0 0.058433525112254137 0.94156647488774581 0 0.77688977118331393 0.94706199857866258 0 0.052938001421335763 0.77688977118331159 0 0.94465622530468663 0.23167460333446291 0 0.23167460333446299 0.05534377469531044 0 0.9442075111696665 0.76777356182390766 0 0.76543419162344684 0.056452228708420968 0 0.23222643817617661 0.94420751116970569 0 0.056452228708379938 0.23456580837661581 0 0.78284912262770068 0.83746308049763585 0 0.16253691950235041 0.78284912262768558 0 0.84534053180161173 0.2262639405833009 0 0.22626394058331961 0.15465946819838111 0 0.55307204985744796 0.94819812235491685 0 0.051801877645083663 0.55307204985745195 0 0.94812782820415209 0.44708943904932719 0 0.44692795014265252 0.051801877645060238 0 0.85607519768343354 0.69380468830529196 0 0.69379929796456197 0.14392209494791061 0 0.30619531169472608 0.85607519768342955 0 0.14392209494791439 0.30620070203545702 0 0.51172471858873747 0.64015771271794875 0 0.35815651743779398 0.51113440447909086 0 0.57051182622447827 0.69668652018496713 0 0.30429740679959738 0.56913905146460098 0 0.69595787604187809 0.43071000156707989 0 0.43059486795334201 0.30395973419063538 0 0.54465502325161819 0.74717983044080061 0 0.25287139441262568 0.54458355434492378 0 0.74730218607442667 0.45539100053644521 0 0.45533136021725079 0.2525687312087147 0 0.86696410734367158 0.94753096683315619 0 0.052469033166843738 0.86696410734366991 0 0.94100406608115506 0.1383574446607955 0 0.1383574446607988 0.058995933918849157 0 0.94095916274074942 0.861652780
[...]
<CellData Scalars="pressure_p0," Vectors="velocity_p0," Tensors="">
<DataArray type="Float64" Name="pressure_p0" format="ascii">
0.30747792489848008 0.41920156231875705 0.11501440385642045 0.15630989641365689 0.37915209151043749 0.39871725425139376 0.25749224679307386 0.2391648390290517 0.69780813229358651 0.047906286432082418 0.23896639994443153 0.017942251473560895 0.87360155117686822 0.011910841604835022 0.0014917288815129222 0.11303418766054685 0.011566335737269916 0.87334910490874429 0.1132916640880318 0.0017884154176524255 0.1979213123986609 0.0065854217874232778 0.77522826553521385 0.025987294445858837 0.77020551667233916 0.025057701864482126 0.19766692475316661 0.0063021412537289821 0.41299498463649287 0.098995758546173568 0.39439175407313209 0.094052071380283764 0.76192414826777899 0.013724743347773967 0.22312321222064382 0.0043005734816192239 0.75812654798816315 0.014354581991516161 0.22303033589514182 0.0042803194462841792 0.71619514965042219 0.026952524119385427 0.24704957422086762 0.0095999014661177842 0.7185399739639069 0.1463648844823478 0.32048562246625789 0.43306086038361036 0.10426645425119972 0.14098398568580428 0.84735590228459157 0.027431050624979841 0.0035210772872436361 0.12319167501513492 0.027434245647412831 0.84307235466865371 0.12388158937050822 0.0044167380356346002 0.028951567665441803 0.094156250735442398 0.66886356725040153 0.20916309621000112 0.66440210304757774 0.057597858273125531 0.25424720081214908 0.023802132964227601 0.050538690811034528 0.57715821372937948 0.030176084169158277 0.34139338102548683 0.43483554723953194 0.089823477955211478 0.39274076320579399 0.081377303774868154 0.73068588003004575 0.12587276571206441 0.1260110792806369 0.020994242157387332 0.027530328933892019 0.10154826058277373 0.14622699027820182 0.023125020043447079 0.25720864885788058 0.49593303512578724 0.084898723468133916 0.16382505996193564 0.24177704643338549 0.019346343681326567 0.68473167759518716 0.054136068718283012 0.18700828940484773 0.68766240929485767 0.27248850356552856 0.47291772083603795 0.092851200833725736 0.16142279545061772 0.31665826729597196 0.56825212840657413 0.02050980147791133 0.39751873236371915 0.014735339549113047 0.42319333484533328 0.031179137811162123 0.50838181211471167 0.037532434536631444 0.31328688406940325 0.70784124553214955 0.012689339208123495 0.27410437323026082 0.005080808548339583 0.49506638957030302 0.37526771085910993 0.073993096500484912 0.056526064887360908 0.52377288839600855 0.070377413266468458 0.35832297282636788 0.048481397407112825 0.42546088822200512 0.28693588171221751 0.1713938698299601 0.11656666614948988 0.38780379727132996 0.15576363634224569 0.32663910370677784 0.12996758545532716 0.18628705848571273 0.011489937634542802 0.75718842351647364 0.048811596098172476 0.75461173263835002 0.047721924919641348 0.18670699010753836 0.011835334339480114 0.41678806347085362 0.15491994507126777 0.31319659277960976 0.11653716514940379 0.56861867971568603 0.23881494489973762 0.13667167368175961 0.057371914095480682 0.58113957428088425 0.11760135155110553 0.25182497748395782 0.051197540881829762 0.43725618232138214 0.24934187004819125 0.19978515592987905 0.11397642696689307 0.55929964841459978 0.57597901075042868 0.099340515881157609 0.10326643696765549 0.28829475528970883 0.27104540200241667 0.051720086606852851 0.048824027462292779 0.30087008105847424 0.21483487630406417 0.4276923619767421 0.04255824730791205 0.48204980604365211 0.048055505735067394 0.3132306696058918 0.33665163235559187 0.064561257057644053 0.58283460669217624 0.31769500785687127 0.035094642593887809 0.65617839917794951 0.16551019385850801 0.14279545290693574 0.035270314354796335 0.52604158459651718 0.2937073283551912 0.1162303583311316 0.065225947211159221 0.36823485817895285 0.70054305475592282 0.064807547662190407 0.72480955043127415 0.066258253030364839 0.62588772767799739 0.65882608457332337 0.14759379725559854 0.14442432691523135 0.18832577784959356 0.16592301064476711 0.043392230422564376 0.03523448765569169 0.85559378136067821 0.077484952341335456 0.060309561437510463 0.059282815655882434 0.85654491022090684 0.0051709132730685288 0.005999511266396463 0.078312776801924555 0.54385445399072174 0.3669016325445188 0.052780084800532097 0.036010634496451019 0.42416074992256803 0.21053454619631073 0.24257144892923008 0.12076977408675407 0.56156345030506882 0.0081319677644258442 0.42360915391661252 0.0061336592450817028 0.064720462888298941 0.0019559062496410521 0.030825830201737354 0.90245026126512173 0.90154688605789901 0.029962607125818053 0.0028099000543836098 0.065616990875672299 0.54790460182682243 0.01790293348400581 0.42154774159264097 0.013475317619404259 0.12181512950791476 0.029425590064279986 0.6067524705179832 0.12121544215871533 0.22852729446711595 0.046257525855781148 0.44192326789840353 0.064786645573476881 0.43040756496242616 0.063248207037737619 0.025316549799136119 0.2609121863702013 0.062685871618994818 0.65126382840309649 0.5400430386416446 0.24459827749257784 0.1484191923596182 0.067786367160272892 0.68177825012345372 0.16691671295579474 0.35458120474666782 0.34471735252196473 0.53274565654744732 0.22859207423507999 0.16701274717908565 0.071684382887919298 0.83423607862287485 0.056610223770520746 0.10302481874180401 0.83079683551782701 0.057538958652913225 0.0071694456547126834 0.10303548149665215 0.0068088003128791152 0.22473493842560088 0.19885445486354297 0.36781667726777562 0.39465659714890966 0.0929285820093987 0.41450354224928804 0.097453371409902137 0.6220695964312446 0.093848202068585879 0.24740667032806862 0.038455693349156592 0.44817254442021687 0.26879754129513428 0.17645276827471479 0.10652249146498491 0.63612784748876139 0.10903473558860344 0.21780304935728045 0.036986654854233275 0.35038969712556917 0.22951299155843147 0.21652235885673837 0.28239958988989255 0.26722007717575491 0.20464556591604688 0.027830881725754417 0.18592983673975097 0.72300303894504248 0.025267652819497863 0.24578759036969236 0.009139203130685029 0.53802257181304847 0.038830770293584421 0.39542987328651702 0.028847289478587352 0.24859362152783315 0.14879262763551188 0.14540686395138835 0.61975647301255365 0.0093629066405994266 0.36543945166682279 0.0053163464291774215 0.58048317500912405 0.17861723194673029 0.184735265298476 0.056722518658369678 0.045323239217690763 0.0011317161200179856 0.029097028748839866 0.0015586062581534671 0.92440852594054734 0.92396847642116542 0.045158299114148717 0.028081147847595012 0.79437125054561719 0.11639025329060121 0.77425020269245448 0.1425969845003825 0.14285264935689751 0.013018623244735364 0.11652682528879296 0.011434835142365393 0.32993502056581725 0.21605608253289682 0.28493924783014885 0.51186686429090655 0.073343967667565527 0.13100592400367081 0.16027881476835026 0.15453042569253614 0.25036479419825841 0.44897145871067828 0.075418668317685622 0.40762511912205063 0.068462203791591902 0.23669072905288785 0.4490450747568101 0.23310642602242435 0.21004587507963113 0.10847906260061185 0.57930263872914156 0.13369192324454091 0.23316858975917543 0.05373361736583504 0.1595717850276796 0.6278198715351031 0.12659313097758557 0.2076364689296184 0.0418452986909792 0.35608367183662415 0.5598320602007032 0.10925410346767833 0.27756939754075205 0.054285179421412325 0.16778109619991249 0.60542583106752379 0.048485906001349194 0.1771912833710253 0.31000304229270959 0.24295707452625087 0.25747589601822074 0.49562995573932433 0.22400946650568593 0.50328856847243086 0.23659949777147182 0.19388549510998809 0.087203775748381104 0.17751155275733288 0.082871874937497314 0.64994961266923446 0.079119179535844075 0.23921743943421153 0.031743605928542577 0.47132782231058412 0.49630970631439109 0.14871997854964877 0.14697188728210456 0.28973763619614723 0.27596944168028825 0.090882186926184133 0.081233027095500343 0.59753120787934044 0.035058633056106452 0.34630161879714971 0.020362014034262837 0.44177448214251241 0.21573308861611562 0.22901048748894107 0.11144800811581523 0.55976439506808662 0.17364149035159182 0.20303355052582051 0.063273288557108495 0.24500067678798598 0.0055292944291402768 0.41315802875911706 0.0079327135917138681 0.57286553198869006 0.080436865707143063 0.0013653229369674314 0.90652865635890256 0.012365909098742342 0.90620558331396994 0.011979146686894581 0.080110265337244357 0.0010252080749578402 0.6185249562318117 0.10127479645390386 0.24089736842628273 0.039918247835648714 0.37584254299277736 0.14122481117487939 0.35178457952311215 0.13038332990513141 0.34592142838667383 0.20029212854677375 0.20336272836449112 0.5266513292270103 0.11514710406872863 0.29248606246947495 0.064233641606080083 0.59275147995938227 0.017384450409619959 0.37867318322144311 0.010974489714224503 0.39355475333814594 0.22204720878071471 0.38726480789993012 0.19299820210954985 0.27914002008736838 0.13873987812228075 0.019198043382229198 0.59444864719026957 0.012074054538852488 0.37412096906876147 0.38612478419143426 0.12545715761082998 0.36826886563730099 0.11894807492230455 0.31407156654961427 0.090127614592174721 0.46089313146603894 0.1332896054961546 0.54535846389523701 0.21102067632785124 0.17577112205140355 0.067841379021346362 0.30189816948562653 0.21796315915195508 0.51958547161248236 0.13231249604070192 0.27738441574811878 0.070429421342277518 0.16550275269727072 0.029390419948482092 0.29911781486347055 0.30515184429927467 0.47867336078751666 0.4752400963867438 0.073995260191442452 0.087678104837157878 0.38793977959175174 0.3680196514770665 0.059791110890784177 0.067822903556069125 0.60512721383256329 0.086524564515967323 0.26947108277907228 0.038725282604196387 0.61568715545559405 0.20362732361711766 0.13540055437210288 0.044102113024328565 0.21438691377635727 0.033258877523125806 0.39408290947599967 0.078250413626667903 0.44037142296183551 0.087298298283942505 0.33490562874543789 0.16630376067053307 0.53091458365689126 0.091758839272049697 0.32228115640944954 0.055685575647237327 0.32489685500922738 0.29557316062054118 0.24557327203246077 0.51935899570494026 0.084141719380967761 0.34173048655384475 0.055081925500888154 0.20002470283575929 0.37247953005193257 0.077197944918977524 0.45545877272424223 0.094127295981719497 0.21435170884157123 0.19321605279823875 0.020586634335715486 0.016908817211024801 0.26298658122348106 0.023368013040520198 0.11591451909848612 0.6686241164258695 0.66243721885885232 0.084819344729922197 0.10482510011083526 0.062766249414484138 0.016960372862223481 0.72725511438698054 0.19535061528581998 0.067431168102722427 0.02092647440883369 0.69415133003927498 0.2179911317824228 0.51700439252213704 0.53770088866078769 0.20090824750240074 0.19531523453260896 0.2032468157162633 0.19500474830995534 0.078556852945034727 0.070805954372011329 0.62437696110622098 0.25736908243377943 0.083106962233256559 0.034437047958409281 0.26666903813399112 0.29537804654218686 0.31637878217975218 0.68301532325595515 0.12552114506312279 0.18298316970673748 0.026600882822317155 0.071002635149415738 0.010538621081441251 0.56048163100002402 0.08153499569967293 0.3137717600194373 0.045586067235504395 0.091851148017281489 0.019198358535094613 0.71099310687365436 0.011707179323737547 0.27304071542498176 0.0048086301990920097 0.52311196579971098 0.015756838624996283 0.44669517292481681 0.013432334545773942 0.18767856902343649 0.74092718860535256 0.15491597505024141 0.27571757382154405 0.38125777991324172 0.40279295981686669 0.82060701327933683 0.026944919639583391 0.15702195557889048 0.78336418683558939 0.010108996894445835 0.04924397321998164 0.15115027345207874 0.81614609083990275 0.0049917645577359851 0.026356255123996523 0.15102868215826878 0.0051490577485977665 0.15663019845191575 0.0098872490290986496 0.26600759938576596 0.26963004799440787 0.13736492655582072 0.12957768692479987 0.16252988515843525 0.18817710380708846 0.57367185338477578 0.091922864107057217 0.28858279634075223 0.046180874622266235 0.19973721371290376 0.33408062397597027 0.46697267967684603 0.082329072044916018 0.11556365867027732 0.79694738090532458 0.051077267178631924 0.77179111374227016 0.059736451645968337 0.58573258214315638 0.21422464234921706 0.14720558770326803 0.053352244606692779 0.22199240166709655 0.24942252249820873 0.73261696407687893 0.094436362059760859 0.62490370301017828 0.181593968866372 0.14901792731829228 0.042578883335264078 0.38768521058120775 0.40569768862270628 0.1877833151427189 0.18870793099540992 0.53732042961536186 0.54912276206396338 0.035089103208706687 0.042086211443489334 0.026021827437063244 0.028961213415061235 0.34983464552451371 0.18854885051100234 0.34944779777238394 0.17269473058851301 0.80432590200156961 0.068410725137478437 0.064577481634879169 0.011847265572596855 0.6495192045905378 0.050635716083289317 0.27801836874183261 0.022018124935160172 0.43355038219461151 0.14015381333948654 0.32350077107128483 0.10439619563610605 0.33906951294914323 0.42352053588399663 0.16913845628467775 0.29205513036825992 0.11619956697178385 0.40951525943923717 0.11853411255144117 0.36735550639610026 0.1057792809140171 0.37264618632466495 0.16941863035376212 0.372807113973041 0.18537893007884293 0.53835736304853843 0.067680727589358072 0.35111595159358705 0.043819939325727766 0.024920750465809691 0.02142861205146069 0.50817511365676937 0.44617249423946392 0.45011237136268811 0.097731536157707716 0.37001935455022822 0.080694653531310154 0.24969097193434159 0.56019618162521079 0.156812113216524 0.22139497189304175 0.062101315282111547 0.33626091351429271 0.32049326656168997 0.071681323801959435 0.48944337670777671 0.51398626008273418 0.064543886023979591 0.1035365441805696 0.1031215025787551 0.41145263474655935 0.2064396141930307 0.25608104748732785 0.77261274782821765 0.10772319112231446 0.10852258896114395 0.014952676677221711 0.17211881086641939 0.63532310312125828 0.051923344768639496 0.28895369496043671 0.023402379612007453 0.24570537379130847 0.13204030862131749 0.67463813118257376 0.019726687004175639 0.29669765277218674 0.0089433015919828333 0.46840356933280636 0.46166511986846492 0.13672361012806211 0.11919385426235213 0.31130180063216123 0.32873472288743461 0.0918106989075749 0.084031308360022122 0.51210464248852727 0.10818294692558757 0.31304810858516313 0.066455165680779069 0.49967838269805964 0.062325998935009688 0.37216362785624962 0.048539764476270779 0.5285254929976041 0.059046912189609481 0.38928680742723787 0.041426054689946604 0.49107837660955034 0.092835190399091772 0.34944881912023984 0.065918931864639624 0.56932914573796933 0.20309991234208385 0.16840641836863338 0.059525338323297233 0.44662105424927667 0.35577735637600433 0.10927935174770803 0.086624279868151993 0.64407660416694124 0.036184940753871249 0.30282552067574203 0.016918861848686247 0.33482810426889043 0.15242979322683667 0.46385527057292864 0.051941163266067333 0.43604679588794037 0.048864879991770506 0.28221105447422129 0.71447495813970918 0.088458485012470542 0.7794355788344397 0.088776048767217702 0.083514108198128434 0.015663902024778419 0.48679831616912467 0.10936344101618742 0.32890526819727506 0.074514072609268317 0.15434560761466948 0.01840605198161592 0.23308453178777888 0.21529043180423427 0.48181668336444866 0.20359700052784369 0.22099723245227615 0.093509006484441548 0.14489290425365456 0.45748035101108486 0.041885073082173596 0.45836257533625302 0.04188024544379898 0.2865900682268096 0.27772151667255568 0.30062751887610617 0.8134821971659163 0.012185763966271489 0.17467873499175113 0.002472194560459974 0.81219230677281873 0.010517447758514435 0.17435923069927842 0.0021875429900778069 0.46620416681406074 0.19944016567469647 0.23329935674238139 0.09954482090693334 0.4134644709838271 0.066032045328976621 0.44856607364434953 0.071794443700213137 0.47499041808489784 0.22439902919021587 0.20537326860615607 0.097183498884723094 0.62453827698961673 0.030179683520644096 0.015867083734717336 0.32880649933114914 0.66641326022195269 0.0071206144188858608 0.3226987721425566 0.0034883954007597522 0.0043898189414971695 0.36722971681742744 0.007169666692577556 0.62200888455766801 0.75741091546689965 0.082842080045140265 0.09046661488092142 0.013606719405343897 0.45021745914638989 0.45129715100959766 0.16614770393026596 0.18010270131073311 0.28057341587803791 0.26278562818174489 0.10339547869923305 0.10475498341286685 0.71294470137747801 0.11834745343732082 0.48124343176600798 0.36195794309851964 0.089492088440874279 0.068102099513209904 0.17532067816177027 0.16561085681156276 0.32929210808484544 0.53423962077353004 0.052669882805271989 0.085515908211481889 0.32539310318834447 0.42737608134520605 0.19242395172494403 0.26054332023128779 0.11766461258099326 0.29430265239855202 0.47979493333939233 0.085135564743779535 0.13948001316688866 0.20208683088020732 0.17115921658479338 0.27344396422577283 0.22016287137050494 0.29121283419051092 0.51540081404108284 0.0065478921256112502 0.47241703181233519 0.0061498661853659382 0.42714571318964706 0.35707271894623871 0.11648466124675963 0.097006606092821787 0.17153992906605509 0.2554021589101762 0.23490211272304692 0.00053556951543647156 0.010419549808425747 0.026903246770405398 0.00035823543402584048 0.96212375473227507 0.96230655549718613 0.0264796989323004 0.0096524482936349958 0.21662316452342836 0.18797358378832749 0.17585281411928944 0.57946402530773589 0.034371864103955686 0.36543346498193774 0.021731504990512192 0.51517051618661425 0.17061966223443156 0.23688122527149413 0.078081410048129865 0.23879002025931267 0.1345349338477333 0.67932942458625578 0.018753633441322613 0.65626400727426681 0.034720641333695679 0.29374516565763797 0.0083856199489063376 0.2939873295662474 0.015795297101763181 0.72278928607610682 0.17838069679382415 0.52098084030021186 0.26369396958476099 0.14435787056166846 0.073708159224539549 0.083263994197350519 0.020535229439329714 0.1699714219516465 0.40557265795390196 0.053791329942700486 0.47787189596449708 0.063535768676340365 0.34954883889075972 0.33945568180304286 0.14165945792121692 0.12882555951137234 0.36122721215887366 0.38374479553792601 0.60327526015353827 0.061234724511535887 0.30600987701466542 0.030914767629271749 0.55987566112054143 0.08513533489744346 0.30877645745354848 0.047124038251456231 0.21092500295871358 0.60083565874624167 0.2783895489453338 0.081188501719042183 0.037544171782062229 0.6844520430718618 0.10674328368607852 0.49581046864441758 0.16613868707937424 0.25317884943350716 0.084331209168029525 0.29917426701947863 0.66822310239093141 0.0073472946735177146 0.32109943086995452 0.0035285382266105779 0.17262169005896086 0.47031315931816375 0.0045664541930569612 0.51974445696010552 0.0051304070520615669 0.17501898838453464 0.020025463486594224 0.15900345049307496 0.27837112320010399 0.2762229446722928 0.011073925411223248 0.44394712895433763 0.013290817824248988 0.53168588882822365 0.41036385027711786 0.18488047669454524 0.27836093533586037 0.12547734356824841 0.21002006695478195 0.22869126347965774 0.53714989665835455 0.15609622574815196 0.23830528711639853 0.069140684058696472 0.13862780383580192 0.61836055252194067 0.066177987849245751 0.28602248498843685 0.030527162832803514 0.49183472718916377 0.050881069880461288 0.042763102891272949 0.15235586158338993 0.49195883723853262 0.011323232320181575 0.48527737930994141 0.022495947730663754 0.010909749884532298 0.48575807804650811 0.47086133027714072 0.021428598257856365 0.50884908655291294 0.039905540486177567 0.032673095251116432 0.56513963902187836 0.12426154335662924 0.25459412807852333 0.055825438581764475 0.16020829679651877 0.34176785648863361 0.41922566152568441 0.1064198323922172 0.13038153235398964 0.63812019338004933 0.017012840101278178 0.33675784609395337 0.0089783830004630215 0.63194213135006705 0.032547294178379926 0.3199361601931332 0.016581906329475992 0.41833877598672475 0.414628181581566 0.27973884876025407 0.42854086610846809 0.12431479780337357 0.34694727342760801 0.10046825508995469 0.3208843118344798 0.57574281295012286 0.070526847710738097 0.31533602947814293 0.038629613813344385 0.27222119974417003 0.60597300911833041 0.064048060267150403 0.29