<?xml version="1.0"?>
<VTKFile type="UnstructuredGrid" version="0.1" byte_order="LittleEndian">
<UnstructuredGrid>
<Piece NumberOfPoints="568" NumberOfCells="1054">
<Points>
<DataArray type="Float64" NumberOfComponents="3" format="ascii">
0 0 0 0.049999999999899652 0 0 0.032369857048753323 0.032369857048862027 0 0.058433525112266523 0.058433525112214509 0 0 0.050000000000207989 0 0 0.10000000000041601 0 0.040058458469319477 0.094457855579157729 0 0.098076845682915317 0.099172414730993488 0 0.094457855579284614 0.040058458469418363 0 0.099999999999814668 0 0 0.056452228708379938 0.23456580837661581 0 0 0.20000000000083221 0 0.038839999600931263 0.17949825993190149 0 0 0.15000000000062411 0 0.054872692726595548 0.13410685639845171 0 0.089689702191541126 0.13851380458662241 0 0.12294765968567151 0.14825146416195439 0 0.08287507656968085 0.1788186348829835 0 0.099694771212264055 0.22074048840547039 0 0.15899695163321451 0.22783674912227669 0 0.12587517708284679 0.1889683322666954 0 0.16901316006868169 0.16800219386663079 0 0.18922011052115781 0.12644206653611201 0 0.22626394058331961 0.15465946819838111 0 0.20596721135052939 0.19972517895396219 0 0.2115548431873881 0.2417444767741872 0 0.18035159017842109 0.039190336535090492 0 0.14999999999970359 0 0 0.1383574446607988 0.058995933918849157 0 0.1484760565886207 0.1122209074004519 0 0.18172590289758209 0.08161197406129285 0 0.21720615046484709 0.1044394548351292 0 0.23167460333446299 0.05534377469531044 0 0.19999999999955789 0 0 0.24999999999941211 0 0 0.28320804985300141 0.050843339082505573 0 0.29999999999926641 0 0 0.32361955853288599 0.032799927825624707 0 0.36246243089534252 0.044218366607477223 0 0.34999999999912063 0 0 0.35582258519414178 0.085418764257258431 0 0.32242731191769902 0.068937933438140794 0 0.33076700644279272 0.1195922550481146 0 0.29506339503703888 0.1011380892434444 0 0.25714619498771307 0.1041399906845497 0 0.26318949769601319 0.14610173397257309 0 0.29914271679297122 0.15649620970120659 0 0.26017196519013502 0.20370391303005 0 0.30107969069289831 0.20280020009141189 0 0.28840285102268098 0.24960955320708811 0 0.33179683980498331 0.2223019939720311 0 0.33080167595110582 0.18179111300269291 0 0.3603074848216346 0.15401470087110539 0 0.3972892400718947 0.16563993209502181 0 0.43240736009008851 0.18205680965402779 0 0.41732862935313042 0.12986698634362279 0 0.38103425680679859 0.2047839516297037 0 0.42421838472613971 0.22246502005787769 0 0.46229330881044273 0.19890916456654811 0 0.49999999999997108 0.21968641114982909 0 0.45952001838826873 0.15666487330524251 0 0.46567857652706018 0.1143680615275231 0 0.47574662421782782 0.077626823840590969 0 0.48492433058289169 0.037321398276272413 0 0.49999999999869432 0 0 0.44999999999882923 0 0 0.44692795014265252 0.051801877645060238 0 0.40685581827241191 0.041139877312511682 0 0.3999999999989749 0 0 0.39061628640684498 0.081525103161991672 0 0.37516171960683908 0.121918126660369 0 0.43122735573933979 0.088176999192917438 0 0.42930823106401639 0.40626685012722968 0 0.39222057657781068 0.38067796690227418 0 0.39419886675318527 0.41912225240070788 0 0.37702386074717259 0.45819417564476811 0 0.41009598069569558 0.49083935749285379 0 0.42340342337193693 0.44762131874855388 0 0.46152714345798918 0.47344359412352599 0 0.46102425708533701 0.43254199134332588 0 0.46543211128216788 0.38788423543681888 0 0.49854341599767982 0.37075914768127122 0 0.47253211736503098 0.34081710830804929 0 0.48378871228000903 0.29745177826977359 0 0.45533136021725079 0.2525687312087147 0 0.43059486795334201 0.30395973419063538 0 0.39162098771181342 0.29503699292854563 0 0.40180462628983732 0.2561903397585753 0 0.43301393728221038 0.35984320557492139 0 0.39120887188745579 0.33407577688404289 0 0.34804757266227387 0.35750068079406011 0 0.3231032570156932 0.32141443408924047 0 0.3579628846738841 0.25683522786710378 0 0.35481435458309307 0.30398436674998969 0 0.32373692627050221 0.27286413781593999 0 0.29747949118041711 0.2964111573808435 0 0.26014443552207939 0.29262390443653519 0 0.25082138072344978 0.25770010742236849 0 0.28473805236128291 0.34355768118673757 0 0.25582605936799319 0.39507969989513358 0 0.2963043386970643 0.4298320229681446 0 0.30597655500381687 0.3934681685211931 0 0.35481422397128459 0.40312981465069342 0 0.33382663527330159 0.44130125047503482 0 0.33436424489304489 0.47849603121740791 0 0.29988655052531688 0.46700727827593119 0 0.26247584734598628 0.44764943295894732 0 0.262418491288269 0.49071922292154141 0 0.19218127164496679 0.46593838964869538 0 0.23232476702437141 0.46634525369567709 0 0.21968801783855879 0.43306783640023788 0 0.197169318452384 0.38703015239362498 0 0.17845774482872559 0.43087117257049429 0 0.14869578771858949 0.40481452396082068 0 0.1444847662218138 0.45353891581271188 0 0.16001314202358469 0.49771727055909287 0 0.22001518176882229 0.28602682846307981 0 0.19152147653881049 0.32791879770215432 0 0.2360419540479583 0.32191828326940741 0 0.22269553095687891 0.35837423432538801 0 0.15401470087117619 0.36030748482174652 0 0.14392209494791439 0.30620070203545702 0 0.1685376717739448 0.27232483159280108 0 0.1104775404132264 0.2631175359816938 0 0.099492119481027347 0.30746398533281638 0 0.073296788161418117 0.34226957089850552 0 0.11603400219493119 0.33748134585014028 0 0.033457646040922301 0.36364842331228431 0 0 0.35000000000145642 0 0.032220921767546963 0.32901489214487523 0 0.053730171687646627 0.28825077189828552 0 0 0.30000000000124832 0 0 0.25000000000104028 0 0.064893331803534807 0.48669777060454478 0 0.1091992745981364 0.48758069708049778 0 0.097100979577207341 0.43590673999053198 0 0.10935320311385981 0.37839190921727089 0 0.06053051438015096 0.39514626428972788 0 0 0.40000000000166441 0 0 0.45000000000187229 0 0.043612803661092707 0.44006111182840391 0 0.029444907164209121 0.47500000000196552 0 0 0.50000000000205869 0 0 0.55000000000173355 0 0.051801877645083663 0.55307204985745195 0 0.037321398276215258 0.51507566941747263 0 0.07762682384055844 0.52425337578226128 0 0.1143680615274819 0.53432142347292733 0 0.1219181266603569 0.62483828039315903 0 0.088176999192898689 0.56877264426067353 0 0.081525103161997597 0.6093837135931508 0 0.041139877312483641 0.59314418172763017 0 0 0.60000000000138687 0 0 0.65000000000104008 0 0.032357843506722522 0.67660040198578164 0 0.04421836660747535 0.63753756910470205 0 0 0.7000000000006934 0 0.04863291748797445 0.71789175274016204 0 0.091072812796719582 0.74198804864687795 0 0.099018722548963364 0.70475631558365193 0 0.085418764257258195 0.64417741480586865 0 0.068937933438162791 0.67757268808231053 0 0.1195922550481313 0.66923299355722787 0 0.1540147008710982 0.63969251517836956 0 0.1817911130026923 0.66919832404888702 0 0.13725179499972981 0.74154628962856628 0 0.1564962097012354 0.70085728320703999 0 0.20370391303007401 0.73982803480989479 0 0.2028002000914135 0.69892030930711557 0 0.249609553207091 0.71159714897732929 0 0.22230199397202771 0.66820316019503168 0 0.2047839516296828 0.61896574319320252 0 0.2224870800581388 0.57577541371134155 0 0.2196864111498267 0.50000000000003153 0 0.1989632851005598 0.53769147668950479 0 0.1566648733051971 0.54047998161174216 0 0.12986698634359389 0.58267137064684615 0 0.1656399320949789 0.60271075992809464 0 0.18205680965398621 0.56759263990989739 0 0.10000000000041601 1 0 0.094457855579188163 0.95994154153068711 0 0.050000000000207989 1 0 0 1 0 0.030452409610489669 0.96954759038951022 0 0 0.94999999999979179 0 0.058433525112254137 0.94156647488774581 0 0 0.89999999999958358 0 0.040058458469322648 0.90554214442079806 0 0.097990957645208238 0.90045039720880915 0 0.1229476596857173 0.85174853583809695 0 0.086813039193431391 0.81709574086842884 0 0.087041706119416085 0.85382799508926188 0 0.052469033166843738 0.86696410734366991 0 0 0.84999999999965292 0 0.043889462445437968 0.82675923981951283 0 0 0.79999999999999982 0 0 0.75000000000034661 0 0.052938001421335763 0.77688977118331159 0 0.11231692802445629 0.78020430794084028 0 0.16253691950235041 0.78284912262768558 0 0.24335844191347281 0.78651189793387466 0 0.20359074765364421 0.79422489417871855 0 0.22893929024737289 0.83990878992727813 0 0.17101873536300011 0.82898126463696109 0 0.1322615032692282 0.8130603300143705 0 0.14688274318541941 0.88962265630811932 0 0.1817259028976386 0.91838802593888857 0 0.18958721034944021 0.87660297360394568 0 0.22131139331094829 0.9041449437198319 0 0.23222643817617661 0.94420751116970569 0 0.20000000000083221 1 0 0.18045991219397989 0.960710939969875 0 0.13834721989462789 0.94095916274077984 0 0.15000000000062411 1 0 0.35000000000145642 1 0 0.36363861612613613 0.96654491682121313 0 0.32894624184180998 0.96779701826738929 0 0.30000000000124832 1 0 0.25000000000104028 1 0 0.28790752038294382 0.94635952848702642 0 0.26305414557470391 0.88949062093136155 0 0.30738136326657722 0.90051880305435028 0 0.33748026778199908 0.88396545633134682 0 0.3422695708985129 0.92670321183858773 0 0.36030748482174152 0.84598529912882459 0 0.30619531169472608 0.85607519768342955 0 0.27254997832041528 0.8312019486901443 0 0.28602682846308641 0.77998481823117594 0 0.32191828326940508 0.76395804595204586 0 0.32791879770213411 0.80847852346120164 0 0.35837423432538362 0.77730446904312345 0 0.38703015239361932 0.80283068154761972 0 0.43306783640023289 0.78031198216144404 0 0.46634612187967051 0.76767585524061377 0 0.46593838964869061 0.80781872835503554 0 0.49771727055908782 0.83998685797641781 0 0.45353891581270822 0.85551523377818905 0 0.43087117257049001 0.8215422551712771 0 0.40481452396081791 0.85130421228141606 0 0.37839190921727062 0.89064679688614412 0 0.43590673999053309 0.90289902042279657 0 0.48758069708049379 0.89080072540186539 0 0.48669777060454272 0.93510666819646593 0 0.44006111182840962 0.9563871963389079 0 0.47500000000196563 0.970555092835793 0 0.45000000000187229 1 0 0.39514626428973221 0.93946948561985189 0 0.40000000000166441 1 0 0.33231497408081678 0.60779218732873663 0 0.37104651296145419 0.60545170748311072 0 0.35984320557492089 0.5669
[...]
<CellData Scalars="pressure_p0," Vectors="velocity_p0," Tensors="">
<DataArray type="Float64" Name="pressure_p0" format="ascii">
0.0003582326619079951 0.0005355670685268343 0.0011317046865160036 0.0015585948988578425 0.0010251948297784522 0.0014917087007586751 0.0028098775684828742 0.0059994628992272271 0.0051708690503562537 0.0068087407626527801 0.010538544747428557 0.014952603574308766 0.0071693980906450761 0.0017884024670998021 0.001365309946304591 0.0019558836285370022 0.0042802782804707718 0.011835248964113684 0.0063020796882460005 0.010108908977578622 0.0021875134595220449 0.0049917046822719642 0.0035210311776752374 0.011847177100502759 0.015663811097261685 0.013606639894955076 0.019198264210165631 0.016960283239779848 0.020535135765137588 0.028951500671246591 0.020926390115321155 0.044102171313267324 0.027530256707443166 0.029425545656818666 0.035270340511353117 0.023367936117619524 0.020994175305227118 0.023125003012971861 0.026600918201216517 0.029390448881783181 0.033258924391641138 0.043392315283876215 0.041845364103587239 0.035234538371064168 0.048486009674145861 0.056722635010158236 0.042578955028597119 0.0098872341092462509 0.0024721943066942156 0.0044167164850516753 0.0051490442116174234 0.013018590500496887 0.011434775194944668 0.018406040025450324 0.016908840976572748 0.020025478327562046 0.027830929675191109 0.020586675084919633 0.011489946938065916 0.0065854342611590035 0.0043005800633146123 0.0048086344032500748 0.0091392212470031708 0.015795299265917433 0.0083856196746948213 0.0035285388193439732 0.01658190759804589 0.0089783827088169895 0.0053163472860896007 0.035941247025805104 0.038629623030736061 0.026085991824256059 0.023260594676292268 0.030914774459656583 0.030527172644330209 0.022018134210080666 0.023802158368589552 0.017942282031987757 0.031743640989810307 0.046257583688891921 0.055825474142568485 0.038725302966202996 0.038455731838728531 0.063273382078462684 0.062101385318276837 0.053733675014689911 0.069140732051896789 0.078081456844388109 0.064751505492618683 0.070429451388882153 0.081233061709414717 0.05172010047952634 0.048824047858833354 0.064233664914234725 0.047124050438086165 0.055081966802913357 0.055685597182646852 0.074514130707794821 0.066455194574333423 0.065919009454267014 0.067822997460307996 0.091810729916618428 0.090882229523184976 0.084031359878103729 0.10439625245675647 0.10046835260720724 0.088539514688897841 0.094052053045645179 0.1057793025792113 0.11894805142201598 0.059791177977696716 0.080694750426093587 0.081377319767241191 0.063248188991057969 0.068462210349858221 0.048864886274246074 0.048539837346761511 0.042763154256657422 0.032673142327448959 0.029336926888338877 0.025798329301294338 0.0061498605173482129 0.013432353268228416 0.026021858114747009 0.0055292982097112746 0.01347533345072879 0.010974493694870611 0.021731517828983624 0.043819971073382771 0.041426098777171252 0.028961241828862866 0.17604912736293543 0.15957183432614924 0.15235592836145068 0.16252994342020599 0.16027888049049391 0.1758528798023534 0.18797364321543875 0.18592987599658603 0.20336274472802454 0.20208682792939975 0.21796314150744364 0.23490203847424468 0.23308446756776213 0.21529037180577568 0.21092495021196911 0.19503262113589526 0.18751696959138794 0.18454740301752948 0.16997143629290012 0.18981829816667564 0.17262168533415612 0.17532064315298196 0.15900344238441771 0.14879263363045475 0.14540685699613851 0.16561085008573823 0.13038329208387667 0.12996756926876776 0.11653719972516383 0.11619960491281182 0.12547739314661585 0.11766467756213607 0.10339552667987736 0.13873992566946358 0.14489297136810234 0.13453500923732409 0.11397648268730504 0.10847912050725572 0.12076984221869422 0.11144806296146534 0.095605701742617191 0.10475504264577382 0.093509059645940557 0.0995448696585092 0.084331248203327519 0.078556936747128714 0.08259564235850797 0.08720386021356985 0.070806055712362675 0.097183565949755094 0.082871980898387598 0.092851286361166574 0.11501448738742129 0.13204035137524184 0.11656673705780432 0.10652257350849798 0.12957772487882196 0.13736495771221272 0.15453047729834901 0.13862786922033238 0.17211885510735464 0.16020834737415393 0.1495227171725165 0.14165954236693051 0.15242985341186432 0.12829563643031741 0.1384759120415972 0.11810739653421665 0.12882564783761374 0.11571365366632255 0.092928583003841311 0.10207624569412493 0.086624287309317816 0.097006645072247155 0.10641991350930194 0.10426654233176824 0.085135633714545883 0.090127677719510968 0.082329098552643365 0.068102020726231213 0.071681303020835585 0.064543862790301249 0.052669811416621165 0.056525941391735099 0.066031900856213369 0.078250338424700555 0.077197881302317264 0.053352340331438292 0.067841507737486734 0.059525469725374446 0.071684506460017977 0.067786462265685563 0.057371984969380396 0.073708243266185414 0.084898817396127826 0.073344030314172221 0.065225963368799364 0.045585996049086093 0.046180825831350233 0.05428517430696192 0.051197552127049642 0.039918212932169725 0.03698663188647091 0.01934626399216114 0.034436985625682787 0.025316474424406672 0.023402309019178145 0.037544111742207613 0.031273125744716683 0.035094560430300965 0.030175988928288149 0.015867015711304437 0.020361933181706472 0.0043897972180601732 0.0077040332315999188 0.0034883692962960752 0.01691878258728996 0.0089432336294769325 0.005080761917422294 0.0095998310415113842 0.03117903232291273 0.042558111524401553 0.041884944795344187 0.053791169324361406 0.048481278469749665 0.036010516017385072 0.028847181741667491 0.014735271825137343 0.012073998384553048 0.0061336305450955357 0.011073880355655104 0.021428540317629585 0.021428536355622283 0.0045664368076369644 0.010909719690632329 0.0065478794680626472 0.015756806313088303 0.030218402370999951 0.029225925332278659 0.039905460986489685 0.050880953603297495 0.062325922943103962 0.051941021837027708 0.067680705107130729 0.05904687358400304 0.042086191537322036 0.034371868549733786 0.035089070996509014 0.017902918552209424 0.0079327057585882078 0.017384447688733672 0.017012853648600099 0.0093629091771967234 0.0073473028430109067 0.032547325048083352 0.011707194913697245 0.018753656809363438 0.034720678507884836 0.025267676496900978 0.047906318025505774 0.057597885632287363 0.050635758284611976 0.079119156740597732 0.044630059009427556 0.043877107905844079 0.06123475901604572 0.066178021716870955 0.060297879152708095 0.070526860461694957 0.08513534440442394 0.10326644395914408 0.09934053043039115 0.11514711400696229 0.12121543738642584 0.086524566595470059 0.093848190433829068 0.12426152956758571 0.13369190777600765 0.1568120869169411 0.15609619389344775 0.1736414779858409 0.13231247047841518 0.13729388760969327 0.17061967708697182 0.14697189126078516 0.14872001313777533 0.13672364725195627 0.11919389799498739 0.14015387479063807 0.12431486584403946 0.1254572516396153 0.11853417673161951 0.098995776598741259 0.11252747928003135 0.09773157489724521 0.089823479451285174 0.075418591350895542 0.064786517173829175 0.073995196942764768 0.087678109356853523 0.084141715946835324 0.091758845314389353 0.10936347742057978 0.10818296640128121 0.092835206877925042 0.11303418466278088 0.065616996904977021 0.080110264457819838 0.045158307247327591 0.0096524551199415123 0.026479701986993856 0.028081162585784237 0.02996262425809584 0.012365917723206353 0.011910850040049275 0.056610239123211163 0.059282831022209805 0.078312782973484499 0.10303547409783147 0.10772317108612647 0.088776043251364373 0.094436345893790907 0.082842078158507679 0.05973646997255283 0.068410740400953129 0.051077291177119621 0.026944936117222165 0.027431064113804776 0.012185772926586977 0.04881161886894915 0.025987312068345265 0.013724755458262562 0.064807558860959652 0.06625826443907247 0.088458469528408051 0.084819312115508472 0.12659310546644942 0.10482504861215641 0.12552109773246889 0.10674323685364001 0.14442429795225423 0.14759377406136243 0.16778106562870621 0.17861721100991218 0.18159395025519687 0.18700828577393505 0.16551017298648085 0.20362733040413022 0.16691670073410997 0.14636486711068936 0.11834741319954392 0.12587273325336143 0.1163902422947064 0.14285264300432529 0.15491596987096551 0.17838069531093756 0.20916311518813924 0.2179911675863786 0.19535062898729522 0.18670699161916804 0.19766692217345852 0.22303033614573989 0.17435922831589296 0.15115026935219242 0.15702195282291878 0.12319166924076343 0.33977831292537353 0.36722970852442871 0.32880650086795604 0.34630159121696968 0.30282550781947964 0.32269876881918563 0.29669762148505291 0.27410436987129749 0.24704958105088218 0.26091219990164738 0.24177706612747868 0.25736909125318191 0.27838952901326536 0.29680425417734685 0.28895368444501102 0.34139332666977079 0.31769496287311622 0.31377170917808922 0.29370727559485255 0.27756937192219122 0.28858276449882236 0.21780306116569023 0.24089738313586978 0.25182499212161902 0.24459829145894224 0.23881496519296547 0.21422466047577149 0.21102070590833139 0.20309992866661364 0.22859209546167089 0.25720862572326308 0.26369395261600226 0.28493918650866179 0.29430254104293652 0.31407143105101004 0.33408047435515875 0.32048549533483434 0.34176776361919137 0.36969283727957469 0.39465650429393445 0.37463693832241729 0.3570725948129661 0.3557772121609688 0.37247937355479871 0.39408277105031586 0.41346433108923775 0.37526758462125215 0.36195780229990226 0.33626079931672437 0.32049320715024676 0.32929205682880192 0.36690156205688529 0.39542981114653442 0.35832289383234134 0.40557253562397777 0.45748021148068618 0.42769224313295973 0.42319323840877271 0.44617238587244817 0.47086120177901392 0.47031311955707733 0.48575797657534203 0.44394706373352277 0.42360912855786559 0.39751869388875949 0.37412094253195383 0.19299824596324014 0.22016286570059124 0.21002008084689233 0.20002471471117317 0.18854889266921154 0.1726947897970296 0.1663038208825926 0.16941869873725876 0.1853789830379399 0.15576372454818616 0.14122490559245049 0.15492003101297719 0.16913854837764275 0.19242399906412472 0.18488053942158517 0.16614778609534281 0.18184476099832422 0.16613871357863091 0.19944023053264548 0.20359706418362028 0.18010277646948997 0.19531526434202851 0.20090828833375352 0.19021944618051917 0.22400949640350065 0.23659951309929189 0.22439905780185235 0.26879744216464052 0.27248841977020377 0.24934179423761041 0.23310640447486525 0.21053456163848089 0.21573310125851308 0.25036469568836844 0.25608093718508279 0.28658992765993163 0.27772137255859891 0.28239947134601329 0.26721995881440952 0.28693576620596661 0.30747782218415254 0.34966563390566746 0.33945571667395602 0.31838560625639756 0.30689165541967101 0.34954883111572288 0.2991741919812736 0.31313840222315481 0.33482808221877131 0.31000298852308961 0.30087001974966732 0.27222112262500864 0.27973876067219811 0.26600747497214805 0.24859348908687659 0.2450005395860857 0.2201639198192239 0.23669065944538742 0.23585238316959331 0.19973722770362468 0.21662313340497907 0.22951295034066158 0.22869119149910339 0.21652234345040086 0.25540204680169004 0.24570528741634817 0.24969086843712893 0.27571761288986546 0.26963001245934243 0.29557325121859368 0.31328697444229919 0.30062767596136786 0.29121299074380008 0.3299351874242234 0.32088449598184349 0.32539324008653714 0.30515198735553783 0.35038985921213739 0.35608376737796521 0.33906955969544866 0.31665830723029997 0.30189813880618677 0.28221100980295116 0.31323061863446738 0.33490559961622979 0.3494477711470878 0.37280715231074957 0.34983465211255749 0.33665163415473054 0.37584250072045039 0.37264619899433116 0.38780380422593574 0.41678808167217585 0.4235205366028551 0.41036385921431473 0.42737607937822963 0.45021745146953096 0.38726482754269209 0.37915213986920082 0.39871726270176866 0.4372561293721241 0.4490450429482033 0.42416073072717697 0.44177446747291349 0.47217228421276269 0.4512971485855401 0.46620417201780301 0.48181668090355084 0.4958104731213725 0.50641953210995805 0.51700439712647572 0.49562993567138819 0.53770090781687263 0.47499039794460163 0.50328854444828197 0.47291765385135476 0.42546080647986162 0.44817248267861998 0.41920147742657887 0.39698429408260372 0.38374469375215131 0.36122711546742203 0.39257952723640921 0.38054426969175509 0.34471729121536598 0.35458115932432832 0.34592149354518764 0.36781672642068258 0.36823495035591824 0.393554748077734 0.4114525440035528 0.40569758506509124 0.38768512983683467 0.59275147276174489 0.57946400692077915 0.53732040557720295 0.54790459076664377 0.57286552764720788 0.52311196322017128 0.51540077562833042 0.50102178742903791 0.47806645222094818 0.49183468937933494 0.5088490746768044 0.46385513685135865 0.49967836628698681 0.52852543825685205 0.54912271669555213 0.53835730040589591 0.53091449031928672 0.51935891753184071 0.51210453244195597 0.48679825679920402 0.49107835099931563 0.47524008553837971 0.47867333094419351 0.44192312484685137 0.44897135771853569 0.43483545659316092 0.45011235327082266 0.44779561758919784 0.41299488138255858 0.38612472421787647 0.40951519018736748 0.42854086945598335 0.4335503998382142 0.46840352800405816 0.47132780592173151 0.46166509431911806 0.49630970132069241 0.51958545330624029 0.54123201466990856 0.51517051373557454 0.53714989543239666 0.55976441180054548 0.57930263384096736 0.56019618710899766 0.56513963719269944 0.60675248365044965 0.62206960779962994 0.60512723447740968 0.57597902690455416 0.55929967146331894 0.52665129663683741 0.5598756567480615 0.57574282519910169 0.56579287587012494 0.61017674579684544 0.5860709621028104 0.60327528650820172 0.6183605863020567 0.64994963310909726 0.66440209978888076 0.69780812690941307 0.64951921937633283 0.65626400981566724 0.72300302092080204 0.71099309351740581 0.67932942164244425 0.66822309397604729 0.63194212088664925 0.63812016915300873 0.61975646778112414 0.84735592208948063 0.79694742225792159 0.82060701382855217 0.81348218251340421 0.76192413633467848 0.75718839174114372 0.77522823927355378 0.72480952324907577 0.70054305974224995 0.6686241536711961 0.71447494425340152 0.75741097862654239 0.73261700591957402 0.77179112853812748 0.80432600059389736 0.77943571446011795 0.73068601225736973 0.71854012024973013 0.71294475499486498 0.68445203117490161 0.68301531510609248 0.62781989867930277 0.66243724126738146 0.65882607520473757 0.62588775219510939 0.60542584392573462 0.58048319833516149 0.62490366709198475 0.68766252203695633 0.6156871027438372 0.65617839536091438 0.68177832545343042 0.66886364902972617 0.72278945393410421 0.72725521063052678 0.694151414201024 0.75812657255047577 0.75461180364825853 0.77020555576170158 0.78336425561695533 0.8161461163550765 0.81219231422104077 0.84307236241686767 0.77425033191719195 0.79437136330056868 0.74092738458970619 0.77261292151280714 0.83423612594577579 0.85654491790784182 0.85559378361139293 0.83079686558085664 0.87334908193504091 0.90620554762347716 0.90245022372881278 0.92440847806210114 0.96230654147334271 0.96212374291617841 0.92396843244340288 0.90652863050461008 0.90154685401065437 0.87360154005008139 0.48124343494675192 0.48944336881002659 0.51398623102062713 0.53423959078926675 0.49506638496492783 0.4485660897379703 0.44037144658422628 0.45545879160642117 0.44662106138227325 0.42714572228570913 0.41450358825132971 0.40989875328730829 0.39135847543264823 0.41922561569389616 0.43306079128098451 0.46697266633541401 0.4608930774831595 0.47979487707938551 0.49593297411978354 0.52098078313908636 0.51186680808692986 0.56932916144998913 0.54535849040855433 0.53274566718762228 0.56861859833314998 0.54004299873319306 0.58573251642141844 0.58113951837068822 0.63612787468717769 0.61852497553404429 0.52604151200926652 0.55983199534498818 0.57367182245126824 0.56048160097780497 0.58283462573351819 0.60597305722592787 0.60083568138535171 0.63532316297248859 0.57715822905761838 0.62437700433483823 0.65126389104930282 0.6847317428106261 0.71619519493512362 0.67463817237470525 0.70784127718153678 0.59753122867243258 0.6245382993409444 0.64407664883166948 0.66641326729840589 0.62200887372517277 0.63825284084654466 0.56156345582730893 0.56825212829520211 0.5944486477194989 0.54385444270448402 0.53802256890155009 0.52377286232984788 0.47787190152569881 0.50838180795139398 0.45836256398659875 0.48204979445194085 0.48527738732675896 0.50817511629693102 0.53168589857574422 0.49195885672483208 0.51974446864225032 0.472417053294234 0.44669521755817476 0.44282557661159733 0.46153728354083501 0.37867323057947455 0.4215477821171788 0.41315806021043017 0.40279296777457352 0.36543348654396224 0.3812577857235725 0.37216362891073496 0.35111596090728214 0.41833874770501023 0.38928680811741362 0.41462815574634948 0.43604678158104571 0.43040757974986371 0.40762515169795555 0.39274083484136169 0.37001942814468886 0.38793979697063719 0.3680197084809198 0.34173053200520132 0.3222812061923388 0.3289052791694923 0.31304813011864124 0.34944885995665675 0.32873470784336645 0.31130173328524624 0.28973757838235842 0.32350068271391946 0.34694721473635176 0.36735546981899092 0.36826882344272482 0.3943917934923396 0.35110409762834388 0.22139494109788124 0.23316858964494969 0.20303351754043081 0.23830525895967319 0.23688119509487043 0.27596939026052736 0.27738439479272659 0.2564000014943501 0.2924860748042315 0.30877651892104407 0.28829479394990376 0.27104543444965584 0.24740669966140438 0.2694711229977847 0.25459413599296127 0.22852731176275465 0.2392174748461687 0.27801845837135858 0.2542472798930635 0.23896649128964703 0.33782079001908594 0.31533606687655091 0.28602255337467536 0.30600992820984474 0.32432846660659809 0.34377478944227047 0.31993623695615803 0.32109948080571954 0.33675793374140023 0.36543949431006922 0.24578765346060621 0.29398740883391172 0.29374522900855049 0.27304075480786455 0.22312325279510667 0.1979213823511643 0.18628716105166579 0.1746787758897905 0.12388165387541505 0.15102875965516266 0.15663030628485408 0.11652692878221654 0.14259709170055646 0.15434570270145301 0.17501908789814419 0.20464561387792041 0.21435180708191459 0.19321616967569299 0.02909704615640496 0.026903253143922883 0.010419554798994854 0.045323260304979587 0.06472050180020536 0.080436880617956563 0.11329168655094875 0.10302491436942841 0.10852265950014511 0.057539007990500921 0.071002682884794194 0.060309623983441522 0.077485034789383442 0.030825859413177267 0.011566345746008112 0.011979158719954518 0.010517448599752562 0.026356261394061792 0.027434262531415989 0.049243984818882522 0.064577505690057227 0.090466673116964713 0.083514134750324528 0.091851148304573277 0.083263979010936545 0.094156253412466168 0.067431172858505306 0.062766236013591437 0.025057706156588682 0.047721925620992908 0.014354594648962573 0.16592301865726478 0.20763648364128104 0.18832576943753215 0.21438694437659933 0.16550277435721197 0.18298321558178821 0.14622704366621816 0.12601111878214738 0.11591451831785632 0.14279542977582521 0.12181511118368961 0.1015482494705082 0.13540053914096378 0.14901786614951545 0.17719122827763564 0.18473522275476373 0.17577116715999647 0.16840643683687267 0.1670128179820837 0.13667176611943549 0.14841927891791351 0.14720562821237437 0.10127488308407265 0.10903475691136576 0.11760146431924259 0.1092541949304234 0.091922949466586967 0.081535061030346814 0.11623040295828127 0.13100596136181716 0.16382509621601821 0.14435793601827129 0.019726708320946806 0.012689352114825754 0.026952551842396751 0.062685934176599706 0.054136108593364408 0.083107043910388367 0.081188575752083908 0.064048121645026795 0.064561312669160653 0.050538706182087723 0.051923394031612273 0.036184972321780869 0.030179695860134709 0.035058642802167847 0.0071696667016273499 0.014140457194840085 0.0071206185804978239 0.0081319506700663381 0.019198042351770198 0.020509795085030633 0.038830748135816724 0.052780067269829173 0.070377393103031705 0.063535692223828794 0.048055446211476387 0.041880232971424083 0.03753237291345609 0.024920675311368164 0.022495908286524743 0.011323214569438035 0.0051303947554943163 0.013290763268577229 0.11556360777627769 0.14098390745341494 0.13328955167564535 0.13947999490990873 0.10312151464757068 0.085515934686494696 0.073993