<?xml version="1.0"?>
<VTKFile type="UnstructuredGrid" version="0.1" byte_order="LittleEndian">
<UnstructuredGrid>
<Piece NumberOfPoints="146" NumberOfCells="250">
<Points>
<DataArray type="Float64" NumberOfComponents="3" format="ascii">
0 0 0 0 0.019999999999964969 0 0.019975621301087348 0.019975621301087241 0 0.020000000000056421 0 0 0 0.039999999999912002 0 0.01599428114451272 0.035979655978051417 0 0.03410052910054278 0.034100529100513637 0 0.03597965597803196 0.015994281144453341 0 0.040000000000109559 0 0 0.060000000000166982 0 0 0.070808811536407681 0.014087862271636799 0 0.051983700828965813 0.019639343895885879 0 0.052595270959361867 0.040076686712600347 0 0.066613199614409674 0.043730230641593627 0 0.071857977472121179 0.030226786183146951 0 0.086419313189640481 0.036075599299210392 0 0.09222440822109973 0.022002001641829139 0 0.080000000000220062 0 0 0.082157965005245637 0.096785507894302375 0 0.099512697461400831 0.081726867903980149 0 0.096303395921925133 0.062011087727510378 0 0.080102740243863796 0.053611136565579059 0 0.086602787456448366 0.071968641114981413 0 0.068763304434006883 0.06985362220166029 0 0.059261209390895853 0.057038550926508211 0 0.065693759248522596 0.087175268186957339 0 0.043937282229965249 0.09999999999999501 0 0.049895798006680668 0.076940978322620077 0 0.033298039321482238 0.0883115494703587 0 0.039746940675641759 0.054441235132351197 0 0.030226786183215369 0.071857977472130907 0 0.019607939511472602 0.052159506940598482 0 0.01351633412664599 0.069999999999823148 0 0 0.059999999999854559 0 0.017073730510092019 0.086687157257312242 0 0 0.07999999999979171 0 0 0.099999999999736994 0 0.022002001641830519 0.1077755917789029 0 0 0.1199999999997885 0 0 0.1399999999998395 0 0.019639343895887191 0.1480162991710359 0 0.01408786227163787 0.1291911884635974 0 0.030226786183148311 0.1281420225278786 0 0.040076686712601783 0.14740472904063939 0 0.043730230641595397 0.133386800385591 0 0.036075599299211711 0.1135806868103599 0 0.019999999999964969 0.20000000000000001 0 0 0.20000000000000001 0 0 0.1799999999999457 0 0.019975621301087331 0.18002437869891261 0 0.01599428114445468 0.16402034402196761 0 0 0.15999999999989481 0 0.034100529100514178 0.16589947089945739 0 0.035979655978051528 0.18400571885548739 0 0.039999999999912002 0.20000000000000001 0 0.059999999999854559 0.20000000000000001 0 0.052159506940598767 0.1803920604885276 0 0.069999999999823148 0.18648366587335419 0 0.071857977472130796 0.1697732138167847 0 0.054441235132353362 0.16025305932435871 0 0.076940978322619979 0.15010420199331961 0 0.099999999999994912 0.156062717770035 0 0.088169194010125948 0.16670640874876949 0 0.086679021504087447 0.18293503277283291 0 0.099999999999736994 0.20000000000000001 0 0.07999999999979171 0.20000000000000001 0 0.071968641114981441 0.1133972125435517 0 0.059813214636516537 0.1028063474692443 0 0.053558626171880022 0.1197318819744901 0 0.057038550926508953 0.14073879060910441 0 0.071500136158805516 0.13039048546753859 0 0.088260250094999312 0.13323467294533781 0 0.090033175805883547 0.1151701382544357 0 0.1153975229780182 0.10925072708938829 0 0.102806347469244 0.1401867853634837 0 0.1197318819744897 0.14644137382812031 0 0.1133972125435514 0.12803135888501871 0 0.13039048546753829 0.12849986384119461 0 0.14073879060910319 0.14296144907349179 0 0.13323467294533761 0.11173974990500091 0 0.1199999999997885 0.20000000000000001 0 0.1078447254601128 0.1780724198342406 0 0.11358068681035979 0.1639244007007884 0 0.1333868003855895 0.15626976935840539 0 0.14740472904063701 0.159923313287399 0 0.12814202252787851 0.16977321381685179 0 0.1292004062877585 0.18592206059183841 0 0.14801629917103479 0.18036065610411309 0 0.1399999999998395 0.20000000000000001 0 0.15999999999989481 0.20000000000000001 0 0.16402034402196669 0.18400571885554479 0 0.16589947089945481 0.16589947089948659 0 0.20000000000000001 0.16000000000011061 0 0.18400571885548209 0.16402034402194759 0 0.180024378698912 0.18002437869891219 0 0.20000000000000001 0.18000000000005531 0 0.20000000000000001 0.20000000000000001 0 0.1799999999999457 0.20000000000000001 0 0.1668398726151045 0.11179964214599961 0 0.15606271777003489 0.10000000000000531 0 0.1501042019933182 0.1230590216773806 0 0.16025305932435471 0.14555876486764999 0 0.1697732138167827 0.12814202252786891 0 0.18656026320984881 0.12992044717944171 0 0.1803920604885241 0.14784049305940711 0 0.20000000000000001 0.14000000000016591 0 0.20000000000000001 0.12000000000022119 0 0.18282753508517591 0.1134208382576654 0 0.20000000000000001 0.1000000000002737 0 0.20000000000000001 0.080000000000220062 0 0.17799799835817101 0.092224408221099841 0 0.16392440070078981 0.086419313189640551 0 0.15992331328740039 0.052595270959364268 0 0.156269769358407 0.066613199614411131 0 0.1697732138168532 0.071857977472121345 0 0.1803606561041145 0.05198370082896691 0 0.1859121377283634 0.070808811536407862 0 0.20000000000000001 0.060000000000166982 0 0.20000000000000001 0.040000000000109559 0 0.18400571885554631 0.035979655978032918 0 0.20000000000000001 0 0 0.20000000000000001 0.020000000000056421 0 0.1800243786989123 0.019975621301087931 0 0.18000000000005531 0 0 0.16402034402194751 0.015994281144518039 0 0.16000000000011061 0 0 0.16589947089948709 0.034100529100545347 0 0.14555876486765201 0.039746940675645749 0 0.12814202252786869 0.030226786183217471 0 0.14000000000016591 0 0 0.14784049305940741 0.019607939511476179 0 0.12990604777744541 0.013426572202853629 0 0.12000000000022119 0 0 0.1133128427426932 0.017073730510091079 0 0.1000000000002737 0 0 0.1230590216773805 0.049895798006682077 0 0.11168845052964139 0.03329803932148117 0 0.1000000000000052 0.043937282229965298 0 0.1117397499050006 0.066765327054662732 0 0.10000000000000001 0.099999999999999992 0 0.1117880444743706 0.089981045072954138 0 0.12803135888501879 0.086602787456448713 0 0.14018678536348361 0.097193652530756194 0 0.14659818468118249 0.080187526587562397 0 0.14296144907349251 0.05926120939089706 0 0.13014637779834001 0.068763304434007466 0 
</DataArray>
</Points>
<Cells>
<DataArray type="UInt32" Name="connectivity" format="ascii">
1 2 0 0 2 3 4 31 5 1 4 5 1 5 2 6 2 5 6 5 31 6 31 29 6 12 11 6 29 12 8 3 7 3 2 7 6 7 2 6 11 7 8 7 11 9 11 10 9 8 11 17 9 10 14 10 11 14 11 12 24 13 12 14 12 13 14 13 15 16 14 15 21 15 13 137 15 21 137 16 15 134 17 16 17 10 16 16 10 14 22 25 18 139 19 18 22 18 19 22 20 21 22 19 20 137 21 20 22 21 23 24 23 21 24 21 13 24 12 29 24 27 23 25 23 27 22 23 25 25 67 18 26 67 25 26 25 27 26 27 28 30 28 27 30 34 28 37 26 28 30 27 29 24 29 27 30 29 31 30 31 32 33 35 32 33 32 31 33 31 4 37 28 34 36 37 34 30 32 34 35 34 32 35 36 34 36 38 37 37 41 42 38 41 37 38 39 41 39 40 41 39 51 40 42 41 40 42 44 45 42 40 43 69 44 43 42 43 44 68 45 44 26 45 68 37 45 26 37 42 45 47 46 49 47 49 48 52 50 49 51 48 50 48 49 50 51 50 40 52 40 50 52 43 40 52 59 43 52 56 59 52 49 53 52 53 56 54 56 53 46 54 53 46 53 49 55 65 57 54 55 56 55 57 56 58 56 57 58 59 56 58 60 59 69 59 60 58 62 60 61 60 62 61 62 81 58 63 62 58 57 63 81 62 63 64 81 63 65 64 63 65 63 57 66 68 70 66 18 67 66 67 68 26 68 67 69 70 68 69 68 44 69 43 59 69 60 70 71 72 70 71 76 72 71 70 60 71 61 74 71 60 61 66 70 72 66 72 18 139 18 72 139 72 73 76 73 72 76 77 73 71 74 76 61 75 74 76 74 75 76 75 77 78 77 75 78 75 83 78 84 101 78 100 77 79 77 100 79 141 73 99 79 100 99 142 79 79 73 77 80 86 81 64 80 81 81 86 85 81 85 82 61 81 82 61 82 75 75 82 83 85 84 83 78 83 84 85 87 84 85 83 82 85 86 87 88 87 86 88 89 87 80 88 86 97 94 90 89 97 90 89 90 87 91 87 90 91 90 94 91 84 87 91 101 84 91 104 101 91 93 104 92 104 93 95 93 94 95 92 93 91 94 93 96 95 94 96 94 97 102 107 98 99 98 110 99 100 98 102 98 100 78 101 100 102 100 101 102 101 104 102 104 103 92 105 104 105 103 104 105 106 103 106 107 103 102 103 107 108 110 107 110 98 107 106 108 107 108 109 110 109 116 110 114 110 116 99 110 111 114 111 110 143 111 113 99 111 143 144 113 112 114 112 113 114 113 111 114 115 112 114 116 115 109 117 116 117 115 116 117 118 115 118 119 115 121 122 119 118 121 119 126 119 122 126 115 119 120 122 121 120 123 122 123 125 124 123 124 122 126 122 124 126 124 130 125 130 124 126 112 115 126 130 127 126 127 112 128 127 130 128 135 127 144 127 135 125 129 130 129 131 130 128 130 131 129 132 131 132 133 131 128 131 133 16 136 133 134 16 133 132 134 133 128 136 135 128 133 136 137 136 16 137 135 136 138 135 137 138 137 20 138 145 135 138 141 145 138 20 19 138 19 140 139 73 140 139 140 19 141 140 73 138 140 141 141 143 145 79 142 141 141 142 143 99 143 142 144 145 143 144 143 113 144 112 127 144 135 145 
</DataArray>
<DataArray type="UInt32" Name="offsets" format="ascii">
3 6 9 12 15 18 21 24 27 30 33 36 39 42 45 48 51 54 57 60 63 66 69 72 75 78 81 84 87 90 93 96 99 102 105 108 111 114 117 120 123 126 129 132 135 138 141 144 147 150 153 156 159 162 165 168 171 174 177 180 183 186 189 192 195 198 201 204 207 210 213 216 219 222 225 228 231 234 237 240 243 246 249 252 255 258 261 264 267 270 273 276 279 282 285 288 291 294 297 300 303 306 309 312 315 318 321 324 327 330 333 336 339 342 345 348 351 354 357 360 363 366 369 372 375 378 381 384 387 390 393 396 399 402 405 408 411 414 417 420 423 426 429 432 435 438 441 444 447 450 453 456 459 462 465 468 471 474 477 480 483 486 489 492 495 498 501 504 507 510 513 516 519 522 525 528 531 534 537 540 543 546 549 552 555 558 561 564 567 570 573 576 579 582 585 588 591 594 597 600 603 606 609 612 615 618 621 624 627 630 633 636 639 642 645 648 651 654 657 660 663 666 669 672 675 678 681 684 687 690 693 696 699 702 705 708 711 714 717 720 723 726 729 732 735 738 741 744 747 750 
</DataArray>
<DataArray type="UInt32" Name="types" format="ascii">
5 5 5 5 5 5 5 5 5 5 5 5 5 5 5 5 5 5 5 5 5 5 5 5 5 5 5 5 5 5 5 5 5 5 5 5 5 5 5 5 5 5 5 5 5 5 5 5 5 5 5 5 5 5 5 5 5 5 5 5 5 5 5 5 5 5 5 5 5 5 5 5 5 5 5 5 5 5 5 5 5 5 5 5 5 5 5 5 5 5 5 5 5 5 5 5 5 5 5 5 5 5 5 5 5 5 5 5 5 5 5 5 5 5 5 5 5 5 5 5 5 5 5 5 5 5 5 5 5 5 5 5 5 5 5 5 5 5 5 5 5 5 5 5 5 5 5 5 5 5 5 5 5 5 5 5 5 5 5 5 5 5 5 5 5 5 5 5 5 5 5 5 5 5 5 5 5 5 5 5 5 5 5 5 5 5 5 5 5 5 5 5 5 5 5 5 5 5 5 5 5 5 5 5 5 5 5 5 5 5 5 5 5 5 5 5 5 5 5 5 5 5 5 5 5 5 5 5 5 5 5 5 5 5 5 5 5 5 5 5 5 5 5 5 5 5 5 5 5 5 
</DataArray>
</Cells>
<CellData Scalars="pressure_p0," Vectors="velocity_p0," Tensors="">
<DataArray type="Float64" Name="pressure_p0" format="ascii">
0.00066585404335846397 0.0013325207100217322 0.0011867406885189089 0.00053314270480697473 0.001198996748157453 0.0023356810514727879 0.0023234249918552834 0.00311518030958412 0.004622650029600538 0.0042147580245337872 0.0031993218659142663 0.0025318425759103171 0.0030018602125383271 0.0040687961968188142 0.0042654452268458196 0.0060930837455127704 0.0050661233609525956 0.007026960384576 0.0064883496612687715 0.0058812316420029358 0.0059489893321896812 0.0063688816015417468 0.0074963496759486332 0.0083500566295362927 0.0077711751016855402 0.0088840684478732057 0.0092881240471236193 0.0090741469407626153 0.0081011073253525814 0.0078297065744335724 0.0078151503902942274 0.0093890220823089482 0.0089424483308119494 0.008766964120821584 0.0094139626947233115 0.0092135378722841277 0.0078489610711981132 0.0069375751356814345 0.0068659049750538406 0.0050534473675667678 0.0059306770610202944 0.0061450953895554709 0.0073686617046289753 0.0069221646294710826 0.0056481418701998243 0.0053175613159452172 0.0042377039849919359 0.0037806874502347401 0.0026866185337246044 0.0033079107727582136 0.0039956508288022064 0.0049634649357530999 0.002986055545682321 0.0021117019940489904 0.00045054447089000905 0.001104142454596086 0.00065359798370646753 0.0024124590489113386 0.0013025244049639192 0.0020272283606554966 0.0010196688212429131 0.00056912435032933841 0.00073340005468918086 0.0022105550031252695 0.0012029954637323677 0.00046959540906064642 0.0011242402056508161 0.00065464479660679422 0.0021317997450837714 0.0036677538707174454 0.002998093893229328 0.0046948489428658728 0.0038011234513462499 0.0044454818702863181 0.0044523835895789541 0.0034004961052297687 0.0029434795705613522 0.0013325207100715792 0.00066585404340606977 0.0023356810517845637 0.00053314270488618535 0.0011989967482975319 0.0011877875015330885 0.0023244718050272934 0.0031272186573347554 0.0042872816985690902 0.0046900423727517897 0.0030018602129070837 0.0040746564008939052 0.0042713054307468136 0.0031993218659838235 0.0025318425760903476 0.0069999999999974909 0.0050719835647371541 0.0060719835647468426 0.0064672494805479378 0.0059486239850333172 0.0067746730310695768 0.0062806921462428113 0.0078989383269542322 0.0088370057444975211 0.0098671306489973507 0.0082235397662991285 0.0076178999659542342 0.009423098032488305 0.0098174582321085037 0.0088893007167706144 0.0078893007167968408 0.0065675801147403517 0.0071313273583002964 0.0061780160637785637 0.0052436374341768583 0.00606991044192637 0.0051442469247241322 0.0050518824260070323 0.0068493221803421142 0.0083264520686810919 0.009723021281506589 0.0078900454859196275 0.0097022199188339705 0.0088400409472935981 0.0077833984359844278 0.0081386593975164637 0.0090730380271466966 0.010181023292916513 0.010627597044332013 0.011972840699671661 0.010148793670237518 0.010751274314812341 0.011197848066212055 0.012117319332837991 0.013028705268347891 0.013128582432289527 0.014946552632446489 0.0140411159356104 0.013790978680180213 0.012555451826980955 0.014646719756910093 0.014316139202640349 0.012634089379716842 0.011901504391561266 0.010928157515295259 0.012172905142507559 0.011652247826571933 0.010714180408943957 0.011110418959474734 0.012223312305688509 0.013631118398487716 0.014051010667833446 0.01411876835802158 0.012503650324137279 0.013511957599581466 0.013907223515284402 0.014933876638987632 0.012973346876239562 0.017468157423995878 0.016800678134030994 0.01573455477302281 0.015931203803033291 0.016998139787338863 0.015377349970360639 0.015785241975504363 0.016884819690438365 0.017676575008176328 0.018813259311471951 0.018801003251815378 0.019466857295179114 0.017664318948516243 0.019334145956591751 0.018667479289917376 0.017314687383755557 0.016696686291347622 0.01576689307917005 0.016223909614013005 0.015036535064130073 0.016004349170977643 0.017013944454207779 0.017890851250377929 0.019346402016249369 0.018898410789863752 0.019552008773626006 0.018979593276411778 0.017972033736912384 0.018694184448017327 0.017588846868484498 0.019427584502793884 0.019266599945217365 0.018797004536160216 0.017789444996747523 0.01659950389425411 0.01705652042915283 0.015559745157948236 0.015552843438334168 0.015305151057357714 0.016198876548770877 0.01633224612914972 0.017001906106991718 0.017868200255006961 0.019530404590925129 0.018875759794433605 0.019345355203479141 0.018812212498679287 0.01880100325183412 0.01946685729519225 0.017664318948511257 0.017675528195380041 0.01933414595663659 0.018667479289973164 0.016800678134094398 0.017468157424051715 0.016998139787375639 0.015925343599421632 0.015728694569452514 0.016872781343176088 0.015309957627650375 0.015712718302001549 0.014051376015218688 0.013225326969126504 0.013719307853991277 0.014928016435351767 0.013924884694572998 0.013529618778840171 0.012996868259256363 0.012107296350658287 0.012378697101578785 0.010574190049843959 0.010184575032176558 0.011110428091439592 0.01209631649115472 0.011771443860000485 0.010130428625116809 0.011158249073588618 0.011159959052763156 0.010268104860971648 0.012164838312671573 0.012330582886270387 0.010251861443023331 0.010768016394779962 0.010906185581851437 0.010376691397983726 0.011840564211283634 0.011718638442167577 0.013492530712106269 0.013381760573144701 0.01382721096426032 0.014761589593762104 0.01399020038504822 0.014860980103752256 0.014948117574398696 0.013205561618262073 
</DataArray>
<DataArray type="Float64" Name="velocity_p0" NumberOfComponents="3" format="ascii">
-0.099999999998625105 5.8930724883277108e-13 0 -0.09999999999782698 1.3768391808610669e-12 0 -0.099999999999425701 -1.5871906653558421e-13 0 -0.09999999999789988 -5.4222576949258805e-13 0 -0.09999999999676934 5.8711173943348793e-13 0 -0.099999999995571687 -4.2264721453535992e-12 0 -0.10000000000029485 -4.0513816260134838e-12 0 -0.1000000000022299 -1.1213564256838671e-12 0 -0.10000000000228866 -7.6897933550326703e-12 0 -0.10000000000233739 -1.5074475955695332e-12 0 -0.099999999999833139 4.7513371275592631e-12 0 -0.099999999997834529 7.5962727861395019e-12 0 -0.099999999994218949 -1.5318421444504571e-12 0 -0.10000000000865622 -2.540464583491997e-12 0 -0.099999999999746084 4.4427975838187694e-12 0 -0.1000000000022466 -4.5403947528804833e-13 0 -0.10000000000324764 3.7112457204613314e-12 0 -0.10000000000427284 -3.198927667896756e-12 0 -0.10000000000718741 1.0025861434462269e-12 0 -0.10000000000206045 -6.8340989876729263e-14 0 -0.1000000000011681 -6.4304654266364447e-12 0 -0.10000000000540465 -3.0517987225850418e-12 0 -0.10000000000657085 -6.629381288716929e-13 0 -0.099999999999684105 2.0471525950110925e-12 0 -0.099999999999863906 5.4291423787211635e-15 0 -0.10000000000032618 2.8580924519433504e-13 0 -0.099999999999267203 1.0407907174991848e-12 0 -0.099999999996685504 -6.1753878920212113e-12 0 -0.099999999999362404 -1.0619841594658452e-11 0 -0.10000000000687111 5.8638937279541052e-12 0 -0.10000000000811851 8.7395910820797784e-12 0 -0.10000000000452694 -3.3318833803086534e-12 0 -0.10000000000622009 -1.8636242722636087e-12 0 -0.10000000000183043 3.2412549207105901e-12 0 -0.10000000000082837 2.2124778409089024e-12 0 -0.099999999999464878 -7.6188241913272003e-13 0 -0.1000000000024573 2.337697093193758e-12 0 -0.10000000000175202 8.0484799597560497e-12 0 -0.10000000000320952 -2.7378652730364328e-12 0 -0.10000000000082671 -4.8745187573862037e-13 0 -0.10000000000441624 7.0720339306884483e-12 0 -0.10000000000891668 7.14894723280457e-12 0 -0.10000000000339271 5.302082015622156e-12 0 -0.10000000000673934 9.5440609625477291e-12 0 -0.1000000000061626 1.1207389725466366e-11 0 -0.10000000000432357 1.0123450472007689e-11 0 -0.10000000000462503 9.2386493420748561e-12 0 -0.09999999999099006 1.4047964180807782e-11 0 -0.09999999999499333 9.7380464152488355e-12 0 -0.099999999988832008 1.3987438594528778e-11 0 -0.099999999995714323 7.5459441212927247e-12 0 -0.10000000000191862 8.4298236793789449e-12 0 -0.099999999999835568 -8.4989659624237768e-13 0 -0.10000000000117179 -5.1009543811098013e-13 0 -0.10000000000040159 -1.605562471168609e-12 0 -0.10000000000085142 -1.4485517006810472e-12 0 -0.099999999998616945 3.426078865054194e-13 0 -0.099999999988684987 1.0369568430920045e-11 0 -0.09999999998763083 -3.9638702476613163e-13 0 -0.099999999991678593 6.0014547585002243e-12 0 -0.10000000000028428 -1.6924463675134505e-12 0 -0.099999999997363573 7.1924183189103763e-12 0 -0.099999999995055405 -3.0200830985344096e-12 0 -0.099999999988708704 -1.2523748721014402e-11 0 -0.09999999999336831 8.518711994490169e-14 0 -0.10000000000159165 -5.2798802656350841e-12 0 -0.10000000000272631 -4.4093099668424812e-12 0 -0.10000000001242791 -6.2571421568374808e-12 0 -0.10000000000481041 -1.1476757044714958e-11 0 -0.099999999998914693 -1.5992139253476201e-11 0 -0.10000000000174265 -1.7126207610819282e-11 0 -0.10000000000109882 -1.2401950465396917e-11 0 -0.10000000000004831 -1.6432016337886157e-11 0 -0.10000000000090241 -2.5021358682902894e-11 0 -0.099999999997420722 -3.264285272207984e-11 0 -0.099999999980375093 8.575543161866428e-12 0 -0.099999999994792407 -2.7589486684825859e-11 0 -0.10000000000365376 3.6574259246191509e-12 0 -0.10000000000365744 3.6506097128497417e-12 0 -0.10000000000888278 8.8702672594240251e-12 0 -0.10000000001147764 4.9352774471322913e-12 0 -0.10000000001018369 3.6425940388995492e-12 0 -0.100000000016986 -1.8821126298099178e-12 0 -0.10000000001345009 8.3964139894338041e-12 0 -0.10000000000200068 -1.3014117439410187e-11 0 -0.099999999995043207 1.3605273591760225e-12 0 -0.099999999993933608 9.3343871044107574e-12 0 -0.10000000000525408 5.2414317460933169e-12 0 -0.099999999997562261 1.005277404288879e-11 0 -0.10000000000053211 1.0715058939951561e-11 0 -0.10000000000095562 9.5601911803688822e-12 0 -0.10000000000364132 1.3878365145471305e-11 0 -0.099999999996700034 3.3686053078907374e-12 0 -0.099999999995942959 9.368390395045334e-12 0 -0.099999999999085196 6.4847514294127939e-12 0 -0.099999999997528649 7.0174443513038032e-12 0 -0.099999999991339114 2.550827523381885e-12 0 -0.099999999996766037 4.8361922105888411e-13 0 -0.099999999987451418 -3.7180816151588525e-12 0 -0.099999999996262023 1.0966976025233999e-12 0 -0.099999999992578706 1.8691509928378536e-13 0 -0.09999999999260778 1.123390660009993e-12 0 -0.099999999994857883 3.1584110327109727e-12 0 -0.099999999995526542 6.0377159001590019e-12 0 -0.099999999993501482 6.0602971209064438e-13 0 -0.099999999997626488 1.3625575277440016e-12 0 -0.10000000000150908 -2.623340997556789e-12 0 -0.099999999993845262 7.1201779281576671e-12 0 -0.10000000000744762 -2.1033337831849463e-11 0 -0.10000000001298011 6.3391512091642843e-12 0 -0.10000000001347865 -1.8957929572970683e-11 0 -0.10000000001327872 9.9499022302579343e-12 0 -0.099999999992119434 -1.1927649623197367e-11 0 -0.10000000000495501 -1.4531106352910772e-11 0 -0.099999999995387043 -1.4646655199443415e-11 0 -0.099999999996389602 -7.8780210165715209e-12 0 -0.10000000000043482 -1.8719726289917471e-12 0 -0.10000000000124415 6.3618083240638001e-12 0 -0.099999999996533806 -2.7546866697425454e-13 0 -0.10000000000437233 -4.0656714106468428e-12 0 -0.099999999998042793 -5.0296084571493926e-12 0 -0.10000000000804328 5.74204312570048e-13 0 -0.10000000003119913 -9.696589234678421e-12 0 -0.10000000000273451 -3.0099241241782204e-12 0 -0.099999999998141173 -1.436372722152246e-12 0 -0.099999999999503764 7.3208529082630092e-12 0 -0.099999999995135036 3.167924906774533e-12 0 -0.099999999994924205 5.053670291488635e-12 0 -0.099999999992864089 -6.718800862892671e-13 0 -0.10000000000188868 -4.6808585653368429e-12 0 -0.10000000000071529 3.013545359434322e-12 0 -0.099999999998993644 -1.8921252368728214e-12 0 -0.099999999998967554 6.7071998996470761e-13 0 -0.1000000000010673 -6.3291602861448304e-12 0 -0.099999999994593303 1.5393448234840568e-12 0 -0.099999999996423478 2.26592833038608e-12 0 -0.099999999997533548 4.8250249282122404e-13 0 -0.099999999993185401 3.061678514881816e-12 0 -0.099999999990927221 5.0627010179590815e-12 0 -0.099999999996665923 1.2034102013502856e-12 0 -0.10000000000223161 1.4172690798730514e-13 0 -0.10000000000002492 -3.557760639913421e-12 0 -0.10000000000367985 -3.9010000741843132e-13 0 -0.1000000000066716 8.3553498321509156e-13 0 -0.099999999994016806 -2.8359367805486091e-12 0 -0.10000000000665157 8.3771633022349662e-12 0 -0.099999999997665845 -2.5452052574911899e-12 0 -0.099999999999866293 -2.4996931607956796e-12 0 -0.099999999999995884 -3.5981607233656621e-12 0 -0.099999999999335412 -2.7723859313951923e-12 0 -0.10000000000180741 2.7892862715719891e-12 0 -0.10000000000334756 4.6916789030182482e-12 0 -0.099999999997118727 3.2989019502216443e-12 0 -0.09999999999305155 -6.5065737086394959e-12 0 -0.10000000000113016 -1.3541034613040459e-12 0 -0.09999999999688125 1.465017343549313e-12 0 -0.10000000000294863 -4.3833263841525083e-12 0 -0.10000000000447881 1.486674281944711e-12 0 -0.10000000000420894 1.5476877592013327e-12 0 -0.10000000000439438 3.3323468767373909e-12 0 -0.099999999992024149 3.9156828821051981e-12 0 -0.10000000000934019 3.8093985431364441e-12 0 -0.099999999996056688 -1.0238867859026918e-11 0 -0.099999999999048281 -6.5077446469857803e-12 0 -0.099999999994678998 -1.833347926596951e-12 0 -0.099999999995163846 4.883729054841468e-12 0 -0.10000000000057341 -2.8410162677267037e-13 0 -0.10000000000170622 9.5802706046033137e-12 0 -0.10000000000825209 4.9002671190267241e-12 0 -0.099999999996868885 -8.2544431359576897e-12 0 -0.10000000000093685 1.2368104045264172e-12 0 -0.099999999997201286 4.8080815587617232e-12 0 -0.099999999995567912 4.5617589566893102e-12 0 -0.10000000000019207 5.4058754000996245e-12 0 -0.099999999992715374 -5.8669757420359847e-12 0 -0.099999999996226135 -2.3046343479438125e-12 0 -0.10000000000462336 -1.1207294857776273e-11 0 -0.1000000000013922 -4.793713169470859e-12 0 -0.10000000000443809 -8.016796861770592e-12 0 -0.10000000000416735 3.2742621005991956e-12 0 -0.10000000000794845 -6.7738783332549346e-13 0 -0.10000000000955699 2.7881343067637232e-13 0 -0.10000000000128521 1.6302118075600669e-12 0 -0.10000000000679285 -5.4887734982078662e-14 0 -0.099999999997163136 1.6194538115035795e-12 0 -0.10000000000774228 8.7746650223596845e-13 0 -0.10000000000753889 -3.8552060849239567e-13 0 -0.099999999998670208 4.9918971950849156e-12 0 -0.099999999998367381 4.1744656776449007e-12 0 -0.099999999998986427 7.5211972067057431e-12 0 -0.10000000000119444 -2.8327438051506393e-12 0 -0.099999999997412881 1.7013083650208038e-12 0 -0.10000000000435455 -1.0358819921632567e-12 0 -0.099999999999797556 7.3657149918747965e-12 0 -0.099999999999634576 7.0787993522447579e-12 0 -0.10000000000437696 5.0892449976469578e-12 0 -0.10000000000029183 5.7932770993612825e-12 0 -0.10000000000361241 4.5168458816940982e-12 0 -0.10000000000426212 1.1500511914314115e-12 0 -0.09999999999210335 2.0680228092050806e-12 0 -0.099999999998751948 -7.3258456592673049e-13 0 -0.099999999994890898 1.2255577412287333e-12 0 -0.099999999998000161 -5.3716796635794317e-13 0 -0.099999999998526282 2.467427304142511e-13 0 -0.099999999998812664 -3.8104447982328926e-12 0 -0.099999999993858321 -3.3008589351429807e-12 0 -0.099999999999341088 -5.3831422428172689e-13 0 -0.099999999999043021 -6.6050680549989416e-13 0 -0.09999999999688286 -3.3262943181094906e-12 0 -0.099999999999305714 -6.8296334299750017e-13 0 -0.10000000000141762 -1.2076684053827225e-12 0 -0.099999999993662145 -8.8434847552582019e-13 0 -0.099999999996142258 -1.5517372543155661e-13 0 -0.099999999986705862 6.5884994129242896e-12 0 -0.10000000000242332 -6.8467069036862171e-12 0 -0.10000000000851145 -5.1575876815895816e-12 0 -0.10000000000307245 -1.1193791119717966e-12 0 -0.10000000000317587 9.0634964811098229e-13 0 -0.10000000000841339 3.2689698387447508e-12 0 -0.10000000000790862 -5.3034616628866438e-12 0 -0.099999999999902861 -1.1173923114907169e-12 0 -0.10000000000377129 -3.8763534482982864e-12 0 -0.10000000000167962 1.0426392822032726e-12 0 -0.099999999999312902 2.1887114516616624e-12 0 -0.10000000000296642 -7.8995241337836974e-13 0 -0.099999999993544461 -4.4499763574533391e-12 0 -0.099999999997599925 -3.5027861687575435e-12 0 -0.099999999997249081 -5.3121027542013532e-13 0 -0.10000000000339078 -5.09282286481616e-13 0 -0.099999999993892988 -9.7990734450326133e-13 0 -0.099999999998976963 2.1508348487658813e-12 0 -0.099999999992715916 3.3312382800160245e-12 0 -0.099999999995067687 -1.6592901098261281e-12 0 -0.099999999993987801 -2.9533016657201649e-12 0 -0.099999999995327202 -1.2718016743906713e-12 0 -0.099999999996329622 -1.3804224690411315e-12 0 -0.10000000000233136 5.8899011969731907e-13 0 -0.099999999993653096 -3.1723321886056866e-12 0 -0.099999999991198379 2.7342369227035743e-12 0 -0.10000000000450833 -2.6592660365420961e-12 0 -0.099999999998793776 -5.3245927632283863e-12 0 -0.099999999993643368 8.6893383113850753e-13 0 -0.099999999996695677 1.6275771962809271e-12 0 -0.099999999999306005 -8.0779892323856739e-12 0 -0.099999999994590485 -7.8430100955428905e-13 0 -0.099999999999373548 -8.237150111306546e-12 0 -0.10000000000481302 -1.9171892805952551e-12 0 -0.10000000000104216 6.8013628583274421e-12 0 -0.10000000000435351 8.9220352026547767e-12 0 -0.10000000000004519 7.2061213214695248e-12 0 
</DataArray>
</CellData>
<Flow123dData Scalars="cross_section,sigma," Vectors="" Tensors="">
<DataArray type="Float64" Name="cross_section" format="ascii" dof_handler_hash="250" n_dofs_per_element="1">