<?xml version="1.0"?>
<VTKFile type="UnstructuredGrid" version="0.1" byte_order="LittleEndian">
<UnstructuredGrid>
<Piece NumberOfPoints="6" NumberOfCells="3">
<Points>
<DataArray type="Float64" NumberOfComponents="3" format="ascii">
0 0 0 0 0 3 3 0 3 0 3 3 0 3 0 3 0 0 
</DataArray>
</Points>
<Cells>
<DataArray type="UInt32" Name="connectivity" format="ascii">
0 5 4 2 4 1 2 3 0 4 1 2 
</DataArray>
<DataArray type="UInt32" Name="offsets" format="ascii">
4 8 12 
</DataArray>
<DataArray type="UInt32" Name="types" format="ascii">
10 10 10 
</DataArray>
</Cells>
<CellData Scalars="A_conc,B_conc,C_conc," Vectors="" Tensors="">
<DataArray type="Float64" Name="A_conc" format="ascii">
0.28717458874926072 0.28717458874926072 0.28717458874926072 
</DataArray>
<DataArray type="Float64" Name="B_conc" format="ascii">
0.32077143506283445 0.32077143506283445 0.32077143506283445 
</DataArray>
<DataArray type="Float64" Name="C_conc" format="ascii">
0.0071282541125074336 0.0071282541125074336 0.0071282541125074336 
</DataArray>
</CellData>
</Piece>
</UnstructuredGrid>
</VTKFile>
