<?xml version="1.0"?>
<VTKFile type="UnstructuredGrid" version="0.1" byte_order="LittleEndian">
<UnstructuredGrid>
<Piece NumberOfPoints="3142" NumberOfCells="1054">
<Points>
<DataArray type="Float64" NumberOfComponents="3" format="ascii">
0.5000000000 0.3000000000 0.0000000000 0.5500000000 0.3000000000 0.0000000000 0.5500000000 0.3000000000 0.0000000000 0.6000000000 0.3000000000 0.0000000000 0.6000000000 0.3000000000 0.0000000000 0.6500000000 0.3000000000 0.0000000000 0.6500000000 0.3000000000 0.0000000000 0.7000000000 0.3000000000 0.0000000000 0.7000000000 0.3000000000 0.0000000000 0.7500000000 0.3000000000 0.0000000000 0.7500000000 0.3000000000 0.0000000000 0.8000000000 0.3000000000 0.0000000000 0.8000000000 0.3000000000 0.0000000000 0.8500000000 0.3000000000 0.0000000000 0.8500000000 0.3000000000 0.0000000000 0.9000000000 0.3000000000 0.0000000000 0.9000000000 0.3000000000 0.0000000000 0.9500000000 0.3000000000 0.0000000000 0.9500000000 0.3000000000 0.0000000000 1.0000000000 0.3000000000 0.0000000000 0.5000000000 0.7000000000 0.0000000000 0.5500000000 0.7000000000 0.0000000000 0.5500000000 0.7000000000 0.0000000000 0.6000000000 0.7000000000 0.0000000000 0.6000000000 0.7000000000 0.0000000000 0.6500000000 0.7000000000 0.0000000000 0.6500000000 0.7000000000 0.0000000000 0.7000000000 0.7000000000 0.0000000000 0.7000000000 0.7000000000 0.0000000000 0.7500000000 0.7000000000 0.0000000000 0.7500000000 0.7000000000 0.0000000000 0.8000000000 0.7000000000 0.0000000000 0.8000000000 0.7000000000 0.0000000000 0.8500000000 0.7000000000 0.0000000000 0.8500000000 0.7000000000 0.0000000000 0.9000000000 0.7000000000 0.0000000000 0.9000000000 0.7000000000 0.0000000000 0.9500000000 0.7000000000 0.0000000000 0.9500000000 0.7000000000 0.0000000000 1.0000000000 0.7000000000 0.0000000000 0.4007653913 0.3458934947 0.0000000000 0.3327755574 0.3643219668 0.0000000000 0.3657554982 0.3167799284 0.0000000000 0.3808324476 0.3853198367 0.0000000000 0.3327755574 0.3643219668 0.0000000000 0.4007653913 0.3458934947 0.0000000000 0.5683677050 0.3523062351 0.0000000000 0.5228942757 0.3932284363 0.0000000000 0.5275200712 0.3317063247 0.0000000000 0.5275200712 0.3317063247 0.0000000000 0.5228942757 0.3932284363 0.0000000000 0.4907783386 0.3522998145 0.0000000000 0.1000000000 1.0000000000 0.0000000000 0.0530648976 0.9518684527 0.0000000000 0.1026685650 0.9554816391 0.0000000000 0.1000000000 0.0000000000 0.0000000000 0.1026685650 0.0445183609 0.0000000000 0.0530648976 0.0481315473 0.0000000000 0.0500000000 1.0000000000 0.0000000000 0.0530648976 0.9518684527 0.0000000000 0.1000000000 1.0000000000 0.0000000000 0.0500000000 0.0000000000 0.0000000000 0.1000000000 0.0000000000 0.0000000000 0.0530648976 0.0481315473 0.0000000000 0.2500000000 0.0000000000 0.0000000000 0.3000000000 0.0000000000 0.0000000000 0.2750000000 0.0603108142 0.0000000000 0.3000000000 1.0000000000 0.0000000000 0.2500000000 1.0000000000 0.0000000000 0.2760998766 0.9499144562 0.0000000000 0.1572020216 0.6066569730 0.0000000000 0.1991426167 0.6228673949 0.0000000000 0.1650038825 0.6661207771 0.0000000000 0.2236846579 0.6738036313 0.0000000000 0.1650038825 0.6661207771 0.0000000000 0.1991426167 0.6228673949 0.0000000000 0.1247745017 0.2719807754 0.0000000000 0.1683495700 0.2805449085 0.0000000000 0.1422375336 0.3341983344 0.0000000000 0.0000000000 0.7500000000 0.0000000000 0.0000000000 0.7000000000 0.0000000000 0.0497069443 0.7247727708 0.0000000000 0.0000000000 0.3000000000 0.0000000000 0.0000000000 0.2500000000 0.0000000000 0.0497069443 0.2752272292 0.0000000000 0.6000000000 0.3000000000 0.0000000000 0.6195917389 0.3383225009 0.0000000000 0.5683677050 0.3523062351 0.0000000000 0.5000000000 0.7000000000 0.0000000000 0.4332342001 0.6913544523 0.0000000000 0.4791347509 0.6601077537 0.0000000000 1.0000000000 0.1500000000 0.0000000000 0.9539163142 0.1958426333 0.0000000000 0.9367753623 0.1500000000 0.0000000000 1.0000000000 0.8500000000 0.0000000000 0.9539163142 0.8958426333 0.0000000000 0.9367753623 0.8500000000 0.0000000000 1.0000000000 0.8500000000 0.0000000000 0.9367753623 0.8500000000 0.0000000000 0.9538656339 0.8041487416 0.0000000000 1.0000000000 0.1500000000 0.0000000000 0.9367753623 0.1500000000 0.0000000000 0.9538656339 0.1041487416 0.0000000000 0.9041666667 0.9041666667 0.0000000000 0.8808876812 0.8467460981 0.0000000000 0.9367753623 0.8500000000 0.0000000000 0.9041666667 0.2041666667 0.0000000000 0.8808876812 0.1467460981 0.0000000000 0.9367753623 0.1500000000 0.0000000000 0.1247745017 0.2719807754 0.0000000000 0.1422375336 0.3341983344 0.0000000000 0.0938519631 0.3058206823 0.0000000000 0.5000000000 0.7000000000 0.0000000000 0.4558223640 0.7389674368 0.0000000000 0.4332342001 0.6913544523 0.0000000000 0.5500000000 1.0000000000 0.0000000000 0.5000000000 1.0000000000 0.0000000000 0.5212215021 0.9408997445 0.0000000000 0.5000000000 0.0000000000 0.0000000000 0.5500000000 0.0000000000 0.0000000000 0.5237589061 0.0593187718 0.0000000000 0.5500000000 0.3000000000 0.0000000000 0.6000000000 0.3000000000 0.0000000000 0.5683677050 0.3523062351 0.0000000000 0.5020263146 0.8789287083 0.0000000000 0.4400383646 0.8809347458 0.0000000000 0.4567767371 0.8425368440 0.0000000000 0.3340353483 0.8440279973 0.0000000000 0.3586475963 0.8796348242 0.0000000000 0.3086438728 0.8990655453 0.0000000000 0.5324548876 0.5507812500 0.0000000000 0.4779379414 0.5294071564 0.0000000000 0.5333037581 0.5082794274 0.0000000000 0.8270932759 0.1493714167 0.0000000000 0.8128310225 0.1881007222 0.0000000000 0.7714407096 0.1431185448 0.0000000000 0.8270932759 0.8493714167 0.0000000000 0.8115915751 0.8879599548 0.0000000000 0.7690177014 0.8429355733 0.0000000000 0.7714407096 0.1431185448 0.0000000000 0.8128310225 0.1881007222 0.0000000000 0.7658760763 0.1888003952 0.0000000000 0.7690177014 0.8429355733 0.0000000000 0.8115915751 0.8879599548 0.0000000000 0.7689116691 0.8883546957 0.0000000000 0.3340353483 0.8440279973 0.0000000000 0.3086438728 0.8990655453 0.0000000000 0.2920921290 0.8471572837 0.0000000000 0.5741254736 0.5827380488 0.0000000000 0.5166924242 0.5982513484 0.0000000000 0.5324548876 0.5507812500 0.0000000000 0.5020263146 0.8789287083 0.0000000000 0.4740114703 0.9152995733 0.0000000000 0.4400383646 0.8809347458 0.0000000000 0.5000000000 0.7000000000 0.0000000000 0.5500000000 0.7000000000 0.0000000000 0.5536378072 0.7434874016 0.0000000000 1.0000000000 0.3500000000 0.0000000000 0.9587185552 0.4000650861 0.0000000000 0.9578085198 0.3421572097 0.0000000000 1.0000000000 0.6500000000 0.0000000000 0.9578014258 0.6578721232 0.0000000000 0.9586759911 0.6001109115 0.0000000000 0.4666608489 0.5763447104 0.0000000000 0.4779379414 0.5294071564 0.0000000000 0.5324548876 0.5507812500 0.0000000000 0.9500000000 0.3000000000 0.0000000000 0.8989847436 0.2539196559 0.0000000000 0.9439950980 0.2439950980 0.0000000000 0.9500000000 1.0000000000 0.0000000000 0.8989847436 0.9539196559 0.0000000000 0.9439950980 0.9439950980 0.0000000000 0.0000000000 0.6500000000 0.0000000000 0.0500695545 0.6130852008 0.0000000000 0.0466346772 0.6714182307 0.0000000000 0.0000000000 0.3500000000 0.0000000000 0.0463891310 0.3266878183 0.0000000000 0.0505838961 0.3854352228 0.0000000000 0.5020263146 0.8789287083 0.0000000000 0.5062782264 0.8263979830 0.0000000000 0.5589937180 0.8500310223 0.0000000000 0.5478269690 0.7924518275 0.0000000000 0.5589937180 0.8500310223 0.0000000000 0.5062782264 0.8263979830 0.0000000000 0.5094574045 0.7547605553 0.0000000000 0.5000000000 0.7000000000 0.0000000000 0.5536378072 0.7434874016 0.0000000000 0.8500000000 1.0000000000 0.0000000000 0.8517097391 0.9356960730 0.0000000000 0.8989847436 0.9539196559 0.0000000000 0.8500000000 0.3000000000 0.0000000000 0.8517097391 0.2356960730 0.0000000000 0.8989847436 0.2539196559 0.0000000000 0.8695683534 0.5712832998 0.0000000000 0.8286209680 0.5503709096 0.0000000000 0.8690729489 0.5200811613 0.0000000000 0.4910237541 0.4912375482 0.0000000000 0.5333037581 0.5082794274 0.0000000000 0.4779379414 0.5294071564 0.0000000000 0.5761140528 0.5016590360 0.0000000000 0.6154766192 0.4853957606 0.0000000000 0.6204297551 0.5429597469 0.0000000000 0.7140602171 0.6329208314 0.0000000000 0.6752983499 0.6161327067 0.0000000000 0.7180901609 0.5818504040 0.0000000000 0.6500000000 1.0000000000 0.0000000000 0.6206549868 0.9522493400 0.0000000000 0.6801506480 0.9592432034 0.0000000000 0.8500000000 0.0000000000 0.0000000000 0.8999916646 0.0452893492 0.0000000000 0.8549105900 0.0600475335 0.0000000000 0.8500000000 0.7000000000 0.0000000000 0.8999916646 0.7452893492 0.0000000000 0.8549105900 0.7600475335 0.0000000000 0.9000000000 0.3000000000 0.0000000000 0.8989847436 0.2539196559 0.0000000000 0.9500000000 0.3000000000 0.0000000000 0.9500000000 1.0000000000 0.0000000000 0.9000000000 1.0000000000 0.0000000000 0.8989847436 0.9539196559 0.0000000000 0.8641109550 0.4238880566 0.0000000000 0.8130817985 0.3975494581 0.0000000000 0.8684463454 0.3853093747 0.0000000000 0.5000000000 0.3000000000 0.0000000000 0.4969572969 0.2501489541 0.0000000000 0.5424883395 0.2520322960 0.0000000000 0.8641109550 0.4238880566 0.0000000000 0.8197311983 0.4350568716 0.0000000000 0.8130817985 0.3975494581 0.0000000000 0.6732329423 0.5755645003 0.0000000000 0.7180901609 0.5818504040 0.0000000000 0.6752983499 0.6161327067 0.0000000000 0.6236733213 0.1486453821 0.0000000000 0.6839145712 0.1444047012 0.0000000000 0.6401186416 0.1878960798 0.0000000000 0.0000000000 0.0500000000 0.0000000000 0.0530648976 0.0481315473 0.0000000000 0.0443105828 0.1014125184 0.0000000000 0.0000000000 0.9500000000 0.0000000000 0.0443105828 0.8985874816 0.0000000000 0.0530648976 0.9518684527 0.0000000000 1.0000000000 0.3500000000 0.0000000000 1.0000000000 0.4000000000 0.0000000000 0.9587185552 0.4000650861 0.0000000000 1.0000000000 0.6000000000 0.0000000000 1.0000000000 0.6500000000 0.0000000000 0.9586759911 0.6001109115 0.0000000000 0.0000000000 0.8500000000 0.0000000000 0.0653746592 0.8551091961 0.0000000000 0.0443105828 0.8985874816 0.0000000000 0.00000000
[...]
<PointData Scalars="temperature,region_id," Vectors="" Tensors="">
<DataArray type="Float64" Name="temperature" format="ascii">
273.0000000000 273.0000000000 273.0000000000 273.0000000000 273.0000000000 273.0000000000 273.0000000000 273.0000000000 273.0000000000 273.0000000000 273.0000000000 273.0000000000 273.0000000000 273.0000000000 273.0000000000 273.0000000000 273.0000000000 273.0000000000 273.0000000000 273.0000000000 273.0000000000 273.0000000000 273.0000000000 273.0000000000 273.0000000000 273.0000000000 273.0000000000 273.0000000000 273.0000000000 273.0000000000 273.0000000000 273.0000000000 273.0000000000 273.0000000000 273.0000000000 273.0000000000 273.0000000000 273.0000000000 273.0000000000 273.0000000000 273.0000000000 273.0000000000 273.0000000000 273.0000000000 273.0000000000 273.0000000000 273.0000000000 273.0000000000 273.0000000000 273.0000000000 273.0000000000 273.0000000000 273.0000000000 273.0000000000 273.0000000000 273.0000000000 273.0000000000 273.0000000000 273.0000000000 273.0000000000 273.0000000000 273.0000000000 273.0000000000 273.0000000000 273.0000000000 273.0000000000 273.0000000000 273.0000000000 273.0000000000 273.0000000000 273.0000000000 273.0000000000 273.0000000000 273.0000000000 273.0000000000 273.0000000000 273.0000000000 273.0000000000 273.0000000000 273.0000000000 273.0000000000 273.0000000000 273.0000000000 273.0000000000 273.0000000000 273.0000000000 273.0000000000 273.0000000000 273.0000000000 273.0000000000 273.0000000000 273.0000000000 273.0000000000 273.0000000000 273.0000000000 273.0000000000 273.0000000000 273.0000000000 273.0000000000 273.0000000000 273.0000000000 273.0000000000 273.0000000000 273.0000000000 273.0000000000 273.0000000000 273.0000000000 273.0000000000 273.0000000000 273.0000000000 273.0000000000 273.0000000000 273.0000000000 273.0000000000 273.0000000000 273.0000000000 273.0000000000 273.0000000000 273.0000000000 273.0000000000 273.0000000000 273.0000000000 273.0000000000 273.0000000000 273.0000000000 273.0000000000 273.0000000000 273.0000000000 273.0000000000 273.0000000000 273.0000000000 273.0000000000 273.0000000000 273.0000000000 273.0000000000 273.0000000000 273.0000000000 273.0000000000 273.0000000000 273.0000000000 273.0000000000 273.0000000000 273.0000000000 273.0000000000 273.0000000000 273.0000000000 273.0000000000 273.0000000000 273.0000000000 273.0000000000 273.0000000000 273.0000000000 273.0000000000 273.0000000000 273.0000000000 273.0000000000 273.0000000000 273.0000000000 273.0000000000 273.0000000000 273.0000000000 273.0000000000 273.0000000000 273.0000000000 273.0000000000 273.0000000000 273.0000000000 273.0000000000 273.0000000000 273.0000000000 273.0000000000 273.0000000000 273.0000000000 273.0000000000 273.0000000000 273.0000000000 273.0000000000 273.0000000000 273.0000000000 273.0000000000 273.0000000000 273.0000000000 273.0000000000 273.0000000000 273.0000000000 273.0000000000 273.0000000000 273.0000000000 273.0000000000 273.0000000000 273.0000000000 273.0000000000 273.0000000000 273.0000000000 273.0000000000 273.0000000000 273.0000000000 273.0000000000 273.0000000000 273.0000000000 273.0000000000 273.0000000000 273.0000000000 273.0000000000 273.0000000000 273.0000000000 273.0000000000 273.0000000000 273.0000000000 273.0000000000 273.0000000000 273.0000000000 273.0000000000 273.0000000000 273.0000000000 273.0000000000 273.0000000000 273.0000000000 273.0000000000 273.0000000000 273.0000000000 273.0000000000 273.0000000000 273.0000000000 273.0000000000 273.0000000000 273.0000000000 273.0000000000 273.0000000000 273.0000000000 273.0000000000 273.0000000000 273.0000000000 273.0000000000 273.0000000000 273.0000000000 273.0000000000 273.0000000000 273.0000000000 273.0000000000 273.0000000000 273.0000000000 273.0000000000 273.0000000000 273.0000000000 273.0000000000 273.0000000000 273.0000000000 273.0000000000 273.0000000000 273.0000000000 273.0000000000 273.0000000000 273.0000000000 273.0000000000 273.0000000000 273.0000000000 273.0000000000 273.0000000000 273.0000000000 273.0000000000 273.0000000000 273.0000000000 273.0000000000 273.0000000000 273.0000000000 273.0000000000 273.0000000000 273.0000000000 273.0000000000 273.0000000000 273.0000000000 273.0000000000 273.0000000000 273.0000000000 273.0000000000 273.0000000000 273.0000000000 273.0000000000 273.0000000000 273.0000000000 273.0000000000 273.0000000000 273.0000000000 273.0000000000 273.0000000000 273.0000000000 273.0000000000 273.0000000000 273.0000000000 273.0000000000 273.0000000000 273.0000000000 273.0000000000 273.0000000000 273.0000000000 273.0000000000 273.0000000000 273.0000000000 273.0000000000 273.0000000000 273.0000000000 273.0000000000 273.0000000000 273.0000000000 273.0000000000 273.0000000000 273.0000000000 273.0000000000 273.0000000000 273.0000000000 273.0000000000 273.0000000000 273.0000000000 273.0000000000 273.0000000000 273.0000000000 273.0000000000 273.0000000000 273.0000000000 273.0000000000 273.0000000000 273.0000000000 273.0000000000 273.0000000000 273.0000000000 273.0000000000 273.0000000000 273.0000000000 273.0000000000 273.0000000000 273.0000000000 273.0000000000 273.0000000000 273.0000000000 273.0000000000 273.0000000000 273.0000000000 273.0000000000 273.0000000000 273.0000000000 273.0000000000 273.0000000000 273.0000000000 273.0000000000 273.0000000000 273.0000000000 273.0000000000 273.0000000000 273.0000000000 273.0000000000 273.0000000000 273.0000000000 273.0000000000 273.0000000000 273.0000000000 273.0000000000 273.0000000000 273.0000000000 273.0000000000 273.0000000000 273.0000000000 273.0000000000 273.0000000000 273.0000000000 273.0000000000 273.0000000000 273.0000000000 273.0000000000 273.0000000000 273.0000000000 273.0000000000 273.0000000000 273.0000000000 273.0000000000 273.0000000000 273.0000000000 273.0000000000 273.0000000000 273.0000000000 273.0000000000 273.0000000000 273.0000000000 273.0000000000 273.0000000000 273.0000000000 273.0000000000 273.0000000000 273.0000000000 273.0000000000 273.0000000000 273.0000000000 273.0000000000 273.0000000000 273.0000000000 273.0000000000 273.0000000000 273.0000000000 273.0000000000 273.0000000000 273.0000000000 273.0000000000 273.0000000000 273.0000000000 273.0000000000 273.0000000000 273.0000000000 273.0000000000 273.0000000000 273.0000000000 273.0000000000 273.0000000000 273.0000000000 273.0000000000 273.0000000000 273.0000000000 273.0000000000 273.0000000000 273.0000000000 273.0000000000 273.0000000000 273.0000000000 273.0000000000 273.0000000000 273.0000000000 273.0000000000 273.0000000000 273.0000000000 273.0000000000 273.0000000000 273.0000000000 273.0000000000 273.0000000000 273.0000000000 273.0000000000 273.0000000000 273.0000000000 273.0000000000 273.0000000000 273.0000000000 273.0000000000 273.0000000000 273.0000000000 273.0000000000 273.0000000000 273.0000000000 273.0000000000 273.0000000000 273.0000000000 273.0000000000 273.0000000000 273.0000000000 273.0000000000 273.0000000000 273.0000000000 273.0000000000 273.0000000000 273.0000000000 273.0000000000 273.0000000000 273.0000000000 273.0000000000 273.0000000000 273.0000000000 273.0000000000 273.0000000000 273.0000000000 273.0000000000 273.0000000000 273.0000000000 273.0000000000 273.0000000000 273.0000000000 273.0000000000 273.0000000000 273.0000000000 273.0000000000 273.0000000000 273.0000000000 273.0000000000 273.0000000000 273.0000000000 273.0000000000 273.0000000000 273.0000000000 273.0000000000 273.0000000000 273.0000000000 273.0000000000 273.0000000000 273.0000000000 273.0000000000 273.0000000000 273.0000000000 273.0000000000 273.0000000000 273.0000000000 273.0000000000 273.0000000000 273.0000000000 273.0000000000 273.0000000000 273.0000000000 273.0000000000 273.0000000000 273.0000000000 273.0000000000 273.0000000000 273.0000000000 273.0000000000 273.0000000000 273.0000000000 273.0000000000 273.0000000000 273.0000000000 273.0000000000 273.0000000000 273.0000000000 273.0000000000 273.0000000000 273.0000000000 273.0000000000 273.0000000000 273.0000000000 273.0000000000 273.0000000000 273.0000000000 273.0000000000 273.0000000000 273.0000000000 273.0000000000 273.0000000000 273.0000000000 273.0000000000 273.0000000000 273.0000000000 273.0000000000 273.0000000000 273.0000000000 273.0000000000 273.0000000000 273.0000000000 273.0000000000 273.0000000000 273.0000000000 273.0000000000 273.0000000000 273.0000000000 273.0000000000 273.0000000000 273.0000000000 273.0000000000 273.0000000000 273.0000000000 273.0000000000 273.0000000000 273.0000000000 273.0000000000 273.0000000000 273.0000000000 273.0000000000 273.0000000000 273.0000000000 273.0000000000 273.0000000000 273.0000000000 273.0000000000 273.0000000000 273.0000000000 273.0000000000 273.0000000000 273.0000000000 273.0000000000 273.0000000000 273.0000000000 273.0000000000 273.0000000000 273.0000000000 273.0000000000 273.0000000000 273.0000000000 273.0000000000 273.0000000000 273.0000000000 273.0000000000 273.0000000000 273.0000000000 273.0000000000 273.0000000000 273.0000000000 273.0000000000 273.0000000000 273.0000000000 273.0000000000 273.0000000000 273.0000000000 273.0000000000 273.0000000000 273.0000000000 273.0000000000 273.0000000000 273.0000000000 273.0000000000 273.0000000000 273.0000000000 273.0000000000 273.0000000000 273.0000000000 273.0000000000 273.0000000000 273.0000000000 273.0000000000 273.0000000000 273.0000000000 273.0000000000 273.0000000000 273.0000000000 273.0000000000 273.0000000000 273.0000000000 273.0000000000 273.0000000000 273.0000000000 273.0000000000 273.0000000000 273.0000000000 273.0000000000 273.0000000000 273.0000000000 273.0000000000 273.0000000000 273.0000000000 273.0000000000 273.0000000000 273.0000000000 273.0000000000 273.0000000000 273.0000000000 273.0000000000 273.0000000000 273.0000000000 273.0000000000 273.0000000000 273.0000000000 273.0000000000 273.0000000000 273.0000000000 273.0000000000 273.0000000000 273.0000000000 273.0000000000 273.0000000000 273.0000000000 273.0000000000 273.0000000000 273.0000000000 273.0000000000 273.0000000000 273.0000000000 273.0000000000 273.0000000000 273.0000000000 273.0000000000 273.0000000000 273.0000000000 273.0000000000 273.0000000000 273.0000000000 273.0000000000 273.0000000000 273.0000000000 273.0000000000 273.0000000000 273.0000000000 273.0000000000 273.0000000000 273.0000000000 273.0000000000 273.0000000000 273.0000000000 273.0000000000 273.0000000000 273.0000000000 273.0000000000 273.0000000000 273.0000000000 273.0000000000 273.0000000000 273.0000000000 273.0000000000 273.0000000000 273.0000000000 273.0000000000 273.0000000000 273.0000000000 273.0000000000 273.0000000000 273.0000000000 273.0000000000 273.0000000000 273.0000000000 273.0000000000 273.0000000000 273.0000000000 273.0000000000 273.0000000000 273.0000000000 273.0000000000 273.0000000000 273.0000000000 273.0000000000 273.0000000000 273.0000000000 273.0000000000 273.0000000000 273.0000000000 273.0000000000 273.0000000000 273.0000000000 273.0000000000 273.0000000000 273.0000000000 273.0000000000 273.0000000000 273.0000000000 273.0000000000 273.0000000000 273.0000000000 273.0000000000 273.0000000000 273.0000000000 273.0000000000 273.0000000000 273.0000000000 273.0000000000 273.0000000000 273.0000000000 273.0000000000 273.0000000000 273.0000000000 273.0000000000 273.0000000000 273.0000000000 273.0000000000 273.0000000000 273.0000000000 273.0000000000 273.0000000000 273.0000000000 273.0000000000 273.0000000000 273.0000000000 273.0000000000 273.0000000000 273.0000000000 273.0000000000 273.0000000000 273.0000000000 273.0000000000 273.0000000000 273.0000000000 273.0000000000 273.0000000000 273.0000000000 273.0000000000 273.0000000000 273.0000000000 273.0000000000 273.0000000000 273.0000000000 273.0000000000 273.0000000000 273.0000000000 273.0000000000 273.0000000000 273.0000000000 273.0000000000 273.0000000000 273.0000000000 273.0000000000 273.0000000000 273.0000000000 273.0000000000 273.0000000000 273.0000000000 273.0000000000 273.0000000000 273.0000000000 273.0000000000 273.0000000000 273.0000000000 273.0000000000 273.0000000000 273.0000000000 273.0000000000 273.0000000000 273.0000000000 273.0000000000 273.0000000000 273.0000000000 273.0000000000 273.0000000000 273.0000000000 273.0000000000 273.0000000000 273.0000000000 273.0000000000 273.0000000000 273.0000000000 273.0000000000 273.0000000000 273.0000000000 273.0000000000 273.0000000000 273.0000000000 273.0000000000 273.0000000000 273.0000000000 273.0000000000 273.0000000000 273.0000000000 273.0000000000 273.0000000000 273.0000000000 273.0000000000 273.0000000000 273.0000000000 273.0000000000 273.0000000000 273.0000000000 273.0000000000 273.0000000000 273.0000000000 273.0000000000 273.0000000000 273.0000000000 273.0000000000 273.0000000000 273.0000000000 273.0000000000 273.0000000000 273.0000000000 273.0000000000 273.0000000000 273.0000000000 273.0000000000 273.0000000000 273.0000000000 273.0000000000 273.0000000000 273.0000000000 273.0000000000 273.0000000000 273.0000000000 273.0000000000 273.0000000000 273.0000000000 273.0000000000 273.0000000000 273.0000000000 273.0000000000 273.0000000000 273.0000000000 273.0000000000 273.0000000000 273.0000000000 273.0000000000 273.0000000000 273.0000000000 273.0000000000 273.0000000000 273.0000000000 273.0000000000 273.0000000000 273.0000000000 273.0000000000 273.0000000000 273.0000000000 273.0000000000 273.0000000000 273.0000000000 273.0000000000 273.0000000000 273.0000000000 273.0000000000 273.0000000000 273.0000000000 273.0000000000 273.0000000000 273.0000000000 273.0000000000 273.0000000000 273.0000000000 273.0000000000 273.0000000000 273.0000000000 273.0000000000 273.0000000000 273.0000000000 273.0000000000 273.0000000000 273.0000000000 273.0000000000 273.0000000000 273.0000000000 273.0000000000 273.0000000000 273.0000000000 273.0000000000 273.0000000000 273.0000000000 273.0000000000 273.0000000000 273.0000000000 273.0000000000 273.0000000000 273.0000000000 273.0000000000 273.0000000000 273.0000000000 273.0000000000 273.0000000000 273.0000000000 273.0000000000 273.0000000000 273.0000000000 273.0000000000 273.0000000000 273.0000000000 273.0000000000 273.0000000000 273.0000000000 273.0000000000 273.0000000000 273.0000000000 273.0000000000 273.0000000000 273.0000000000 273.0000000000 273.0000000000 273.0000000000 273.0000000000 273.0000000000 273.0000000000 273.0000000000 273.0000000000 273.0000000000 273.0000000000 273.0000000000 273.0000000000 273.0000000000 273.0000000000 273.0000000000 273.0000000000 273.0000000000 273.0000000000 273.0000000000 273.0000000000 273.0000000000 273.0000000000 273.0000000000 273.0000000000 273.0000000000 273.0000000000 273.0000000000 273.0000000000 273.0000000000 273.0000000000 273.0000000000 273.0000000000 273.0000000000 273.0000000000 273.0000000000 273.0000000000 273.0000000000 273.0000000000 273.0000000000 273.0000000000 273.0000000000 273.0000000000 273.0000000000 273.0000000000 273.0000000000 273.0000000000 273.0000000000 273.0000000000 273.0000000000 273.0000000000 273.0000000000 273.0000000000 273.0000000000 273.0000000000 273.0000000000 273.0000000000 273.0000000000 273.0000000000 273.0000000000 273.0000000000 273.0000000000 273.0000000000 273.0000000000 273.0000000000 273.0000000000 273.0000000000 273.0000000000 273.0000000000 273.0000000000 273.0000000000 273.0000000000 273.0000000000 273.0000000000 273.0000000000 273.0000000000 273.0000000000 273.0000000000 273.0000000000 273.0000000000 273.0000000000 273.0000000000 273.0000000000 273.0000000000 273.0000000000 273.0000000000 273.0000000000 273.0000000000 273.0000000000 273.0000000000 273.0000000000 273.0000000000 273.0000000000 273.0000000000 273.0000000000 273.0000000000 273.0000000000 273.0000000000 273.0000000000 273.0000000000 273.0000000000 273.0000000000 273.0000000000 273.0000000000 273.0000000000 273.0000000000 273.0000000000 273.0000000000 273.0000000000 273.0000000000 273.0000000000 273.0000000000 273.0000000000 273.0000000000 273.0000000000 273.0000000000 273.0000000000 273.0000000000 273.0000000000 273.0000000000 273.0000000000 273.0000000000 273.0000000000 273.0000000000 273.0000000000 273.0000000000 273.0000000000 273.0000000000 273.0000000000 273.0000000000 273.0000000000 273.0000000000 273.0000000000 273.0000000000 273.0000000000 273.0000000000 273.0000000000 273.0000000000 273.0000000000 273.0000000000 273.0000000000 273.0000000000 273.0000000000 273.0000000000 273.0000000000 273.0000000000 273.0000000000 273.0000000000 273.0000000000 273.0000000000 273.0000000000 273.0000000000 273.0000000000 273.0000000000 273.0000000000 273.0000000000 273.0000000000 273.0000000000 273.0000000000 273.0000000000 273.0000000000 273.0000000000 273.0000000000 273.0000000000 273.0000000000 273.0000000000 273.0000000000 273.0000000000 273.0000000000 273.0000000000 273.0000000000 273.0000000000 273.0000000000 273.0000000000 273.0000000000 273.0000000000 273.0000000000 273.0000000000 273.0000000000 273.0000000000 273.0000000000 273.0000000000 273.0000000000 273.0000000000 273.0000000000 273.0000000000 273.0000000000 273.0000000000 273.0000000000 273.0000000000 273.0000000000 273.0000000000 273.0000000000 273.0000000000 273.0000000000 273.0000000000 273.0000000000 273.0000000000 273.0000000000 273.0000000000 273.0000000000 273.0000000000 273.0000000000 273.0000000000 273.0000000000 273.0000000000 273.0000000000 273.0000000000 273.0000000000 273.0000000000 273.0000000000 273.0000000000 273.0000000000 273.0000000000 273.0000000000 273.0000000000 273.0000000000 273.0000000000 273.0000000000 273.0000000000 273.0000000000 273.0000000000 273.0000000000 273.0000000000 273.0000000000 273.0000000000 273.0000000000 273.0000000000 273.0000000000 273.0000000000 273.0000000000 273.0000000000 273.0000000000 273.0000000000 273.0000000000 273.0000000000 273.0000000000 273.0000000000 273.0000000000 273.0000000000 273.0000000000 273.0000000000 273.0000000000 273.0000000000 273.0000000000 273.0000000000 273.0000000000 273.0000000000 273.0000000000 273.0000000000 273.0000000000 273.0000000000 273.0000000000 273.0000000000 273.0000000000 273.0000000000 273.0000000000 273.0000000000 273.0000000000 273.0000000000 273.0000000000 273.0000000000 273.0000000000 273.0000000000 273.0000000000 273.0000000000 273.0000000000 273.0000000000 273.0000000000 273.0000000000 273.0000000000 273.0000000000 273.0000000000 273.0000000000 273.0000000000 273.0000000000 273.0000000000 273.0000000000 273.0000000000 273.0000000000 273.0000000000 273.0000000000 273.0000000000 273.0000000000 273.0000000000 273.0000000000 273.0000000000 273.0000000000 273.0000000000 273.0000000000 273.0000000000 273.0000000000 273.0000000000 273.0000000000 273.0000000000 273.0000000000 273.0000000000 273.0000000000 273.0000000000 273.0000000000 273.0000000000 273.0000000000 273.0000000000 273.0000000000 273.0000000000 273.0000000000 273.0000000000 273.0000000000 273.0000000000 273.0000000000 273.0000000000 273.0000000000 273.0000000000 273.0000000000 273.0000000000 273.0000000000 273.0000000000 273.0000000000 273.0000000000 273.0000000000 273.0000000000 273.0000000000 273.0000000000 273.0000000000 273.0000000000 273.0000000000 273.0000000000 273.0000000000 273.0000000000 273.0000000000 273.0000000000 273.0000000000 273.0000000000 273.0000000000 273.0000000000 273.0000000000 273.0000000000 273.0000000000 273.0000000000 273.0000000000 273.0000000000 273.0000000000 273.0000000000 273.0000000000 273.0000000000 273.0000000000 273.0000000000 273.0000000000 273.0000000000 273.0000000000 273.0000000000 273.0000000000 273.0000000000 273.0000000000 273.0000000000 273.0000000000 273.0000000000 273.0000000000 273.0000000000 273.0000000000 273.0000000000 273.0000000000 273.0000000000 273.0000000000 273.0000000000 273.0000000000 273.0000000000 273.0000000000 273.0000000000 273.0000000000 273.0000000000 273.0000000000 273.0000000000 273.0000000000 273.0000000000 273.0000000000 273.0000000000 273.0000000000 273.0000000000 273.0000000000 273.0000000000 273.0000000000 273.0000000000 273.0000000000 273.0000000000 273.0000000000 273.0000000000 273.00000000