<?xml version="1.0"?>
<VTKFile type="UnstructuredGrid" version="0.1" byte_order="LittleEndian">
<UnstructuredGrid>
<Piece NumberOfPoints="3142" NumberOfCells="1054">
<Points>
<DataArray type="Float64" NumberOfComponents="3" format="ascii">
0 0 0 0.049999999999899652 0 0 0.02576622439977887 0.024532886826226379 0 0 0 0 0.02576622439977887 0.024532886826226379 0 0 0.050000000000207989 0 0 0.050000000000207989 0 0.02576622439977887 0.024532886826226379 0 0.053064897599215843 0.048131547304697528 0 0.049999999999899652 0 0 0.053064897599215843 0.048131547304697528 0 0.02576622439977887 0.024532886826226379 0 0.099999999999814668 0 0 0.10266856499169109 0.044518360900210059 0 0.053064897599215843 0.048131547304697528 0 0.049999999999899652 0 0 0.099999999999814668 0 0 0.053064897599215843 0.048131547304697528 0 0.099999999999814668 0 0 0.14999999999970359 0 0 0.10266856499169109 0.044518360900210059 0 0.083411279318303222 0.089699755330707398 0 0.053064897599215843 0.048131547304697528 0 0.10266856499169109 0.044518360900210059 0 0.14618258501891079 0.062070108745602003 0 0.12372429750337779 0.095814237875728972 0 0.10266856499169109 0.044518360900210059 0 0.083411279318303222 0.089699755330707398 0 0.10266856499169109 0.044518360900210059 0 0.12372429750337779 0.095814237875728972 0 0.083411279318303222 0.089699755330707398 0 0.12372429750337779 0.095814237875728972 0 0.1053400320299198 0.12877248826361379 0 0.14332333627550789 0.14578431753966009 0 0.1053400320299198 0.12877248826361379 0 0.12372429750337779 0.095814237875728972 0 0.083411279318303222 0.089699755330707398 0 0.1053400320299198 0.12877248826361379 0 0.065374659239632718 0.1448908038746782 0 0.083411279318303222 0.089699755330707398 0 0.065374659239632718 0.1448908038746782 0 0.044310582753132287 0.101412518374475 0 0 0.050000000000207989 0 0.053064897599215843 0.048131547304697528 0 0.044310582753132287 0.101412518374475 0 0.083411279318303222 0.089699755330707398 0 0.044310582753132287 0.101412518374475 0 0.053064897599215843 0.048131547304697528 0 0 0.10000000000041601 0 0 0.050000000000207989 0 0.044310582753132287 0.101412518374475 0 0 0.15000000000062411 0 0 0.10000000000041601 0 0.044310582753132287 0.101412518374475 0 0 0.15000000000062411 0 0.044310582753132287 0.101412518374475 0 0.065374659239632718 0.1448908038746782 0 0.083105206071467416 0.20007701332709979 0 0.038512288486115001 0.1844147282893184 0 0.065374659239632718 0.1448908038746782 0 0 0.15000000000062411 0 0.065374659239632718 0.1448908038746782 0 0.038512288486115001 0.1844147282893184 0 0 0.20000000000083221 0 0 0.15000000000062411 0 0.038512288486115001 0.1844147282893184 0 0 0.20000000000083221 0 0.038512288486115001 0.1844147282893184 0 0.044081577119474857 0.2271058242433576 0 0 0.25000000000104028 0 0 0.20000000000083221 0 0.044081577119474857 0.2271058242433576 0 0.083105206071467416 0.20007701332709979 0 0.044081577119474857 0.2271058242433576 0 0.038512288486115001 0.1844147282893184 0 0.049706944316556423 0.27522722923869108 0 0.044081577119474857 0.2271058242433576 0 0.095326043202144745 0.24554465089224409 0 0.083105206071467416 0.20007701332709979 0 0.095326043202144745 0.24554465089224409 0 0.044081577119474857 0.2271058242433576 0 0.083105206071467416 0.20007701332709979 0 0.106902708054812 0.16453234188234539 0 0.13737030665753211 0.20313708640667491 0 0.083105206071467416 0.20007701332709979 0 0.13737030665753211 0.20313708640667491 0 0.095326043202144745 0.24554465089224409 0 0.083105206071467416 0.20007701332709979 0 0.065374659239632718 0.1448908038746782 0 0.106902708054812 0.16453234188234539 0 0.065374659239632718 0.1448908038746782 0 0.1053400320299198 0.12877248826361379 0 0.106902708054812 0.16453234188234539 0 0.14332333627550789 0.14578431753966009 0 0.106902708054812 0.16453234188234539 0 0.1053400320299198 0.12877248826361379 0 0.14332333627550789 0.14578431753966009 0 0.16141998738593399 0.10404039647458049 0 0.18652628422869419 0.14162325200928061 0 0.14332333627550789 0.14578431753966009 0 0.18652628422869419 0.14162325200928061 0 0.18124454140915969 0.18790916706335251 0 0.14332333627550789 0.14578431753966009 0 0.13737030665753211 0.20313708640667491 0 0.106902708054812 0.16453234188234539 0 0.14332333627550789 0.14578431753966009 0 0.18124454140915969 0.18790916706335251 0 0.13737030665753211 0.20313708640667491 0 0.13737030665753211 0.20313708640667491 0 0.14377654328998779 0.2442024734791064 0 0.095326043202144745 0.24554465089224409 0 0.17933913398461551 0.2350063570234002 0 0.14377654328998779 0.2442024734791064 0 0.13737030665753211 0.20313708640667491 0 0.17933913398461551 0.2350063570234002 0 0.13737030665753211 0.20313708640667491 0 0.18124454140915969 0.18790916706335251 0 0.2185883431182947 0.18019736283949719 0 0.224700362040408 0.22206622194729711 0 0.18124454140915969 0.18790916706335251 0 0.17933913398461551 0.2350063570234002 0 0.18124454140915969 0.18790916706335251 0 0.224700362040408 0.22206622194729711 0 0.17933913398461551 0.2350063570234002 0 0.224700362040408 0.22206622194729711 0 0.21049769590865089 0.26857363548218488 0 0.25195515620380449 0.25883339815888678 0 0.21049769590865089 0.26857363548218488 0 0.224700362040408 0.22206622194729711 0 0.2185883431182947 0.18019736283949719 0 0.26429849586623999 0.19346700179430079 0 0.224700362040408 0.22206622194729711 0 0.2185883431182947 0.18019736283949719 0 0.22985637510995899 0.1298347970200906 0 0.25557216766470708 0.15874861286892261 0 0.2185883431182947 0.18019736283949719 0 0.25557216766470708 0.15874861286892261 0 0.26429849586623999 0.19346700179430079 0 0.2185883431182947 0.18019736283949719 0 0.18124454140915969 0.18790916706335251 0 0.18652628422869419 0.14162325200928061 0 0.2185883431182947 0.18019736283949719 0 0.18652628422869419 0.14162325200928061 0 0.22985637510995899 0.1298347970200906 0 0.19922788606653311 0.085920220746880993 0 0.24218496799700481 0.089025544070598317 0 0.22985637510995899 0.1298347970200906 0 0.27474541102162192 0.11822029332053539 0 0.22985637510995899 0.1298347970200906 0 0.24218496799700481 0.089025544070598317 0 0.27499999999933927 0.060310814194988557 0 0.24218496799700481 0.089025544070598317 0 0.22668068146512929 0.045875643423131329 0 0.19922788606653311 0.085920220746880993 0 0.22668068146512929 0.045875643423131329 0 0.24218496799700481 0.089025544070598317 0 0.19922788606653311 0.085920220746880993 0 0.22985637510995899 0.1298347970200906 0 0.18652628422869419 0.14162325200928061 0 0.19922788606653311 0.085920220746880993 0 0.18652628422869419 0.14162325200928061 0 0.16141998738593399 0.10404039647458049 0 0.14332333627550789 0.14578431753966009 0 0.12372429750337779 0.095814237875728972 0 0.16141998738593399 0.10404039647458049 0 0.14618258501891079 0.062070108745602003 0 0.16141998738593399 0.10404039647458049 0 0.12372429750337779 0.095814237875728972 0 0.19922788606653311 0.085920220746880993 0 0.16141998738593399 0.10404039647458049 0 0.14618258501891079 0.062070108745602003 0 0.19922788606653311 0.085920220746880993 0 0.14618258501891079 0.062070108745602003 0 0.184418230509967 0.038773194583122873 0 0.14999999999970359 0 0 0.184418230509967 0.038773194583122873 0 0.14618258501891079 0.062070108745602003 0 0.14999999999970359 0 0 0.14618258501891079 0.062070108745602003 0 0.10266856499169109 0.044518360900210059 0 0.14999999999970359 0 0 0.19999999999955789 0 0 0.184418230509967 0.038773194583122873 0 0.19999999999955789 0 0 0.22668068146512929 0.045875643423131329 0 0.184418230509967 0.038773194583122873 0 0.19922788606653311 0.085920220746880993 0 0.184418230509967 0.038773194583122873 0 0.22668068146512929 0.045875643423131329 0 0.19999999999955789 0 0 0.24999999999941211 0 0 0.22668068146512929 0.045875643423131329 0 0.24999999999941211 0 0 0.29999999999926641 0 0 0.27499999999933927 0.060310814194988557 0 0.29999999999926641 0 0 0.32541448401678508 0.046215317981507749 0 0.27499999999933927 0.060310814194988557 0 0.24999999999941211 0 0 0.27499999999933927 0.060310814194988557 0 0.22668068146512929 0.045875643423131329 0 0.27499999999933927 0.060310814194988557 0 0.27474541102162192 0.11822029332053539 0 0.24218496799700481 0.089025544070598317 0 0.27474541102162192 0.11822029332053539 0 0.3096713403101819 0.085471541595262421 0 0.32215584939770009 0.1218492143506909 0 0.3096713403101819 0.085471541595262421 0 0.27474541102162192 0.11822029332053539 0 0.27499999999933927 0.060310814194988557 0 0.27499999999933927 0.060310814194988557 0 0.32541448401678508 0.046215317981507749 0 0.3096713403101819 0.085471541595262421 0 0.35312867752657662 0.084946736076730367 0 0.3096713403101819 0.085471541595262421 0 0.32541448401678508 0.046215317981507749 0 0.35312867752657662 0.084946736076730367 0 0.32215584939770009 0.1218492143506909 0 0.3096713403101819 0.085471541595262421 0 0.35312867752657662 0.084946736076730367 0 0.36246644853392812 0.1399454205365751 0 0.32215584939770009 0.1218492143506909 0 0.35312867752657662 0.084946736076730367 0 0.39823268594401579 0.1116623613130045 0 0.36246644853392812 0.1399454205365751 0 0.35312867752657662 0.084946736076730367 0 0.3615861437013822 0.03582617922508851 0 0.39591832466117061 0.056982757562006353 0 0.35312867752657662 0.084946736076730367 0 0.32541448401678508 0.046215317981507749 0 0.3615861437013822 0.03582617922508851 0 0.29999999999926641 0 0 0.34999999999912063 0 0 0.32541448401678508 0.046215317981507749 0 0.34999999999912063 0 0 0.3615861437013822 0.03582617922508851 0 0.32541448401678508 0.046215317981507749 0 0.34999999999912063 0 0 0.3999999999989749 0 0 0.3615861437013822 0.03582617922508851 0 0.3999999999989749 0 0 0.39591832466117061 0.056982757562006353 0 0.3615861437013822 0.03582617922508851 0 0.3999999999989749 0 0 0.4320097814748517 0.037406712692169303 0 0.39591832466117061 0.056982757562006353 0 0.43698630808430822 0.080423614171545449 0 0.39591832466117061 0.056982757562006353 0 0.4320097814748517 0.037406712692169303 0 0.3999999999989749 0 0 0.4499999
[...]
<PointData Scalars="temperature,region_id," Vectors="" Tensors="">
<DataArray type="Float64" Name="temperature" format="ascii">
273.00000000000273 273.0000000000046 272.99999999999596 273.00000000000381 273.00000000000063 272.99999999998971 272.99999999997948 273.00000000000921 272.99999999997453 273.0000000000062 272.9999999999838 272.99999999999375 273.00000000002018 272.99999999996919 272.99999999997067 273.00000000000841 273.00000000001177 272.99999999997908 273.00000000000506 273.00000000002018 272.99999999999159 273.00000000008367 272.99999999993014 272.99999999967105 272.99999999840634 273.00000000051534 272.99999999961324 273.00000000020219 272.99999999953388 273.00000000037801 273.00000000589699 273.00000001628831 272.99999999298916 272.99999993342362 272.99999998230197 273.00000002692008 273.00000000298314 272.9999999960213 272.99999999717608 273.00000000212003 272.99999999809251 273.00000000066456 272.99999999988677 272.99999999982998 273.00000000032696 273.00000000045281 273.00000000053075 272.99999999969424 273.00000000008419 272.9999999999423 273.00000000024011 272.99999999894129 273.00000000048601 273.00000000087846 272.99999999831687 273.00000000136987 272.99999999709132 273.00000010670988 273.00000001716643 272.99999996657169 272.99999999681711 272.99999997944622 273.00000000763953 273.00000000673589 272.99999999671297 273.00000000976843 273.00000000383875 273.00000002478754 272.999999971634 272.99999998464438 273.00000000252754 272.99999996513355 272.99999998528546 272.99999995702223 273.00000003797538 273.00000018248107 272.99999987655377 273.00000016532732 272.99999990909265 272.99999966093401 272.99999999696109 273.00000010696584 273.00000017514998 273.00000111064929 272.9999999701102 272.99999849772888 272.99999956956896 273.00000014299752 272.99999993371995 273.00000006226946 273.00000000127045 273.00000000201788 272.99999985418492 272.99999973906148 272.99999980306404 273.00000004075952 272.99999986985853 273.00000007066348 272.99999987219195 272.99999943912451 272.99999916912714 273.00000185915638 272.99999943706126 273.00000156469412 272.99999986617149 272.99999907097367 273.00000268714484 273.0000020431026 272.99999771426798 272.99999732508581 273.0000000781676 272.99998646117257 272.999996696072 272.99999782551481 272.99997924074285 273.00000251961922 273.00000784968239 273.00001166669665 272.99998098403722 273.00000498142663 272.99997062615171 273.00001426679466 272.99996385965517 272.99996862057276 272.99988083472397 273.00014948188567 273.00034334894548 273.00022116594465 272.99981709708044 273.00001660916161 273.00001054285258 272.9999731459626 273.0000016190524 272.99999924089013 273.00000029980822 273.00000311222112 272.99999965121373 273.00002656650821 273.00000243953667 273.00000262880656 272.99999869355321 273.00000110629168 272.99999979048266 272.99999953598183 273.00000003618976 273.00000005659456 272.99999991194647 272.99999981718577 272.99999984163912 273.00000010495773 273.00000001560085 273.00000001053752 272.99999999629136 273.0000000018494 272.99999999812013 273.00000000822394 273.00000006444156 272.99999987394625 272.99999989273465 273.00000004164036 272.9999999217016 273.00000000951138 272.99999991898255 273.00000003521279 273.00000004029647 272.99999999650493 273.00000000902168 273.00000000224287 273.00000001413935 273.00000001206269 272.9999999944568 273.00000000098322 273.00000000021299 272.9999999993712 273.0000000000328 272.99999999980105 272.99999999994009 273.00000000002836 272.99999999994566 272.99999999998607 273.00000000003206 273.00000000007765 272.99999999994833 273.00000000012614 272.99999999973579 272.99999999990001 273.00000000107298 272.99999999946129 272.99999999894004 273.00000000020003 273.00000000045873 272.99999999963165 273.00000000200936 273.00000000262702 272.99999999459772 273.00000000430595 272.99999999124896 272.99999999198303 273.0000000007098 272.99999999601675 272.99999999941076 273.00000003226984 273.00000001444556 273.00000000296473 272.99999978457339 273.0000005094771 272.9999995061147 273.00000024230741 273.00000000977326 273.00000003151115 272.99999999465643 272.99999995639973 273.00000006501745 273.00000008616189 273.00000009012638 272.9999999388437 273.00000139324101 272.99999940656585 273.00000057998358 273.00000187805881 272.99999447041375 272.99999891861211 273.00000274568299 272.99998891778034 272.99999296405861 273.00000004480142 272.99999999672826 273.00000013971788 273.00000004079436 272.99999999779612 273.00000000091308 273.00000000017639 273.00000000022493 272.9999999994352 272.99999999989905 273.00000000043684 272.99999999970623 272.99999999963285 272.99999999823996 273.00000000041558 272.9999999974641 272.99999999911944 273.00000000118644 272.99999999987693 272.99999999555922 272.99999999815316 273.00000002108317 273.00000000802407 272.99999998433378 272.99999999915713 272.99999999797518 273.0000000013647 272.99999999666096 273.00000000598152 273.00000000265663 272.9999999957459 272.9999999910317 273.00000000736804 272.99999998627919 273.00000009295411 273.0000000114249 273.00000001732275 273.00000000353754 273.00000002986616 273.00000001185572 273.00000004077492 272.99999997695613 273.00000025450424 272.99999993653586 273.0000000966885 273.00000904046999 273.00000653226078 272.99999825087968 273.00000050632104 273.00000130488775 272.99999928455208 273.00000059024904 272.99999949083468 272.99999970662753 273.00000041878462 273.00000002014156 273.00000016908575 272.99999992256647 273.00000030653212 272.99999994349349 273.00000865597218 272.99999957322871 272.99997291622412 273.00001849366919 273.00014274587124 273.00006099604246 273.00001849453673 272.99997312722655 273.00003922525264 272.9999983468619 273.00000203124114 273.00000272959926 273.00005665771567 272.99993723235525 273.00015887792205 272.99962652374444 272.9999800570431 273.00014591114342 273.00002617352163 272.99997749283204 272.99996048041612 272.99762013165406 273.002061187724 273.00011458162675 272.9998635577972 273.00049273755036 273.00113680953763 272.99451424335456 272.96288188065546 273.0050142884462 273.19839240142835 273.03827657931748 272.92086201269348 273.06187090763297 272.96796094586904 272.95770198395115 273.04478661588877 272.99743221721047 272.97741796520575 273.00168801613228 272.99486581503743 273.00001130620507 273.00273847276281 272.99262932225218 272.99346542464974 273.12161045444986 273.11332677745469 272.96393847823032 272.99612408073858 272.98218889811449 273.08577325464876 272.99589765419563 273.00037018586033 273.00021496695894 272.9950623565274 273.00071299555583 272.99200888784895 273.00062590727305 273.00042105854664 272.99986152927386 273.00004150433989 272.99991905101058 273.00036008845251 273.00000161247976 273.00000255817696 272.99999130563464 273.00000292058985 272.99999118117773 272.99996309021623 273.00007018865568 273.00025746618979 273.00016104371423 273.00003580630568 273.00001074142051 273.00013170862337 273.00005463560939 273.00016100172354 272.99997765609879 272.99999889528596 272.99999419163453 273.00000011415671 272.99999869620689 273.00000029428975 273.00000082063843 272.99999912973914 273.0000004293363 272.99999990163519 273.0000331191747 272.99999499084174 273.00001048295837 273.00001454298848 272.99968076799792 272.99996259493378 273.00007880525948 272.99971111433581 272.99958161025768 272.99689479986932 272.99959414701146 272.99963136668782 273.00188123945452 273.0053614654085 272.99799682457723 272.99938560248336 273.00032284279587 272.99977642075271 273.0008103717791 272.99888612175778 273.00423330505754 273.00077750496826 273.00599923258335 273.00226642015872 273.01511527789125 273.00871469600798 273.04247160286843 273.01289011239504 273.00061861407414 273.00868073212354 273.01063858681886 273.00201010514218 273.00253788298454 272.9996189386427 273.00073603649406 273.0004073839209 272.99978633091831 272.99995032163196 273.00047410713796 273.00049607021526 272.99934892729385 272.9990870155894 273.01552944286163 273.03334365527837 273.00472380389482 273.01338310751248 273.00548597578808 273.00004745947496 273.12419037653382 272.98792750481692 273.04342745940545 272.99462591568539 273.00114571882307 273.03560307239485 273.00299678550778 273.00256641979666 273.08206872509709 273.13784910232602 272.96965023913538 273.14560399820988 273.19592827093277 273.03394535740904 273.16785866740327 273.15554010333182 273.04480669278195 273.05974868524407 273.00862366264329 273.05503087429025 273.04392083173224 273.0025515910383 273.04460753701545 273.00616887372695 272.99519059186264 273.09759714031128 273.05524392234344 273.21015103319257 273.17248727765701 273.73797207874537 273.20103712367927 274.5458842830422 274.03981623099389 273.26629628500388 273.90070385687756 273.07193545546164 273.17006887842263 272.86307601177339 274.27247986351631 278.19943137653769 274.72250264425207 273.60543131991625 273.53950189016723 274.49236169007798 272.71551834760464 277.89211743019206 275.5337445345225 275.10502446288126 273.77498639063953 275.08571179831898 275.42027132983048 273.23222782120246 274.07420801200169 274.86711928561863 273.06855010246028 274.93035441590291 273.88773564783537 278.28798372492827 273.82565676663774 275.14384974252351 273.18719532850048 273.28677404858257 272.89068814821468 273.16685539922906 272.96044557531894 273.13775826795728 273.2898093518474 273.10601607373439 273.96753977593607 273.16558348143752 273.81099569651673 273.19266324467776 272.99037134988254 273.11002394425981 272.97965457955377 272.99366279466187 272.98634661109475 272.99855247164214 273.00402356793211 272.99969703899649 272.9843578013755 273.14005131964166 272.9254578077788 272.96474977721135 272.71620037313539 272.89019352424782 273.28223849746303 272.96480598906749 273.03219499919254 272.9475767318869 273.00762065280713 272.97988135347759 272.96643710623465 273.00967873629236 272.96420702513143 273.02078064194393 273.0053076623409 273.00390718746786 272.99686705545565 273.00223872269049 272.99890612084295 272.9989952296653 272.99994528438128 273.00003833127795 272.99978941891516 273.00002025750547 273.0000310789469 272.99998233638024 273.00166921833397 272.9993655192269 273.00010337283629 273.00202310589947 273.00024985789724 273.00051259843241 273.00000209537421 272.99991679956094 272.99969026919609 272.99998557876478 272.99998968153221 272.99993016385099 273.0000778195585 272.99998257517905 272.99999378163182 272.99998991360781 273.00000077405394 272.99999472645948 273.00008214678456 272.99999506097259 273.0000365191562 273.00001480624132 273.00043410059391 273.00029186242995 273.00010041353835 273.00014222959453 272.99996581773621 273.00051528974836 272.99880962994814 272.99916916290601 273.00032748768194 272.9969832928669 273.00435200815423 272.99455790364885 272.99791210088443 272.99912170914268 273.00302166874945 272.99789120501788 272.99862728805101 273.00017269247576 273.00003300343815 272.99969073041683 273.00028970638942 272.99956469724862 272.99902442212664 272.99987677690109 272.99965766486798 272.99997915380379 272.99998662346854 273.00200570770426 272.99940594322197 272.99999939430035 273.00001043780264 272.99998882878197 272.99989938748115 272.99996805884956 273.00000065344778 273.0000277096039 273.00000104190099 272.99999887265545 272.99999872549017 273.00000049002301 272.99999831506017 272.99999896562326 272.99999982372702 273.00000023425315 273.00000167441436 272.99999933581267 272.9999998993535 273.00000230746906 273.00000207850798 272.99999884757807 273.00000188618486 272.99999217101589 273.00000763057085 273.00000083116987 273.00000055715805 272.99999964036959 273.00000013694779 273.00000008303164 272.99999991039073 272.99999996568857 273.00000008745678 272.9999999453853 272.99999998675599 273.00000001699431 273.00000006343771 272.99999994389935 272.99999997854553 273.00000004298357 273.00000006123378 272.99999979996869 273.00000041986345 272.9999999099436 273.00000008635362 272.99999996140821 272.99999884871198 273.00000209181547 273.00000064290094 272.9999991581189 273.00000048110883 272.99999972066996 272.99997227995499 272.99999704204203 273.00000796553979 272.99999785026318 272.99997962542221 273.00000336662498 273.00000041671768 272.99999936923217 272.99999420534647 272.99989513431649 273.00000283999799 272.99995794008476 272.99977739912504 273.00062750216614 273.00076813959083 272.99999760546672 272.99999222766837 272.99995571374711 272.99989445529673 273.0000182875159 273.00047250763652 273.00025216521055 273.00048112719747 273.00003696853634 273.00017011306841 273.0019747731339 273.0006367883534 273.00242416260039 273.00198888001762 273.000440745025 273.00087675129367 273.00192264251308 272.99997454796409 273.00040693122577 273.00023984110032 273.00154794975521 273.00035886754199 273.00001296371607 273.00024350715148 273.0002362833547 273.00001522430603 273.00007971061905 272.99998543642567 273.00013914514756 273.00006227330505 272.99999453273432 273.00004954959439 272.99999357896007 273.0000077194432 272.99999961372731 273.00003930213535 273.00000860324036 273.00006174077106 273.0000261219526 273.00019770057384 273.00005671457012 272.99999558599035 272.99998906333565 273.00001467733495 273.00001219201533 272.99999346091624 272.99999644556851 273.00000872734836 273.00000075248454 273.00000621203696 272.99999815383046 273.00000027656404 272.99999885931828 272.99999984144779 273.0000001703346 273.00000004636257 273.00000369177047 272.99999937777415 273.00000487442003 273.0000120717558 273.00000997365731 273.00002179033828 273.00000101632287 273.00000597803734 272.99999869482599 273.00000066135476 273.00000691287835 273.00000349933151 273.00000012837916 272.99999997496099 273.00000053856479 273.00000273749612 273.00000024736966 273.00000238909109 273.00000059411303 272.99999997786472 273.00000026746869 273.00000048179788 272.99999999623094 272.99999992909147 273.00000012211291 273.00000004596575 272.99999999926388 273.00000014371886 272.99999997832163 273.0000000994022 273.00000021900615 273.00000000466122 273.00000007945522 272.9999999577671 273.00000018688712 272.99999992203561 273.00000011844224 272.99999999572009 272.99999999769472 272.99999997329047 272.99999999784131 272.99999996955898 273.00000000707246 273.00000000144126 272.99999999984817 273.00000000500933 273.00000004867718 273.00000001611716 272.99999995607584 273.00000007173054 272.99999993052893 272.99999988642406 273.00000005092795 272.99999991253105 273.00000025706925 272.99999999819744 272.99999999771126 273.00000000239874 272.99999998327871 273.00000000573584 273.00000003161017 272.99999999306254 272.99999999915786 273.00000001101438 272.99999999975108 273.00000000045583 273.0000000005719 273.00000000742403 272.99999999393134 273.00000001005156 272.99999999900706 273.00000000141648 273.00000000021868 272.99999999926052 273.00000000700999 272.99999999629512 273.00000000036982 272.99999999926132 272.99999999952001 273.00000000000227 273.00000000000688 273.00000000004422 272.99999999999056 272.99999999934266 273.00000000009231 273.00000000004297 273.00000000000728 273.0000000000112 273.00000000000017 273.00000000000978 273.00000000000574 273.00000000000051 273.00000000000182 273.00000000000381 272.99999999999966 273.00000000000335 272.99999999999847 272.99999999999983 272.99999999999994 272.99999999999966 273.00000000000426 272.9999999999967 273.00000000000483 273.00000000000108 273.0000000000021 273.00000000000711 273.00000000000296 272.99999999996993 272.99999999999852 273.00000000001853 272.99999999999221 272.99999999995231 272.99999999996817 272.99999999979514 273.00000000047925 273.00000000007878 273.00000000006071 273.00000000035743 273.0000000000619 272.99999999999778 273.00000000006497 272.99999999781147 273.00000000074363 272.99999999842493 272.99999999893726 273.00000000040558 273.00000000037033 272.99999999807471 272.99999999880743 273.00000000380783 273.00000000055115 272.99999999966627 273.00000000215312 273.00000001203375 272.99999999834989 273.00000000092189 273.00000001236663 273.00000000288833 272.99999999977467 273.000000049368 272.99999985373182 272.99999974652144 273.00000002117929 272.99999999525664 272.99999988545602 273.00000002574427 272.99999982922924 273.00000008361923 273.00000002260379 273.00000001870046 272.99999998734893 273.0000000163098 272.99999999163498 272.99999999555342 273.00000000165443 273.00000000019833 272.99999999715175 273.00000000047044 272.99999999968384 272.99999999988574 273.00000000003354 272.99999999954804 273.00000000062499 272.99999999903162 273.00000000111726 272.99999999814327 272.99999999865969 273.0000000007438 273.00000000009214 272.99999999953872 273.00000000023562 272.99999999889275 272.99999999960085 273.00000000006821 273.00000000014586 273.00000000008015 273.00000000002098 273.00000000000767 272.99999999972022 272.99999999995589 272.99999999998818 273.00000000011875 272.99999999995015 272.99999999999164 272.99999999998948 273.00000000000597 272.99999999998624 273.00000000016291 273.00000000013551 272.99999999991388 273.00000000001728 273.00000000001648 272.99999999994111 273.0000000000332 272.99999999991707 272.99999999997993 272.99999999995987 273.00000000007384 273.00000000015046 273.00000000000637 272.99999999999267 273.00000000001296 273.00000000000432 272.99999999999545 272.99999999999324 273.00000000000665 273.00000000000085 272.99999999999159 272.99999999997931 272.99999999998784 272.99999999998693 272.99999999999989 273.00000000001683 272.99999999998511 272.99999999999955 272.99999999999017 272.99999999999062 272.99999999999608 272.99999999998965 272.99999999998789 272.99999999999807 272.99999999999881 272.99999999999142 273.00000000001603 272.99999999999022 272.99999999998249 273.00000000001404 272.99999999998602 272.99999999999289 272.999999999995 272.99999999999562 272.99999999998755 272.99999999999113 272.99999999998749 272.99999999999733 272.9999999999925 272.99999999999551 272.99999999999261 272.99999999999272 273.00000000000267 272.99999999999591 272.99999999999721 272.99999999999449 272.99999999999636 272.99999999999443 273.00000000000165 272.99999999999636 272.99999999999875 272.99999999998863 273.00000000000108 272.99999999999892 273.00000000000995 273.00000000001512 272.99999999999784 273.00000000000023 273.00000000000273 272.99999999999898 273.00000000000074 273.00000000000091 272.99999999999915 273.00000000000034 273.00000000000085 273.00000000000023 273.00000000000006 273.00000000000114 272.99999999999937 273.0000000000008 272.999999999995 272.99999999999903 272.99999999999903 272.99999999999756 272.99999999999903 272.99999999999858 272.99999999999716 272.99999999999989 272.99999999999926 272.99999999999852 272.99999999999994 272.99999999999875 273.00000000000074 273.00000000000023 273.00000000000034 272.99999999999898 272.99999999999886 272.99999999999466 272.9999999999979 273.00000000000091 272.99999999999864 272.99999999999341 273.00000000000603 272.99999999999181 273.00000000000165 273.00000000000023 272.99999999999386 273.00000000000404 272.99999999999653 272.99999999999613 273.00000000000392 272.99999999999841 273.00000000000313 272.99999999999989 273.0000000000004 273.00000000000233 273.00000000000159 272.99999999999858 273.00000000000119 272.99999999999972 272.99999999999937 273.00000000000063 272.9999999999971 272.99999999999966 272.9999999999954 273.00000000000074 272.99999999999619 273.00000000000006 272.99999999999523 272.99999999999756 273.00000000000148 273.00000000000006 272.99999999999881 272.99999999999943 272.99999999999761 272.99999999999795 273.00000000000023 272.99999999999699 273.00000000000028 272.9999999999975 272.99999999999972 273.00000000000034 272.99999999999818 272.99999999999727 272.99999999999682 273.0000000000021 273.00000000000551 273 273.00000000000398 273.00000000000108 273.00000000000227 273.00000000000074 273.00000000000415 273.00000000000119 273.00000000000421 273.00000000000313 272.99999999999903 273.000000000005 272.99999999999943 273.00000000000222 273.00000000000273 272.99999999999767 272.99999999999784 273.0000000000023