<?xml version="1.0"?>
<VTKFile type="UnstructuredGrid" version="0.1" byte_order="LittleEndian">
<UnstructuredGrid>
<Piece NumberOfPoints="3142" NumberOfCells="1054">
<Points>
<DataArray type="Float64" NumberOfComponents="3" format="ascii">
0.5000000000 0.3000000000 0.0000000000 0.5500000000 0.3000000000 0.0000000000 0.5500000000 0.3000000000 0.0000000000 0.6000000000 0.3000000000 0.0000000000 0.6000000000 0.3000000000 0.0000000000 0.6500000000 0.3000000000 0.0000000000 0.6500000000 0.3000000000 0.0000000000 0.7000000000 0.3000000000 0.0000000000 0.7000000000 0.3000000000 0.0000000000 0.7500000000 0.3000000000 0.0000000000 0.7500000000 0.3000000000 0.0000000000 0.8000000000 0.3000000000 0.0000000000 0.8000000000 0.3000000000 0.0000000000 0.8500000000 0.3000000000 0.0000000000 0.8500000000 0.3000000000 0.0000000000 0.9000000000 0.3000000000 0.0000000000 0.9000000000 0.3000000000 0.0000000000 0.9500000000 0.3000000000 0.0000000000 0.9500000000 0.3000000000 0.0000000000 1.0000000000 0.3000000000 0.0000000000 0.5000000000 0.7000000000 0.0000000000 0.5500000000 0.7000000000 0.0000000000 0.5500000000 0.7000000000 0.0000000000 0.6000000000 0.7000000000 0.0000000000 0.6000000000 0.7000000000 0.0000000000 0.6500000000 0.7000000000 0.0000000000 0.6500000000 0.7000000000 0.0000000000 0.7000000000 0.7000000000 0.0000000000 0.7000000000 0.7000000000 0.0000000000 0.7500000000 0.7000000000 0.0000000000 0.7500000000 0.7000000000 0.0000000000 0.8000000000 0.7000000000 0.0000000000 0.8000000000 0.7000000000 0.0000000000 0.8500000000 0.7000000000 0.0000000000 0.8500000000 0.7000000000 0.0000000000 0.9000000000 0.7000000000 0.0000000000 0.9000000000 0.7000000000 0.0000000000 0.9500000000 0.7000000000 0.0000000000 0.9500000000 0.7000000000 0.0000000000 1.0000000000 0.7000000000 0.0000000000 0.4007653913 0.3458934947 0.0000000000 0.3327755574 0.3643219668 0.0000000000 0.3657554982 0.3167799284 0.0000000000 0.3808324476 0.3853198367 0.0000000000 0.3327755574 0.3643219668 0.0000000000 0.4007653913 0.3458934947 0.0000000000 0.5683677050 0.3523062351 0.0000000000 0.5228942757 0.3932284363 0.0000000000 0.5275200712 0.3317063247 0.0000000000 0.5275200712 0.3317063247 0.0000000000 0.5228942757 0.3932284363 0.0000000000 0.4907783386 0.3522998145 0.0000000000 0.1000000000 1.0000000000 0.0000000000 0.0530648976 0.9518684527 0.0000000000 0.1026685650 0.9554816391 0.0000000000 0.1000000000 0.0000000000 0.0000000000 0.1026685650 0.0445183609 0.0000000000 0.0530648976 0.0481315473 0.0000000000 0.0500000000 1.0000000000 0.0000000000 0.0530648976 0.9518684527 0.0000000000 0.1000000000 1.0000000000 0.0000000000 0.0500000000 0.0000000000 0.0000000000 0.1000000000 0.0000000000 0.0000000000 0.0530648976 0.0481315473 0.0000000000 0.2500000000 0.0000000000 0.0000000000 0.3000000000 0.0000000000 0.0000000000 0.2750000000 0.0603108142 0.0000000000 0.3000000000 1.0000000000 0.0000000000 0.2500000000 1.0000000000 0.0000000000 0.2760998766 0.9499144562 0.0000000000 0.1572020216 0.6066569730 0.0000000000 0.1991426167 0.6228673949 0.0000000000 0.1650038825 0.6661207771 0.0000000000 0.2236846579 0.6738036313 0.0000000000 0.1650038825 0.6661207771 0.0000000000 0.1991426167 0.6228673949 0.0000000000 0.1247745017 0.2719807754 0.0000000000 0.1683495700 0.2805449085 0.0000000000 0.1422375336 0.3341983344 0.0000000000 0.0000000000 0.7500000000 0.0000000000 0.0000000000 0.7000000000 0.0000000000 0.0497069443 0.7247727708 0.0000000000 0.0000000000 0.3000000000 0.0000000000 0.0000000000 0.2500000000 0.0000000000 0.0497069443 0.2752272292 0.0000000000 0.6000000000 0.3000000000 0.0000000000 0.6195917389 0.3383225009 0.0000000000 0.5683677050 0.3523062351 0.0000000000 0.5000000000 0.7000000000 0.0000000000 0.4332342001 0.6913544523 0.0000000000 0.4791347509 0.6601077537 0.0000000000 1.0000000000 0.1500000000 0.0000000000 0.9539163142 0.1958426333 0.0000000000 0.9367753623 0.1500000000 0.0000000000 1.0000000000 0.8500000000 0.0000000000 0.9539163142 0.8958426333 0.0000000000 0.9367753623 0.8500000000 0.0000000000 1.0000000000 0.8500000000 0.0000000000 0.9367753623 0.8500000000 0.0000000000 0.9538656339 0.8041487416 0.0000000000 1.0000000000 0.1500000000 0.0000000000 0.9367753623 0.1500000000 0.0000000000 0.9538656339 0.1041487416 0.0000000000 0.9041666667 0.9041666667 0.0000000000 0.8808876812 0.8467460981 0.0000000000 0.9367753623 0.8500000000 0.0000000000 0.9041666667 0.2041666667 0.0000000000 0.8808876812 0.1467460981 0.0000000000 0.9367753623 0.1500000000 0.0000000000 0.1247745017 0.2719807754 0.0000000000 0.1422375336 0.3341983344 0.0000000000 0.0938519631 0.3058206823 0.0000000000 0.5000000000 0.7000000000 0.0000000000 0.4558223640 0.7389674368 0.0000000000 0.4332342001 0.6913544523 0.0000000000 0.5500000000 1.0000000000 0.0000000000 0.5000000000 1.0000000000 0.0000000000 0.5212215021 0.9408997445 0.0000000000 0.5000000000 0.0000000000 0.0000000000 0.5500000000 0.0000000000 0.0000000000 0.5237589061 0.0593187718 0.0000000000 0.5500000000 0.3000000000 0.0000000000 0.6000000000 0.3000000000 0.0000000000 0.5683677050 0.3523062351 0.0000000000 0.5020263146 0.8789287083 0.0000000000 0.4400383646 0.8809347458 0.0000000000 0.4567767371 0.8425368440 0.0000000000 0.3340353483 0.8440279973 0.0000000000 0.3586475963 0.8796348242 0.0000000000 0.3086438728 0.8990655453 0.0000000000 0.5324548876 0.5507812500 0.0000000000 0.4779379414 0.5294071564 0.0000000000 0.5333037581 0.5082794274 0.0000000000 0.8270932759 0.1493714167 0.0000000000 0.8128310225 0.1881007222 0.0000000000 0.7714407096 0.1431185448 0.0000000000 0.8270932759 0.8493714167 0.0000000000 0.8115915751 0.8879599548 0.0000000000 0.7690177014 0.8429355733 0.0000000000 0.7714407096 0.1431185448 0.0000000000 0.8128310225 0.1881007222 0.0000000000 0.7658760763 0.1888003952 0.0000000000 0.7690177014 0.8429355733 0.0000000000 0.8115915751 0.8879599548 0.0000000000 0.7689116691 0.8883546957 0.0000000000 0.3340353483 0.8440279973 0.0000000000 0.3086438728 0.8990655453 0.0000000000 0.2920921290 0.8471572837 0.0000000000 0.5741254736 0.5827380488 0.0000000000 0.5166924242 0.5982513484 0.0000000000 0.5324548876 0.5507812500 0.0000000000 0.5020263146 0.8789287083 0.0000000000 0.4740114703 0.9152995733 0.0000000000 0.4400383646 0.8809347458 0.0000000000 0.5000000000 0.7000000000 0.0000000000 0.5500000000 0.7000000000 0.0000000000 0.5536378072 0.7434874016 0.0000000000 1.0000000000 0.3500000000 0.0000000000 0.9587185552 0.4000650861 0.0000000000 0.9578085198 0.3421572097 0.0000000000 1.0000000000 0.6500000000 0.0000000000 0.9578014258 0.6578721232 0.0000000000 0.9586759911 0.6001109115 0.0000000000 0.4666608489 0.5763447104 0.0000000000 0.4779379414 0.5294071564 0.0000000000 0.5324548876 0.5507812500 0.0000000000 0.9500000000 0.3000000000 0.0000000000 0.8989847436 0.2539196559 0.0000000000 0.9439950980 0.2439950980 0.0000000000 0.9500000000 1.0000000000 0.0000000000 0.8989847436 0.9539196559 0.0000000000 0.9439950980 0.9439950980 0.0000000000 0.0000000000 0.6500000000 0.0000000000 0.0500695545 0.6130852008 0.0000000000 0.0466346772 0.6714182307 0.0000000000 0.0000000000 0.3500000000 0.0000000000 0.0463891310 0.3266878183 0.0000000000 0.0505838961 0.3854352228 0.0000000000 0.5020263146 0.8789287083 0.0000000000 0.5062782264 0.8263979830 0.0000000000 0.5589937180 0.8500310223 0.0000000000 0.5478269690 0.7924518275 0.0000000000 0.5589937180 0.8500310223 0.0000000000 0.5062782264 0.8263979830 0.0000000000 0.5094574045 0.7547605553 0.0000000000 0.5000000000 0.7000000000 0.0000000000 0.5536378072 0.7434874016 0.0000000000 0.8500000000 1.0000000000 0.0000000000 0.8517097391 0.9356960730 0.0000000000 0.8989847436 0.9539196559 0.0000000000 0.8500000000 0.3000000000 0.0000000000 0.8517097391 0.2356960730 0.0000000000 0.8989847436 0.2539196559 0.0000000000 0.8695683534 0.5712832998 0.0000000000 0.8286209680 0.5503709096 0.0000000000 0.8690729489 0.5200811613 0.0000000000 0.4910237541 0.4912375482 0.0000000000 0.5333037581 0.5082794274 0.0000000000 0.4779379414 0.5294071564 0.0000000000 0.5761140528 0.5016590360 0.0000000000 0.6154766192 0.4853957606 0.0000000000 0.6204297551 0.5429597469 0.0000000000 0.7140602171 0.6329208314 0.0000000000 0.6752983499 0.6161327067 0.0000000000 0.7180901609 0.5818504040 0.0000000000 0.6500000000 1.0000000000 0.0000000000 0.6206549868 0.9522493400 0.0000000000 0.6801506480 0.9592432034 0.0000000000 0.8500000000 0.0000000000 0.0000000000 0.8999916646 0.0452893492 0.0000000000 0.8549105900 0.0600475335 0.0000000000 0.8500000000 0.7000000000 0.0000000000 0.8999916646 0.7452893492 0.0000000000 0.8549105900 0.7600475335 0.0000000000 0.9000000000 0.3000000000 0.0000000000 0.8989847436 0.2539196559 0.0000000000 0.9500000000 0.3000000000 0.0000000000 0.9500000000 1.0000000000 0.0000000000 0.9000000000 1.0000000000 0.0000000000 0.8989847436 0.9539196559 0.0000000000 0.8641109550 0.4238880566 0.0000000000 0.8130817985 0.3975494581 0.0000000000 0.8684463454 0.3853093747 0.0000000000 0.5000000000 0.3000000000 0.0000000000 0.4969572969 0.2501489541 0.0000000000 0.5424883395 0.2520322960 0.0000000000 0.8641109550 0.4238880566 0.0000000000 0.8197311983 0.4350568716 0.0000000000 0.8130817985 0.3975494581 0.0000000000 0.6732329423 0.5755645003 0.0000000000 0.7180901609 0.5818504040 0.0000000000 0.6752983499 0.6161327067 0.0000000000 0.6236733213 0.1486453821 0.0000000000 0.6839145712 0.1444047012 0.0000000000 0.6401186416 0.1878960798 0.0000000000 0.0000000000 0.0500000000 0.0000000000 0.0530648976 0.0481315473 0.0000000000 0.0443105828 0.1014125184 0.0000000000 0.0000000000 0.9500000000 0.0000000000 0.0443105828 0.8985874816 0.0000000000 0.0530648976 0.9518684527 0.0000000000 1.0000000000 0.3500000000 0.0000000000 1.0000000000 0.4000000000 0.0000000000 0.9587185552 0.4000650861 0.0000000000 1.0000000000 0.6000000000 0.0000000000 1.0000000000 0.6500000000 0.0000000000 0.9586759911 0.6001109115 0.0000000000 0.0000000000 0.8500000000 0.0000000000 0.0653746592 0.8551091961 0.0000000000 0.0443105828 0.8985874816 0.0000000000 0.00000000
[...]
<PointData Scalars="temperature,region_id," Vectors="" Tensors="">
<DataArray type="Float64" Name="temperature" format="ascii">
276.6590305110 277.7801570977 277.6479668795 278.3133140713 278.3302374849 279.0858462214 279.1286534203 279.9681410813 280.0022377994 281.0042805381 281.0571237476 282.2128594914 282.2923907775 283.5425485003 283.6454291875 285.2789542374 285.3376944793 287.4858249903 287.2720080706 288.9067690420 272.9999999998 272.9999999998 273.0000000001 273.0000000019 272.9999999802 273.0000000619 272.9999999472 273.0000018201 273.0000003795 273.0000295473 272.9999996877 273.0004960981 273.0003604382 273.0065114684 273.0079573739 273.0521767370 272.9961806189 273.4605959156 274.0120131571 275.3143458547 273.0469350268 272.9871794318 273.0491461268 273.0005785990 273.0001152653 273.0233678511 272.6201516126 272.7829699793 273.4171625196 273.3523755888 272.8113784216 273.1799648117 273.0000000000 273.0000000000 273.0000000000 273.0000000000 273.0000000000 273.0000000000 273.0000000000 273.0000000000 273.0000000000 273.0000000000 273.0000000000 273.0000000000 273.0000000005 273.0000000007 272.9999999987 273.0000000000 273.0000000000 273.0000000000 273.0000000000 273.0000000000 273.0000000000 273.0000000000 273.0000000000 273.0000000000 273.0000014349 273.0000113479 273.0000044077 273.0000000000 273.0000000000 273.0000000000 273.0000000058 272.9999999996 273.0000000189 276.1271608568 272.1962593400 272.0975563883 273.0000000007 272.9999999996 273.0000000014 290.4918194007 283.7265147170 279.9720302110 290.5284517343 283.6003939803 280.0663563983 290.5291846044 280.0495445874 283.5775348718 290.5243139264 279.6985966921 283.3414829872 275.6598449570 273.9671838795 278.9173361869 275.6035700770 273.7286987416 278.6885350353 273.0000016770 273.0000036465 273.0000001042 272.9999999924 272.9999999986 273.0000000007 273.0000000009 272.9999999833 273.0000000571 272.9999999939 272.9999999965 273.0000000192 276.8618814289 276.8787646202 271.5342929322 272.9999999930 273.0000000000 272.9999999994 273.0000000000 273.0000000000 273.0000000000 272.9999998944 273.0000000163 272.9999999840 273.0345911585 273.0260488700 272.9949536972 273.0671534444 273.0464830620 272.9948203554 273.0000191346 273.0185074572 273.0026949993 273.0023522284 273.0359945032 273.0080953762 273.0000000000 273.0000000000 273.0000000000 273.0000000122 272.9999999850 273.0000000174 273.0000000110 273.0000000022 272.9999999999 272.9999999709 272.9999999693 273.0000000840 290.1498686889 285.5451259393 284.5761644255 290.3759349466 283.7917367082 284.3546897974 273.0000000088 272.9999999834 272.9999999607 284.8081521929 274.2333774954 281.9482722043 282.3694123782 274.7275627035 281.2729188090 273.0000000000 273.0000000000 273.0000000000 273.0000000002 273.0000000022 272.9999999969 272.9999999801 273.0000000193 272.9999999816 272.9999999896 273.0000000643 272.9999999986 273.0000000536 272.9999999661 273.0000000966 273.3221151807 273.3841695961 274.7219445182 276.3369287149 271.7098311280 271.8923991840 273.5163334056 273.0153741838 273.5531910765 273.0000005520 273.0000042884 272.9999998907 273.0000000825 273.0000013176 273.0000005065 273.0003585728 273.0000101545 273.0000833151 273.0000054377 273.0000079927 273.0000752187 273.1901176412 274.4135399421 273.3162615860 273.2389394852 274.7855027470 273.4631329774 280.9748311373 271.9621788735 285.1708186572 281.3078909018 275.4821618001 275.3262682724 273.4190481854 272.9345654093 273.5001456800 276.5967264242 272.9703136295 273.0922696080 273.3056855807 273.0595476170 273.0168249255 273.0000023414 273.0000610131 273.0000203806 273.0001588510 273.0004828576 272.9993855762 273.0000000000 273.0000000000 273.0000000000 273.0000000000 273.0000000000 273.0000000000 289.0460187443 288.8263918833 286.1483208261 289.1356983108 289.3017573417 285.0662479066 273.0000000000 273.0000000000 273.0000000000 272.9999999997 273.0000000003 272.9999999996 273.0000000000 273.0000000000 273.0000000000 273.0000000000 273.0000000000 273.0000000000 273.0000000000 273.0000000000 273.0000000000 273.0001093198 273.0000150207 273.0000747332 273.0000058154 273.0000004204 273.0000015999 282.1902465346 281.2965982704 274.7808599736 281.7884831742 280.7047373058 274.3542039217 273.0000059099 273.0000603211 273.0000203048 273.0672128145 273.0362085837 272.9976090342 273.0005417447 273.0000153394 272.9999897979 273.0000000000 273.0000000000 273.0000000000 273.0000000000 273.0000000000 273.0000000000 273.0000000000 273.0000000000 273.0000000000 275.5371015570 278.9418218363 273.9620410646 275.2151521830 278.5588955340 273.7385226700 273.0007503205 272.9991093666 272.9990358346 273.0000000000 273.0000000000 273.0000000001 273.0000000000 273.0000000000 273.0000000000 273.0273460795 273.0043174317 273.0034204256 273.0000000001 273.0000000000 273.0000000004 272.9999999988 272.9999999999 273.0000000017 272.9999999997 272.9999999999 273.0000000004 273.1822751061 272.9902971093 273.0880615443 273.0000001312 273.0000003949 273.0000000192 273.3932957849 273.0337943445 273.0874517213 272.9999999995 273.0000000091 272.9999999937 275.1543820139 280.9828662081 275.4833383442 275.0199244115 280.6303572476 274.9895916829 272.9583033188 274.7942275225 274.7550589290 272.9413782263 274.9459090713 275.1902857815 272.9999999996 273.0000000002 272.9999999994 272.9999989330 272.9999995298 273.0000010959 273.0000000879 273.0000007578 272.9999997504 273.0002065223 273.0013395478 273.0005275928 273.0015735236 273.0043683229 273.0004004856 273.0000000520 272.9999999956 273.0000000643 290.4774900614 284.3554468564 280.0826590256 290.4166326889 280.6197386209 284.8450743839 273.0000000014 272.9999999991 273.0000000094 275.2280718732 273.0737885201 275.0974361823 280.5818510167 269.2523071212 282.1504875750 273.0000000012 272.9999999974 272.9999999979 273.0000000000 273.0000000000 273.0000000000 272.9999998642 273.0000008777 273.0000001992 277.0620712264 272.8162085603 276.9480757282 273.0000088242 272.9999988155 273.0000196343 273.0000067968 273.0000149481 272.9999993350 289.3813476796 289.3642479512 284.5010109445 289.4343595938 289.3554554126 284.3682978635 289.3590815995 289.4390169250 284.3465240739 289.3963051778 289.4802142869 284.1338690361 272.9999999981 273.0000000013 273.0000000023 272.9999023967 273.0002666121 273.0003944206 273.0000069992 273.0000273262 273.0000667868 273.0002400467 273.0000802530 273.0000208237 273.0259399659 273.0144122479 272.9952994306 272.9999999869 273.0000000799 273.0000003485 273.0000098131 272.9998667143 273.0004300471 273.0003957465 273.0005309249 272.9997707958 275.4339643038 274.2690117769 273.3887525697 273.0000237501 273.0000962423 272.9999987221 272.9999999915 273.0000000748 272.9999999442 273.0000005125 272.9999999196 273.0000001021 272.9999999999 273.0000000000 273.0000000000 273.0000000000 273.0000000000 273.0000000000 273.0027000412 273.0061214670 273.0000644466 272.9999999896 273.0000001194 273.0000000279 273.0000084673 272.9999998983 273.0000020661 273.0000943206 272.9997237396 272.9997994544 273.0000000428 272.9999999827 272.9999999959 273.0248611925 273.0513649955 273.2569406753 272.9979359906 273.0382953332 273.1934430447 273.0000000424 273.0000000803 273.0000005986 279.2828078469 274.1650350007 275.7937086126 272.9999252852 273.0008407047 273.0029438326 273.0000000000 273.0000000000 273.0000000000 272.9999999957 273.0000000368 273.0000000709 273.0115941201 272.9966143727 272.9970008537 273.0000000000 273.0000000000 273.0000000000 273.0000000001 272.9999999996 272.9999999998 273.0000000000 273.0000000000 273.0000000000 273.0000000000 273.0000000000 273.0000000000 273.0000000079 272.9999999922 272.9999999875 273.0000000268 272.9999998481 272.9999999842 273.0000000000 273.0000000000 273.0000000000 273.0000000568 273.0000000578 272.9999999712 273.0000000000 273.0000000000 273.0000000000 273.0000000000 273.0000000000 273.0000000000 272.9999998433 273.0000001133 272.9999999183 273.0001425284 273.0015004877 273.0005349601 273.0033922444 273.0000450653 273.0022928584 273.0000000000 273.0000000000 273.0000000000 272.9999999998 273.0000000001 273.0000000002 272.9999997712 273.0000025141 273.0000002153 272.9999996941 272.9999965471 273.0000007182 272.8686469341 272.9559653442 273.1135534224 276.8186184981 273.9393127226 279.5797316207 273.0000000002 272.9999999991 272.9999999999 273.0000000000 273.0000000000 273.0000000000 273.0057795187 273.0038874519 273.0004845016 273.0000000021 273.0000000117 273.0000000014 273.0000000000 273.0000000000 273.0000000000 273.0000000533 273.0000000128 273.0000000010 272.9999938181 273.0000033380 272.9999924346 273.0000000000 273.0000000000 273.0000000000 273.0000000000 273.0000000000 273.0000000000 273.0020456176 273.0002855598 273.0003876955 272.9879318381 273.3444535092 273.2512145252 272.9817376389 273.2368814658 273.1704738363 273.0000000000 273.0000000000 273.0000000000 273.0000000054 272.9999999951 273.0000000039 273.0000000000 273.0000000000 273.0000000000 272.9999999995 272.9999999881 273.0000000151 273.0022961566 272.9782446262 273.0121999055 273.0126821655 273.0164538005 272.9648267124 272.9999995347 272.9999996232 273.0000014518 272.9999999614 273.0000007344 273.0000000851 272.9999999999 273.0000000000 273.0000000001 272.9848563447 273.0136779196 272.9789102523 272.9999999999 273.0000000000 273.0000000000 272.9999902427 273.0004070832 273.0000970844 273.0004552740 273.0001165239 273.0000257921 273.3804543643 273.0753172812 272.4800937230 273.0876191989 273.0430485438 273.4028253696 273.0000464481 273.0000020842 273.0000149846 272.9999999882 273.0000000022 273.0000000116 273.0000000000 273.0000000000 273.0000000000 273.0000000000 273.0000000000 273.0000000000 273.0000054758 273.0000000226 273.0000012227 273.0000000078 272.9999997564 272.9999999086 273.0000000000 273.0000000000 273.0000000000 272.9999999949 273.0000000040 273.0000000404 272.9999999952 273.0000000137 273.0000000030 272.9999999986 273.0000000058 273.0000000201 272.9999999836 273.0000000346 273.0000000025 272.9999382798 272.9999215516 272.9994909676 273.0001758011 272.9996720162 273.0000733517 272.9999999140 273.0000000544 272.9999999901 276.7954178501 280.3058042692 284.5199268662 273.0000000000 273.0000000000 273.0000000000 272.9999997725 273.0000003299 273.0000010624 290.5549760058 279.9228630409 283.7085931852 273.0000001885 273.0000005630 272.9999999233 273.3313595322 273.0138358098 273.3823484008 273.2673850967 272.9876771488 273.2833019567 272.9999803000 272.9999946091 273.0000006971 273.0364825185 272.9231007861 272.8461106494 273.0000000052 273.0000000027 272.9999999964 273.0000000015 273.0000000005 272.9999999955 273.0000000000 273.0000000000 273.0000000000 273.0000979940 272.9999419799 273.0000916004 273.0000000000 273.0000000000 273.0000000000 273.0008478091 273.0026072183 273.0002291048 273.0006757564 273.0002703608 272.9999113294 273.0007767692 272.9998498970 273.0004628277 273.0002537582 273.0006185737 272.9999036715 273.0001753671 272.9999568514 272.9999646324 273.0000000000 273.0000000000 273.0000000000 273.0000000000 273.0000000000 273.0000000000 272.9999999996 272.9999999999 272.9999999979 272.9999950526 273.0000000578 273.0000015535 276.1961344230 273.8740973584 273.2554826977 273.0000000000 273.0000000000 273.0000000000 273.0000000000 272.9999999999 273.0000000000 273.0000000000 273.0000000000 273.0000000000 273.0000000000 273.0000000000 273.0000000000 272.9999999655 272.9999999722 273.0000001826 272.9999999981 273.0000000004 273.0000000042 272.9786008244 273.0658108031 272.9997209312 272.9999988209 273.0000008237 272.9999972098 273.0000091057 273.0000130828 272.9999991444 272.9999999999 273.0000000000 273.0000000000 275.2975957071 273.2837872699 274.0667529913 275.2033082777 273.1971271682 273.8611740886 273.0000000042 272.9999999918 273.0000000342 273.0000052542 272.9999688803 272.9999001286 275.3080523043 282.8719983640 279.8892384651 275.4566249769 279.9160190141 282.9329461902 274.9636768542 282.5311612772 279.5498573182 275.4198268595 279.7930957190 283.0642135099 272.9999999999 273.0000000000 273.0000000001 272.9999986185 273.0000006588 272.9999987783 273.0000005087 272.9999998277 273.0000000986 273.0000001803 272.9999999664 273.0000001128 273.0000000223 273.0000000821 272.9999999945 272.9999998250 273.0000007944 273.0000019063 272.9999999377 272.9999998823 273.0000001436 273.0000000000 273.0000000000 273.0000000000 273.0000000277 272.9999999860 273.0000000094 273.0029272835 272.9995387447 272.9996283775 272.9999996253 272.9999993865 272.9999999868 273.0000000000 273.0000000000 273.0000000000 273.0000000000 273.0000000000 273.0000000000 273.0000000000 273.0000000000 273.0000000000 274.8040807474 273.2677736154 273.4097352627 274.4864826597 273.1822571451 273.2872200546 289.2997235283 289.1481259276 285.0581925553 289.0808104087 289.1508050995 285.5396900742 272.9998077293 273.0000446023 272.9999547304 279.1786127170 269.8721434857 271.6624506075 273.2223457494 273.0568621692 273.7233097281 273.5093647227 273.5644008565 272.9414548402 273.0000000534 273.0000001961 272.9999999110 290.4743362162 285.0266989183 280.3682692921 273.0000000000 273.0000000000 273.0000000000 273.0000006073 273.0000019718 272.9999981780 273.0000147871 272.9999808737 272.9999783838 272.9999159273 272.9999890544 272.9999247437 273.0000128881 272.9999040602 272.9999902822 273.0000042209 273.0000027867 272.9999989560 273.0000046990 273.0000083024 272.9999946154 273.0000000000 273.0000000000 273.0000000000 272.9999989039 272.9999998664 273.0000003655 273.0000000170 272.9999999987 272.9999999992 273.0000000000 273.0000000000 273.0000000000 272.9999999995 272.9999999955 273.0000000012 273.0000034131 272.9999965401 273.0000011697 273.0000000000 273.0000000000 273.0000000000 273.0000000000 273.0000000000 273.0000000000 273.0460602603 272.9753162521 273.0474092801 272.9999999999 273.0000000000 272.9999999997 274.9236579741 273.3526620237 273.4348993560 274.8617783366 273.2944906947 273.3233780664 272.9999957538 273.0000005639 273.0000018575 273.0000000000 273.0000000000 273.0000000000 272.9999999943 273.0000000141 272.9999999904 273.0012932239 273.0018886682 272.9987688011 273.0018742534 272.9999732923 273.0011662383 278.1999420569 270.0030575689 278.0557618266 273.0001256617 272.9999969333 273.0000253502 273.0037701265 272.9863061731 273.0084597297 273.0000000000 273.0000000000 273.0000000000 273.0000000006 273.0000000002 272.9999999998 273.0000000000 273.0000000000 273.0000000000 272.9999999978 273.0000000026 273.0000000101 272.9948734482 272.9981588997 273.0115500972 273.0000000000 273.0000000000 273.0000000000 273.0000000002 273.0000000000 272.9999999999 272.9999987640 272.9999965269 272.9999747740 273.0372798209 272.9992117828 273.0094683442 273.0705748337 272.9999479395 273.0216182274 273.0000010787 272.9999996931 272.9999993238 272.9999670936 273.0000059353 272.9999437565 273.0740118131 273.0611593721 273.3057308905 273.1009620870 273.3879372646 273.0133533665 273.0000000000 273.0000000000 273.0000000000 273.0000000000 273.0000000000 273.0000000000 273.0000011136 273.0000005506 272.9999999966 272.9999999910 273.0000000686 273.0000004233 273.0020796485 273.0354903593 273.0076899176 273.0005563867 272.9997900300 273.0000235712 273.0000000003 272.9999999997 273.0000000005 273.0003821429 273.0065226840 273.0034099909 273.0000458950 273.0025681134 273.0010395335 273.0005074533 273.0000206115 273.0000938576 273.0000000000 273.0000000000 273.0000000000 273.0000000000 273.0000000000 273.0000000000 272.9999994947 273.0000024121 273.0000056239 273.0000072535 273.0000077215 273.0000025076 273.0000000000 273.0000000000 273.0000000000 273.0000000004 272.9999999997 272.9999999999 273.0004215108 272.9989076790 273.0090211068 280.9669977149 280.8510312313 268.8932720999 273.1430493153 273.9036464102 274.6045240252 273.0000234746 273.0000297131 272.9999897215 272.9999999998 272.9999999998 273.0000000001 276.1291218926 273.5470797261 274.2238828070 273.1704671567 274.0874692060 273.5915514250 273.0002941680 273.0020880188 273.0000346825 275.4565293579 275.1953296519 273.0568990645 275.6036197970 275.2603247475 272.9186192592 277.7812307339 284.5101587172 285.4212082370 276.5248985002 284.0693417443 283.6219029497 275.0934794741 274.0306457875 273.1081170760 274.7768843033 273.8148167290 273.0331607076 272.9999999998 273.0000000001 273.0000000006 273.0000000031 273.0000000004 273.0000000003 273.0310687820 273.1839527839 273.0286964181 273.0154959792 273.1188773295 273.0145010316 273.0000000000 273.0000000000 273.0000000000 273.0000000202 273.0000000031 272.9999999927 272.9999997765 273.0000014433 273.0000002061 273.0000000000 273.0000000000 273.0000000000 273.0000000003 273.0000000000 273.0000000001 273.3067446079 273.0395504022 273.3553354769 275.8035128459 273.1178106367 272.0222289732 272.9999999988 273.0000000016 272.9999999997 273.0000000000 273.0000000000 273.0000000010 273.0000557015 273.0000371959 272.9999849711 272.9999996579 272.9999996204 273.0000007704 272.9999993612 273.0000001198 272.9999998173 273.0000000158 272.9999998897 273.0000001034 272.9999986953 272.9999951246 273.0000182859 273.0044952125 272.9822691473 272.9965695098 273.5882140600 272.2485956978 272.9080040925 273.1534159593 273.6057168986 273.0922138307 272.9999964399 272.9999777507 273.0000105136 273.0041024456 273.0049426648 272.9985616874 272.9999999765 273.0000000082 273.0000000094 273.2291342068 273.7319571759 272.8200267962 275.3649048933 273.1378158888 275.2487059444 275.0088513357 273.0328097480 274.8661481482 272.9999998014 273.0000009333 273.0000001320 273.0004524690 273.0000317721 273.0015066294 273.2024775363 273.4653363106 273.0042290920 273.0000000160 272.9999999718 273.0000000585 273.0000000000 273.0000000000 273.0000000000 272.9999992879 273.0000003394 273.0000025159 273.0000000000 273.0000000000 273.0000000000 273.0000000003 272.9999999998 272.9999999999 272.9999989573 272.9999989563 273.0000018689 273.0000051885 272.9999987418 273.0000068881 272.9999999998 273.0000000003 273.0000000000 273.0000000000 273.0000000000 273.0000000000 273.0012616212 272.9964210555 272.9932974262 273.0001640755 273.0000699016 273.0011706724 273.0000000000 273.0000000000 273.0000000000 272.9999999996 273.0000000001 272.9999999997 273.0000000000 273.0000000000 273.0000000000 272.9981426625 273.0366753760 273.0054192507 273.1592277542 273.4727162406 272.9960263197 273.0000000000 273.0000000000 273.0000000000 273.2492786598 273.4164666518 273.0546855660 273.1913752165 273.2851317148 273.0277264000 272.9999999997 273.0000000002 273.0000000000 272.9999999999 273.0000000003 272.9999999995 273.0257164931 273.2564343498 273.0790392045 273.0469637733 272.5452875299 272.8040575519 273.0000000050 272.9999999697 273.0000000210 272.9999999766 273.0000000335 272.9999999533 273.0000000026 272.9999999996 273.0000000002 273.0000000027 273.0000000061 273.0000000005 272.9981852660 272.9920782527 273.0259673448 273.0390938822 273.0358793044 272.9851494773 273.0000000019 273.0000000016 273.0000000003 272.9999998982 273.0000004825 273.0000013382 273.0546367898 273.8445385452 273.3511446827 273.0122381327 273.6550236167 273.2598290840 272.9999491886 272.9999956922 273.0000307792 273.0000000000 273.0000000001 273.0000000001 273.0000000000 273.0000000000 273.0000000000 273.0034486398 272.9993767590 273.0030580267 273.0000956434 273.0001023176 273.0006457143 273.0000000097 272.9999999690 273.0000000702 272.9999998779 273.0000007416 273.0000004541 273.0000021951 273.0000005241 273.0000008431 273.0000000000 273.0000000000 273.0000000000 273.0000185150 273.0000042554 273.0000031151 272.9999997762 273.0000029263 273.0000036343 276.5631101244 273.7569150475 273.7792865790 276.0005981678 273.8723986254 273.6753556045 273.0000000000 273.0000000000 273.0000000000 273.3905476152 273.2414119002 273.0152610353 273.0000000003 273.0000000011 273.0000000000 273.0000000000 273.0000000000 273.0000000000 273.0000000001 272.9999999999 272.9999999999 272.9999990031 273.0000082605 273.0000034123 272.99997750