<?xml version="1.0"?>
<VTKFile type="UnstructuredGrid" version="0.1" byte_order="LittleEndian">
<UnstructuredGrid>
<Piece NumberOfPoints="3142" NumberOfCells="1054">
<Points>
<DataArray type="Float64" NumberOfComponents="3" format="ascii">
0 0 0 0.049999999999899652 0 0 0.02576622439977887 0.024532886826226379 0 0 0 0 0.02576622439977887 0.024532886826226379 0 0 0.050000000000207989 0 0.049999999999899652 0 0 0.053064897599215843 0.048131547304697528 0 0.02576622439977887 0.024532886826226379 0 0 0.050000000000207989 0 0.02576622439977887 0.024532886826226379 0 0.053064897599215843 0.048131547304697528 0 0 0.10000000000041601 0 0 0.050000000000207989 0 0.044310582753132287 0.101412518374475 0 0 0.15000000000062411 0 0 0.10000000000041601 0 0.044310582753132287 0.101412518374475 0 0.083411279318303222 0.089699755330707398 0 0.044310582753132287 0.101412518374475 0 0.053064897599215843 0.048131547304697528 0 0 0.050000000000207989 0 0.053064897599215843 0.048131547304697528 0 0.044310582753132287 0.101412518374475 0 0.083411279318303222 0.089699755330707398 0 0.065374659239632718 0.1448908038746782 0 0.044310582753132287 0.101412518374475 0 0.083411279318303222 0.089699755330707398 0 0.1053400320299198 0.12877248826361379 0 0.065374659239632718 0.1448908038746782 0 0.083411279318303222 0.089699755330707398 0 0.12372429750337779 0.095814237875728972 0 0.1053400320299198 0.12877248826361379 0 0.14332333627550789 0.14578431753966009 0 0.1053400320299198 0.12877248826361379 0 0.12372429750337779 0.095814237875728972 0 0.14618258501891079 0.062070108745602003 0 0.12372429750337779 0.095814237875728972 0 0.10266856499169109 0.044518360900210059 0 0.083411279318303222 0.089699755330707398 0 0.10266856499169109 0.044518360900210059 0 0.12372429750337779 0.095814237875728972 0 0.099999999999814668 0 0 0.14999999999970359 0 0 0.10266856499169109 0.044518360900210059 0 0.049999999999899652 0 0 0.099999999999814668 0 0 0.053064897599215843 0.048131547304697528 0 0.099999999999814668 0 0 0.10266856499169109 0.044518360900210059 0 0.053064897599215843 0.048131547304697528 0 0.083411279318303222 0.089699755330707398 0 0.053064897599215843 0.048131547304697528 0 0.10266856499169109 0.044518360900210059 0 0 0.25000000000104028 0 0 0.20000000000083221 0 0.044081577119474857 0.2271058242433576 0 0 0.20000000000083221 0 0.038512288486115001 0.1844147282893184 0 0.044081577119474857 0.2271058242433576 0 0.083105206071467416 0.20007701332709979 0 0.044081577119474857 0.2271058242433576 0 0.038512288486115001 0.1844147282893184 0 0 0.15000000000062411 0 0.065374659239632718 0.1448908038746782 0 0.038512288486115001 0.1844147282893184 0 0 0.15000000000062411 0 0.044310582753132287 0.101412518374475 0 0.065374659239632718 0.1448908038746782 0 0.083105206071467416 0.20007701332709979 0 0.038512288486115001 0.1844147282893184 0 0.065374659239632718 0.1448908038746782 0 0 0.20000000000083221 0 0 0.15000000000062411 0 0.038512288486115001 0.1844147282893184 0 0.065374659239632718 0.1448908038746782 0 0.1053400320299198 0.12877248826361379 0 0.106902708054812 0.16453234188234539 0 0.14332333627550789 0.14578431753966009 0 0.106902708054812 0.16453234188234539 0 0.1053400320299198 0.12877248826361379 0 0.083105206071467416 0.20007701332709979 0 0.065374659239632718 0.1448908038746782 0 0.106902708054812 0.16453234188234539 0 0.083105206071467416 0.20007701332709979 0 0.13737030665753211 0.20313708640667491 0 0.095326043202144745 0.24554465089224409 0 0.083105206071467416 0.20007701332709979 0 0.106902708054812 0.16453234188234539 0 0.13737030665753211 0.20313708640667491 0 0.083105206071467416 0.20007701332709979 0 0.095326043202144745 0.24554465089224409 0 0.044081577119474857 0.2271058242433576 0 0.049706944316556423 0.27522722923869108 0 0.044081577119474857 0.2271058242433576 0 0.095326043202144745 0.24554465089224409 0 0.13737030665753211 0.20313708640667491 0 0.14377654328998779 0.2442024734791064 0 0.095326043202144745 0.24554465089224409 0 0.17933913398461551 0.2350063570234002 0 0.14377654328998779 0.2442024734791064 0 0.13737030665753211 0.20313708640667491 0 0.17933913398461551 0.2350063570234002 0 0.13737030665753211 0.20313708640667491 0 0.18124454140915969 0.18790916706335251 0 0.14332333627550789 0.14578431753966009 0 0.18652628422869419 0.14162325200928061 0 0.18124454140915969 0.18790916706335251 0 0.14332333627550789 0.14578431753966009 0 0.13737030665753211 0.20313708640667491 0 0.106902708054812 0.16453234188234539 0 0.14332333627550789 0.14578431753966009 0 0.18124454140915969 0.18790916706335251 0 0.13737030665753211 0.20313708640667491 0 0.14332333627550789 0.14578431753966009 0 0.16141998738593399 0.10404039647458049 0 0.18652628422869419 0.14162325200928061 0 0.2185883431182947 0.18019736283949719 0 0.18652628422869419 0.14162325200928061 0 0.22985637510995899 0.1298347970200906 0 0.2185883431182947 0.18019736283949719 0 0.22985637510995899 0.1298347970200906 0 0.25557216766470708 0.15874861286892261 0 0.2185883431182947 0.18019736283949719 0 0.25557216766470708 0.15874861286892261 0 0.26429849586623999 0.19346700179430079 0 0.2185883431182947 0.18019736283949719 0 0.18124454140915969 0.18790916706335251 0 0.18652628422869419 0.14162325200928061 0 0.17933913398461551 0.2350063570234002 0 0.18124454140915969 0.18790916706335251 0 0.224700362040408 0.22206622194729711 0 0.2185883431182947 0.18019736283949719 0 0.224700362040408 0.22206622194729711 0 0.18124454140915969 0.18790916706335251 0 0.2185883431182947 0.18019736283949719 0 0.26429849586623999 0.19346700179430079 0 0.224700362040408 0.22206622194729711 0 0.25195515620380449 0.25883339815888678 0 0.21049769590865089 0.26857363548218488 0 0.224700362040408 0.22206622194729711 0 0.17933913398461551 0.2350063570234002 0 0.224700362040408 0.22206622194729711 0 0.21049769590865089 0.26857363548218488 0 0.14999999999970359 0 0 0.184418230509967 0.038773194583122873 0 0.14618258501891079 0.062070108745602003 0 0.19922788606653311 0.085920220746880993 0 0.14618258501891079 0.062070108745602003 0 0.184418230509967 0.038773194583122873 0 0.14999999999970359 0 0 0.19999999999955789 0 0 0.184418230509967 0.038773194583122873 0 0.14999999999970359 0 0 0.14618258501891079 0.062070108745602003 0 0.10266856499169109 0.044518360900210059 0 0.14618258501891079 0.062070108745602003 0 0.16141998738593399 0.10404039647458049 0 0.12372429750337779 0.095814237875728972 0 0.14332333627550789 0.14578431753966009 0 0.12372429750337779 0.095814237875728972 0 0.16141998738593399 0.10404039647458049 0 0.19922788606653311 0.085920220746880993 0 0.18652628422869419 0.14162325200928061 0 0.16141998738593399 0.10404039647458049 0 0.19922788606653311 0.085920220746880993 0 0.16141998738593399 0.10404039647458049 0 0.14618258501891079 0.062070108745602003 0 0.19922788606653311 0.085920220746880993 0 0.22985637510995899 0.1298347970200906 0 0.18652628422869419 0.14162325200928061 0 0.19922788606653311 0.085920220746880993 0 0.24218496799700481 0.089025544070598317 0 0.22985637510995899 0.1298347970200906 0 0.27474541102162192 0.11822029332053539 0 0.22985637510995899 0.1298347970200906 0 0.24218496799700481 0.089025544070598317 0 0.19922788606653311 0.085920220746880993 0 0.22668068146512929 0.045875643423131329 0 0.24218496799700481 0.089025544070598317 0 0.27499999999933927 0.060310814194988557 0 0.24218496799700481 0.089025544070598317 0 0.22668068146512929 0.045875643423131329 0 0.19922788606653311 0.085920220746880993 0 0.184418230509967 0.038773194583122873 0 0.22668068146512929 0.045875643423131329 0 0.19999999999955789 0 0 0.22668068146512929 0.045875643423131329 0 0.184418230509967 0.038773194583122873 0 0.19999999999955789 0 0 0.24999999999941211 0 0 0.22668068146512929 0.045875643423131329 0 0.24999999999941211 0 0 0.29999999999926641 0 0 0.27499999999933927 0.060310814194988557 0 0.24999999999941211 0 0 0.27499999999933927 0.060310814194988557 0 0.22668068146512929 0.045875643423131329 0 0.29999999999926641 0 0 0.32541448401678508 0.046215317981507749 0 0.27499999999933927 0.060310814194988557 0 0.29999999999926641 0 0 0.34999999999912063 0 0 0.32541448401678508 0.046215317981507749 0 0.35312867752657662 0.084946736076730367 0 0.32541448401678508 0.046215317981507749 0 0.3615861437013822 0.03582617922508851 0 0.35312867752657662 0.084946736076730367 0 0.3615861437013822 0.03582617922508851 0 0.39591832466117061 0.056982757562006353 0 0.34999999999912063 0 0 0.3615861437013822 0.03582617922508851 0 0.32541448401678508 0.046215317981507749 0 0.34999999999912063 0 0 0.3999999999989749 0 0 0.3615861437013822 0.03582617922508851 0 0.35312867752657662 0.084946736076730367 0 0.39823268594401579 0.1116623613130045 0 0.36246644853392812 0.1399454205365751 0 0.35312867752657662 0.084946736076730367 0 0.36246644853392812 0.1399454205365751 0 0.32215584939770009 0.1218492143506909 0 0.35312867752657662 0.084946736076730367 0 0.3096713403101819 0.085471541595262421 0 0.32541448401678508 0.046215317981507749 0 0.35312867752657662 0.084946736076730367 0 0.32215584939770009 0.1218492143506909 0 0.3096713403101819 0.085471541595262421 0 0.27474541102162192 0.11822029332053539 0 0.3096713403101819 0.085471541595262421 0 0.32215584939770009 0.1218492143506909 0 0.27499999999933927 0.060310814194988557 0 0.32541448401678508 0.046215317981507749 0 0.3096713403101819 0.085471541595262421 0 0.3096713403101819 0.085471541595262421 0 0.27474541102162192 0.11822029332053539 0 0.27499999999933927 0.060310814194988557 0 0.27499999999933927 0.060310814194988557 0 0.27474541102162192 0.11822029332053539 0 0.24218496799700481 0.089025544070598317 0 0.27474541102162192 0.11822029332053539 0 0.25557216766470708 0.15874861286892261 0 0.22985637510995899 0.1298347970200906 0 0.27474541102162192 0.11822029332053539 0 0.29336099386129338 0.15892013001050981 0 0.25557216766470708 0.15874861286892261 0 0.26429849586623999 0.19346700179430079 0 0.25557216766470708 0.15874861286892261 0 0.29336099386129338 0.15892013001050981 
[...]
<PointData Scalars="temperature,region_id," Vectors="" Tensors="">
<DataArray type="Float64" Name="temperature" format="ascii">
272.99999999999903 273.00000000000023 272.99999999999937 273.00000000000279 273.00000000000352 272.99999999999147 273.00000000000148 272.99999999998681 272.99999999999835 272.99999999997863 273.00000000001268 272.99999999997533 273.00000000008566 272.99999999993969 273.00000000024255 272.99999999894084 273.00000000048732 273.00000000088016 273.0000000004581 273.00000000053404 272.99999999968912 272.99999999988341 272.99999999982549 273.00000000033032 273.00000000211878 272.99999999809319 273.00000000066535 273.00000000298206 272.99999999601926 272.99999999717562 273.00000000589671 273.00000001628763 272.99999999298564 272.99999993343016 272.99999998230618 273.00000002691377 272.999999998411 273.00000000052074 272.99999999961256 273.0000000002089 272.99999999953059 273.00000000037932 272.99999999999682 273.00000000001336 272.99999999999608 273.00000000000296 273.00000000000875 272.99999999998374 273.00000000001501 272.99999999997232 272.99999999997476 273.00000000009203 272.9999999999215 272.99999999966633 272.99999998464472 273.00000000252732 272.99999996513424 273.00000000383892 273.00000002478748 272.99999997163201 272.99999998528551 272.99999995701938 273.00000003797629 272.99999999681557 272.99999997944263 273.00000000764231 272.99999999831618 273.00000000137169 272.99999999708928 273.000000106713 273.00000001716768 272.99999996656743 273.00000000673674 272.99999999671252 273.00000000976962 273.00000000126965 273.00000000202101 272.99999985418793 272.99999973906375 272.99999980306183 273.00000004076668 273.00000014299906 272.99999993371733 273.00000006227316 272.99999997010377 272.99999849771461 272.99999956956509 273.00000010697073 273.00000017514623 273.00000111065492 272.99999990908861 272.99999966093179 272.99999999695996 273.00000018248045 272.99999987655315 273.00000016532744 272.99999771424962 272.99999732510196 273.00000007816976 272.99998646115864 272.99999669607922 272.99999782549992 272.99997924073864 273.00000251959773 273.00000784969933 272.99999943912076 272.99999916912952 273.00000185915633 272.9999994370566 273.00000156469838 272.99999986616882 272.99999907096827 273.00000268715718 273.00000204310663 272.99999986987876 273.00000007066052 272.99999987219655 273.00000110628946 272.9999997904888 272.99999953598643 273.00000161904728 272.99999924089281 273.00000029981231 273.00000311222954 272.99999965119838 273.00002656651429 273.00000243952718 273.00000262880974 272.99999869355497 272.99997062615552 273.00001426679569 272.99996385963772 273.00001166670489 272.99998098403819 273.00000498143061 273.00001660917013 273.00001054285639 272.99997314596101 273.00034334895412 273.00022116595136 272.99981709707595 272.99996862057935 272.99988083472095 273.00014948188897 273.00000000002854 272.99999999980076 272.99999999993764 273.00000000097918 273.00000000021021 272.99999999937376 273.00000000002728 273.00000000009322 272.9999999999477 273.00000000002285 272.99999999994554 272.99999999999017 272.99999999651175 273.0000000090123 273.00000000224907 272.99999991899227 273.00000003520421 273.00000004029164 273.00000004164934 272.99999992170092 273.00000000951218 273.00000001415037 273.00000001205626 272.9999999944626 273.00000006444759 272.99999987393988 272.99999989273726 273.0000000361988 273.00000005657819 272.99999991194767 272.99999981716303 272.99999984163657 273.00000010494648 273.0000000018411 272.99999999814014 273.00000000821694 273.00000001561341 273.00000001053763 272.99999999630523 273.00000000106695 272.99999999946641 272.99999999895164 273.00000000012801 272.99999999972908 272.99999999991155 273.00000000019594 273.00000000045372 272.99999999963501 273.00000000200288 273.00000000262804 272.99999999460618 273.00000000070423 272.99999999602767 272.99999999941633 273.00000000430794 272.99999999124714 272.99999999199031 273.00000000016797 273.00000000022703 272.99999999944527 273.00000004079675 272.99999999779669 273.00000000090824 273.00000004480933 272.99999999673162 273.00000013969634 272.99999999990058 273.00000000043354 272.99999999971197 272.99999999962853 272.99999999825548 273.00000000042434 273.0000027456847 272.99998891777182 272.99999296406457 273.00000187805557 272.99999447041768 272.99999891859966 273.00000008615552 273.00000009012808 272.99999993884427 273.0000013932397 272.99999940655619 273.00000057998221 272.9999997845631 273.00000050947727 272.99999950610783 272.99999999465246 272.99999995639268 273.00000006502177 273.00000024231161 273.00000000974802 273.00000003151507 273.00000003228166 273.00000001441697 273.00000000295967 272.99999912972498 273.00000042935358 272.99999990163514 272.9999986962074 273.00000029430964 273.0000008206502 273.00003311915003 272.99999499086039 273.00001048295599 273.00005463559552 273.00016100171172 272.99997765609692 273.00003580629738 273.00001074142017 273.00013170860547 272.99999889527567 272.99999419162549 273.00000011416932 272.99938560249217 273.00032284279786 272.99977642075288 273.00001454299974 272.99968076799394 272.99996259493247 273.00007880527443 272.99971111433393 272.99958161024756 273.00188123947316 273.0053614654073 272.99799682458604 272.99689479989513 272.99959414701317 272.99963136667219 272.9958976542103 273.00037018585039 273.00021496694649 272.99506235654576 273.00071299553827 272.99200888785788 272.9961240807487 272.98218889810403 273.08577325464012 273.0000016125108 273.000002558208 272.99999130562065 273.00000292060355 272.99999118118086 272.9999630902339 273.00007018865386 273.00025746618218 273.00016104371377 273.00062590728072 273.0004210585376 272.99986152928966 273.00004150434108 272.99991905104145 273.00036008842795 273.00000865598571 272.99999957324553 272.99997291620917 273.00001849366868 273.00014274586749 273.00006099604826 273.00001849454549 272.99997312722144 273.00003922525383 273.12161045446783 273.11332677745867 272.96393847821952 273.00168801613222 272.99486581504544 273.00001130618568 273.00273847276117 272.99262932226264 272.99346542465452 273.04478661588769 272.99743221719854 272.97741796519909 273.06187090762427 272.9679609458712 272.95770198394609 272.99762013166969 273.00206118771405 273.00011458161811 272.99986355780885 273.00049273755775 273.00113680951955 272.99451424337957 272.96288188065591 273.00501428843228 273.19839240144734 273.03827657930583 272.92086201268597 273.00002617352573 272.99997749283699 272.99996048039304 272.99962652375075 272.99998005704987 273.00014591113904 273.00005665771295 272.99993723234445 273.00015887792807 272.99999834684445 273.00000203125052 273.00000272959079 273.00000904049028 273.0000065322522 272.99999825089151 273.00000050633179 273.00000130489644 272.99999928454179 273.00000001184929 273.00000004077731 272.99999997696091 273.00000025449106 272.99999993653745 273.00000009669418 272.99999998625088 273.00000009298554 273.00000001145008 272.99999999572026 272.99999999100356 273.00000000738896 272.99999999664914 273.00000000601347 273.00000000267954 273.00000001733491 273.00000000351378 273.00000002985308 272.99999999987955 272.99999999557372 272.99999999813122 273.00000002111153 273.00000000801555 272.99999998431628 272.99999999915713 272.99999999795756 273.00000000138454 272.99999999747718 272.99999999909613 273.00000000119422 272.99999992256897 273.00000030652632 272.99999994350134 273.00000059026462 272.99999949082707 272.99999970662122 273.00000041881577 273.00000002014212 273.00000016908587 273.00402356796138 272.99969703899433 272.98435780135873 272.99366279465971 272.98634661108207 272.99855247162543 272.99037134990226 273.11002394427879 272.97965457954672 273.00202310591214 273.00024985789798 273.00051259846242 273.00000209535381 272.99991679958674 272.99969026919507 273.00166921831322 272.99936551924202 273.00010337284039 273.00223872267293 272.99890612082851 272.99899522967689 273.00530766233834 273.00390718742767 272.9968670554349 273.0000202575302 273.00003107895895 272.99998233637564 272.99994528442016 273.00003833125942 272.99978941887059 272.96480598907698 273.03219499919408 272.94757673190611 273.00967873632095 272.96420702513677 273.02078064193387 273.00762065284249 272.97988135345707 272.96643710622675 273.14005131965087 272.92545780776663 272.96474977720749 272.71620037313699 272.89019352424185 273.28223849744631 278.28798372497067 273.82565676663171 275.14384974254045 273.06855010247244 274.93035441592639 273.88773564781604 273.23222782122514 274.07420801196287 274.86711928561158 273.18719532849622 273.28677404856893 272.89068814820598 278.1994313765536 274.72250264425537 273.60543131991989 273.53950189018565 274.49236169009453 272.71551834757713 277.89211743022605 275.53374453455109 275.10502446288461 273.77498639063629 275.08571179832467 275.42027132986607 273.17006887843564 272.86307601174258 274.27247986353939 273.20103712369905 274.54588428305306 274.03981623098815 273.26629628502309 273.90070385688352 273.07193545545238 273.21015103319752 273.17248727764877 273.737972078734 273.16685539924089 272.9604455753115 273.13775826797126 273.28980935187457 273.10601607373394 273.9675397759126 273.16558348147146 273.810995696497 273.19266324464962 273.13784910230959 272.96965023911764 273.14560399822835 273.00299678553085 273.00256641979138 273.08206872509965 273.12419037654882 272.9879275047968 273.04342745941079 272.99462591568999 273.00114571882006 273.0356030723857 272.99519059187566 273.09759714030099 273.0552439223265 273.19592827092424 273.03394535741234 273.16785866739428 273.15554010332397 273.04480669278308 273.05974868524657 273.00862366264971 273.05503087426831 273.04392083178885 273.00255159105575 273.04460753697873 273.00616887372428 273.01511527788392 273.00871469599736 273.04247160284575 273.01289011239726 273.00061861405499 273.00868073210796 273.00077750498582 273.00599923258579 273.00226642015213 273.00081037177654 272.99888612177068 273.00423330505089 273.00049607022999 272.99934892728442 272.99908701559042 273.01552944288801 273.03334365529304 273.00472380389368 273.01338310753852 273.00548597578023 273.000047459462 273.0106385868425 273.00201010514724 273.00253788299199 272.99961893864889 273.00073603649042 273.00040738391306 272.99978633091916 272.9999503216294 273.00047410713131 272.9998993874861 272.99996805884018 273.00000065345677 272.99999939428676 273.00001043779645 272.99998882878498 272.99987677691183 272.99965766486218 272.99997915379544 272.99998662348105 273.00200570771511 272.99940594321339 273.00302166876213 272.99789120501845 272.99862728805726 273.00028970639744 272.99956469723236 272.99902442211055 273.00017269247581 273.0000330034282 272.99969073042604 273.00051528975166 272.99880962994769 272.99916916290601 272.99455790365545 272.99791210087494 272.99912170913808 273.00032748770639 272.99698329286258 273.00435200816446 272.99998557874301 272.99998968154375 272.99993016386975 273.000100413545 273.00014222959084 272.99996581774934 273.00001480624292 273.00043410059919 273.00029186243387 273.00008214678491 272.99999506098681 273.00003651914307 272.99998991359388 273.00000077406082 272.99999472645322 273.0000778195627 272.99998257518263 272.99999378164813 272.9999987254796 273.00000049002 272.99999831505897 273.00002770958241 273.00000104193231 272.99999887266307 272.99999896562525 272.99999982373441 273.00000023426122 273.0000016744138 272.99999933581341 272.99999989935117 273.00000083117322 273.00000055716077 272.999999640368 273.00000188618679 272.99999217101981 273.00000763056693 273.00000230746838 273.00000207850434 272.99999884757972 272.99989513431461 273.00000283999731 272.99995794008805 272.99999785026398 272.99997962542903 273.00000336662333 272.99997227995755 272.99999704204095 273.00000796554025 273.00000041671638 272.99999936923911 272.99999420534755 272.99999990994769 273.00000008634964 272.99999996140622 272.99999884871937 273.00000209181155 273.00000064289304 272.99999915812452 273.00000048110218 272.9999997206732 272.99999994390265 272.9999999785415 273.00000004298488 272.99999998675548 273.00000001700403 273.00000006344607 272.99999996568249 273.0000000874598 272.99999994538587 273.00000013695666 273.00000008302976 272.99999991038914 273.00000006124156 272.99999979996738 273.00000041986362 273.00087675130413 273.00192264249739 272.99997454797784 273.00040693121775 273.00023984111556 273.00154794974952 273.00035886753295 273.00001296372216 273.00024350716382 273.00025216520015 273.00048112720015 273.00003696853554 273.00017011305346 273.00197477313253 273.00063678835818 273.00242416259965 273.00198888002808 273.00044074502841 272.99977739912009 273.00062750216824 273.00076813958799 272.99989445528757 273.00001828751209 273.00047250764248 272.99999760546638 272.99999222767275 272.9999557137441 272.99998906332934 273.00001467734222 273.00001219201852 272.99999346091266 272.99999644556323 273.00000872736047 273.0001977005673 273.0000567145629 272.99999558600371 273.00023628334401 273.00001522429892 273.00007971062269 273.00000860324712 273.0000617407739 273.00002612194498 273.00000771944264 272.9999996137314 273.00003930213848 272.99998543642454 273.00013914515245 273.00006227330914 272.99999453273017 273.00004954959496 272.99999357896201 272.99999997496116 273.00000053856519 273.0000027374989 273.00000597803978 272.99999869482423 273.00000066135789 273.00000691288017 273.00000349933549 273.00000012838183 273.00000997366067 273.00002179032992 273.00000101632043 273.00000024737164 273.0000023890903 273.00000059411121 273.00000017033807 273.00000004636377 273.00000369176621 272.9999993777804 273.00000487441361 273.0000120717587 273.00000075248471 273.00000621204566 272.99999815382711 273.00000027656353 272.99999885931663 272.99999984144557 273.00000018688593 272.9999999220309 273.00000011844577 273.00000000466082 273.00000007945818 272.99999995776381 272.99999997832305 273.00000009940157 273.00000021900689 272.99999997786529 273.00000026746989 273.00000048179635 273.00000004596632 272.99999999926314 273.00000014371864 272.99999999623031 272.99999992909363 273.00000012211154 272.99999999819534 272.99999999771609 273.00000000240186 272.99999999306402 272.99999999916008 273.00000001102404 272.99999998328025 273.00000000573613 273.00000003160454 273.00000005092346 272.99999991253526 273.00000025706527 273.00000007172383 272.99999993053734 272.99999988643049 273.00000004867195 273.00000001611318 272.99999995608283 272.99999999572287 272.99999999769187 272.99999997329047 272.99999999784393 272.99999996956615 273.00000000706939 273.00000000144189 272.99999999984811 273.00000000500859 272.99999999926081 273.00000000701209 272.99999999629068 272.99999999975302 273.00000000045685 273.00000000057599 272.99999999900484 273.00000000142234 273.00000000021703 273.00000000742193 272.99999999392827 273.00000001005247 273.00000000037181 272.9999999992591 272.99999999951893 272.99999999999085 272.99999999934516 273.00000000009027 273.00000000000387 273.00000000000546 273.00000000004354 273.00000000000205 273.00000000001216 273.00000000000563 273.00000000004519 273.00000000000705 273.00000000001256 272.99999999893981 273.00000000040319 273.00000000036761 272.99999999781096 273.00000000074198 272.99999999842674 273.00000000006355 272.99999999999903 273.00000000006833 273.00000000008254 273.00000000006008 273.0000000003555 272.99999999996879 272.99999999979292 273.0000000004793 273.00000000000705 272.99999999998823 272.99999999995833 273.00000000000068 273.00000000000148 273.00000000000853 272.99999999999955 272.99999999997442 272.99999999999625 273.00000000000085 272.99999999999477 273.00000000000466 272.99999999999932 273.00000000000313 273.00000000000392 273.00000000000034 272.99999999999932 273.00000000000028 272.99999999999898 273.0000000000029 272.99999999999625 272.99999999999966 272.99999999999926 273.00000000000074 272.99999999999875 272.99999999999812 273.00000000000193 272.99999999999909 273.00000000000159 273.00000000000011 272.99999999999835 272.99999999999937 272.99999999999687 272.99999999999977 273.00000000000023 272.99999999999676 272.99999999999852 272.99999999999648 272.9999999999979 272.9999999999996 272.99999999999619 272.99999999999358 272.99999999999 272.99999999999329 272.99999999999625 272.99999999999625 273.00000000000091 272.99999999999767 272.99999999998988 272.99999999999687 272.9999999999946 272.99999999999477 273.00000000000045 273.00000000000148 272.99999999999687 272.99999999998641 273.00000000000006 272.99999999999841 273.00000000001143 273.00000000001143 272.99999999998414 273.00000000000279 272.99999999998465 273.00000000011715 272.99999999994941 272.99999999999267 273.00000000015928 273.00000000013267 272.99999999991661 273.00000000000563 272.99999999999477 272.99999999999631 272.99999999999346 272.99999999998658 272.99999999999102 272.99999999999142 272.9999999999967 272.99999999999187 273.00000000000887 272.99999999999142 272.99999999999221 273.00000000000222 272.99999999999039 272.99999999998738 272.99999999999619 272.99999999999096 272.99999999999193 272.99999999999579 272.99999999999051 272.99999999999682 273.00000000000512 272.99999999998829 272.9999999999913 273.00000000000972 272.99999999999238 272.99999999998579 273.00000000000824 272.99999999999022 272.99999999999579 272.99999999997539 272.99999999999318 272.99999999998397 273.00000000002683 273.00000000002251 272.9999999999356 273.00000000001387 272.99999999998937 273.0000000000116 273.00000000003826 272.99999999991252 272.99999999997328 272.99999999996845 273.0000000000656 273.0000000001437 273.00000000047032 272.99999999968736 272.99999999987745 273.0000000000403 272.99999999955378 273.00000000062295 272.99999999903758 273.00000000112533 272.99999999814185 273.0000000163069 272.99999999163708 272.99999999555888 273.00000000166216 273.00000000019844 272.99999999714902 273.0000000226002 273.00000001869455 272.99999998735279 273.00000002573773 272.99999982922799 273.00000008362622 273.00000002118344 272.99999999525608 272.99999988544954 273.00000004936561 272.99999985372853 272.99999974651519 273.0000000120325 272.99999999835637 273.00000000092456 273.00000001236577 273.00000000288316 272.99999999977337 272.99999999806693 272.99999999880208 273.00000000380408 273.00000000055445 272.99999999966025 273.00000000215391 272.99999999960329 273.00000000007014 273.00000000014956 272.99999999971982 272.99999999996197 272.99999999998488 273.0000000000793 273.00000000001774 273.00000000000625 272.99999999864963 273.00000000074738 273.00000000009311 272.99999999953792 273.00000000024005 272.99999999889411 272.99999999999875 273.00000000000063 273.00000000000421 272.99999999999966 273 273.00000000000375 273.00000000000477 272.99999999999858 273.00000000000455 273.00000000000477 272.99999999999721 272.99999999999795 273.00000000000426 273.00000000000216 272.99999999999875 273.00000000000153 273.00000000000284 273.00000000000432 273.00000000000188 273.00000000000034 273.00000000000222 272.99999999999966 272.99999999999937 273.00000000000193 273.00000000000063 272.99999999999898 273.00000000000131 272.99999999999864 273.00000000000216 272.9999999999979 273.00000000000045 272.99999999999932 272.99999999999892 272.99999999999847 272.9999999999996 272.99999999999778 272.99999999999761 272.99999999999704 273.00000000000216 272.99999999999773 273.00000000000136 273.00000000000011 272.99999999999932 272.99999999999767 272.99999999999972 272.99999999999852 273.00000000000188 272.99999999999397 273.00000000000148 273.00000000000017 273.00000000000119 272.99999999999341 273.00000000000199 272.99999999999847 273.0000000000008 273.00000000000352 273.00000000000261 272.9999999999967 273.00000000000125 272.99999999999903 272.99999999999278 273.00000000000733 273.00000000000244 272.99999999999807 272.99999999999716 272.99999999999767 272.99999999999983 273.0000000000004 272.99999999999739 272.99999999999852 272.99999999999852 272.99999999999676 272.99999999999812 272.99999999999801 272.9999999999967 272.99999999999949 272.99999999999