<?xml version="1.0"?>
<VTKFile type="UnstructuredGrid" version="0.1" byte_order="LittleEndian">
<UnstructuredGrid>
<Piece NumberOfPoints="2400" NumberOfCells="800">
<Points>
<DataArray type="Float64" NumberOfComponents="3" format="ascii">
1.000000000000000e+00 0.000000000000000e+00 0.000000000000000e+00 1.000000000000000e+00 4.999999999989965e-02 0.000000000000000e+00 9.500000000000000e-01 4.999999999989965e-02 0.000000000000000e+00 1.000000000000000e+00 0.000000000000000e+00 0.000000000000000e+00 9.500000000000000e-01 4.999999999989965e-02 0.000000000000000e+00 9.500000000000000e-01 0.000000000000000e+00 0.000000000000000e+00 9.500000000000000e-01 0.000000000000000e+00 0.000000000000000e+00 9.500000000000000e-01 4.999999999989965e-02 0.000000000000000e+00 9.000000000000000e-01 4.999999999989965e-02 0.000000000000000e+00 9.500000000000000e-01 0.000000000000000e+00 0.000000000000000e+00 9.000000000000000e-01 4.999999999989965e-02 0.000000000000000e+00 9.000000000000000e-01 0.000000000000000e+00 0.000000000000000e+00 9.000000000000000e-01 0.000000000000000e+00 0.000000000000000e+00 9.000000000000000e-01 4.999999999989965e-02 0.000000000000000e+00 8.500000000000000e-01 4.999999999989965e-02 0.000000000000000e+00 9.000000000000000e-01 0.000000000000000e+00 0.000000000000000e+00 8.500000000000000e-01 4.999999999989965e-02 0.000000000000000e+00 8.500000000000000e-01 0.000000000000000e+00 0.000000000000000e+00 8.500000000000000e-01 0.000000000000000e+00 0.000000000000000e+00 8.500000000000000e-01 4.999999999989965e-02 0.000000000000000e+00 8.000000000000000e-01 4.999999999989965e-02 0.000000000000000e+00 8.500000000000000e-01 0.000000000000000e+00 0.000000000000000e+00 8.000000000000000e-01 4.999999999989965e-02 0.000000000000000e+00 8.000000000000000e-01 0.000000000000000e+00 0.000000000000000e+00 8.000000000000000e-01 0.000000000000000e+00 0.000000000000000e+00 8.000000000000000e-01 4.999999999989965e-02 0.000000000000000e+00 7.500000000000000e-01 4.999999999989965e-02 0.000000000000000e+00 8.000000000000000e-01 0.000000000000000e+00 0.000000000000000e+00 7.500000000000000e-01 4.999999999989965e-02 0.000000000000000e+00 7.500000000000000e-01 0.000000000000000e+00 0.000000000000000e+00 7.500000000000000e-01 0.000000000000000e+00 0.000000000000000e+00 7.500000000000000e-01 4.999999999989965e-02 0.000000000000000e+00 7.000000000000000e-01 4.999999999989965e-02 0.000000000000000e+00 7.500000000000000e-01 0.000000000000000e+00 0.000000000000000e+00 7.000000000000000e-01 4.999999999989965e-02 0.000000000000000e+00 7.000000000000000e-01 0.000000000000000e+00 0.000000000000000e+00 7.000000000000000e-01 0.000000000000000e+00 0.000000000000000e+00 7.000000000000000e-01 4.999999999989965e-02 0.000000000000000e+00 6.500000000000000e-01 4.999999999989965e-02 0.000000000000000e+00 7.000000000000000e-01 0.000000000000000e+00 0.000000000000000e+00 6.500000000000000e-01 4.999999999989965e-02 0.000000000000000e+00 6.500000000000000e-01 0.000000000000000e+00 0.000000000000000e+00 6.500000000000000e-01 0.000000000000000e+00 0.000000000000000e+00 6.500000000000000e-01 4.999999999989965e-02 0.000000000000000e+00 6.000000000000000e-01 4.999999999989965e-02 0.000000000000000e+00 6.500000000000000e-01 0.000000000000000e+00 0.000000000000000e+00 6.000000000000000e-01 4.999999999989965e-02 0.000000000000000e+00 6.000000000000000e-01 0.000000000000000e+00 0.000000000000000e+00 6.000000000000000e-01 0.000000000000000e+00 0.000000000000000e+00 6.000000000000000e-01 4.999999999989965e-02 0.000000000000000e+00 5.500000000000000e-01 4.999999999989965e-02 0.000000000000000e+00 6.000000000000000e-01 0.000000000000000e+00 0.000000000000000e+00 5.500000000000000e-01 4.999999999989965e-02 0.000000000000000e+00 5.500000000000000e-01 0.000000000000000e+00 0.000000000000000e+00 5.500000000000000e-01 0.000000000000000e+00 0.000000000000000e+00 5.500000000000000e-01 4.999999999989965e-02 0.000000000000000e+00 5.000000000000000e-01 4.999999999989965e-02 0.000000000000000e+00 5.500000000000000e-01 0.000000000000000e+00 0.000000000000000e+00 5.000000000000000e-01 4.999999999989965e-02 0.000000000000000e+00 5.000000000000000e-01 0.000000000000000e+00 0.000000000000000e+00 5.000000000000000e-01 0.000000000000000e+00 0.000000000000000e+00 5.000000000000000e-01 4.999999999989965e-02 0.000000000000000e+00 4.500000000000000e-01 4.999999999989965e-02 0.000000000000000e+00 5.000000000000000e-01 0.000000000000000e+00 0.000000000000000e+00 4.500000000000000e-01 4.999999999989965e-02 0.000000000000000e+00 4.500000000000000e-01 0.000000000000000e+00 0.000000000000000e+00 4.500000000000000e-01 0.000000000000000e+00 0.000000000000000e+00 4.500000000000000e-01 4.999999999989965e-02 0.000000000000000e+00 4.000000000000000e-01 4.999999999989965e-02 0.000000000000000e+00 4.500000000000000e-01 0.000000000000000e+00 0.000000000000000e+00 4.000000000000000e-01 4.999999999989965e-02 0.000000000000000e+00 4.000000000000000e-01 0.000000000000000e+00 0.000000000000000e+00 4.000000000000000e-01 0.000000000000000e+00 0.000000000000000e+00 4.000000000000000e-01 4.999999999989965e-02 0.000000000000000e+00 3.500000000000000e-01 4.999999999989965e-02 0.000000000000000e+00 4.000000000000000e-01 0.000000000000000e+00 0.000000000000000e+00 3.500000000000000e-01 4.999999999989965e-02 0.000000000000000e+00 3.500000000000000e-01 0.000000000000000e+00 0.000000000000000e+00 3.500000000000000e-01 0.000000000000000e+00 0.000000000000000e+00 3.500000000000000e-01 4.999999999989965e-02 0.000000000000000e+00 3.000000000000000e-01 4.999999999989965e-02 0.000000000000000e+00 3.500000000000000e-01 0.000000000000000e+00 0.000000000000000e+00 3.000000000000000e-01 4.999999999989965e-02 0.000000000000000e+00 3.000000000000000e-01 0.000000000000000e+00 0.000000000000000e+00 3.000000000000000e-01 0.000000000000000e+00 0.000000000000000e+00 3.000000000000000e-01 4.999999999989965e-02 0.000000000000000e+00 2.500000000000000e-01 4.999999999989965e-02 0.000000000000000e+00 3.000000000000000e-01 0.000000000000000e+00 0.000000000000000e+00 2.500000000000000e-01 4.999999999989965e-02 0.000000000000000e+00 2.500000000000000e-01 0.000000000000000e+00 0.000000000000000e+00 2.500000000000000e-01 0.000000000000000e+00 0.000000000000000e+00 2.500000000000000e-01 4.999999999989965e-02 0.000000000000000e+00 2.000000000000000e-01 4.999999999989965e-02 0.000000000000000e+00 2.500000000000000e-01 0.000000000000000e+00 0.000000000000000e+00 2.000000000000000e-01 4.999999999989965e-02 0.000000000000000e+00 2.000000000000000e-01 0.000000000000000e+00 0.000000000000000e+00 2.000000000000000e-01 0.000000000000000e+00 0.000000000000000e+00 2.000000000000000e-01 4.999999999989965e-02 0.000000000000000e+00 1.500000000000000e-01 4.999999999989965e-02 0.000000000000000e+00 2.000000000000000e-01 0.000000000000000e+00 0.000000000000000e+00 1.500000000000000e-01 4.999999999989965e-02 0.000000000000000e+00 1.500000000000000e-01 0.000000000000000e+00 0.000000000000000e+00 1.500000000000000e-01 0.000000000000000e+00 0.000000000000000e+00 1.500000000000000e-01 4.999999999989965e-02 0.000000000000000e+00 9.999999999999998e-02 4.999999999989965e-02 0.000000000000000e+00 1.500000000000000e-01 0.000000000000000e+00 0.000000000000000e+00 9.999999999999998e-02 4.999999999989965e-02 0.000000000000000e+00 9.999999999999998e-02 0.000000000000000e+00 0.000000000000000e+00 9.999999999999998e-02 0.000000000000000e+00 0.000000000000000e+00 9.999999999999998e-02 4.999999999989965e-02 0.000000000000000e+00 5.000000000000004e-02 4.999999999989965e-02 0.000000000000000e+00 9.999999999999998e-02 0.000000000000000e+00 0.000000000000000e+00 5.000000000000004e-02 4.999999999989965e-02 0.000000000000000e+00 5.000000000000004e-02 0.000000000000000e+00 0.000000000000000e+00 5.000000000000004e-02 0.000000000000000e+00 0.000000000000000e+00 5.000000000000004e-02 4.999999999989965e-02 0.000000000000000e+00 0.000000000000000e+00 4.999999999989965e-02 0.000000000000000e+00 5.000000000000004e-02 0.000000000000000e+00 0.000000000000000e+00 0.000000000000000e+00 4.999999999989965e-02 0.000000000000000e+00 0.000000000000000e+00 0.000000000000000e+00 0.000000000000000e+00 1.000000000000000e+00 4.999999999989965e-02 0.000000000000000e+00 1.000000000000000e+00 9.999999999981467e-02 0.000000000000000e+00 9.500000000000000e-01 9.999999999981467e-02 0.000000000000000e+00 1.000000000000000e+00 4.999999999989965e-02 0.000000000000000e+00 9.500000000000000e-01 9.999999999981467e-02 0.000000000000000e+00 9.500000000000000e-01 4.999999999989965e-02 0.000000000000000e+00 9.500000000000000e-01 4.999999999989965e-02 0.000000000000000e+00 9.500000000000000e-01 9.999999999981467e-02 0.000000000000000e+00 9.000000000000000e-01 9.999999999981467e-02 0.000000000000000e+00 9.500000000000000e-01 4.999999999989965e-02 0.000000000000000e+00 9.000000000000000e-01 9.999999999981467e-02 0.000000000000000e+00 9.000000000000000e-01 4.999999999989965e-02 0.000000000000000e+00 9.000000000000000e-01 4.999999999989965e-02 0.000000000000000e+00 9.000000000000000e-01 9.999999999981467e-02 0.000000000000000e+00 8.500000000000000e-01 9.999999999981467e-02 0.000000000000000e+00 9.000000000000000e-01 4.999999999989965e-02 0.000000000000000e+00 8.500000000000000e-01 9.999999999981467e-02 0.000000000000000e+00 8.500000000000000e-01 4.999999999989965e-02 0.000000000000000e+00 8.500000000000000e-01 4.999999999989965e-02 0.000000000000000e+00 8.500000000000000e-01 9.999999999981467e-02 0.000000000000000e+00 8.000000000000000e-01 9.999999999981467e-02 0.000000000000000e+00 8.500000000000000e-01 4.999999999989965e-02 0.000000000000000e+00 8.000000000000000e-01 9.999999999981467e-02 0.000000000000000e+00 8.000000000000000e-01 4.999999999989965e-02 0.000000000000000e+00 8.000000000000000e-01 4.999999999989965e-02 0.000000000000000e+00 8.000000000000000e-01 9.999999999981467e-02 0.000000000000000e+00 7.500000000000000e-01 9.999999999981467e-02 0.000000000000000e+00 8.000000000000000e-01 4.999999999989965e-02 0.0000000000000
[...]
<PointData Scalars="tracer_conc," Vectors="" Tensors="">
<DataArray type="Float64" Name="tracer_conc" format="ascii">
1.013575408169100e+01 9.974533297113210e+00 1.021428986273625e+01 1.042901954811029e+01 9.988354790285371e+00 1.046682226354359e+01 1.038940089698934e+01 1.002788188283902e+01 9.976053481816484e+00 1.049980927472561e+01 9.881486416774457e+00 1.036077336461660e+01 1.031922439759653e+01 9.916425561789012e+00 9.750357771186623e+00 1.038942406263306e+01 9.685704663562630e+00 1.016485202789098e+01 1.013626004272781e+01 9.711784473435797e+00 9.480851060954091e+00 1.018404692703508e+01 9.436054488141275e+00 9.916234200262540e+00 9.893953279973616e+00 9.456954107748965e+00 9.194461904083413e+00 9.928186700568167e+00 9.162007785161366e+00 9.642720617972383e+00 9.624232211166708e+00 9.179689041871566e+00 8.906826783653420e+00 9.650189522806450e+00 8.881947426143167e+00 9.362972324557411e+00 9.346832015960072e+00 8.897670945518790e+00 8.627283519718361e+00 9.367967838255344e+00 8.606792726982656e+00 9.088116415673948e+00 9.073378863380412e+00 8.621431219208885e+00 8.360314641800732e+00 9.092100171983583e+00 8.341968096387403e+00 8.823672007911691e+00 8.809681947375488e+00 8.356142646145807e+00 8.106560255451173e+00 8.827712908411852e+00 8.088741566269968e+00 8.570937635093332e+00 8.557229658455386e+00 8.102895935741184e+00 7.863708795680981e+00 8.575806777186362e+00 7.845256750797963e+00 8.328053572321847e+00 8.314296682227406e+00 7.859703340527437e+00 7.627271065459515e+00 8.334288708015045e+00 7.607370872752719e+00 8.090857215279277e+00 8.076820250033535e+00 7.622321716100140e+00 7.391239856979265e+00 8.098809655401530e+00 7.369348016160596e+00 7.853585879598080e+00 7.839114080921704e+00 7.384936541627818e+00 7.148647849521272e+00 7.863454662121962e+00 7.124438630239458e+00 7.609461019251656e+00 7.594459596807535e+00 7.140734906620301e+00 6.892044280857263e+00 7.621316633241836e+00 6.865372355261149e+00 7.351182864973055e+00 7.335605547791222e+00 6.882393490682383e+00 6.613913768162888e+00 7.364982649093527e+00 6.584789256615988e+00 7.071361961626065e+00 7.055203206144836e+00 6.602506421681880e+00 6.307057897580322e+00 7.086959961773721e+00 6.275629889008798e+00 6.762909063872837e+00 6.746198665503162e+00 6.293973542394287e+00 5.964952257903308e+00 6.780063712985150e+00 5.931496187802541e+00 6.419396095245780e+00 6.402195181492732e+00 5.950361285212185e+00 5.582079712691969e+00 6.437774593525867e+00 5.546985349923282e+00 6.035389743967666e+00 6.017793972151102e+00 5.566244049242828e+00 5.154226173226039e+00 6.054448113797151e+00 5.118031501594611e+00 5.606755088638177e+00 5.588994730508099e+00 5.137797039129954e+00 4.678753423778431e+00 5.627397494584142e+00 4.640243829919259e+00 5.131771103474978e+00 1.003012829103350e+01 9.956591638834281e+00 9.901339272261298e+00 1.011474261237537e+01 9.824082232553026e+00 1.003067366050835e+01 1.003334295241724e+01 9.801318560085475e+00 9.666430653756816e+00 1.010329747150733e+01 9.609151440304005e+00 9.920205478172404e+00 9.907838982342923e+00 9.610370855260832e+00 9.401212313341533e+00 9.960708754288758e+00 9.355155636909338e+00 9.715059523077020e+00 9.699283874152604e+00 9.364223099223858e+00 9.109839387336716e+00 9.738425757031427e+00 9.074726318239259e+00 9.459126093266184e+00 9.443759020048132e+00 9.085966581333677e+00 8.809900262181797e+00 9.473280387124873e+00 8.782867137693589e+00 9.181063783097336e+00 9.166689739649941e+00 8.794680767731807e+00 8.513530396136446e+00 9.189849597948543e+00 8.491921781612746e+00 8.898469897332037e+00 8.884944893708763e+00 8.503913839194988e+00 8.228267793204614e+00 8.904268124267213e+00 8.209887898284462e+00 8.621803892038399e+00 8.608806759622887e+00 8.222061325336444e+00 7.957514718984596e+00 8.626226571052575e+00 7.940628823879710e+00 8.356201543839074e+00 8.343399435404205e+00 7.953107789402837e+00 7.701238679712389e+00 8.360375683825605e+00 7.684516744046500e+00 8.102731068373899e+00 8.089834774862791e+00 7.697442705747136e+00 7.456699375104478e+00 8.107446476843515e+00 7.439152441602088e+00 7.859388245602317e+00 7.846167766213624e+00 7.452645603748102e+00 7.219128952626838e+00 7.865186337922878e+00 7.200050633353548e+00 7.621916755868629e+00 7.608201515452722e+00 7.214197453197304e+00 6.982336308111743e+00 7.629149053202275e+00 6.961252855715895e+00 7.384491560300312e+00 7.370165066886435e+00 6.976103684828391e+00 6.739231393940920e+00 7.393359480637192e+00 6.715861873462555e+00 7.140291753071804e+00 7.125285078815582e+00 6.731431962795806e+00 6.482280976504038e+00 7.150873152812786e+00 6.456507849719799e+00 6.881988274428368e+00 6.866274338661670e+00 6.472778957802254e+00 6.203914229850081e+00 6.894254347675413e+00 6.175763261898982e+00 6.602171175019964e+00 6.585760479116292e+00 6.192685090887944e+00 5.896895991334862e+00 6.615997056214996e+00 5.866522958218071e+00 6.293737034916889e+00 6.276674696126044e+00 5.884014704248125e+00 5.554678869046203e+00 6.308909246868858e+00 5.522359524696407e+00 5.950249086187584e+00 5.932613263082430e+00 5.540312703060831e+00 5.171734461764277e+00 5.966468314094735e+00 5.137854245651715e+00 5.566272626308309e+00 5.548185482137372e+00 5.156143716036673e+00 4.743845456676566e+00 5.583074529263381e+00 4.708896965857687e+00 5.137684965967205e+00 5.119368666315783e+00 4.727653785712405e+00 4.268376940450535e+00 5.155862299005921e+00 4.231299320802082e+00 4.662731208166127e+00 9.982596612408274e+00 9.938635132067191e+00 9.730312691846310e+00 1.001877786816611e+01 9.696697841912579e+00 9.809174693710476e+00 9.827982213509163e+00 9.671389594473286e+00 9.438859822026711e+00 9.864057124260547e+00 9.407312269246056e+00 9.612119896360404e+00 9.616223929828326e+00 9.397141329887177e+00 9.131787032186946e+00 9.651311641357635e+00 9.100826862313015e+00 9.366226273226875e+00 9.361319300717511e+00 9.100864837900017e+00 8.812800820616554e+00 9.390550644275633e+00 8.786659246893644e+00 9.087571829585743e+00 9.079156429681920e+00 8.791609761760688e+00 8.494589512981465e+00 9.102763332327550e+00 8.473136026199629e+00 8.795806816987495e+00 8.785996513765905e+00 8.480615381125368e+00 8.186046047124378e+00 8.805392936220809e+00 8.168093391192130e+00 8.504606188390426e+00 8.494180485305584e+00 8.177051694884904e+00 7.892614732899558e+00 8.510954172916696e+00 7.876763917064956e+00 8.222392164354574e+00 8.211574896091216e+00 7.886761481662639e+00 7.616351989868924e+00 8.227159134692215e+00 7.601311735698970e+00 7.953151341175007e+00 7.941938673461116e+00 7.612184931563719e+00 7.356347955175980e+00 7.957514403943143e+00 7.341043092079556e+00 7.697267716459183e+00 7.685574516878282e+00 7.352746607647608e+00 7.109282220872123e+00 7.702058580337142e+00 7.092875322491636e+00 7.452312835976633e+00 7.440038885335341e+00 7.105407028317935e+00 6.869998963437873e+00 7.458104934941580e+00 6.851876658517003e+00 7.213759387214859e+00 7.200818368520652e+00 6.865241907669417e+00 6.632045406073503e+00 7.220927761746578e+00 6.611792729689482e+00 6.975605515368565e+00 6.961936520991925e+00 6.625987442792458e+00 6.388154059829120e+00 6.984368482918244e+00 6.365528258801390e+00 6.730913282098220e+00 6.716484497805438e+00 6.380530696166472e+00 6.130671137075766e+00 6.741360637223913e+00 6.105580214643837e+00 6.472275548236420e+00 6.457084925899370e+00 6.121346610176581e+00 5.851944159426964e+00 6.484386756810989e+00 5.824431619950455e+00 6.192230298898832e+00 6.176305436429139e+00 5.840893661861403e+00 5.544683330660815e+00 6.205886065946859e+00 5.514917930300245e+00 5.883639970892332e+00 5.867037957680302e+00 5.531981651093080e+00 5.202305799804574e+00 5.898630493802451e+00 5.170573338433956e+00 5.540046606910572e+00 5.522854425909012e+00 5.188120261469632e+00 4.819261495048264e+00 5.556075904650598e+00 4.785954633042826e+00 5.156004119175226e+00 5.138350067315832e+00 4.803852216098498e+00 4.391320281571935e+00 5.172617913821338e+00 4.356932006914412e+00 4.727384049238835e+00 4.709491323494884e+00 4.375300192661874e+00 3.915829195895358e+00 4.745363472752998e+00 3.879324867550468e+00 4.252390326719692e+00 9.955420153663468e+00 9.925779120016140e+00 9.622424572820661e+00 9.974100621678804e+00 9.605488732486474e+00 9.676002283223063e+00 9.694689483804144e+00 9.583859999980049e+00 9.274639437542222e+00 9.713708896610314e+00 9.257202393985292e+00 9.399016344251159e+00 9.407909125570274e+00 9.245275733047670e+00 8.926321597931127e+00 9.429332193636640e+00 8.906964006542967e+00 9.102552080309168e+00 9.103508770575901e+00 8.902893230231212e+00 8.578839881383866e+00 9.123366897285413e+00 8.560980348782769e+00 8.792996493775194e+00 8.789415558460753e+00 8.561986506056604e+00 8.240875253606530e+00 8.806660987898599e+00 8.225234781277178e+00 8.481633331353756e+00 8.475497857307245e+00 8.229483863639874e+00 7.918706196240339e+00 8.490481688968998e+00 7.904892237554440e+00 8.177703476187045e+00 8.170034248424807e+00 7.911315603513719e+00 7.615893368628480e+00 8.183637977898531e+00 7.603077763052061e+00 7.887090006759986e+00 7.878364194427858e+00 7.611092465947690e+00 7.333180365387226e+00 7.891574367355600e+00 7.320451278195192e+00 7.612247868789276e+00 7.602660313294889e+00 7.329749562212401e+00 7.068748794380797e+00 7.616377194440107e+00 7.055277782444509e+00 7.352603615999257e+00 7.342212637740245e+00 7.065698378278957e+00 6.818650100284970e+00 7.357175195729524e+00 6.803760096612184e+00 7.105113825280227e+00 7.093919727115970e+00 6.815214522041535e+00 6.577294050138697e+00 7.110687331748084e+00 6.560476709015806e+00 6.864848100828365e+00 6.852834206039865e+00 6.572908153480327e+00 6.337927440221830e+00 6.871793731706723e+00 6.318837271240485e+00 6.625536553634477e+00 6.612689991104427e+00 6.332197652246637e+00 6.093075227308369e+00 6.634071480065762e+00 6.071515901095028e+00 6.380061340114656e+00 6.366383378013083e+00 6.085752609703526e+00 5.834940636215778e+00 6.390275571947729e+00 5.810851492059084e+00 6.120894022240228e+00 6.106405399952942e+00 5.825899198811019e+00 5.555773266856611e+00 6.132767579616461e+00 5.529219201177900e+00 5.840490912226670e+00 5.825234972957642e+00 5.544994527476401e+00 5.248217045008567e+00 5.853904995150597e+00 5.219381613966110e+00 5.531660035619632e+00 5.515704839537105e+00 5.235780008063915e+00 4.905645241905623e+00 5.546405242917695e+00 4.874824584030555e+00 5.187908144086180e+00 5.171348359330387e+00 4.891720086104744e+00 4.522479852712899e+00 5.203689166019331e+00 4.490073720057927e+00 4.803767368840044e+00 4.786735950077283e+00 4.507328562179341e+00 4.094474356460421e+00 4.820133468529812e+00 4.060980034324043e+00 4.375096263968792e+00 4.357817805696881e+00 4.078701955487174e+00 3.618965547391891e+00 4.392780191084301e+00 3.583407441401145e+00 3.900059918264899e+00 9.937653580669322e+00 9.916599036819532e+00 9.548462687611160e+00 9.948523050644603e+00 9.538888414400359e+00 9.586870395250891e+00 9.602130690191608e+00 9.521794533288944e+00 9.155422405394070e+00 9.612158489145825e+00 9.146007758974399e+00 9.246899230325806e+00 9.256126815458273e+00 9.135099088166363e+00 8.771420701715957e+00 9.268518472293387e+00 8.760036395057050e+00 8.904370521866163e+00 8.907683945955593e+00 8.754755619119580e+00 8.397805697841143e+00 8.920112778893564e+00 8.386571354089378e+00 8.563195647700157e+00 8.562371495810218e+00 8.385597781083012e+00 8.040980625761476e+00 8.573914855398122e+00 8.030520856346802e+00 8.230379928257239e+00 8.226771414211001e+00 8.032728476453212e+00 7.705372585977019e+00 8.237445126582186e+00 7.695548315377387e+00 7.911894860924307e+00 7.906368004290657e+00 7.700124588428370e+00 7.393074455705298e+00 7.916681296515340e+00 7.383356049256940e+00 7.611383918549023e+00 7.604435721593948e+00 7.389771426163496e+00 7.103716161821389e+00 7.615074364507337e+00 7.093443221081856e+00 7.329799327875791e+00 7.321693067553095e+00 7.101367525164750e+00 6.834657810481622e+00 7.333337046414672e+00 6.823191766188117e+00 7.065558117527217e+00 7.056423440861971e+00 6.832420101520481e+00 6.581355393698218e+00 7.069656511885780e+00 6.568156091157721e+00 6.814934687258085e+00 6.804832070479698e+00 6.578556340479585e+00 6.337792096145973e+00 6.820105938104014e+00 6.322447848370378e+00 6.572534912614500e+00 6.561494348712488e+00 6.333926475812082e+00 6.096911795128022e+00 6.579121633286237e+00 6.079144682076103e+00 6.331772260462187e+00 6.319815571992685e+00 6.091624975495730e+00 5.851025974938008e+00 6.339975173679310e+00 5.830686694401654e+00 6.085312170192111e+00 6.072465800270148e+00 5.844094629424031e+00 5.592188570352694e+00 6.095211204507594e+00 5.569249146676698e+00 5.825477925563010e+00 5.811780623271300e+00 5.583503754818927e+00 5.312545726407092e+00 5.837046739912314e+00 5.287093796419744e+00 5.544624791690542e+00 5.530132693778707e+00 5.302100426861911e+00 5.004670591700778e+00 5.557740457157772e+00 4.976905584707111e+00 5.235492613425336e+00 5.220282859600193e+00 4.992551597081820e+00 4.661888992048994e+00 5.249943009275230e+00 4.632118177891941e+00 4.891543049107164e+00 4.875716725412717e+00 4.648271787977216e+00 4.278592232319510e+00 4.907031224822720e+00 4.247223233118118e+00 4.507279460544809e+00 4.490973467725015e+00 4.263742327173317e+00 3.850515649855085e+00 4.523356831962258e+00 3.818050989067708e+00 4.078542878256501e+00 4.061981982823263e+00 3.835030363689165e+00 3.374986412067683e+00 4.095891090670250e+00 3.340516142370513e+00 3.603456388944885e+00 9.925225214250879e+00 9.910075333763464e+00 9.496099711048624e+00 9.931832134973048e+00 9.490421337760282e+00 9.524099403893301e+00 9.535727028622608e+00 9.477417513448746e+00 9.068957585077150e+00 9.540703447218636e+00 9.064253833071239e+00 9.136496552038018e+00 9.144415515064466e+00 9.055246877495835e+00 8.656437022247470e+00 9.150968822907711e+00 8.650379786099446e+00 8.756042644430826e+00 8.759776385462853e+00 8.645350559778928e+00 8.260893217453514e+00 8.766751212946048e+00 8.254602447578657e+00 8.386650739560192e+00 8.387052914936934e+00 8.252972116834183e+00 7.887650899935402e+00 8.393964262193720e+00 7.881415335464865e+00 8.033502355142540e+00 8.031370039027342e+00 7.882570761836156e+00 7.540006216399441e+00 8.038265673954426e+00 7.533664362238259e+00 7.700614368610228e+00 7.696548816407852e+00 7.537077310569465e+00 7.219021670290153e+00 7.703811557824342e+00 7.212148288632115e+00 7.390000372107276e+00 7.384400182623372e+00 7.217420121819657e+00 6.923472321505803e+00 7.392556408716415e+00 6.915541274270781e+00 7.101375214030922e+00 7.094484167507426e+00 6.922389591907477e+00 6.650046148054010e+00 7.104069666613633e+00 6.640542885178634e+00 6.832252631111341e+00 6.824212983423402e+00 6.648771039022955e+00 6.393688600276619e+00 6.835695650608553e+00 6.382174355746647e+00 6.578259926158461e+00 6.569154610423947e+00 6.391642214136567e+00 6.148004164859535e+00 6.582898192284289e+00 6.134145287575189e+00 6.333544203468809e+00 6.323425940803423e+00 6.144746342962015e+00 5.905660721946300e+00 6.339678329399444e+00 5.889237337544898e+00 6.091195900247881e+00 6.080106005349915e+00 5.900881926454867e+00 5.658771426677563e+00 6.098999344554154e+00 5.639676511740778e+00 5.843654295126304e+00 5.831634679579385e+00 5.652279527529805e+00 5.399249456759975e+00 5.853189069997425e+00 5.377485418671838e+00 5.583085272674653e+00 5.570186448523813e+00 5.390957082177820e+00 5.119142295925990e+00 5.594313128479895e+00 5.094818424209759e+00 5.301735387922002e+00 5.288022227696380e+00 5.109057345729393e+00 4.810954946736777e+00 5.314525403006321e+00 4.784286037327376e+00 4.992270253315107e+00 4.977826313602392e+00 4.799174511426428e+00 4.467967127401856e+00 5.006404915250168e+00 4.439271358082734e+00 4.648101776877994e+00 4.633032813317302e+00 4.454673779590538e+00 4.084540011870041e+00 4.663280675738319e+00 4.054232808729071e+00 4.263701028262902e+00 4.248146796931001e+00 4.070003851926397e+00 3.656390900083264e+00 4.279476992585217e+00 3.624980073029887e+00 3.834888915029981e+00 3.819072194960834e+00 3.641201924646117e+00 3.180838496872263e+00 3.851892788901179e+00 3.147482706991264e+00 3.359746085006034e+00 9.916302213020266e+00 9.905598302357300e+00 9.459149768048590e+00 9.920208298276318e+00 9.455835182806537e+00 9.479332824039382e+00 9.487697111532851e+00 9.446368752203551e+00 9.007498164845694e+00 9.489686389863984e+00 9.005637994038393e+00 9.056496785460052e+00 9.062535783155846e+00 8.998791659058680e+00 8.573602172685913e+00 9.065309056519753e+00 8.571067366978300e+00 8.646485942396794e+00 8.649623430593870e+00 8.567029341823778e+00 8.161040572949283e+00 8.652745756610612e+00 8.158284731174213e+00 8.253887360540036e+00 8.254498576116086e+00 8.156842076526233e+00 7.774682663345182e+00 8.257880846297375e+00 7.771677138189915e+00 7.883225614175066e+00 7.881729949910193e+00 7.772535359547530e+00 7.417195902372986e+00 7.885565748145407e+00 7.413665736689509e+00 7.537468154382766e+00 7.534227724999752e+00 7.416521535614853e+00 7.088977070335404e+00 7.538900727465337e+00 7.084499973606945e+00 7.217568693933992e+00 7.212851934755418e+00 7.089091488573334e+00 6.788197111296244e+00 7.218825654525443e+00 6.782302117292061e+00 6.922332442066940e+00 6.916321250452978e+00 6.788421691593292e+00 6.511039489804006e+00 6.924051045057107e+00 6.503282168190153e+00 6.648550972981274e+00 6.641363320636031e+00 6.510770190419956e+00 6.252049549649841e+00 6.651240706623515e+00 6.242058094475675e+00 6.391302509291409e+00 6.383015726039672e+00 6.250790607450336e+00 6.004525481021343e+00 6.395340147460435e+00 5.992022995943896e+00 6.144327694449296e+00 6.134997102902207e+00 6.001899002421885e+00 5.760906661270177e+00 6.149965673280488e+00 5.745718359301803e+00 5.900421537625769e+00 5.890093909999923e+00 5.756648724881811e+00 5.513139169915470e+00 5.907800202394877e+00 5.495192443594124e+00 5.651811549072131e+00 5.640534614774785e+00 5.507090568055341e+00 5.253016058972285e+00 5.660970165404883e+00 5.232338902590016e+00 5.390513596760514e+00 5.378343039789376e+00 5.245112918926312e+00 4.972499776885722e+00 5.401398288831391e+00 4.949220168619032e+00 5.108669195412570e+00 5.095674136209756e+00 4.962766620821443e+00 4.664036128222200e+00 5.121138309686079e+00 4.638382362146150e+00 4.798871410299440e+00 4.785138771909702e+00 4.652581706871368e+00 4.320864500954545e+00 4.812700085730318e+00 4.293164457405974e+00 4.454482997851318e+00 4.440121145070147e+00 4.307879472508302e+00 3.937319533936328e+00 4.469366032404520e+00 3.907995641797361e+00 4.069942729383966e+00 4.055092947403557e+00 3.923079138931790e+00 3.509102510538602e+00 4.085433523909302e+00 3.478667489537707e+00 3.641051022544515e+00 3.625932155767824e+00 3.494190509209676e+00 3.033525910826683e+00 3.657734091047659e+00 3.001203986075681e+00 3.165849906955390e+00 9.909914723475602e+00 9.902797147465911e+00 9.434116944676846e+00 9.911925237288029e+00 9.432368732088110e+00 9.448013451108375e+00 9.453483842631448e+00 9.426022720240214e+00 8.966125747291786e+00 9.453665692296720e+00 8.965984028528897e+00 8.999942772595743e+00 9.003910024600012e+00 8.961367341964632e+00 8.517500153217485e+00 9.004261207263049e+00 8.517238838942639e+00 8.568045899157667e+00 8.570029008545360e+00 8.514605622687821e+00 8.092952788934365e+00 8.570535777167967e+00 8.092602662730325e+00 8.157636639222895e+00 8.157778584479432e+00 8.091911698685626e+00 7.697171608254931e+00 8.158633821957668e+00 7.696471156570940e+00 7.773076144370301e+00 7.771567320953134e+00 7.697610082485315e+00 7.332496017712238e+00 7.773110702550829e+00 7.331054482267836e+00 7.416808854953127e+00 7.413834328998466e+00 7.333875123343335e+00 6.998923318624776e+00 7.416495534144151e+00 6.996284512138191e+00 7.089148056078005e+00 7.084857162136099e+00 7.000638976039086e+00 6.694232618552125e+00 7.089087878158820e+00 6.689938672885147e+00 6.788283285523885e+00 6.782784667128690e+00 6.695695895543541e+00 6.414263266072063e+00 6.789002226079275e+00 6.407904080762155e+00 6.510478035544157e+00 6.503847406163020e+00 6.414953198408671e+00 6.153278027637766e+00 6.512398142068654e+00 6.144521731211983e+00 6.250386201833382e+00 6.242677752769024e+00 6.152768817818974e+00 5.904353318845355e+00 6.25381844962187