<?xml version="1.0"?>
<VTKFile type="UnstructuredGrid" version="0.1" byte_order="LittleEndian">
<UnstructuredGrid>
<Piece NumberOfPoints="2400" NumberOfCells="800">
<Points>
<DataArray type="Float64" NumberOfComponents="3" format="ascii">
1.000000000000000e+00 0.000000000000000e+00 0.000000000000000e+00 1.000000000000000e+00 4.999999999989965e-02 0.000000000000000e+00 9.500000000000000e-01 4.999999999989965e-02 0.000000000000000e+00 1.000000000000000e+00 0.000000000000000e+00 0.000000000000000e+00 9.500000000000000e-01 4.999999999989965e-02 0.000000000000000e+00 9.500000000000000e-01 0.000000000000000e+00 0.000000000000000e+00 9.500000000000000e-01 0.000000000000000e+00 0.000000000000000e+00 9.500000000000000e-01 4.999999999989965e-02 0.000000000000000e+00 9.000000000000000e-01 4.999999999989965e-02 0.000000000000000e+00 9.500000000000000e-01 0.000000000000000e+00 0.000000000000000e+00 9.000000000000000e-01 4.999999999989965e-02 0.000000000000000e+00 9.000000000000000e-01 0.000000000000000e+00 0.000000000000000e+00 9.000000000000000e-01 0.000000000000000e+00 0.000000000000000e+00 9.000000000000000e-01 4.999999999989965e-02 0.000000000000000e+00 8.500000000000000e-01 4.999999999989965e-02 0.000000000000000e+00 9.000000000000000e-01 0.000000000000000e+00 0.000000000000000e+00 8.500000000000000e-01 4.999999999989965e-02 0.000000000000000e+00 8.500000000000000e-01 0.000000000000000e+00 0.000000000000000e+00 8.500000000000000e-01 0.000000000000000e+00 0.000000000000000e+00 8.500000000000000e-01 4.999999999989965e-02 0.000000000000000e+00 8.000000000000000e-01 4.999999999989965e-02 0.000000000000000e+00 8.500000000000000e-01 0.000000000000000e+00 0.000000000000000e+00 8.000000000000000e-01 4.999999999989965e-02 0.000000000000000e+00 8.000000000000000e-01 0.000000000000000e+00 0.000000000000000e+00 8.000000000000000e-01 0.000000000000000e+00 0.000000000000000e+00 8.000000000000000e-01 4.999999999989965e-02 0.000000000000000e+00 7.500000000000000e-01 4.999999999989965e-02 0.000000000000000e+00 8.000000000000000e-01 0.000000000000000e+00 0.000000000000000e+00 7.500000000000000e-01 4.999999999989965e-02 0.000000000000000e+00 7.500000000000000e-01 0.000000000000000e+00 0.000000000000000e+00 7.500000000000000e-01 0.000000000000000e+00 0.000000000000000e+00 7.500000000000000e-01 4.999999999989965e-02 0.000000000000000e+00 7.000000000000000e-01 4.999999999989965e-02 0.000000000000000e+00 7.500000000000000e-01 0.000000000000000e+00 0.000000000000000e+00 7.000000000000000e-01 4.999999999989965e-02 0.000000000000000e+00 7.000000000000000e-01 0.000000000000000e+00 0.000000000000000e+00 7.000000000000000e-01 0.000000000000000e+00 0.000000000000000e+00 7.000000000000000e-01 4.999999999989965e-02 0.000000000000000e+00 6.500000000000000e-01 4.999999999989965e-02 0.000000000000000e+00 7.000000000000000e-01 0.000000000000000e+00 0.000000000000000e+00 6.500000000000000e-01 4.999999999989965e-02 0.000000000000000e+00 6.500000000000000e-01 0.000000000000000e+00 0.000000000000000e+00 6.500000000000000e-01 0.000000000000000e+00 0.000000000000000e+00 6.500000000000000e-01 4.999999999989965e-02 0.000000000000000e+00 6.000000000000000e-01 4.999999999989965e-02 0.000000000000000e+00 6.500000000000000e-01 0.000000000000000e+00 0.000000000000000e+00 6.000000000000000e-01 4.999999999989965e-02 0.000000000000000e+00 6.000000000000000e-01 0.000000000000000e+00 0.000000000000000e+00 6.000000000000000e-01 0.000000000000000e+00 0.000000000000000e+00 6.000000000000000e-01 4.999999999989965e-02 0.000000000000000e+00 5.500000000000000e-01 4.999999999989965e-02 0.000000000000000e+00 6.000000000000000e-01 0.000000000000000e+00 0.000000000000000e+00 5.500000000000000e-01 4.999999999989965e-02 0.000000000000000e+00 5.500000000000000e-01 0.000000000000000e+00 0.000000000000000e+00 5.500000000000000e-01 0.000000000000000e+00 0.000000000000000e+00 5.500000000000000e-01 4.999999999989965e-02 0.000000000000000e+00 5.000000000000000e-01 4.999999999989965e-02 0.000000000000000e+00 5.500000000000000e-01 0.000000000000000e+00 0.000000000000000e+00 5.000000000000000e-01 4.999999999989965e-02 0.000000000000000e+00 5.000000000000000e-01 0.000000000000000e+00 0.000000000000000e+00 5.000000000000000e-01 0.000000000000000e+00 0.000000000000000e+00 5.000000000000000e-01 4.999999999989965e-02 0.000000000000000e+00 4.500000000000000e-01 4.999999999989965e-02 0.000000000000000e+00 5.000000000000000e-01 0.000000000000000e+00 0.000000000000000e+00 4.500000000000000e-01 4.999999999989965e-02 0.000000000000000e+00 4.500000000000000e-01 0.000000000000000e+00 0.000000000000000e+00 4.500000000000000e-01 0.000000000000000e+00 0.000000000000000e+00 4.500000000000000e-01 4.999999999989965e-02 0.000000000000000e+00 4.000000000000000e-01 4.999999999989965e-02 0.000000000000000e+00 4.500000000000000e-01 0.000000000000000e+00 0.000000000000000e+00 4.000000000000000e-01 4.999999999989965e-02 0.000000000000000e+00 4.000000000000000e-01 0.000000000000000e+00 0.000000000000000e+00 4.000000000000000e-01 0.000000000000000e+00 0.000000000000000e+00 4.000000000000000e-01 4.999999999989965e-02 0.000000000000000e+00 3.500000000000000e-01 4.999999999989965e-02 0.000000000000000e+00 4.000000000000000e-01 0.000000000000000e+00 0.000000000000000e+00 3.500000000000000e-01 4.999999999989965e-02 0.000000000000000e+00 3.500000000000000e-01 0.000000000000000e+00 0.000000000000000e+00 3.500000000000000e-01 0.000000000000000e+00 0.000000000000000e+00 3.500000000000000e-01 4.999999999989965e-02 0.000000000000000e+00 3.000000000000000e-01 4.999999999989965e-02 0.000000000000000e+00 3.500000000000000e-01 0.000000000000000e+00 0.000000000000000e+00 3.000000000000000e-01 4.999999999989965e-02 0.000000000000000e+00 3.000000000000000e-01 0.000000000000000e+00 0.000000000000000e+00 3.000000000000000e-01 0.000000000000000e+00 0.000000000000000e+00 3.000000000000000e-01 4.999999999989965e-02 0.000000000000000e+00 2.500000000000000e-01 4.999999999989965e-02 0.000000000000000e+00 3.000000000000000e-01 0.000000000000000e+00 0.000000000000000e+00 2.500000000000000e-01 4.999999999989965e-02 0.000000000000000e+00 2.500000000000000e-01 0.000000000000000e+00 0.000000000000000e+00 2.500000000000000e-01 0.000000000000000e+00 0.000000000000000e+00 2.500000000000000e-01 4.999999999989965e-02 0.000000000000000e+00 2.000000000000000e-01 4.999999999989965e-02 0.000000000000000e+00 2.500000000000000e-01 0.000000000000000e+00 0.000000000000000e+00 2.000000000000000e-01 4.999999999989965e-02 0.000000000000000e+00 2.000000000000000e-01 0.000000000000000e+00 0.000000000000000e+00 2.000000000000000e-01 0.000000000000000e+00 0.000000000000000e+00 2.000000000000000e-01 4.999999999989965e-02 0.000000000000000e+00 1.500000000000000e-01 4.999999999989965e-02 0.000000000000000e+00 2.000000000000000e-01 0.000000000000000e+00 0.000000000000000e+00 1.500000000000000e-01 4.999999999989965e-02 0.000000000000000e+00 1.500000000000000e-01 0.000000000000000e+00 0.000000000000000e+00 1.500000000000000e-01 0.000000000000000e+00 0.000000000000000e+00 1.500000000000000e-01 4.999999999989965e-02 0.000000000000000e+00 9.999999999999998e-02 4.999999999989965e-02 0.000000000000000e+00 1.500000000000000e-01 0.000000000000000e+00 0.000000000000000e+00 9.999999999999998e-02 4.999999999989965e-02 0.000000000000000e+00 9.999999999999998e-02 0.000000000000000e+00 0.000000000000000e+00 9.999999999999998e-02 0.000000000000000e+00 0.000000000000000e+00 9.999999999999998e-02 4.999999999989965e-02 0.000000000000000e+00 5.000000000000004e-02 4.999999999989965e-02 0.000000000000000e+00 9.999999999999998e-02 0.000000000000000e+00 0.000000000000000e+00 5.000000000000004e-02 4.999999999989965e-02 0.000000000000000e+00 5.000000000000004e-02 0.000000000000000e+00 0.000000000000000e+00 5.000000000000004e-02 0.000000000000000e+00 0.000000000000000e+00 5.000000000000004e-02 4.999999999989965e-02 0.000000000000000e+00 0.000000000000000e+00 4.999999999989965e-02 0.000000000000000e+00 5.000000000000004e-02 0.000000000000000e+00 0.000000000000000e+00 0.000000000000000e+00 4.999999999989965e-02 0.000000000000000e+00 0.000000000000000e+00 0.000000000000000e+00 0.000000000000000e+00 1.000000000000000e+00 4.999999999989965e-02 0.000000000000000e+00 1.000000000000000e+00 9.999999999981467e-02 0.000000000000000e+00 9.500000000000000e-01 9.999999999981467e-02 0.000000000000000e+00 1.000000000000000e+00 4.999999999989965e-02 0.000000000000000e+00 9.500000000000000e-01 9.999999999981467e-02 0.000000000000000e+00 9.500000000000000e-01 4.999999999989965e-02 0.000000000000000e+00 9.500000000000000e-01 4.999999999989965e-02 0.000000000000000e+00 9.500000000000000e-01 9.999999999981467e-02 0.000000000000000e+00 9.000000000000000e-01 9.999999999981467e-02 0.000000000000000e+00 9.500000000000000e-01 4.999999999989965e-02 0.000000000000000e+00 9.000000000000000e-01 9.999999999981467e-02 0.000000000000000e+00 9.000000000000000e-01 4.999999999989965e-02 0.000000000000000e+00 9.000000000000000e-01 4.999999999989965e-02 0.000000000000000e+00 9.000000000000000e-01 9.999999999981467e-02 0.000000000000000e+00 8.500000000000000e-01 9.999999999981467e-02 0.000000000000000e+00 9.000000000000000e-01 4.999999999989965e-02 0.000000000000000e+00 8.500000000000000e-01 9.999999999981467e-02 0.000000000000000e+00 8.500000000000000e-01 4.999999999989965e-02 0.000000000000000e+00 8.500000000000000e-01 4.999999999989965e-02 0.000000000000000e+00 8.500000000000000e-01 9.999999999981467e-02 0.000000000000000e+00 8.000000000000000e-01 9.999999999981467e-02 0.000000000000000e+00 8.500000000000000e-01 4.999999999989965e-02 0.000000000000000e+00 8.000000000000000e-01 9.999999999981467e-02 0.000000000000000e+00 8.000000000000000e-01 4.999999999989965e-02 0.000000000000000e+00 8.000000000000000e-01 4.999999999989965e-02 0.000000000000000e+00 8.000000000000000e-01 9.999999999981467e-02 0.000000000000000e+00 7.500000000000000e-01 9.999999999981467e-02 0.000000000000000e+00 8.000000000000000e-01 4.999999999989965e-02 0.0000000000000
[...]
<PointData Scalars="tracer_conc," Vectors="" Tensors="">
<DataArray type="Float64" Name="tracer_conc" format="ascii">
9.958885599880908e+00 9.791944756244160e+00 9.157165983501974e+00 1.020201671220724e+01 8.980634436939530e+00 9.439567922866754e+00 9.369860761675643e+00 9.004475714209470e+00 8.256297915674796e+00 9.406133697970130e+00 8.233803677371876e+00 8.683381244973919e+00 8.652267607526113e+00 8.255213076688223e+00 7.622049158605628e+00 8.656509276091949e+00 7.620325467875664e+00 8.067887360475295e+00 8.046904923938040e+00 7.638266099438836e+00 7.146570316577336e+00 8.046842333891735e+00 7.146821238150118e+00 7.597544123103407e+00 7.577999054764365e+00 7.165598478028685e+00 6.803729274306530e+00 7.583383650649719e+00 6.797988598975013e+00 7.252516966077494e+00 7.231865113404329e+00 6.818844236637895e+00 6.562042831959345e+00 7.245217970464444e+00 6.548368204865840e+00 7.006335981272111e+00 6.983911319910012e+00 6.571409276343202e+00 6.393912583611848e+00 7.004882924583085e+00 6.372834722417390e+00 6.833600944493059e+00 6.809444316421279e+00 6.397774191325897e+00 6.277336905376998e+00 6.836772301200849e+00 6.250143019312175e+00 6.713065807711121e+00 6.687448755004659e+00 6.276611413648062e+00 6.195490191355340e+00 6.719791152898281e+00 6.163490264470262e+00 6.628033208989009e+00 6.601255389596999e+00 6.191163435850718e+00 6.135639105214955e+00 6.637513280202703e+00 6.099885262728472e+00 6.565646824533848e+00 6.537956103922150e+00 6.128530151068532e+00 6.087920200217798e+00 6.577375294576713e+00 6.049121606470526e+00 6.515832614095573e+00 6.487398669960414e+00 6.078608343655433e+00 6.044167926050254e+00 6.529586822626080e+00 6.002679108368362e+00 6.470190920877028e+00 6.441099708194804e+00 6.032982201305324e+00 5.996827372496254e+00 6.486021348612543e+00 5.952654215376493e+00 6.420927968631146e+00 6.391182062320549e+00 5.983852442615052e+00 5.937921443993136e+00 6.439156326808934e+00 5.890723309553199e+00 6.359823959301256e+00 6.329342853287562e+00 5.923000320367579e+00 5.858030496932964e+00 6.381046345862220e+00 5.807118070054642e+00 6.277212567436634e+00 6.245832485622210e+00 5.840759372673419e+00 5.745274662310911e+00 6.302289487803036e+00 5.689623057434290e+00 6.160977541531723e+00 6.128455200840866e+00 5.724996870394659e+00 5.584380143960270e+00 6.190968571661523e+00 5.522706112943506e+00 5.995669903831505e+00 5.961702018207563e+00 5.560202116113283e+00 5.356105049205344e+00 6.031615512905792e+00 5.287113383464016e+00 5.762061333381172e+00 5.726356088670831e+00 5.327006773805619e+00 5.037687677422488e+00 5.804175629086664e+00 4.960781559312495e+00 5.437888682515679e+00 5.400616502443291e+00 5.003377887087565e+00 4.605714311374225e+00 5.488191860804895e+00 4.518132171751750e+00 5.003050769206502e+00 9.853728166879597e+00 9.778839670611269e+00 8.862854797353112e+00 9.889285085213137e+00 8.834520222179924e+00 9.013475768320848e+00 9.022083632188718e+00 8.801657281786797e+00 7.983553280708491e+00 9.020502110405156e+00 7.997565073522374e+00 8.258589882274206e+00 8.257668339446731e+00 7.989497802694971e+00 7.323140488318919e+00 8.245277348699394e+00 7.340260141644118e+00 7.638722205290276e+00 7.632878239154135e+00 7.343877734130008e+00 6.835774648699779e+00 7.622938754278313e+00 6.847341121166424e+00 7.164765807479070e+00 7.155123162490156e+00 6.857391029394440e+00 6.486659092343806e+00 7.152956354733697e+00 6.489332168347465e+00 6.817952947600324e+00 6.804723923384509e+00 6.503664465471606e+00 6.241472586293516e+00 6.811204814846606e+00 6.235215414984711e+00 6.570937409211069e+00 6.554594525610912e+00 6.252578364483163e+00 6.071356115323584e+00 6.568785466328356e+00 6.057433938733067e+00 6.397823884076913e+00 6.378965861628119e+00 6.076977004554500e+00 5.953640238386683e+00 6.399412268857188e+00 5.933609365925560e+00 6.277129511254890e+00 6.256329113384365e+00 5.954734776927453e+00 5.871134767871329e+00 6.281641250016782e+00 5.846390696691418e+00 6.192044600741918e+00 6.169774946016484e+00 5.868689065200116e+00 5.810904558659569e+00 6.198853147550062e+00 5.782515530144275e+00 6.129660610227448e+00 6.106272709197612e+00 5.805727911407351e+00 5.762973292194324e+00 6.138370558390667e+00 5.731642368638954e+00 6.079881054347342e+00 6.055605447031193e+00 5.755635238592648e+00 5.719112035729451e+00 6.090331392630921e+00 5.685184982345169e+00 6.034299072917020e+00 6.009254915291163e+00 5.709934822660783e+00 5.671730449205810e+00 6.046560673131724e+00 5.635209819013659e+00 5.985121814568105e+00 5.959325031547174e+00 5.660795426974627e+00 5.612831707804101e+00 5.999500104679129e+00 5.573382435071128e+00 5.924134744873333e+00 5.897502342137571e+00 5.599981660763170e+00 5.532984508650421e+00 5.941175320460530e+00 5.489933512073340e+00 5.841678412349030e+00 5.814030169204602e+00 5.517817569539137e+00 5.420299761050404e+00 5.862159480401929e+00 5.372650295128572e+00 5.725641892062846e+00 5.696705349779033e+00 5.402161763494148e+00 5.259492077796446e+00 5.750514614830162e+00 5.206002446879750e+00 5.560575655887448e+00 5.530009019851734e+00 5.237490589367733e+00 5.031302870123498e+00 5.590762245962549e+00 4.970732779718229e+00 5.327241553338218e+00 5.294722296292910e+00 5.004412498116671e+00 4.712947184777974e+00 5.362974288336053e+00 4.644685033428432e+00 5.003362999993301e+00 4.968933309313266e+00 4.680780041746402e+00 4.281019482313776e+00 5.045884330081599e+00 4.203141541948400e+00 4.568527014850002e+00 9.809749278793007e+00 9.766376079658087e+00 8.720317083841755e+00 9.795729892119569e+00 8.737249096055811e+00 8.816047142596856e+00 8.840023079420034e+00 8.702496337457701e+00 7.806686809830715e+00 8.802801482084677e+00 7.848692781947526e+00 7.991201143686630e+00 8.006895581738576e+00 7.828856793247398e+00 7.122111636591598e+00 7.973847366754395e+00 7.157543118298594e+00 7.343565802524320e+00 7.349675926419540e+00 7.150899069730176e+00 6.620853539250147e+00 7.325861781559327e+00 6.645530924114621e+00 6.856493835592974e+00 6.855808405852416e+00 6.647220759478023e+00 6.263818032088432e+00 6.842891959266568e+00 6.276971880949723e+00 6.502960474769900e+00 6.497078080812020e+00 6.284178978493292e+00 6.014118307754193e+00 6.494311794368867e+00 6.017001233180195e+00 6.252357222616259e+00 6.242509268853886e+00 6.027962313271346e+00 5.841417795580874e+00 6.248198292444404e+00 5.835940845317348e+00 6.077273685565205e+00 6.064456656023888e+00 5.849494862714375e+00 5.722215487668224e+00 6.076781185574118e+00 5.710261983039568e+00 5.955474972527753e+00 5.940470972181580e+00 5.725632937400740e+00 5.638852547143107e+00 5.957859972446477e+00 5.621986341291414e+00 5.869762878254085e+00 5.853156369362126e+00 5.638664447685326e+00 5.578128386945279e+00 5.874417667142413e+00 5.557505861850506e+00 5.807021856761236e+00 5.789223765148794e+00 5.575176111077218e+00 5.529915625174096e+00 5.813562521487129e+00 5.506286416608725e+00 5.757042569008961e+00 5.738316015706590e+00 5.524784383171778e+00 5.485899011947392e+00 5.765314781853844e+00 5.459633171835903e+00 5.711355685691870e+00 5.691837650712650e+00 5.478918949668762e+00 5.438438624649948e+00 5.721434128626413e+00 5.409550416435890e+00 5.662133415216362e+00 5.641849497163931e+00 5.429695123724202e+00 5.379508652399700e+00 5.674325745365416e+00 5.347667024890600e+00 5.601141241646195e+00 5.580013411430799e+00 5.368846444893704e+00 5.299659690142576e+00 5.615994519500856e+00 5.264190316739138e+00 5.518707151626177e+00 5.496557157158062e+00 5.286677566779094e+00 5.186989107744826e+00 5.537000739811242e+00 5.146890094822500e+00 5.402709879868116e+00 5.379264996252845e+00 5.171032581643383e+00 5.026198122804965e+00 5.425396023264000e+00 4.980219967789903e+00 5.237687765706633e+00 5.212603855061250e+00 5.006373330057745e+00 4.798012296009881e+00 5.265692163200063e+00 4.744905471388239e+00 5.004386032713558e+00 4.977332112562332e+00 4.773287161387382e+00 4.479630445092217e+00 5.037980093860898e+00 4.418770615551098e+00 4.680504039537147e+00 4.651473237114492e+00 4.449527869798914e+00 4.047637813443089e+00 4.720603931759633e+00 3.977564797207210e+00 4.245374565819217e+00 9.787688818479348e+00 9.758814466974098e+00 8.643706830546519e+00 9.756063829125846e+00 8.677807934761679e+00 8.713110420695189e+00 8.737200782232074e+00 8.646385713989080e+00 7.696998919274098e+00 8.682096999849529e+00 7.754132903088654e+00 7.830195433536970e+00 7.851384760076513e+00 7.731781608182147e+00 6.990681518679343e+00 7.802999280487379e+00 7.039490418191526e+00 7.149851381570386e+00 7.163106100113735e+00 7.027440899388433e+00 6.476447605584877e+00 7.127316062643506e+00 6.512031183798707e+00 6.645748162977426e+00 6.651787886036621e+00 6.507919914660667e+00 6.111622597378226e+00 6.629055264378758e+00 6.133995809930251e+00 6.283048520749382e+00 6.283301328615059e+00 6.135591413652107e+00 5.857303917769682e+00 6.271966471853582e+00 5.868381630313089e+00 6.027404234664676e+00 6.023256718384998e+00 5.873976462686188e+00 5.681877457658948e+00 6.021074803393547e+00 5.684001833209516e+00 5.849504953148965e+00 5.842110289387517e+00 5.692377456359035e+00 5.561070256446008e+00 5.846950227083428e+00 5.556380818720404e+00 5.726114495510846e+00 5.716364593722729e+00 5.566698060754389e+00 5.476764420123517e+00 5.726483001163438e+00 5.466971683514195e+00 5.639495067350905e+00 5.628043467675234e+00 5.478673866844995e+00 5.415488269538936e+00 5.642153265051760e+00 5.401831350842531e+00 5.576235230842574e+00 5.563534413744707e+00 5.414572692629290e+00 5.366954913418969e+00 5.580788413444799e+00 5.350229877110639e+00 5.525961096375689e+00 5.512298675641279e+00 5.363826864062007e+00 5.322755363675068e+00 5.532250471949490e+00 5.303358205506079e+00 5.480110774971640e+00 5.465638021127028e+00 5.317759488781926e+00 5.275194432866878e+00 5.488209352845047e+00 5.253153709605873e+00 5.430803788919823e+00 5.415554549002607e+00 5.268423789373487e+00 5.216213170401493e+00 5.441018908867470e+00 5.191205327921098e+00 5.369774901476022e+00 5.353675741963456e+00 5.207516445316698e+00 5.136341152730542e+00 5.382654074031079e+00 5.107695195872690e+00 5.287332878171486e+00 5.270207757490240e+00 5.125319015455684e+00 5.023660482416342e+00 5.303656385702114e+00 4.990375128805945e+00 5.171342154799791e+00 5.152918726177878e+00 5.009659163136723e+00 4.862858725204394e+00 5.192063421397682e+00 4.823683315903269e+00 5.006327301414937e+00 4.986259903592676e+00 4.844984229610592e+00 4.634647356686415e+00 5.032374650863153e+00 4.588330591085725e+00 4.773017665449654e+00 4.750968608543689e+00 4.611863181221587e+00 4.316213641707114e+00 4.804690546792393e+00 4.262131120505369e+00 4.449092674469789e+00 4.425011528885082e+00 4.287966645139941e+00 3.884155295875704e+00 4.486988346063522e+00 3.821307473869900e+00 4.013689650307139e+00 9.775470691237251e+00 9.754294614861113e+00 8.599704432206364e+00 9.736449005274975e+00 8.641119589600418e+00 8.654978098889890e+00 8.676629994691449e+00 8.613098710612258e+00 7.629595757535450e+00 8.612311096482934e+00 7.695117320132747e+00 7.732405963110272e+00 7.755091794728449e+00 7.672575960711934e+00 6.906553163520327e+00 7.696968089268287e+00 6.964118257242959e+00 7.025734487139596e+00 7.042710797150173e+00 6.949459255510685e+00 6.381613934797786e+00 6.998145116792259e+00 6.425193520854821e+00 6.505843620742637e+00 6.516280986150901e+00 6.417459626799664e+00 6.010060885319301e+00 6.485831837513913e+00 6.039597775657823e+00 6.133928049218205e+00 6.138658385811126e+00 6.037241331526937e+00 5.751587712462820e+00 6.120391695272873e+00 5.769195117321130e+00 5.872942188169576e+00 5.873185745262488e+00 5.770773344751214e+00 5.573628528737631e+00 5.864583422260034e+00 5.581858373917640e+00 5.691948975096734e+00 5.688841213330780e+00 5.586236517675443e+00 5.451291473564162e+00 5.687575792224982e+00 5.452440453468900e+00 5.566764235486377e+00 5.561218819764711e+00 5.458796014026095e+00 5.366068189435944e+00 5.565420590156452e+00 5.361951069554922e+00 5.479102943584413e+00 5.471799022036330e+00 5.369723045434769e+00 5.304245559630478e+00 5.480103645056638e+00 5.296166708815314e+00 5.415238399685180e+00 5.406648638493532e+00 5.305000710899161e+00 5.255389349480436e+00 5.418162901053277e+00 5.244184398521028e+00 5.364614883199708e+00 5.355040824850694e+00 5.253889271515582e+00 5.211001357009841e+00 5.369291345142801e+00 5.197089794427123e+00 5.318565303692510e+00 5.308167214035143e+00 5.207608634824555e+00 5.163332446117559e+00 5.325060177868722e+00 5.146756479144525e+00 5.269147891864317e+00 5.257965150130516e+00 5.158150166790797e+00 5.104290628486916e+00 5.277765359912419e+00 5.084734333744361e+00 5.208061005463201e+00 5.196023339846955e+00 5.097173023880778e+00 5.024384324766469e+00 5.219347256018225e+00 5.001180597428368e+00 5.125590583631531e+00 5.112523412650225e+00 5.014935075489099e+00 4.911680627590611e+00 5.140325532887943e+00 4.883829721754546e+00 5.009584863663463e+00 4.995215934971951e+00 4.899247592034669e+00 4.750854684322133e+00 5.028721943013342e+00 4.717106131421752e+00 4.844554530355873e+00 4.828536937273491e+00 4.734544625629209e+00 4.522606556977075e+00 4.869023157911285e+00 4.481709051184386e+00 4.611215059600190e+00 4.593206373244069e+00 4.501379890281124e+00 4.204115260612635e+00 4.641337041045263e+00 4.155445958712087e+00 4.287230292604362e+00 4.267144636082654e+00 4.177356804881872e+00 3.771991022699217e+00 4.323362027644091e+00 3.714919738311966e+00 3.851587752511881e+00 9.768337228196316e+00 9.751586261943793e+00 8.573627034534899e+00 9.725717886776280e+00 8.618613784135897e+00 8.620732355734809e+00 8.640186928612204e+00 8.593093024566491e+00 7.588293391663788e+00 8.570925918324182e+00 7.658522797185034e+00 7.672613969391043e+00 7.695434019785404e+00 7.636399309655958e+00 6.853532140481438e+00 7.631380577847006e+00 6.916575358246795e+00 6.947191173314921e+00 6.965992708354559e+00 6.900716277505504e+00 6.320581382237720e+00 6.915510535337653e+00 6.369601248706252e+00 6.414857649890807e+00 6.427958038242596e+00 6.359740367383298e+00 5.943742017993856e+00 6.391959751323117e+00 5.978418547346291e+00 6.035088539233622e+00 6.042824935749968e+00 5.973475496002028e+00 5.681874993988441e+00 6.019403284669769e+00 5.704301009423818e+00 5.769282228795325e+00 5.772641690217595e+00 5.703090471399084e+00 5.501780234259544e+00 5.759196011382990e+00 5.514571540437320e+00 5.585375857287761e+00 5.585401045701198e+00 5.516082037264659e+00 5.378119664028191e+00 5.579510011972966e+00 5.383647703099314e+00 5.458446890775171e+00 5.456021431005209e+00 5.387110200294691e+00 5.292085899331127e+00 5.455740367850612e+00 5.292226589146835e+00 5.369747746379277e+00 5.365545359063178e+00 5.297100956106825e+00 5.229771953097863e+00 5.369457421525523e+00 5.225873333715097e+00 5.305268879681445e+00 5.299764882682592e+00 5.231812042344550e+00 5.180620726535598e+00 5.306942460413664e+00 5.173547480942082e+00 5.254283944242702e+00 5.247784157412676e+00 5.180360767259943e+00 5.136057312538423e+00 5.257732239087129e+00 5.126247411673037e+00 5.208023631723263e+00 5.200692050744734e+00 5.133877966950883e+00 5.088285003714576e+00 5.213303651108313e+00 5.075791997413768e+00 5.158484947690212e+00 5.150363610491179e+00 5.084299975874723e+00 5.029182095414156e+00 5.165895805078654e+00 5.013696736960279e+00 5.097329122819435e+00 5.088349360862161e+00 5.023251796769422e+00 4.949237805632332e+00 5.107414349937085e+00 4.930096669024062e+00 5.014818665463975e+00 5.004806574254819e+00 4.940969509553333e+00 4.836505826937951e+00 5.028356773793287e+00 4.812710979938986e+00 4.898785642601023e+00 4.887468838984151e+00 4.825249542421940e+00 4.675650840761265e+00 4.916729185312147e+00 4.645952636910708e+00 4.733727941436102e+00 4.720758613123463e+00 4.660514585690732e+00 4.447364094825899e+00 4.757006513871345e+00 4.410511934182018e+00 4.500349590701088e+00 4.485382110116130e+00 4.427306189011748e+00 4.128818679820065e+00 4.529302115162174e+00 4.084191596660538e+00 4.176302528287640e+00 4.159223278549377e+00 4.103176487969556e+00 3.696635540505165e+00 4.211110393146424e+00 3.643883556318992e+00 3.740464884114505e+00 9.764067229423127e+00 9.749988804097624e+00 8.558053737712958e+00 9.719514027568886e+00 8.604952792170598e+00 8.600212798511114e+00 8.618067618286886e+00 8.581147575294827e+00 7.563232413263379e+00 8.546075135756023e+00 7.636131892787057e+00 7.636037786891522e+00 7.658573412801355e+00 7.614535793687875e+00 6.820754592695490e+00 7.590964804700595e+00 6.887142930798993e+00 6.898028263146164e+00 6.917663892648041e+00 6.870792275134854e+00 6.282249795442138e+00 6.863374525702071e+00 6.334799586619146e+00 6.356726555706695e+00 6.371349787401462e+00 6.323759082390364e+00 5.901585211953651e+00 6.331592050003152e+00 5.939744069173666e+00 5.970925969723040e+00 5.980556345143345e+00 5.933208696475474e+00 5.637174911220291e+00 5.953530161749037e+00 5.662953437255539e+00 5.701218927853583e+00 5.706651586543191e+00 5.659924426091308e+00 5.455433374317865e+00 5.689763290581224e+00 5.471442531946822e+00 5.514855062752757e+00 5.517031541379046e+00 5.471018325975300e+00 5.330728067489085e+00 5.507829798028108e+00 5.339363678877818e+00 5.386405496601080e+00 5.386161185900883e+00 5.340834572967758e+00 5.244042141752913e+00 5.382665272631720e+00 5.247209637974136e+00 5.296777614883606e+00 5.294765254277845e+00 5.250065673403675e+00 5.181326433637508e+00 5.295527791374107e+00 5.180399144173295e+00 5.231737200255012e+00 5.228423986084029e+00 5.184307466137413e+00 5.131930424448587e+00 5.232494848705323e+00 5.127791873748851e+00 5.180415674186370e+00 5.176104880096761e+00 5.132569601015234e+00 5.087219163947077e+00 5.182973679792894e+00 5.080320298243294e+00 5.133955239684667e+00 5.128810462975846e+00 5.085913271751003e+00 5.039357812669141e+00 5.138360249058808e+00 5.029760639487829e+00 5.084298291642624e+00 5.078361804284804e+00 5.036230474880245e+00 4.980200398342679e+00 5.090843485332242e+00 4.967600922865597e+00 5.023072196049299e+00 5.016275564792161e+00 4.975118054473613e+00 4.900220299837016e+00 5.032297718260573e+00 4.883958192309787e+00 4.940517873667881e+00 4.932687187388867e+00 4.892793888902383e+00 4.787460250167724e+00 4.953200226920532e+00 4.766539321972536e+00 4.824452720265643e+00 4.815315279530673e+00 4.777042077280439e+00 4.626576687691442e+00 4.841543112738769e+00 4.599748332508185e+00 4.659363621174374e+00 4.648570957011909e+00 4.612276191530801e+00 4.398254326474099e+00 4.681791333820145e+00 4.364268883183774e+00 4.425945537660970e+00 4.413149917330148e+00 4.379028471334435e+00 4.079662065976237e+00 4.454061859047954e+00 4.037900466881823e+00 4.101841553031584e+00 4.086908407634025e+00 4.054814126562606e+00 3.647429853525388e+00 4.135706066388536e+00 3.597744417647320e+00 3.665854308387383e+00 9.761492755702447e+00 9.749103994131183e+00 8.548927548949953e+00 9.715830210190685e+00 8.596904163704504e+00 8.587963435078610e+00 8.604687556593509e+00 8.574292887110088e+00 7.548510236319012e+00 8.531168706683232e+00 7.622917268217254e+00 7.613912698905765e+00 7.636050262887807e+00 7.601837848303533e+00 6.801286501204683e+00 7.566349066350067e+00 6.869660264726793e+00 6.867808744056950e+00 6.887745949319410e+00 6.853202198593235e+00 6.259240892382106e+00 6.831104750743387e+00 6.313976728571453e+00 6.320441002487128e+00 6.335858076819984e+00 6.302360039420794e+00 5.876057175946298e+00 6.293687039389826e+00 5.916444594315065e+00 5.930356430389586e+00 5.941089905556874e+00 5.909015382922624e+00 5.609925319002088e+00 5.911688332550529e+00 5.637897366035030e+00 5.657755848207303e+00 5.664469883667330e+00 5.633775860749225e+00 5.427043490649810e+00 5.645277635856448e+00 5.445185552954811e+00 5.469500864873916e+00 5.473055159650403e+00 5.443551369418715e+00 5.301601200278737e+00 5.461620665107438e+00 5.312310028981252e+00 5.339845168897665e+00 5.341028371075372e+00 5.312504018334897e+00 5.214448148577411e+00 5.335357807555475e+00 5.219640218202144e+00 5.249462126877530e+00 5.248901901510820e+00 5.221182124192564e+00 5.151440941265177e+00 5.247532628477121e+00 5.152502285838609e+00 5.183955649315165e+00 5.182106349818872e+00 5.155076072112351e+00 5.101865220102186e+00 5.18407514882574