<?xml version="1.0"?>
<VTKFile type="UnstructuredGrid" version="0.1" byte_order="LittleEndian">
<UnstructuredGrid>
<Piece NumberOfPoints="2400" NumberOfCells="800">
<Points>
<DataArray type="Float64" NumberOfComponents="3" format="ascii">
1.000000000000000e+00 0.000000000000000e+00 0.000000000000000e+00 1.000000000000000e+00 4.999999999989965e-02 0.000000000000000e+00 9.500000000000000e-01 4.999999999989965e-02 0.000000000000000e+00 1.000000000000000e+00 0.000000000000000e+00 0.000000000000000e+00 9.500000000000000e-01 4.999999999989965e-02 0.000000000000000e+00 9.500000000000000e-01 0.000000000000000e+00 0.000000000000000e+00 9.500000000000000e-01 0.000000000000000e+00 0.000000000000000e+00 9.500000000000000e-01 4.999999999989965e-02 0.000000000000000e+00 9.000000000000000e-01 4.999999999989965e-02 0.000000000000000e+00 9.500000000000000e-01 0.000000000000000e+00 0.000000000000000e+00 9.000000000000000e-01 4.999999999989965e-02 0.000000000000000e+00 9.000000000000000e-01 0.000000000000000e+00 0.000000000000000e+00 9.000000000000000e-01 0.000000000000000e+00 0.000000000000000e+00 9.000000000000000e-01 4.999999999989965e-02 0.000000000000000e+00 8.500000000000000e-01 4.999999999989965e-02 0.000000000000000e+00 9.000000000000000e-01 0.000000000000000e+00 0.000000000000000e+00 8.500000000000000e-01 4.999999999989965e-02 0.000000000000000e+00 8.500000000000000e-01 0.000000000000000e+00 0.000000000000000e+00 8.500000000000000e-01 0.000000000000000e+00 0.000000000000000e+00 8.500000000000000e-01 4.999999999989965e-02 0.000000000000000e+00 8.000000000000000e-01 4.999999999989965e-02 0.000000000000000e+00 8.500000000000000e-01 0.000000000000000e+00 0.000000000000000e+00 8.000000000000000e-01 4.999999999989965e-02 0.000000000000000e+00 8.000000000000000e-01 0.000000000000000e+00 0.000000000000000e+00 8.000000000000000e-01 0.000000000000000e+00 0.000000000000000e+00 8.000000000000000e-01 4.999999999989965e-02 0.000000000000000e+00 7.500000000000000e-01 4.999999999989965e-02 0.000000000000000e+00 8.000000000000000e-01 0.000000000000000e+00 0.000000000000000e+00 7.500000000000000e-01 4.999999999989965e-02 0.000000000000000e+00 7.500000000000000e-01 0.000000000000000e+00 0.000000000000000e+00 7.500000000000000e-01 0.000000000000000e+00 0.000000000000000e+00 7.500000000000000e-01 4.999999999989965e-02 0.000000000000000e+00 7.000000000000000e-01 4.999999999989965e-02 0.000000000000000e+00 7.500000000000000e-01 0.000000000000000e+00 0.000000000000000e+00 7.000000000000000e-01 4.999999999989965e-02 0.000000000000000e+00 7.000000000000000e-01 0.000000000000000e+00 0.000000000000000e+00 7.000000000000000e-01 0.000000000000000e+00 0.000000000000000e+00 7.000000000000000e-01 4.999999999989965e-02 0.000000000000000e+00 6.500000000000000e-01 4.999999999989965e-02 0.000000000000000e+00 7.000000000000000e-01 0.000000000000000e+00 0.000000000000000e+00 6.500000000000000e-01 4.999999999989965e-02 0.000000000000000e+00 6.500000000000000e-01 0.000000000000000e+00 0.000000000000000e+00 6.500000000000000e-01 0.000000000000000e+00 0.000000000000000e+00 6.500000000000000e-01 4.999999999989965e-02 0.000000000000000e+00 6.000000000000000e-01 4.999999999989965e-02 0.000000000000000e+00 6.500000000000000e-01 0.000000000000000e+00 0.000000000000000e+00 6.000000000000000e-01 4.999999999989965e-02 0.000000000000000e+00 6.000000000000000e-01 0.000000000000000e+00 0.000000000000000e+00 6.000000000000000e-01 0.000000000000000e+00 0.000000000000000e+00 6.000000000000000e-01 4.999999999989965e-02 0.000000000000000e+00 5.500000000000000e-01 4.999999999989965e-02 0.000000000000000e+00 6.000000000000000e-01 0.000000000000000e+00 0.000000000000000e+00 5.500000000000000e-01 4.999999999989965e-02 0.000000000000000e+00 5.500000000000000e-01 0.000000000000000e+00 0.000000000000000e+00 5.500000000000000e-01 0.000000000000000e+00 0.000000000000000e+00 5.500000000000000e-01 4.999999999989965e-02 0.000000000000000e+00 5.000000000000000e-01 4.999999999989965e-02 0.000000000000000e+00 5.500000000000000e-01 0.000000000000000e+00 0.000000000000000e+00 5.000000000000000e-01 4.999999999989965e-02 0.000000000000000e+00 5.000000000000000e-01 0.000000000000000e+00 0.000000000000000e+00 5.000000000000000e-01 0.000000000000000e+00 0.000000000000000e+00 5.000000000000000e-01 4.999999999989965e-02 0.000000000000000e+00 4.500000000000000e-01 4.999999999989965e-02 0.000000000000000e+00 5.000000000000000e-01 0.000000000000000e+00 0.000000000000000e+00 4.500000000000000e-01 4.999999999989965e-02 0.000000000000000e+00 4.500000000000000e-01 0.000000000000000e+00 0.000000000000000e+00 4.500000000000000e-01 0.000000000000000e+00 0.000000000000000e+00 4.500000000000000e-01 4.999999999989965e-02 0.000000000000000e+00 4.000000000000000e-01 4.999999999989965e-02 0.000000000000000e+00 4.500000000000000e-01 0.000000000000000e+00 0.000000000000000e+00 4.000000000000000e-01 4.999999999989965e-02 0.000000000000000e+00 4.000000000000000e-01 0.000000000000000e+00 0.000000000000000e+00 4.000000000000000e-01 0.000000000000000e+00 0.000000000000000e+00 4.000000000000000e-01 4.999999999989965e-02 0.000000000000000e+00 3.500000000000000e-01 4.999999999989965e-02 0.000000000000000e+00 4.000000000000000e-01 0.000000000000000e+00 0.000000000000000e+00 3.500000000000000e-01 4.999999999989965e-02 0.000000000000000e+00 3.500000000000000e-01 0.000000000000000e+00 0.000000000000000e+00 3.500000000000000e-01 0.000000000000000e+00 0.000000000000000e+00 3.500000000000000e-01 4.999999999989965e-02 0.000000000000000e+00 3.000000000000000e-01 4.999999999989965e-02 0.000000000000000e+00 3.500000000000000e-01 0.000000000000000e+00 0.000000000000000e+00 3.000000000000000e-01 4.999999999989965e-02 0.000000000000000e+00 3.000000000000000e-01 0.000000000000000e+00 0.000000000000000e+00 3.000000000000000e-01 0.000000000000000e+00 0.000000000000000e+00 3.000000000000000e-01 4.999999999989965e-02 0.000000000000000e+00 2.500000000000000e-01 4.999999999989965e-02 0.000000000000000e+00 3.000000000000000e-01 0.000000000000000e+00 0.000000000000000e+00 2.500000000000000e-01 4.999999999989965e-02 0.000000000000000e+00 2.500000000000000e-01 0.000000000000000e+00 0.000000000000000e+00 2.500000000000000e-01 0.000000000000000e+00 0.000000000000000e+00 2.500000000000000e-01 4.999999999989965e-02 0.000000000000000e+00 2.000000000000000e-01 4.999999999989965e-02 0.000000000000000e+00 2.500000000000000e-01 0.000000000000000e+00 0.000000000000000e+00 2.000000000000000e-01 4.999999999989965e-02 0.000000000000000e+00 2.000000000000000e-01 0.000000000000000e+00 0.000000000000000e+00 2.000000000000000e-01 0.000000000000000e+00 0.000000000000000e+00 2.000000000000000e-01 4.999999999989965e-02 0.000000000000000e+00 1.500000000000000e-01 4.999999999989965e-02 0.000000000000000e+00 2.000000000000000e-01 0.000000000000000e+00 0.000000000000000e+00 1.500000000000000e-01 4.999999999989965e-02 0.000000000000000e+00 1.500000000000000e-01 0.000000000000000e+00 0.000000000000000e+00 1.500000000000000e-01 0.000000000000000e+00 0.000000000000000e+00 1.500000000000000e-01 4.999999999989965e-02 0.000000000000000e+00 9.999999999999998e-02 4.999999999989965e-02 0.000000000000000e+00 1.500000000000000e-01 0.000000000000000e+00 0.000000000000000e+00 9.999999999999998e-02 4.999999999989965e-02 0.000000000000000e+00 9.999999999999998e-02 0.000000000000000e+00 0.000000000000000e+00 9.999999999999998e-02 0.000000000000000e+00 0.000000000000000e+00 9.999999999999998e-02 4.999999999989965e-02 0.000000000000000e+00 5.000000000000004e-02 4.999999999989965e-02 0.000000000000000e+00 9.999999999999998e-02 0.000000000000000e+00 0.000000000000000e+00 5.000000000000004e-02 4.999999999989965e-02 0.000000000000000e+00 5.000000000000004e-02 0.000000000000000e+00 0.000000000000000e+00 5.000000000000004e-02 0.000000000000000e+00 0.000000000000000e+00 5.000000000000004e-02 4.999999999989965e-02 0.000000000000000e+00 0.000000000000000e+00 4.999999999989965e-02 0.000000000000000e+00 5.000000000000004e-02 0.000000000000000e+00 0.000000000000000e+00 0.000000000000000e+00 4.999999999989965e-02 0.000000000000000e+00 0.000000000000000e+00 0.000000000000000e+00 0.000000000000000e+00 1.000000000000000e+00 4.999999999989965e-02 0.000000000000000e+00 1.000000000000000e+00 9.999999999981467e-02 0.000000000000000e+00 9.500000000000000e-01 9.999999999981467e-02 0.000000000000000e+00 1.000000000000000e+00 4.999999999989965e-02 0.000000000000000e+00 9.500000000000000e-01 9.999999999981467e-02 0.000000000000000e+00 9.500000000000000e-01 4.999999999989965e-02 0.000000000000000e+00 9.500000000000000e-01 4.999999999989965e-02 0.000000000000000e+00 9.500000000000000e-01 9.999999999981467e-02 0.000000000000000e+00 9.000000000000000e-01 9.999999999981467e-02 0.000000000000000e+00 9.500000000000000e-01 4.999999999989965e-02 0.000000000000000e+00 9.000000000000000e-01 9.999999999981467e-02 0.000000000000000e+00 9.000000000000000e-01 4.999999999989965e-02 0.000000000000000e+00 9.000000000000000e-01 4.999999999989965e-02 0.000000000000000e+00 9.000000000000000e-01 9.999999999981467e-02 0.000000000000000e+00 8.500000000000000e-01 9.999999999981467e-02 0.000000000000000e+00 9.000000000000000e-01 4.999999999989965e-02 0.000000000000000e+00 8.500000000000000e-01 9.999999999981467e-02 0.000000000000000e+00 8.500000000000000e-01 4.999999999989965e-02 0.000000000000000e+00 8.500000000000000e-01 4.999999999989965e-02 0.000000000000000e+00 8.500000000000000e-01 9.999999999981467e-02 0.000000000000000e+00 8.000000000000000e-01 9.999999999981467e-02 0.000000000000000e+00 8.500000000000000e-01 4.999999999989965e-02 0.000000000000000e+00 8.000000000000000e-01 9.999999999981467e-02 0.000000000000000e+00 8.000000000000000e-01 4.999999999989965e-02 0.000000000000000e+00 8.000000000000000e-01 4.999999999989965e-02 0.000000000000000e+00 8.000000000000000e-01 9.999999999981467e-02 0.000000000000000e+00 7.500000000000000e-01 9.999999999981467e-02 0.000000000000000e+00 8.000000000000000e-01 4.999999999989965e-02 0.0000000000000
[...]
<PointData Scalars="tracer_conc," Vectors="" Tensors="">
<DataArray type="Float64" Name="tracer_conc" format="ascii">
9.737849125446047e+00 9.537621823485800e+00 7.967844148433212e+00 9.716461846672168e+00 8.043445263725092e+00 8.408384924014099e+00 8.387249536832609e+00 8.034093673573702e+00 7.002524370563764e+00 8.312945845500014e+00 7.079890770935062e+00 7.470764436029707e+00 7.454123636905200e+00 7.096884766222112e+00 6.465999835710174e+00 7.428662543867047e+00 6.489370537005185e+00 6.897827179045494e+00 6.872286769457323e+00 6.517017436071836e+00 6.134384599333351e+00 6.880921112759180e+00 6.124766054291768e+00 6.545679051792082e+00 6.512376420401323e+00 6.159699312969261e+00 5.931221910841366e+00 6.543216356824795e+00 5.900524576033659e+00 6.329122833781607e+00 6.290663140432978e+00 5.940119330512626e+00 5.806826377695248e+00 6.335621519323209e+00 5.762797802382840e+00 6.196081048729140e+00 6.154336322260074e+00 5.805320345000293e+00 5.730472139701683e+00 6.208157283239497e+00 5.678095377029223e+00 6.114237653414970e+00 6.070428989330855e+00 5.722448128333156e+00 5.683249091698425e+00 6.129791701708372e+00 5.625657014315793e+00 6.063551152788341e+00 6.018450374678758e+00 5.671159881111254e+00 5.653436772836791e+00 6.081302591126535e+00 5.592558414288324e+00 6.031537065702462e+00 5.985620992225344e+00 5.638801182024503e+00 5.633620639812725e+00 6.050732432852362e+00 5.570606994276377e+00 6.010274851899635e+00 5.963828719435336e+00 5.617356433516176e+00 5.618861993206254e+00 6.030511566734506e+00 5.554349653273701e+00 5.994484245095893e+00 5.947666296868745e+00 5.601495507181125e+00 5.605474700882219e+00 6.015615511960642e+00 5.539734372255966e+00 5.980230296258245e+00 5.933108413467421e+00 5.587263724449230e+00 5.590108688745884e+00 6.002330977671078e+00 5.523108067636811e+00 5.963950621034734e+00 5.916518053448786e+00 5.571102932844553e+00 5.568914101156746e+00 5.987337156963881e+00 5.500307662440235e+00 5.941569258959576e+00 5.893742580549386e+00 5.548965668367365e+00 5.536578728975410e+00 5.966879258986215e+00 5.465620632971141e+00 5.907479167525102e+00 5.859077802358016e+00 5.515303966673339e+00 5.484999035924107e+00 5.935830636767053e+00 5.410357220823394e+00 5.853141136822636e+00 5.803843899988108e+00 5.461681514931001e+00 5.401253733085549e+00 5.886409863345381e+00 5.320680018303649e+00 5.764951582047427e+00 5.714221785482112e+00 5.374664908768036e+00 5.264376441704137e+00 5.806215965563659e+00 5.174161178206650e+00 5.620853763792511e+00 5.567825916088900e+00 5.232518927048993e+00 5.040140338972415e+00 5.674777272831933e+00 4.934331771781410e+00 5.384883482722071e+00 5.328562861790164e+00 5.000572244040900e+00 4.672496535669533e+00 5.467621357642865e+00 4.533436610117972e+00 5.000506692440533e+00 9.639390080841606e+00 9.531570928709471e+00 7.714342701876620e+00 9.425620862569968e+00 7.929983310871082e+00 8.013243468524339e+00 8.076732714458549e+00 7.875612278904087e+00 6.793122307038638e+00 7.959073793347467e+00 6.909992496848707e+00 7.085550855684018e+00 7.109738307333113e+00 6.896346091854737e+00 6.239710534576524e+00 7.053482968823630e+00 6.294115578025032e+00 6.513156601942605e+00 6.514759581850736e+00 6.299009637924796e+00 5.901294171489763e+00 6.495530599704599e+00 5.919942115954544e+00 6.159986573557689e+00 6.149261627047676e+00 5.934041590635014e+00 5.694841461510549e+00 6.152883820750625e+00 5.691781449512870e+00 5.942981454271427e+00 5.925052544366246e+00 5.710943260524131e+00 5.568726619996236e+00 5.942776752990602e+00 5.552376971486033e+00 5.809784186354577e+00 5.787545700998399e+00 5.574454244921559e+00 5.491456739136842e+00 5.813975862127915e+00 5.466939038762689e+00 5.727899270261681e+00 5.703053117970097e+00 5.490741651780849e+00 5.443740129600166e+00 5.734873475152744e+00 5.414175686480998e+00 5.677212913053483e+00 5.650773821800605e+00 5.439024975237361e+00 5.413660006838918e+00 5.685965977448515e+00 5.380936487048259e+00 5.645213578527717e+00 5.617786922608363e+00 5.406445376116199e+00 5.393699750000096e+00 5.655150303875517e+00 5.358930733306448e+00 5.623972184663157e+00 5.595912898448757e+00 5.384888767190848e+00 5.378867454321806e+00 5.634777450498265e+00 5.342663272789324e+00 5.608207947860189e+00 5.579711685500729e+00 5.368977070727675e+00 5.365449895746249e+00 5.619776762105433e+00 5.328066080041961e+00 5.593989670634671e+00 5.565142554624745e+00 5.354733201421560e+00 5.350084634360555e+00 5.606404928178480e+00 5.311483615476447e+00 5.577762240114300e+00 5.548562794722012e+00 5.338590703996975e+00 5.328918599753941e+00 5.591317409480680e+00 5.288759175351544e+00 5.555461355755326e+00 5.525820576271538e+00 5.316502867628443e+00 5.296642899620134e+00 5.570734982715214e+00 5.254194352729825e+00 5.521498064961499e+00 5.491218029604234e+00 5.282929606138074e+00 5.245162363875662e+00 5.539499296887418e+00 5.199121572862246e+00 5.467360704995039e+00 5.436087121187826e+00 5.229449015653302e+00 5.161566634019454e+00 5.489782109921491e+00 5.109732430423644e+00 5.379485954168969e+00 5.346624816380174e+00 5.142647618315399e+00 5.024894107255823e+00 5.409120303205625e+00 4.963616448657076e+00 5.235869146967151e+00 5.200456501591932e+00 5.000782437794921e+00 4.800872698403632e+00 5.277197648991625e+00 4.724128977884354e+00 5.000568608672880e+00 4.960975214150483e+00 4.768834937031147e+00 4.433446135641685e+00 5.066794885261207e+00 4.326480464888967e+00 4.616192228514270e+00 9.603709503831514e+00 9.524421626004452e+00 7.610424765130578e+00 9.343065456733212e+00 7.870525777188570e+00 7.856889797381921e+00 7.937736715114921e+00 7.811226910184376e+00 6.673880796493889e+00 7.784870266096665e+00 6.818807390781528e+00 6.881757930150884e+00 6.923557599020232e+00 6.792080809882090e+00 6.108017364955334e+00 6.843443427253554e+00 6.183505764060816e+00 6.292183021001025e+00 6.308428939717476e+00 6.175854360440262e+00 5.762977940565720e+00 6.269971708290282e+00 5.799274547304635e+00 5.931615280793286e+00 5.933813019215158e+00 5.801772274096349e+00 5.553005829155397e+00 5.920147026581390e+00 5.566005996740429e+00 5.711122837105720e+00 5.705280999688119e+00 5.574155775739018e+00 5.425022883662145e+00 5.706573661589499e+00 5.423988540010842e+00 5.576202812041791e+00 5.565651060134440e+00 5.435376306513355e+00 5.346754220729601e+00 5.576041829103461e+00 5.337195611727156e+00 5.493438706204024e+00 5.480084995480124e+00 5.350479557363553e+00 5.298499519528217e+00 5.496051133133403e+00 5.283719835733299e+00 5.442292506010165e+00 5.427250098604737e+00 5.298140475856058e+00 5.268128072305965e+00 5.446677958866273e+00 5.250101739514882e+00 5.410048936177100e+00 5.393971074672939e+00 5.265229808722242e+00 5.248010517271076e+00 5.415614863057193e+00 5.227893294447430e+00 5.388677911270744e+00 5.371943204656684e+00 5.243496520515031e+00 5.233095301412864e+00 5.395110715894681e+00 5.211518212799673e+00 5.372847606125694e+00 5.355663668928679e+00 5.227492154016936e+00 5.219637791922793e+00 5.380043048231858e+00 5.196866227446222e+00 5.358601156830138e+00 5.341060339329342e+00 5.213203268902901e+00 5.204259424385562e+00 5.366642499529241e+00 5.180259675970052e+00 5.342371356008933e+00 5.324475596687734e+00 5.197044876038433e+00 5.183099371766266e+00 5.351552416913759e+00 5.157529971494946e+00 5.320089549787834e+00 5.301751858885124e+00 5.174961196186278e+00 5.150845257912751e+00 5.330989711369338e+00 5.122971057098075e+00 5.286166977564318e+00 5.267190559119806e+00 5.141407757034427e+00 5.099399230917074e+00 5.299797763289285e+00 5.067906467855597e+00 5.232093903257857e+00 5.212124117560437e+00 5.087959104520674e+00 5.015843778226125e+00 5.250154640101656e+00 4.978508930956255e+00 5.144305236456062e+00 5.122742590916052e+00 5.001192756336107e+00 4.879194432664413e+00 5.169611620488999e+00 4.832320474509504e+00 5.000775594050723e+00 4.976627117278237e+00 4.859325705307292e+00 4.655117562085219e+00 5.037924979597605e+00 4.592594369457021e+00 4.765474219216259e+00 4.736929133793228e+00 4.627095168218503e+00 4.287462013343344e+00 4.827179889267915e+00 4.195427204751538e+00 4.380428241756223e+00 9.588440165397824e+00 9.520501974120904e+00 7.562578393224303e+00 9.312913749080984e+00 7.837665494639176e+00 7.787501031266796e+00 7.870003219093291e+00 7.779640159988054e+00 6.608866359357854e+00 7.701471694608326e+00 6.767006253009939e+00 6.775775577075105e+00 6.823539158180887e+00 6.736966449485059e+00 6.032412441716192e+00 6.729186051526074e+00 6.120247931752180e+00 6.167000623852966e+00 6.190849342814790e+00 6.106680956199539e+00 5.681570322172583e+00 6.140243003834803e+00 5.728762085271309e+00 5.797458951288837e+00 5.807191057182103e+00 5.724818741675977e+00 5.468340409655660e+00 5.782616017454755e+00 5.491309910351741e+00 5.572562747673357e+00 5.574009558507160e+00 5.492994826036748e+00 5.338553818856652e+00 5.565053571629492e+00 5.346965494472241e+00 5.435414891911957e+00 5.431969716082352e+00 5.351951719473316e+00 5.259288605835448e+00 5.432453003931534e+00 5.258894473068649e+00 5.351498945885116e+00 5.345140907388203e+00 5.265834838661767e+00 5.210482961865288e+00 5.351374542438338e+00 5.204719094829310e+00 5.299746860862275e+00 5.291637068392445e+00 5.212835152356103e+00 5.179806862363102e+00 5.301422424507831e+00 5.170718160195585e+00 5.267180652555288e+00 5.258000637887067e+00 5.179565263889899e+00 5.159521417200735e+00 5.270048544564362e+00 5.148300558218996e+00 5.245637168207864e+00 5.235781480472801e+00 5.157636417565358e+00 5.144514999603413e+00 5.249377470864773e+00 5.131812293615599e+00 5.229716105595988e+00 5.219401205090922e+00 5.141526451211873e+00 5.131010125444869e+00 5.234221931179913e+00 5.117100981149346e+00 5.215425118036719e+00 5.204748293352385e+00 5.127182353191722e+00 5.115610337778477e+00 5.220778793437264e+00 5.100466056046400e+00 5.199178750474949e+00 5.188144755846950e+00 5.110997804115157e+00 5.094444949533612e+00 5.205674198793224e+00 5.077726073525532e+00 5.176899145873473e+00 5.165422576810243e+00 5.088905269022013e+00 5.062195449055475e+00 5.185116874930578e+00 5.043166495532351e+00 5.142992585187891e+00 5.130877199408189e+00 5.055352944748188e+00 5.010758076431973e+00 5.153946715504662e+00 4.988102197977382e+00 5.088944643630891e+00 5.075834632440259e+00 5.001908576237476e+00 4.927205444466704e+00 5.104339578860136e+00 4.898691882401467e+00 5.001180308940328e+00 4.986470755033291e+00 4.915138627708421e+00 4.790533118954908e+00 5.023842584673278e+00 4.752452096965404e+00 4.857648844693132e+00 4.840328436528069e+00 4.773231183552190e+00 4.566371446201694e+00 4.892224564465839e+00 4.512603359270604e+00 4.622257765468087e+00 4.600422688018988e+00 4.540782202276561e+00 4.198553782360101e+00 4.681076247563754e+00 4.115899616438772e+00 4.236731112947279e+00 9.581145136811484e+00 9.518394962762185e+00 7.538633819573340e+00 9.300129021809001e+00 7.819356061652413e+00 7.753645121389452e+00 7.835155452870546e+00 7.763048783442869e+00 6.573458898259693e+00 7.659440051216335e+00 6.738095161859157e+00 6.719475597199750e+00 6.769196850712267e+00 6.707177921153948e+00 5.989345536253397e+00 6.667085758259106e+00 6.084077608368102e+00 6.096661111952758e+00 6.124143349609013e+00 6.067815590582999e+00 5.633965835826961e+00 6.066262816910342e+00 5.687688550596296e+00 5.719372032532278e+00 5.733269056114768e+00 5.680290490153279e+00 5.418073786145264e+00 5.701970086995784e+00 5.447160644204271e+00 5.490313461497341e+00 5.496036345583134e+00 5.445123216811576e+00 5.286746527354381e+00 5.480742257359633e+00 5.300975273467536e+00 5.350936396061289e+00 5.351758510537498e+00 5.302160088777113e+00 5.206598491177225e+00 5.346138653354330e+00 5.211832671091852e+00 5.265821624883949e+00 5.263700442826003e+00 5.214956073498630e+00 5.157290341150079e+00 5.263965902754823e+00 5.157043541790238e+00 5.213421127080729e+00 5.209522070880254e+00 5.161345269096495e+00 5.126329661036654e+00 5.213414703696159e+00 5.122694544557246e+00 5.180502457097262e+00 5.175515363085078e+00 5.127733215380764e+00 5.105884011313766e+00 5.181712207239389e+00 5.100081086055722e+00 5.158767114936945e+00 5.153093313275015e+00 5.105613498738977e+00 5.090788410212028e+00 5.160861161468285e+00 5.083483722264273e+00 5.142742464817288e+00 5.136603004531913e+00 5.089397820814667e+00 5.077235128510686e+00 5.145608278296820e+00 5.068712783595238e+00 5.128397341267961e+00 5.121892384634527e+00 5.074996167553147e+00 5.061810544233701e+00 5.132114695490684e+00 5.052046454809285e+00 5.112125350299498e+00 5.105261347947954e+00 5.058781443964157e+00 5.040633934005996e+00 5.116987282571166e+00 5.029290752845275e+00 5.089837054642669e+00 5.082529434247917e+00 5.036674100660249e+00 5.008380105262421e+00 5.096424281195900e+00 4.994722669592506e+00 5.055931443651775e+00 5.047983921128514e+00 5.003114542350596e+00 4.956939139528735e+00 5.065259189283742e+00 4.939649306002583e+00 5.001887311261641e+00 4.992942712556367e+00 4.949663770372738e+00 4.873375333045685e+00 5.015661830002608e+00 4.850219463683373e+00 4.914119435412267e+00 4.903569030872079e+00 4.862879548931052e+00 4.736671131053142e+00 4.935170411602872e+00 4.703935993856640e+00 4.770558407289127e+00 4.757381315164890e+00 4.720932273584014e+00 4.512438675464369e+00 4.803555174401227e+00 4.464007326815146e+00 4.535077410842507e+00 4.517321499727923e+00 4.488336539308700e+00 4.144514304814424e+00 4.592118573010443e+00 4.067592626305824e+00 4.149236678722886e+00 9.577410649593482e+00 9.517248726822459e+00 7.526049248277885e+00 9.294063833334238e+00 7.809186639413721e+00 7.736105840232395e+00 7.816602053082585e+00 7.754085908838526e+00 6.554012530346985e+00 7.637458087939907e+00 6.721893064711466e+00 6.688976918725613e+00 6.739278185274268e+00 6.690820462250973e+00 5.964901512905438e+00 6.633030482562415e+00 6.063403882504081e+00 6.057091661587434e+00 6.086265569718727e+00 6.045924050399162e+00 5.606317368874485e+00 6.024187605633751e+00 5.663841889958184e+00 5.674159146398578e+00 5.690282492773755e+00 5.654635460400446e+00 5.388439075570269e+00 5.654943278861210e+00 5.421203841396421e+00 5.441777341432815e+00 5.449944681722433e+00 5.417071617425512e+00 5.255910793943100e+00 5.430784911977835e+00 5.273680464309358e+00 5.300498056256974e+00 5.303840036814306e+00 5.272644750974270e+00 5.175049244463208e+00 5.294486965697248e+00 5.183718561026888e+00 5.214308958900792e+00 5.214727597407923e+00 5.184570120272055e+00 5.125322714478215e+00 5.211347352915215e+00 5.128439834601841e+00 5.161305580951693e+00 5.159947607070792e+00 5.130450310558478e+00 5.094119189665393e+00 5.160248564549494e+00 5.093803271231479e+00 5.128049738505113e+00 5.125600163653881e+00 5.096544129740709e+00 5.073533865587376e+00 5.128237485935750e+00 5.071023127228894e+00 5.106126457176237e+00 5.102986388068489e+00 5.074255974027502e+00 5.058358779936388e+00 5.107213481823564e+00 5.054330296810225e+00 5.089997788422035e+00 5.086389217775515e+00 5.057944681388149e+00 5.044760963052656e+00 5.091864650695570e+00 5.039505389216913e+00 5.075596079335653e+00 5.071620138566922e+00 5.043489348928840e+00 5.029311970290885e+00 5.078319116146534e+00 5.022808902877061e+00 5.059294462806992e+00 5.054958270383434e+00 5.027244870125823e+00 5.008122105450592e+00 5.063165138700542e+00 5.000036039042500e+00 5.036991655942090e+00 5.032210901184223e+00 5.005120934806749e+00 4.975860107999805e+00 5.042590168064670e+00 4.965456458716286e+00 5.003078952291593e+00 4.997657083746913e+00 4.971550909672366e+00 4.924410822054043e+00 5.011420582964137e+00 4.910371099929650e+00 4.949028514399424e+00 4.942607326058940e+00 4.918090124954358e+00 4.840832527020094e+00 4.961819707607859e+00 4.820922203386085e+00 4.861247001039674e+00 4.853215585776439e+00 4.831290173385153e+00 4.704099797912004e+00 4.881317884640256e+00 4.674605178007581e+00 4.717653112440357e+00 4.706985959573352e+00 4.689310862039959e+00 4.479815830719517e+00 4.749686018675913e+00 4.434623459163887e+00 4.482101916468790e+00 4.466820062719576e+00 4.456618947040091e+00 4.111823107622551e+00 4.538058774205063e+00 4.038383699432218e+00 4.096061875076300e+00 9.575419225145207e+00 9.516626670152000e+00 7.519270876523284e+00 9.290974116887595e+00 7.803547731251021e+00 7.726707102568795e+00 7.806504403631529e+00 7.749203278778707e+00 6.543294934382274e+00 7.625666587808683e+00 6.712822570927579e+00 6.672225651183792e+00 6.722643510026706e+00 6.681805932394383e+00 5.951116669543163e+00 6.614193067778643e+00 6.051664701005327e+00 6.034786725338429e+00 6.064734307077090e+00 6.033645173957413e+00 5.590436483134053e+00 6.000282591344940e+00 5.650130886094055e+00 5.648092830093518e+00 5.665378546968644e+00 5.639996422107713e+00 5.371190255630738e+00 5.627664545749174e+00 5.406121863020363e+00 5.413321576477760e+00 5.422852842464692e+00 5.400837481271265e+00 5.237799893480060e+00 5.401375630395121e+00 5.257689844983785e+00 5.270586525092353e+00 5.275386790435478e+00 5.255383779694787e+00 5.156408630588701e+00 5.263778399020698e+00 5.167148161049076e+00 5.183533525460572e+00 5.185451070942095e+00 5.166670648737438e+00 5.106362749119149e+00 5.179864636096617e+00 5.111510152914083e+00 5.130026008725836e+00 5.130182967088441e+00 5.112163539704240e+00 5.074969535233770e+00 5.128311843271270e+00 5.076655875251253e+00 5.096479272355524e+00 5.095550213159504e+00 5.078026656007361e+00 5.054272920003455e+00 5.096037551785679e+00 5.053746085891995e+00 5.074389589807851e+00 5.072771536860580e+00 5.055602965491603e+00 5.039033267081027e+00 5.074862412541273e+00 5.036977130688348e+00 5.058166549826445e+00 5.056080076762696e+00 5.039212934469848e+00 5.025398376295652e+00 5.059427720700592e+00 5.022107984736773e+00 5.043711904837735e+00 5.041257737884627e+00 5.024712258017154e+00 5.009928170179284e+00 5.045834150854934e+00 5.005385767195458e+00 5.027380970185150e+00 5.024566122290212e+00 5.008441686512851e+00 4.988725733116091e+00 5.030653891053888e+00 4.982597256609488e+00 5.005061823081911e+00 5.001801854492635e+00 4.986302223435796e+00 4.956454902743820e+00 5.010064705342241e+00 4.948006396927930e+00 4.971138796771871e+00 4.967236821042895e+00 4.952721524640695e+00 4.904996519726914e+00 4.978886460699579e+00 4.892909608152412e+00 4.917078460736921e+00 4.912175595071199e+00 4.899250550938711e+00 4.821404799487454e+00 4.929276926920402e+00 4.803444899206347e+00 4.829281617550750e+00 4.822765824634116e+00 4.812436691540328e+00 4.684649732413794e+00 4.848760740734240e+00 4.657103529673197e+00 4.685659764430335e+00 4.676503336195372e+00 4.670433397461243e+00 4.460330065777205e+00 4.717109678625092e+00 4.417086728639770e+00 4.450058412066777e+00 4.436266717589350e+00 4.437679266921857e+00 4.092293791092785e+00 4.505360348660738e+00 4.020951445961384e+00 4.063893926303782e+00 9.574333487315254e+00 9.516304209161952e+00 7.515624720949250e+00 9.289331935649757e+00 7.800472498342291e+00 7.721605843927801e+00 7.800951210105025e+00 7.746603263382600e+00 6.537483185196042e+00 7.619258576180536e+00 6.707853384222073e+00 6.662995316697153e+00 6.713374365656805e+00 6.676951220342899e+00 5.943531750319748e+00 6.603754879828034e+00 6.045177054363518e+00 6.022268307230060e+00 6.052548228023107e+00 6.026943560067056e+00 5.581582999596733e+00 5.986779986215993e+00 5.642486791274189e+00 5.633207600558457e+00 5.651076165415161e+00 5.631900368011051e+00 5.361474542861007e+00 5.612002040394767e+00 5.397646994652266e+00 5.396841178665918e+00 5.407105758937528e+00 5.391756080780157e+00 5.227522046829469e+00 5.384275116729260e+00 5.248646014720187e+00 5.253081678566515e+00 5.258698026140731e+00 5.245641126847696e+00 5.145775620624796e+00 5.245759628475040e+00 5.157729767337818e+00 5.165393017380540e+00 5.168169370368465e+00 5.156501441564553e+00 5.095510670362397e+00 5.161277077175392e+00 5.101852949727259e+00 5.111500640422079e+00 5.112537457267041e+00 5.101727338153514e+00 5.063984846148299e+00 5.109379774700577e+00 5.066850271298954e+00 5.077725013522310e+00 5.077685822565559e+00 5.067427137910268e+00 5.043209149368400e+00 5.076900327635959e+00 5.043850119997042e+00 5.055501035419731e+00 5.054777473037693e+00 5.044905303576204e+00 5.027922886898600e+00 5.05560466716971