<?xml version="1.0"?>
<VTKFile type="UnstructuredGrid" version="0.1" byte_order="LittleEndian">
<UnstructuredGrid>
<Piece NumberOfPoints="181" NumberOfCells="789">
<Points>
<DataArray type="Float64" NumberOfComponents="3" format="ascii">
-0.5000000000 -0.5000000000 -0.5000000000 0.5000000000 -0.5000000000 -0.5000000000 0.5000000000 0.5000000000 -0.5000000000 -0.5000000000 0.5000000000 -0.5000000000 -0.5000000000 0.5000000000 0.5000000000 0.5000000000 0.5000000000 0.5000000000 -0.5000000000 -0.5000000000 0.5000000000 0.5000000000 -0.5000000000 0.5000000000 0.0000000000 0.0000000000 -0.5000000000 0.0000000000 0.0000000000 0.5000000000 -0.5000000000 0.2500000000 -0.5000000000 -0.5000000000 0.0000000000 -0.5000000000 -0.5000000000 -0.2500000000 -0.5000000000 -0.3333333333 -0.3333333333 -0.5000000000 -0.1666666667 -0.1666666667 -0.5000000000 -0.1666666667 0.1666666667 -0.5000000000 -0.3333333333 0.3333333333 -0.5000000000 -0.2500000000 0.5000000000 -0.5000000000 -0.0000000000 0.5000000000 -0.5000000000 0.2500000000 0.5000000000 -0.5000000000 0.3333333333 0.3333333333 -0.5000000000 0.1666666667 0.1666666667 -0.5000000000 0.1666666667 -0.1666666667 -0.5000000000 0.3333333333 -0.3333333333 -0.5000000000 0.5000000000 -0.2500000000 -0.5000000000 0.5000000000 -0.0000000000 -0.5000000000 0.5000000000 0.2500000000 -0.5000000000 0.2500000000 -0.5000000000 -0.5000000000 0.0000000000 -0.5000000000 -0.5000000000 -0.2500000000 -0.5000000000 -0.5000000000 -0.5000000000 -0.5000000000 -0.2500000000 -0.5000000000 -0.5000000000 -0.0000000000 -0.5000000000 -0.5000000000 0.2500000000 -0.5000000000 -0.2500000000 0.5000000000 -0.5000000000 -0.0000000000 0.5000000000 -0.5000000000 0.2500000000 0.5000000000 -0.5000000000 0.5000000000 -0.2500000000 -0.5000000000 0.5000000000 -0.0000000000 -0.5000000000 0.5000000000 0.2500000000 -0.3333333333 -0.3333333333 0.5000000000 -0.1666666667 -0.1666666667 0.5000000000 -0.1666666667 0.1666666667 0.5000000000 -0.3333333333 0.3333333333 0.5000000000 -0.2500000000 0.5000000000 0.5000000000 -0.0000000000 0.5000000000 0.5000000000 0.2500000000 0.5000000000 0.5000000000 0.3333333333 0.3333333333 0.5000000000 0.1666666667 0.1666666667 0.5000000000 0.1666666667 -0.1666666667 0.5000000000 0.3333333333 -0.3333333333 0.5000000000 0.5000000000 -0.2500000000 0.5000000000 0.5000000000 -0.0000000000 0.5000000000 0.5000000000 0.2500000000 0.5000000000 0.2500000000 -0.5000000000 0.5000000000 0.0000000000 -0.5000000000 0.5000000000 -0.2500000000 -0.5000000000 0.5000000000 0.5000000000 0.5000000000 0.2500000000 0.5000000000 0.5000000000 0.0000000000 0.5000000000 0.5000000000 -0.2500000000 0.5000000000 -0.5000000000 -0.2500000000 0.5000000000 -0.5000000000 -0.0000000000 0.5000000000 -0.5000000000 0.2500000000 0.0000000000 0.0000000000 0.2500000000 0.0000000000 0.0000000000 0.0000000000 0.0000000000 0.0000000000 -0.2500000000 -0.2500000000 -0.2500000000 -0.1527777778 -0.2500000000 -0.2500000000 0.1842494090 -0.1443397663 -0.1443397663 0.0095181865 -0.3580828321 -0.3580828321 0.0062539312 -0.1432291667 -0.1432291667 -0.2951388889 -0.3567708333 -0.3567708333 -0.2951388889 -0.1364479427 -0.1364479427 0.3041805208 -0.3635520573 -0.3635520573 0.3041805208 -0.2500000000 -0.2500000000 0.3585220901 -0.2500000000 -0.2500000000 -0.3486111111 0.2500000000 0.2500000000 0.1527777778 0.2500000000 0.2500000000 -0.1842494090 0.1443397663 0.1443397663 -0.0095181865 0.3580828321 0.3580828321 -0.0062539312 0.1432291667 0.1432291667 0.2951388889 0.3567708333 0.3567708333 0.2951388889 0.1364479427 0.1364479427 -0.3041805208 0.3635520573 0.3635520573 -0.3041805208 0.2500000000 0.2500000000 -0.3585220901 0.2500000000 0.2500000000 0.3486111111 -0.2500000000 0.2500000000 0.1527777778 -0.2500000000 0.2500000000 -0.1842494090 -0.3556602337 0.3556602337 -0.0095181865 -0.1419171679 0.1419171679 -0.0062539312 -0.1432291667 0.1432291667 0.2951388889 -0.3567708333 0.3567708333 0.2951388889 -0.3635520573 0.3635520573 -0.3041805208 -0.1364479427 0.1364479427 -0.3041805208 -0.2500000000 0.2500000000 -0.3585220901 -0.2500000000 0.2500000000 0.3486111111 0.2500000000 -0.2500000000 0.1527777778 0.2500000000 -0.2500000000 -0.1842494090 0.3556602337 -0.3556602337 -0.0095181865 0.1419171679 -0.1419171679 -0.0062539312 0.1432291667 -0.1432291667 0.2951388889 0.3567708333 -0.3567708333 0.2951388889 0.3635520573 -0.3635520573 -0.3041805208 0.1364479427 -0.1364479427 -0.3041805208 0.2500000000 -0.2500000000 -0.3585220901 0.2500000000 -0.2500000000 0.3486111111 0.1527777778 -0.3472222222 0.5000000000 -0.1527777778 -0.3472222222 0.5000000000 -0.0000000000 -0.2546296296 0.5000000000 0.3472222222 -0.1527777778 0.5000000000 0.3472222222 0.1527777778 0.5000000000 0.2546296296 0.0000000000 0.5000000000 -0.1527777778 0.3472222222 0.5000000000 0.1527777778 0.3472222222 0.5000000000 0.0000000000 0.2546296296 0.5000000000 -0.3472222222 -0.1527777778 0.5000000000 -0.3472222222 0.1527777778 0.5000000000 -0.2546296296 -0.0000000000 0.5000000000 -0.1527777778 0.3472222222 -0.5000000000 0.1527777778 0.3472222222 -0.5000000000 0.0000000000 0.2546296296 -0.5000000000 0.3472222222 -0.1527777778 -0.5000000000 0.3472222222 0.1527777778 -0.5000000000 0.2546296296 0.0000000000 -0.5000000000 0.1527777778 -0.3472222222 -0.5000000000 -0.1527777778 -0.3472222222 -0.5000000000 -0.0000000000 -0.2546296296 -0.5000000000 -0.3472222222 0.1527777778 -0.5000000000 -0.3472222222 -0.1527777778 -0.5000000000 -0.2546296296 -0.0000000000 -0.5000000000 -0.5000000000 0.0000000000 0.0000000000 -0.5000000000 0.2083333333 -0.2083333333 -0.5000000000 -0.2083333333 -0.2083333333 -0.5000000000 -0.2083333333 0.2083333333 -0.5000000000 0.2083333333 0.2083333333 -0.5000000000 -0.0000000000 -0.2797619048 -0.5000000000 -0.2797619048 0.0000000000 -0.5000000000 0.2797619048 -0.0000000000 -0.5000000000 0.0000000000 0.2797619048 -0.5000000000 0.3571428571 -0.3571428571 -0.5000000000 -0.3385416667 -0.3385416667 -0.5000000000 -0.3385416667 0.3385416667 -0.5000000000 0.3453205262 0.3453205262 0.0000000000 0.5000000000 -0.0000000000 -0.2083333333 0.5000000000 -0.2083333333 -0.2083333333 0.5000000000 0.2083333333 0.2083333333 0.5000000000 0.2083333333 0.2083333333 0.5000000000 -0.2083333333 -0.2797619048 0.5000000000 0.0000000000 -0.0000000000 0.5000000000 -0.2797619048 0.0000000000 0.5000000000 0.2797619048 0.2797619048 0.5000000000 -0.0000000000 -0.3571428571 0.5000000000 -0.3571428571 -0.3385416667 0.5000000000 0.3385416667 0.3385416667 0.5000000000 0.3385416667 0.3453205262 0.5000000000 -0.3453205262 0.5000000000 0.0000000000 -0.0000000000 0.5000000000 -0.2083333333 -0.2083333333 0.5000000000 0.2083333333 0.2083333333 0.5000000000 -0.2083333333 0.2083333333 0.5000000000 0.2083333333 -0.2083333333 0.5000000000 -0.2797619048 0.0000000000 0.5000000000 0.0000000000 0.2797619048 0.5000000000 -0.0000000000 -0.2797619048 0.5000000000 0.2797619048 -0.0000000000 0.5000000000 -0.3571428571 -0.3571428571 0.5000000000 -0.3385416667 0.3385416667 0.5000000000 0.3385416667 0.3385416667 0.5000000000 0.3453205262 -0.3453205262 -0.0000000000 -0.5000000000 0.0000000000 0.2083333333 -0.5000000000 -0.2083333333 -0.2083333333 -0.5000000000 -0.2083333333 0.2083333333 -0.5000000000 0.2083333333 -0.2083333333 -0.5000000000 0.2083333333 -0.0000000000 -0.5000000000 -0.2797619048 0.2797619048 -0.5000000000 0.0000000000 -0.2797619048 -0.5000000000 0.0000000000 -0.0000000000 -0.5000000000 0.2797619048 0.3571428571 -0.5000000000 -0.3571428571 0.3385416667 -0.5000000000 0.3385416667 -0.3385416667 -0.5000000000 -0.3385416667 -0.3453205262 -0.5000000000 0.3453205262 
</DataArray>
</Points>
<Cells>
<DataArray type="UInt32" Name="connectivity" format="ascii">
[...]
<CellData Scalars="pressure_p0,piezo_head_p0,region_id,conductivity," Vectors="velocity_p0," Tensors="">
<DataArray type="Float64" Name="pressure_p0" format="ascii">
-0.2750000000 -0.0250000000 0.2250000000 0.4750000000 0.5317129629 0.4483796296 -0.2513935069 -0.3347268403 0.5317129629 0.4483796296 -0.3347268402 -0.2513935069 0.5495370370 0.4812500000 0.4812500000 0.1812486896 0.2796283192 0.0145820229 -0.0868114840 -0.3528406967 -0.2875675369 -0.2875675369 0.0134939378 -0.0878995691 0.1801606045 0.2785402341 0.1456685533 0.2461328267 0.2472209118 0.3655092592 0.3655092592 0.0333261578 -0.0659827054 -0.0648946203 -0.1823173399 -0.1823173399 0.5347268402 0.4513935069 -0.3317129630 -0.2483796296 0.5347268402 0.4513935069 -0.3317129630 -0.2483796296 0.5528406967 0.4875675369 0.4875675369 -0.3495370370 -0.2812500000 -0.2812500000 0.0187513104 -0.0796283192 0.1854179771 0.2868114840 0.0198393955 -0.0785402341 0.1865060621 0.2878995690 0.0543314466 -0.0461328267 -0.0472209118 -0.1655092592 -0.1655092592 0.1666738422 0.2659827053 0.2648946203 0.3823173398 0.3823173399 0.5347268403 0.4513935069 -0.2483796296 -0.3317129630 0.5347268402 0.4513935069 -0.3317129629 -0.2483796296 0.5528406967 0.4875675369 0.4875675369 0.1865060622 0.2878995691 0.0198393955 -0.0785402341 -0.3495370370 -0.2812500000 -0.2812500000 0.0187513104 -0.0796283192 0.1854179770 0.2868114840 0.0543314467 -0.0461328267 -0.0472209118 -0.1655092592 -0.1655092592 0.1666738422 0.2659827054 0.2648946203 0.3823173399 0.3823173399 0.5347268402 0.4513935069 -0.3317129630 -0.2483796296 0.5347268402 0.4513935069 -0.3317129630 -0.2483796296 0.5528406967 0.4875675369 0.4875675369 -0.3495370370 -0.2812500000 -0.2812500000 0.1865060622 0.2878995691 0.0198393955 -0.0785402341 0.0187513104 -0.0796283192 0.1854179770 0.2868114839 0.0543314466 -0.0461328267 -0.0472209118 -0.1655092592 -0.1655092592 0.1666738422 0.2659827054 0.2648946202 0.3823173399 0.3823173399 0.2096984033 -0.0105144673 0.0609894917 0.2834831255 0.1373783805 -0.0842991895 0.2936114413 -0.0127952305 -0.0944275052 0.2111631027 0.2175663111 -0.0183823751 0.3213338113 -0.1221498752 -0.2606161290 0.4606161289 -0.1690724206 -0.1816784812 0.3690724205 0.3816784811 -0.2558779762 -0.1473710318 0.3473710316 0.4558779760 0.2602182539 -0.0602182540 -0.2530439875 -0.0680861618 0.2680861617 -0.1577166844 0.3577166843 -0.2488715278 0.4488715277 -0.2959856064 0.4959856063 -0.2937251984 0.4937251983 0.4366543320 -0.2366543322 0.1476258349 0.0633690383 -0.2447703286 0.0515581011 0.1358148977 0.4447703285 0.1981456855 0.0018543144 -0.2341765873 0.4341765872 -0.3217881945 0.5217881944 0.4427589861 0.0097222222 0.1902777777 0.5646305225 -0.3646305225 -0.3621527778 0.5621527777 0.4424141778 0.1500053816 0.0657485849 -0.3156756528 0.5156756527 0.3138933351 -0.1147093990 0.1342514150 -0.2040891176 0.0499946183 0.4913690476 -0.0371007861 0.2354686583 -0.3259606542 0.5449404762 -0.3449404762 0.5449404761 -0.3449404762 -0.2884134648 0.3976562499 -0.3109375000 -0.1976562500 0.5109374998 -0.2867187500 0.4867187500 0.4705729166 -0.2705729167 0.1616839361 0.5153308445 -0.3156756527 0.5646305225 -0.3646305226 0.5156756527 0.0366839361 -0.3109375000 0.5109374999 0.5156756527 0.5449404762 -0.3449404762 0.5449404762 -0.3449404762 0.4720238095 -0.2720238095 0.4720238095 -0.2720238095 -0.3596354167 0.5596354167 0.3512152777 0.3638213383 -0.2998298524 -0.1512152778 -0.3487847222 -0.1638213383 0.5487847221 0.4998298523 -0.2770057844 -0.3510451302 0.5510451302 0.5156756527 -0.3156756527 -0.0616829534 0.2624990171 0.5153308445 0.2883680555 0.2243045727 -0.0883680556 -0.3621527778 0.5621527777 0.5646305225 -0.3646305225 0.5084201388 -0.0921919463 -0.3084201389 -0.0757542986 0.2930080101 0.0398795466 0.1609365172 -0.3123752617 0.2765703623 -0.0234885090 0.2347212394 -0.0339051756 0.2005252321 0.0359365172 -0.3123752618 0.1648795466 -0.0161468161 0.3730034722 0.0002908316 -0.1730034722 -0.1769585951 0.2169628799 -0.2373298523 0.4528308445 0.4373298522 0.5153308445 0.3799141778 0.0121017688 0.1887142949 0.4459201389 -0.2459201389 -0.2498752617 -0.3613301316 0.5642857143 0.5596354167 -0.3596354167 0.0657485849 -0.0065714379 -0.0065714379 -0.0803561601 -0.0803561601 -0.0080361373 0.2936114413 0.2944275051 0.2175663112 0.2183823750 -0.1159464379 0.3244102831 0.2499286357 0.1738835055 0.4606161288 0.4606161288 -0.1690724207 0.3816784810 -0.1690724206 0.3816784811 -0.2558779762 -0.1473710318 -0.1473710318 -0.2558779762 -0.0602182540 -0.0602182540 0.4530439874 0.2680861617 0.2680861617 0.3577166842 0.3577166842 -0.2488715278 -0.2488715278 0.4959856063 0.4959856063 -0.2937251984 -0.2937251984 0.4366543320 0.4366543320 0.1476258350 0.0633690383 0.4470307364 0.1484418988 0.0641851021 0.1981456855 0.1981456855 -0.2341765874 -0.2341765873 -0.2425099206 -0.3217881945 -0.3217881945 0.4427589860 0.0097222222 0.0097222222 -0.1085059616 0.5646305225 0.5646305225 -0.3621527778 -0.3621527778 0.4424141778 0.3169698069 0.1500053816 0.0657485849 0.5156756526 0.5156756526 0.0657485849 0.4040891176 -0.0323416929 0.1500053816 0.2424881595 0.4913690476 0.5259606540 0.5449404761 -0.3449404762 0.5449404761 -0.3449404762 0.0414430293 0.4884134649 -0.1976562500 -0.3109375000 -0.1976562500 -0.3109375000 -0.2867187500 -0.2867187500 -0.2705729167 -0.2705729167 0.5153308445 0.5156756526 0.5646305225 0.5646305225 0.5156756526 -0.3109375000 -0.3109375000 0.5156756527 0.1664430293 -0.3449404762 0.5449404762 0.5449404762 -0.3449404762 -0.2975694444 0.4720238095 -0.2720238095 0.4720238095 -0.2720238095 -0.3596354167 -0.3596354167 -0.1512152778 0.3638213382 -0.1512152778 -0.3487847222 0.3638213382 -0.3487847222 0.4770057842 0.5020902602 0.5510451301 0.5510451301 0.5156756527 0.5156756527 -0.0616829534 -0.0624990172 0.5153308445 -0.0883680556 -0.0243045728 -0.0883680556 -0.3621527778 -0.3621527778 0.5646305225 0.5646305225 -0.3084201389 0.2921919463 -0.3084201389 0.2757542985 0.2930080101 0.0398795466 0.0390634828 0.5123752617 0.2765703623 -0.0234885090 -0.0347212394 -0.2350694444 -0.0339051756 0.2005252321 0.1640634828 0.5123752617 0.1648795466 0.2161468161 -0.1730034722 0.1997091683 -0.1730034722 0.3769585951 0.2169628799 0.4528308445 0.5153308445 0.3799141778 0.4395902602 0.0121017688 0.0112857050 -0.2459201389 -0.2459201389 0.4498752617 0.5613301315 0.5642857143 -0.3596354167 -0.3596354167 0.0657485849 -0.0065714379 -0.0065714379 -0.0803561600 -0.0803561601 -0.0080361373 0.2936114414 0.2944275051 0.2175663112 0.2183823750 -0.1159464378 0.3244102831 0.2499286357 0.1738835056 0.4606161288 0.4606161289 -0.1690724206 0.3816784811 -0.1690724206 0.3816784811 -0.2558779762 -0.1473710318 -0.1473710318 -0.2558779762 -0.0602182540 -0.0602182540 0.4530439874 0.2680861617 0.2680861617 0.3577166842 0.3577166842 -0.2488715278 -0.2488715278 0.4959856063 0.4959856063 -0.2937251984 -0.2937251984 0.4366543320 0.4366543320 0.1476258350 0.0633690383 0.4470307365 0.1484418988 0.0641851021 0.1981456855 0.1981456855 -0.2341765873 -0.2341765873 -0.2425099206 -0.3217881944 -0.3217881944 0.4427589861 0.0097222222 0.0097222222 -0.1085059616 0.5646305225 0.5646305225 -0.3621527778 -0.3621527778 0.4424141778 0.3169698069 0.1500053816 0.0657485850 0.5156756526 0.5156756527 0.0657485850 0.4040891176 -0.0323416928 0.1500053816 0.2424881595 0.4913690476 0.5259606541 0.5449404762 -0.3449404762 0.5449404761 -0.3449404762 0.0414430294 0.4884134649 -0.1976562500 -0.3109375000 -0.1976562500 -0.3109375000 -0.2867187500 -0.2867187500 -0.2705729166 -0.2705729166 0.5153308445 0.5156756526 0.5646305225 0.5646305225 0.5156756527 -0.3109374999 -0.3109374999 0.5156756527 0.1664430293 -0.3449404762 0.5449404762 0.5449404762 -0.3449404762 -0.2975694444 0.4720238095 -0.2720238095 0.4720238095 -0.2720238095 -0.3596354167 -0.3596354167 -0.1512152778 0.3638213383 -0.1512152778 -0.3487847222 0.3638213382 -0.3487847222 0.4770057842 0.5020902603 0.5510451301 0.5510451302 0.5156756527 0.5156756527 -0.0616829534 -0.0624990172 0.5153308445 -0.0883680556 -0.0243045728 -0.0883680556 -0.3621527778 -0.3621527778 0.5646305225 0.5646305225 -0.3084201389 0.2921919463 -0.3084201389 0.2757542985 0.2930080101 0.0398795466 0.0390634828 0.5123752617 0.2765703624 -0.0234885090 -0.0347212394 -0.2350694443 -0.0339051756 0.2005252321 0.1640634828 0.5123752617 0.1648795466 0.2161468161 -0.1730034722 0.1997091683 -0.1730034722 0.3769585951 0.2169628799 0.4528308445 0.5153308445 0.3799141778 0.4395902602 0.0121017688 0.0112857050 -0.2459201389 -0.2459201389 0.4498752617 0.5613301315 0.5642857143 -0.3596354167 -0.3596354167 0.2096984034 -0.0105144672 0.0609894917 0.2834831256 0.1373783806 -0.0842991894 0.2936114414 -0.0127952305 -0.0944275052 0.2111631028 0.2175663112 -0.0183823750 0.3213338113 -0.1221498752 -0.2606161289 0.4606161289 -0.1690724206 -0.1816784811 0.3690724205 0.3816784811 -0.2558779762 0.3473710317 -0.1473710317 0.4558779761 0.2602182539 -0.0602182540 -0.0680861618 0.2680861617 -0.2513492726 -0.2505662427 -0.1577166843 0.3577166843 0.4488715277 -0.2959856064 0.4959856063 -0.2937251984 0.4937251983 0.4366543321 -0.2366543321 0.1476258350 0.0633690383 -0.2447703286 0.0515581011 0.1358148978 0.4447703285 0.1981456855 0.0018543144 -0.2341765873 0.4341765872 0.5217881944 0.4427589861 0.0097222222 0.1902777777 0.5646305225 -0.3646305225 -0.3621527778 0.5621527777 0.4424141778 0.1500053817 0.0657485850 -0.3156756527 0.5156756527 0.3138933351 -0.1147093990 0.1342514150 0.0499946183 -0.1993509649 0.4913690476 -0.0371007860 0.2354686583 0.5449404762 -0.3449404762 0.5449404761 -0.3449404762 -0.2023944027 -0.2884134648 -0.2753110694 0.3976562500 -0.3234829093 -0.3109375000 0.5109374999 -0.2867187500 0.4867187500 -0.3242659392 0.4705729166 0.1616839361 0.5153308445 -0.3156756527 -0.3621527778 0.5646305225 -0.3646305225 0.5156756527 0.0366839362 -0.3109374999 0.5109374999 -0.3242659392 0.5156756528 0.5449404762 -0.3449404762 -0.3449404762 0.5449404762 0.4720238095 -0.2720238095 -0.2720238095 0.4720238095 0.5596354167 0.3512152777 0.3638213383 -0.2998298523 -0.1512152778 -0.3487847222 -0.1638213383 0.5487847221 0.4998298523 -0.2722676315 -0.3510451302 0.5510451302 0.5156756527 -0.0616829534 0.2624990171 -0.3109375000 -0.3101148537 0.5153308445 0.2883680555 0.2243045727 -0.0883680556 -0.3621527778 0.5621527777 0.5646305225 -0.3646305225 0.5084201388 -0.0921919463 -0.0757542986 0.2930080101 0.0398795466 -0.3101148538 0.1609365172 0.2765703624 -0.0234885089 0.2347212394 -0.0339051756 0.2005252322 -0.1752638802 0.0359365172 -0.3106805469 0.1648795466 -0.0161468161 0.3730034722 0.0002908316 0.2169628799 -0.2373298523 0.4528308445 -0.1746981871 0.4373298523 0.5153308445 -0.2476148537 0.3799141778 0.0121017688 0.1887142949 0.4459201389 -0.3596354167 -0.2481805469 0.5642857143 0.5596354167 -0.3613301315 
</DataArray>
<DataArray type="Float64" Name="piezo_head_p0" format="ascii">