<?xml version="1.0"?>
<VTKFile type="UnstructuredGrid" version="0.1" byte_order="LittleEndian">
<UnstructuredGrid>
<Piece NumberOfPoints="2400" NumberOfCells="800">
<Points>
<DataArray type="Float64" NumberOfComponents="3" format="ascii">
0.050000000000000037 0 0 0 0.049999999999899652 0 0 0 0 0.050000000000000037 0 0 0.050000000000000037 0.049999999999899652 0 0 0.049999999999899652 0 0.050000000000000037 0.049999999999899652 0 0 0.099999999999814668 0 0 0.049999999999899652 0 0.050000000000000037 0.099999999999814668 0 0 0.14999999999970359 0 0 0.099999999999814668 0 0.050000000000000037 0.049999999999899652 0 0.050000000000000037 0.099999999999814668 0 0 0.099999999999814668 0 0.099999999999999978 0.049999999999899652 0 0.050000000000000037 0.099999999999814668 0 0.050000000000000037 0.049999999999899652 0 0.099999999999999978 0.049999999999899652 0 0.099999999999999978 0.099999999999814668 0 0.050000000000000037 0.099999999999814668 0 0.099999999999999978 0.099999999999814668 0 0.050000000000000037 0.14999999999970359 0 0.050000000000000037 0.099999999999814668 0 0.14999999999999999 0.099999999999814668 0 0.099999999999999978 0.14999999999970359 0 0.099999999999999978 0.099999999999814668 0 0.14999999999999999 0.049999999999899652 0 0.099999999999999978 0.099999999999814668 0 0.099999999999999978 0.049999999999899652 0 0.14999999999999999 0 0 0.099999999999999978 0.049999999999899652 0 0.099999999999999978 0 0 0.099999999999999978 0 0 0.050000000000000037 0.049999999999899652 0 0.050000000000000037 0 0 0.099999999999999978 0 0 0.099999999999999978 0.049999999999899652 0 0.050000000000000037 0.049999999999899652 0 0.050000000000000037 0.19999999999955789 0 0.050000000000000037 0.24999999999941211 0 0 0.24999999999941211 0 0.050000000000000037 0.19999999999955789 0 0 0.24999999999941211 0 0 0.19999999999955789 0 0.050000000000000037 0.14999999999970359 0 0.050000000000000037 0.19999999999955789 0 0 0.19999999999955789 0 0.050000000000000037 0.14999999999970359 0 0 0.19999999999955789 0 0 0.14999999999970359 0 0.050000000000000037 0.099999999999814668 0 0.050000000000000037 0.14999999999970359 0 0 0.14999999999970359 0 0.099999999999999978 0.099999999999814668 0 0.099999999999999978 0.14999999999970359 0 0.050000000000000037 0.14999999999970359 0 0.14999999999999999 0.14999999999970359 0 0.099999999999999978 0.19999999999955789 0 0.099999999999999978 0.14999999999970359 0 0.099999999999999978 0.14999999999970359 0 0.099999999999999978 0.19999999999955789 0 0.050000000000000037 0.19999999999955789 0 0.099999999999999978 0.14999999999970359 0 0.050000000000000037 0.19999999999955789 0 0.050000000000000037 0.14999999999970359 0 0.099999999999999978 0.19999999999955789 0 0.050000000000000037 0.24999999999941211 0 0.050000000000000037 0.19999999999955789 0 0.14999999999999999 0.19999999999955789 0 0.099999999999999978 0.24999999999941211 0 0.099999999999999978 0.19999999999955789 0 0.099999999999999978 0.19999999999955789 0 0.099999999999999978 0.24999999999941211 0 0.050000000000000037 0.24999999999941211 0 0.20000000000000001 0.19999999999955789 0 0.20000000000000001 0.24999999999941211 0 0.14999999999999999 0.24999999999941211 0 0.14999999999999999 0.19999999999955789 0 0.14999999999999999 0.24999999999941211 0 0.099999999999999978 0.24999999999941211 0 0.20000000000000001 0.19999999999955789 0 0.14999999999999999 0.24999999999941211 0 0.14999999999999999 0.19999999999955789 0 0.20000000000000001 0.14999999999970359 0 0.20000000000000001 0.19999999999955789 0 0.14999999999999999 0.19999999999955789 0 0.20000000000000001 0.14999999999970359 0 0.14999999999999999 0.19999999999955789 0 0.14999999999999999 0.14999999999970359 0 0.14999999999999999 0.14999999999970359 0 0.14999999999999999 0.19999999999955789 0 0.099999999999999978 0.19999999999955789 0 0.14999999999999999 0.099999999999814668 0 0.14999999999999999 0.14999999999970359 0 0.099999999999999978 0.14999999999970359 0 0.20000000000000001 0.099999999999814668 0 0.20000000000000001 0.14999999999970359 0 0.14999999999999999 0.14999999999970359 0 0.25 0.099999999999814668 0 0.25 0.14999999999970359 0 0.20000000000000001 0.14999999999970359 0 0.25 0.14999999999970359 0 0.25 0.19999999999955789 0 0.20000000000000001 0.19999999999955789 0 0.25 0.14999999999970359 0 0.20000000000000001 0.19999999999955789 0 0.20000000000000001 0.14999999999970359 0 0.25 0.19999999999955789 0 0.20000000000000001 0.24999999999941211 0 0.20000000000000001 0.19999999999955789 0 0.25 0.19999999999955789 0 0.25 0.24999999999941211 0 0.20000000000000001 0.24999999999941211 0 0.20000000000000001 0 0 0.20000000000000001 0.049999999999899652 0 0.14999999999999999 0.049999999999899652 0 0.20000000000000001 0 0 0.14999999999999999 0.049999999999899652 0 0.14999999999999999 0 0 0.14999999999999999 0 0 0.14999999999999999 0.049999999999899652 0 0.099999999999999978 0.049999999999899652 0 0.14999999999999999 0.049999999999899652 0 0.14999999999999999 0.099999999999814668 0 0.099999999999999978 0.099999999999814668 0 0.20000000000000001 0.099999999999814668 0 0.14999999999999999 0.14999999999970359 0 0.14999999999999999 0.099999999999814668 0 0.20000000000000001 0.049999999999899652 0 0.14999999999999999 0.099999999999814668 0 0.14999999999999999 0.049999999999899652 0 0.20000000000000001 0.049999999999899652 0 0.20000000000000001 0.099999999999814668 0 0.14999999999999999 0.099999999999814668 0 0.25 0.049999999999899652 0 0.20000000000000001 0.099999999999814668 0 0.20000000000000001 0.049999999999899652 0 0.25 0.099999999999814668 0 0.20000000000000001 0.14999999999970359 0 0.20000000000000001 0.099999999999814668 0 0.25 0.049999999999899652 0 0.25 0.099999999999814668 0 0.20000000000000001 0.099999999999814668 0 0.25 0 0 0.25 0.049999999999899652 0 0.20000000000000001 0.049999999999899652 0 0.25 0 0 0.20000000000000001 0.049999999999899652 0 0.20000000000000001 0 0 0.29999999999999999 0 0 0.25 0.049999999999899652 0 0.25 0 0 0.29999999999999999 0 0 0.29999999999999999 0.049999999999899652 0 0.25 0.049999999999899652 0 0.34999999999999998 0 0 0.29999999999999999 0.049999999999899652 0 0.29999999999999999 0 0 0.34999999999999998 0 0 0.34999999999999998 0.049999999999899652 0 0.29999999999999999 0.049999999999899652 0 0.40000000000000002 0 0 0.34999999999999998 0.049999999999899652 0 0.34999999999999998 0 0 0.40000000000000002 0.099999999999814668 0 0.34999999999999998 0.14999999999970359 0 0.34999999999999998 0.099999999999814668 0 0.40000000000000002 0.049999999999899652 0 0.34999999999999998 0.099999999999814668 0 0.34999999999999998 0.049999999999899652 0 0.34999999999999998 0.049999999999899652 0 0.29999999999999999 0.099999999999814668 0 0.29999999999999999 0.049999999999899652 0 0.34999999999999998 0.049999999999899652 0 0.34999999999999998 0.099999999999814668 0 0.29999999999999999 0.099999999999814668 0 0.34999999999999998 0.099999999999814668 0 0.29999999999999999 0.14999999999970359 0 0.29999999999999999 0.099999999999814668 0 0.29999999999999999 0.049999999999899652 0 0.29999999999999999 0.099999999999814668 0 0.25 0.099999999999814668 0 0.29999999999999999 0.049999999999899652 0 0.25 0.099999999999814668 0 0.25 0.049999999999899652 0 0.29999999999999999 0.099999999999814668 0 0.25 0.14999999999970359 0 0.25 0.099999999999814668 0 0.29999999999999999 0.14999999999970359 0 0.25 0.19999999999955789 0 0.25 0.14999999999970359 0 0.29999999999999999 0.14999999999970359 0 0.29999999999999999 0.19999999999955789 0 0.25 0.19999999999955789 0 0.29999999999999999 0.099999999999814668 0 0.29999999999999999 0.14999999999970359 0 0.25 0.14999999999970359 0 0.29999999999999999 0.19999999999955789 0 0.25 0.24999999999941211 0 0.25 0.19999999999955789 0 0.29999999999999999 0.19999999999955789 0 0.29999999999999999 0.24999999999941211 0 0.25 0.24999999999941211 0 0.34999999999999998 0.19999999999955789 0 0.34999999999999998 0.24999999999941211 0 0.29999999999999999 0.24999999999941211 0 0.34999999999999998 0.19999999999955789 0 0.29999999999999999 0.24999999999941211 0 0.29999999999999999 0.19999999999955789 0 0.40000000000000002 0.19999999999955789 0 0.34999999999999998 0.24999999999941211 0 0.34999999999999998 0.19999999999955789 0 0.34999999999999998 0.099999999999814668 0 0.34999999999999998 0.14999999999970359 0 0.29999999999999999 0.14999999999970359 0 0.34999999999999998 0.14999999999970359 0 0.34999999999999998 0.19999999999955789 0 0.29999999999999999 0.19999999999955789 0 0.34999999999999998 0.14999999999970359 0 0.29999999999999999 0.19999999999955789 0 0.29999999999999999 0.14999999999970359 0 0.40000000000000002 0.14999999999970359 0 0.34999999999999998 0.19999999999955789 0 0.34999999999999998 0.14999999999970359 0 0.40000000000000002 0.099999999999814668 0 0.40000000000000002 0.14999999999970359 0 0.34999999999999998 0.14999999999970359 0 0.40000000000000002 0.14999999999970359 0 0.40000000000000002 0.19999999999955789 0 0.34999999999999998 0.19999999999955789 0 0.45000000000000001 0.14999999999970359 0 0.45000000000000001 0.19999999999955789 0 0.40000000000000002 0.19999999999955789 0 0.45000000000000001 0.14999999999970359 0 0.40000000000000002 0.19999999999955789 0 0.40000000000000002 0.14999999999970359 0 0.45000000000000001 0.099999999999814668 0 0.45000000000000001 0.14999999999970359 0 0.40000000000000002 0.14999999999970359 0 0.40000000000000002 0.19999999999955789 0 0.40000000000000002 0.24999999999941211 0 0.34999999999999998 0.24999999999941211 0 0.45000000000000001 0.19999999999955789 0 0.40000000000000002 0.24999999999941211 0 0.40000000000000002 0.19999999999955789 0 0.45000000000000001 0.19999999999955789 0 0.45000000000000001 0.24999999999941211 0 0.40000000000000002 0.24999999999941211 0 0.5 0.19999999999955789 0 0.45000000000000001 0.24999999999941211 0 0.45000000000000001 0.19999999999955789 0 0.5 0.19999999999955789 0 0.5 0.24999999999941211 0 0.45000000000000001 0.24999999999941211 0 0.5 0.14999999999970359 0 0.45000000000000001 0.19999999999955789 0 0.45000000000
[...]
<PointData Scalars="tracer_conc," Vectors="" Tensors="">
<DataArray type="Float64" Name="tracer_conc" format="ascii">
0.94338506699164681 1.556220880841193 1.0648771567297752 0.99479294208066016 1.3955021792886679 1.4950289936358165 1.3532604331303699 1.8738073577330592 1.5526520721964781 1.6548235980458088 1.9768315839168777 1.8146143641061028 1.4143714226907429 1.6630081484228971 1.8114598733971776 1.2837025895489498 1.6824555323156418 1.3998405066224415 1.31442564123517 1.549421110988306 1.6473567798259059 1.5381395791467427 1.8424178517228704 1.6622491759574511 1.4551415402210126 1.7288444603573503 1.5503696916551897 1.2358937020711163 1.5560375057060665 1.3118372312943554 0.98645892626503839 1.2950843552047884 1.0121211903603957 0.97802625808722443 1.3812594499401714 1.0233547273590125 0.9918436714977481 1.3092886191298854 1.360423120615017 1.9126579633227263 1.941247908565229 2.0060943719615891 1.9100756869463835 2.0085634671633108 1.9783132608652714 1.8372579964160178 1.8997919767227349 1.9933898610219163 1.8246801694274759 2.0050486596531987 1.9319840109886188 1.6874879612896472 1.8178778623976266 1.9457451152584659 1.5637710923119033 1.714565109452022 1.8170059839645358 1.6229578120624883 1.8317452485360244 1.7142074315485707 1.7287745303164499 1.8176899701834606 1.905453507193865 1.7134543706899983 1.9190529856227834 1.8163912704099767 1.8213208746657468 1.953865913814844 1.8989235485173006 1.7390799858586741 1.8895628444075478 1.8170834369481723 1.8286285619979898 1.8787260162911055 1.9482309676513148 1.6699114741568988 1.7424021456425056 1.8130426746333608 1.7471817383888779 1.8116490679872572 1.8824759885981304 1.6622428967252303 1.8201943600321511 1.7383795930149364 1.5574288872376545 1.6637638071503458 1.7371780546230262 1.5464373524004251 1.7481585449235215 1.6271104949150408 1.6364670331618918 1.738633121766491 1.8188380458065698 1.4733934684704844 1.6270206692581486 1.7097907720421539 1.4041232613371371 1.5516666821125407 1.6207828708913643 1.3478176364988002 1.4849647269245263 1.5450342910045647 1.4880320161776883 1.5925739256845335 1.6607844659132971 1.4793434018341003 1.6697295795647134 1.5518970772978422 1.589854599256642 1.748629227308498 1.6637051918668775 1.5966166079864976 1.6719872970395289 1.7420596614056003 0.9940952975015922 1.2142872185689568 1.2370477794860177 0.99040361234468022 1.2420426139652136 1.0077420988153674 0.99286040227458427 1.253975218525164 1.2857890183167211 1.2533638390540323 1.4661651211044204 1.5353580898094934 1.3912766571141368 1.6346352680860949 1.4670202430724575 1.2007539626820873 1.4669264554135697 1.2553266117930779 1.2114811718107239 1.401099304569932 1.4539623601121827 1.1725296113962249 1.3992488445486553 1.2151398205719266 1.3386381168800496 1.5551496554747446 1.4017733004375215 1.1795752092706273 1.3473292058275577 1.3906247679551145 0.99492847207312818 1.1833374449527083 1.2012994740519141 0.9925051632445423 1.2043079094313556 1.0056778564569202 0.99370839336869576 1.1746462378242002 1.0045555417314196 0.99543187270695044 1.1575031567343568 1.1727054724843819 0.99443842376740554 1.1496232110363631 1.0038829650400263 0.99573142461118014 1.1348099556443567 1.1483202769641514 0.99490811252040878 1.1274501199826239 1.0034484235751677 1.2127958175943288 1.365557148487502 1.2588570768309042 1.1067206855802953 1.2542824247541928 1.1351003864713556 1.1266978830323995 1.2968105012796265 1.1579191619454703 1.1302259495821045 1.2585751929154922 1.2924021878300127 1.2513576069274808 1.4233973555409412 1.3010483592680617 1.1532371572108246 1.3006616021600987 1.3381547854538143 1.1483528034607315 1.3441931307278756 1.1839245893697345 1.2928309870246504 1.4858543371226474 1.3478444821942783 1.4184893861529007 1.595884344201008 1.4852111006064643 1.4253105161352255 1.5242178787493683 1.5887010380486579 1.2995395165243961 1.4241967212940225 1.4783393368119273 1.5207603595970758 1.6761621845114596 1.5926038080395137 1.5265230864955095 1.6008557389324942 1.6703931741572857 1.4588849431325626 1.5292867753817143 1.5983607225560246 1.4540497304921098 1.6033208666463856 1.5242748485547888 1.3891655912252188 1.5303687530692969 1.4580275066795059 1.2563718901952858 1.3675010653295858 1.4176976477764958 1.3671851983673815 1.4579759829018193 1.5198076515813896 1.3618141648567013 1.5255726954287054 1.4244109658261441 1.3080745512555438 1.4578860053213447 1.3676664613459459 1.216615681320147 1.3137059741351296 1.3611490026858555 1.3123293884141047 1.3933946633070342 1.4532360817259882 1.259958788137493 1.3302718085806065 1.3884606058403834 1.2565749185755837 1.3922293841703275 1.3138193555132787 1.1792952435529298 1.2621319228452386 1.3075010069649979 1.3931944455269327 1.4575732928739089 1.5261441817183201 1.3258556062017421 1.4575527154377816 1.3934255015533648 1.3291941030349761 1.3860724547219514 1.4539756133834167 1.2640621383495261 1.3851789961931913 1.3302775078156706 1.2667961987602023 1.3151700939793665 1.3821795984060854 1.2069491631258686 1.3283002500512464 1.2621970232573638 1.209628257897055 1.2685698991327006 1.3252494540219306 1.1438472425035719 1.212407582019192 1.2560827862805271 1.1415690317518274 1.2588185919756132 1.1829255917012471 1.0701202998647357 1.1780298806682283 1.0950201463653564 1.0716442250959033 1.147755509168906 1.1760137826443664 0.99613137129095253 1.0767200674385768 1.0877558134051475 0.9954744778945962 1.0881662208845675 1.0029222033758385 0.99603969081881893 1.0949089355428057 1.1065343754568004 0.99523243317169163 1.1071474754646011 1.003146852081183 0.99591600357368282 1.1141532719330896 1.126557361583723 1.1093469549545416 1.2195769381248871 1.2509559529119674 1.1763479536447627 1.3109623369429413 1.219771943936431 1.0899442622693285 1.1828023388687012 1.2124230630457655 1.0879503766202865 1.2149951645842691 1.1143447005551246 1.4826724804150349 1.5809176038151862 1.5661284845354184 1.484100094165032 1.4957412411798576 1.5795311909691785 1.4621754160839309 1.4833032665144843 1.5655089061725249 1.5434286679214757 1.5662008088324177 1.6455178044728778 1.5672850690288957 1.57973686216536 1.6599169655741901 1.5808770302940307 1.5840208768367632 1.6645237357652367 1.4967595904007143 1.4996656453989543 1.58412053450251 1.49558142137755 1.5852733834203139 1.5796864665981705 1.4086936188656198 1.5008164900603744 1.4956751973607845 1.4099811174465804 1.4125377207249812 1.4995111176795297 1.3987750377043682 1.4091312217759822 1.4951656705434762 1.3972990175106752 1.4966564097093669 1.4832224282412412 1.379595145055472 1.3982794274064481 1.4821634985751004 1.3516612035266804 1.3794738438896497 1.4597242067924916 1.3494893407141983 1.4619816227482976 1.4295046427293585 1.3778040503700808 1.4839904155461603 1.4615230872986216 1.3142098048614115 1.3520037379308063 1.4267635756605668 1.3116844887809089 1.4294532309135173 1.3860296194803237 1.3828363273331521 1.5074314545827026 1.4575397964981092 1.3857895554091979 1.4295780147770389 1.5043673091893606 1.4581049667036015 1.506756180898408 1.5809550395883505 1.4603151606317759 1.5673406923598554 1.5423052042925818 1.4274100171236164 1.5434031757247113 1.5066855064843843 1.4298172260661379 1.4616080503439122 1.5409753355901961 1.5076579834630859 1.5423867740923456 1.6199109362092829 1.5415924272840917 1.6472505234955939 1.6206227904457606 1.5050735071754264 1.6224349228690071 1.5826771818275145 1.5843917550366919 1.6207006907745092 1.6953361770335733 1.5816979898171586 1.6978689390671486 1.656632251951127 1.6205186018419477 1.7222956597112042 1.6952848794850295 1.4547205987179559 1.5843774501950016 1.5292561977024783 1.530789900976931 1.58274901491622 1.6556994880507758 1.52697227066604 1.6594544501445772 1.6008126674078678 1.6034943726808717 1.6567145251009616 1.7277657219752356 1.5992750825746012 1.7317829710599777 1.6719051500375148 1.6591565276976072 1.6953616349342124 1.7660387856334829 1.656455464704613 1.768457187530424 1.7276878814203431 1.6958954781204605 1.791061041153942 1.7650888685173962 1.7211446807283679 1.8030923019660994 1.7885726744760018 1.7217953802276191 1.7340294808981276 1.802675623364085 1.6973745452217943 1.7202358405549676 1.7898624337373754 1.6222332279325562 1.6456447589558576 1.7207696997601565 1.6459788990780264 1.7356320269330989 1.7201907714968414 1.6469899466947602 1.6596685527965915 1.7347901179934659 1.5660141948824222 1.6610845909193548 1.6455849489750125 1.5799205314506743 1.6654083175403236 1.6596405402448184 1.6602405569275644 1.7396728666557539 1.734028705244546 1.6608751614571806 1.664115557575039 1.7391582371420193 1.7352376002601664 1.7384100249694032 1.8065373367464193 1.7350110968471399 1.8065980549491392 1.8014067759316996 1.8025132813606559 1.8054413059580194 1.865371839925821 1.8027594952430164 1.8649220218209936 1.8605096870640927 1.7903007580138273 1.8013768409369757 1.8622663953433518 1.7676060350199421 1.7886011732815266 1.8514874828346817 1.7901055727992252 1.8621717849226462 1.8494685608863468 1.8515485257000224 1.9118679047052369 1.9018025142519441 1.8512087480560644 1.8604466658332248 1.9125325306961114 1.8316770198765731 1.8494773116297571 1.9044966465121358 1.8883373717764356 1.9017850319510958 1.9479731402031106 1.9034054214518192 1.9102661128854619 1.9528322561333089 1.9110317556332606 1.9129914664292818 1.9539646538477855 1.8614342402372497 1.8639475755045447 1.9146915954097019 1.8621829566711308 1.9137170893049515 1.9103634741073161 1.6714026551067016 1.8003904583032215 1.7422418472893164 1.6759064833712172 1.7277943283932333 1.7962785890917101 1.728503236649531 1.8329300480067658 1.7949421956717602 1.7310461474582388 1.7651679548860602 1.8308103858634164 1.7665019483687852 1.8522205540000178 1.828853294281223 1.8311144142425626 1.9046133602854967 1.8854226625881805 1.8620436197399186 1.8855024201287685 1.9376533083027414 1.7969456629315821 1.8899870560623282 1.8573598056685519 1.7990706465463187 1.828935888666718 1.8884336534589927 1.7476752437074585 1.7950877784317159 1.8602050728238178 1.8181825761036436 1.8575525313527741 1.9181457130219599 1.7431676325688064 1.8640734156716803 1.8113635199645439 1.8835844971981395 1.9694086818411141 1.9409204863190632 1.8142131494390872 1.9211839890639162 1.87828155538226 1.8861168782069029 1.9138379425070711 1.9680786203527798 1.918416361786879 1.9337194871626386 1.9771787594921775 1.9183273793355036 1.976508421030283 1.9619100410642247 1.8607066779219263 1.9382898611606638 1.9136122986594748 1.8884937211367787 1.9473338641881335 1.933662342414151 1.9373673136167424 1.9798495083995828 1.9724897987190781 1.9773531506713955 2.002183272975254 2.0003769473720396 1.9688365906227205 2.0036681331075279 1.9991197170951671 1.9661894152319521 1.9723757763122942 2.0057993351291512 1.94892331168997 1.9619339183812881 2.0072467549371535 1.9503683071508193 2.0061414131450221 1.9943327350100806 1.9523610432278786 1.9813968699870894 1.9805371349101175 1.9507510164595037 1.9520787916555284 1.9832046327090782 1.9122601888403046 1.9525122721019619 1.9503947214730548 1.9043230723575379 1.9515893194977327 1.9447612622440986 1.9363462462295158 1.9447068532022616 1.9813275841459081 1.9460495928589572 1.950263484650689 1.9830227994406071 1.9475186996299099 1.981270347155015 1.9778911587538202 1.9787221319744808 1.9803466119441722 2.0035202661881391 1.9745795582419925 1.9777239103517714 2.0044139883834449 1.9813490470161597 2.0014014871609951 2.000720868721849 1.9830820694896545 2.0009588505953384 2.0008830720710398 1.9805868442812433 1.9812628922385587 2.0029974713131047 1.9833773334091602 2.0006463649674666 2.0010510783237967 1.9809339379148496 1.9807906549314778 2.0026884294589395 1.9535342739146193 1.9802884322718535 1.9814784166544586 1.9519488436213932 1.9506750875071648 1.9820394263432444 1.9143861850060662 1.9504381939880031 1.9522767728937054 1.9022216112692945 1.9338791659617969 1.9459671681443467 1.9112852012641297 1.9447865102894337 1.9509496495300955 1.9500364253228031 1.9455923368082546 1.979125974017953 1.9514367167661637 1.9775653797546207 1.9810520533575509 1.9454295397670927 1.9722099669464528 1.9790754210759436 1.979905949526483 1.9787305408658278 2.0024554546692994 1.9823635874254644 2.0003345479920647 2.0013096347144468 1.9796192492807747 1.9998396231926538 2.0017676617396032 1.9738993076133899 1.9985626681936979 2.0025544765971484 1.9717623546281906 1.9649202403338459 2.0005337478796221 1.9771680962688423 1.9741932713174168 2.0020363861285548 1.9623528184392198 1.9943327768031176 2.0034554608086621 1.961577570406581 1.9457196536550507 1.9949675089344341 1.9145434930828442 1.8814263140261893 1.9394203882687246 1.9123036352931897 1.9419178887843562 1.9656262196797885 1.855677189709225 1.8801477251772249 1.9166113383225531 1.9444932202299012 1.9351848305455663 1.9732935005741241 1.9336308078997111 1.9619513537858511 1.9746795407356024 1.9337279924022792 1.915968659155475 1.9619093603755544 1.8850165114975921 1.9143602166281217 1.9356879927161454 1.9020134816730778 1.8865179999399366 1.9341030198645712 1.8861597441180449 1.8588026369136244 1.9130537338147329 1.8282395139472216 1.8585647781972179 1.8869435866637081 1.830076635990376 1.7954597168579933 1.8564564962524215 1.8501038935650449 1.8293995128767826 1.8855341792745177 1.8591455348305925 1.8128237569474155 1.8761573077176004 1.7932266923807922 1.8136411833233395 1.8593033855414625 1.7971920236638719 1.7423475252852514 1.8090958905989365 1.7261536782027151 1.7446881545689781 1.7958266320976308 1.7301469034465198 1.6710375299171831 1.7401644642135972 1.764418493419373 1.7964276269607198 1.8297335365206724 1.7666382560481668 1.7274209037912616 1.7939062074051053 1.7895539957848261 1.7650965834839007 1.8287175165948857 1.7886319858122159 1.8297597294110568 1.8501230302217724 1.8020107620267056 1.8501038779156274 1.8608500591138324 1.8021173364634586 1.7886428122142117 1.8500103192029878 1.8062318077116271 1.801421879221921 1.8615163117604014 1.8065041017341832 1.8611290632194368 1.8640799071923355 1.8644386400214614 1.8606479714142337 1.9116116442331632 1.8652011512579547 1.9107071580818096 1.91316154919999 1.9131603981154603 1.9106015256464925 1.9518227102591348 1.9103640691028052 1.9024656608332746 1.9458100500338702 1.8496752741022997 1.8860341874946904 1.9027989139952006 1.8608805020236849 1.849850912172385 1.9026029771705082 1.8612740330877426 1.9021562340855922 1.9108481925745302 1.2562564858739613 1.0246666724259446 1.2997430721775065 1.3114826610171528 1.0437706205492931 1.3831611953175842 1.3365425275958951 0.99017789929554489 1.0271683671301397 1.4471297511427215 0.98112434961365347 1.0538747121917722 1.3870587986527183 1.103767651588728 1.5291400415752232 1.6935488146068851 1.3813732763852953 1.5283880021380498 1.6363902001020292 1.5948213562622593 1.8372961783137278 1.8304948921713258 1.6632045850636423 1.8016768800107095 1.7267227957081199 1.5465162058802748 1.6505194425974121 1.5698618463583558 1.2995193771228795 1.3893832753478392 1.5420773579621918 1.4212120220993176 1.6633877085898587 1.4626054190177828 1.3266821861699405 1.5460864188567973 1.6208804042361566 1.5616344002436489 1.7158576641782266 1.7330669530094469 1.7213549657542975 1.8209949198170226 1.8236352172131518 1.7157281343937751 1.8085504653221831 1.8106707018208079 1.8240378124615442 1.9068277470871327 1.7050227977994754 1.6767754527060634 1.8243458825081988 1.800488610439589 1.8357047773012878 1.9534442792381259 1.8918686694868023 1.9401173696381233 1.992535371461404 1.904207770895127 1.8232048591462362 1.9264493539187246 1.9421214707201195 1.9055573232012484 1.9769634760965453 1.9389478481224884 1.9805115136505078 2.0025254519647144 1.8748475244149916 1.9021669694402334 1.9467201866302766 1.8811324810824994 1.8203719731860208 1.894854398447954 1.8079312299864894 1.8209976594866997 1.8821563681707527 1.8150054603447336 1.739070467640659 1.8127833568821468 1.7460610334348343 1.6627780025119143 1.7345848866675451 1.7392685763271674 1.7423594176738331 1.8133319363084761 1.6695477780369681 1.667542398140238 1.7426849404857137 1.6756141763134824 1.5907249600811333 1.6607183333330613 1.5898126067980567 1.557475933532606 1.6629905846056519 1.5977597386096718 1.481949646221574 1.5486760556103516 1.4828457206128554 1.4090588251669511 1.5491673769763485 1.547939818686874 1.4759919552738712 1.6257427160155333 1.669588949665799 1.5491796290107505 1.6222610165854479 1.6597291638022229 1.6334424717707965 1.7394468038056499 1.7449009086857414 1.6256721868607427 1.7075729201940475 1.6372174279860168 1.4619600946392259 1.5429151378808534 1.4797595023686934 1.246389721950393 1.3083376703676275 1.410717122285875 1.2080814280768775 1.2547385928082555 1.3996734953668639 1.266057278980089 1.4616431295363994 1.5598820169691201 1.3967546719401087 1.4628284557014677 1.4916062395322054 1.3430805618161139 1.3996825008336606 1.3545101290927368 1.1779566106126884 1.2157965094442937 1.3470841974779446 1.2231577778190652 1.3964414507515024 1.1855819706687498 1.0111300899273505 1.2076765353047911 1.1906304547027693 0.99618584997906245 1.0087953347145913 1.2244791484164881 0.99528192307105035 1.0115452384794366 1.2166199824950292 1.0157153969935051 1.2461011804772475 1.2696658552732389 0.99360863237176766 1.016706155426732 1.1161565393728441 1.0061022985915569 1.1299859151904035 1.1368726050900309 1.0070695727812964 1.1522948138342235 1.139450881983453 0.99701043925178501 1.0062734618458624 1.1631453586464824 0.99670124720593911 1.0072262115789026 1.1596461386774257 1.0085864883696423 1.1775699221136064 1.3062813696012723 1.1526240956469558 1.1851581838533094 1.3011046475233232 1.1901437130171242 1.3427873748772687 1.429660555259554 1.296534103235373 1.3470580631681577 1.3720907138106631 1.2545546068201781 1.3010814094411669 1.2594409414291903 1.1629282858559653 1.2962735616314081 1.2631555934761975 1.1302493677112622 1.1594488679843467 1.2207137165045481 1.1392736606247296 1.2543328572998023 1.3139184627650264 1.2631435467984631 1.3640028156481467 1.3929543928122998 1.3714956462003938 1.4552859046994735 1.4619941964026 1.3641159328353292 1.4233914856016918 1.4569689506085668 1.4287394446162367 1.5218803275821675 1.3672032768189342 1.3060788046448122 1.4208276194446854 1.4231608278112637 1.3538487192842887 1.4818794251860219 1.5224538295550019 1.4901209762108236 1.5908274336150008 1.5287809624674111 1.4209294871193683 1.4832595524103613 1.6043020863805582 1.5218521565436895 1.5904449501929949 1.5990780487334875 1.5962209595762995 1.6712482467351988 1.5280806101621589 1.5276435977015763 1.5994060471685549 1.5324979498934572 1.4553050599750059 1.5228394926328934 1.4568363136788358 1.4611401016752097 1.5273612779007464 1.460535190552861 1.3905532608220117 1.4571795747824381 1.3887838880179268 1.3273501936423935 1.3930401324367325 1.385712802755394 1.3962815870600449 1.4553457310635474 1.3151180708663042 1.3328758769393119 1.3836720148616446 1.317629000994601 1.26562952715354 1.3302583695861818 1.268878712700289 1.2652167333436037 1.3272946730145789 1.2713786886903029 1.209022908294259 1.2626850509037157 1.2132392821086726 1.1861680390056357 1.2586138280393575 1.262703245233894 1.2234795442836666 1.3101682860911197 1.3334310507861193 1.2587095574668625 1.3139524223270516 1.3302558194592591 1.3172181497340554 1.3905075964603606 1.3969500729798838 1.3102780405617733 1.3673173088341091 1.3176374148037668 1.2156512775392914 1.2594184298743611 1.2234378495403873 1.1098100493049368 1.1367957961296355 1.1841181713836959 1.1179187949144407 1.2154708843323077 1.1861424751627569 1.0907293989096807 1.1161375531656577 1.2655526594383706 1.1789678163580213 1.220683829864321 1.2154138196043049 1.144011596088818 1.1840796119459926 1.1506979260400103 1.0726747064380346 1.0968726349327456 1.1491938686543979 1.0981446714824714 1.1788296096518334 1.0786397811445367 1.004962508651843 1.0905904590186626 1.0799604173456474 0.99744647480110582 1.0049101903047091 1.0984680001964919 0.99734401128203642 1.0052293030448582 1.0968663418036244 1.005442913256221 1.1096110843603901 1.1181509118855213 0.99720766554917162 1.0056571515560375 1.65994827