<?xml version="1.0"?>
<VTKFile type="UnstructuredGrid" version="0.1" byte_order="LittleEndian">
<UnstructuredGrid>
<Piece NumberOfPoints="2400" NumberOfCells="800">
<Points>
<DataArray type="Float64" NumberOfComponents="3" format="ascii">
1.0000000000 0.0000000000 0.0000000000 1.0000000000 0.0500000000 0.0000000000 0.9500000000 0.0500000000 0.0000000000 1.0000000000 0.0000000000 0.0000000000 0.9500000000 0.0500000000 0.0000000000 0.9500000000 0.0000000000 0.0000000000 0.9500000000 0.0000000000 0.0000000000 0.9500000000 0.0500000000 0.0000000000 0.9000000000 0.0500000000 0.0000000000 0.9500000000 0.0000000000 0.0000000000 0.9000000000 0.0500000000 0.0000000000 0.9000000000 0.0000000000 0.0000000000 0.9000000000 0.0000000000 0.0000000000 0.9000000000 0.0500000000 0.0000000000 0.8500000000 0.0500000000 0.0000000000 0.9000000000 0.0000000000 0.0000000000 0.8500000000 0.0500000000 0.0000000000 0.8500000000 0.0000000000 0.0000000000 0.8500000000 0.0000000000 0.0000000000 0.8500000000 0.0500000000 0.0000000000 0.8000000000 0.0500000000 0.0000000000 0.8500000000 0.0000000000 0.0000000000 0.8000000000 0.0500000000 0.0000000000 0.8000000000 0.0000000000 0.0000000000 0.8000000000 0.0000000000 0.0000000000 0.8000000000 0.0500000000 0.0000000000 0.7500000000 0.0500000000 0.0000000000 0.8000000000 0.0000000000 0.0000000000 0.7500000000 0.0500000000 0.0000000000 0.7500000000 0.0000000000 0.0000000000 0.7500000000 0.0000000000 0.0000000000 0.7500000000 0.0500000000 0.0000000000 0.7000000000 0.0500000000 0.0000000000 0.7500000000 0.0000000000 0.0000000000 0.7000000000 0.0500000000 0.0000000000 0.7000000000 0.0000000000 0.0000000000 0.7000000000 0.0000000000 0.0000000000 0.7000000000 0.0500000000 0.0000000000 0.6500000000 0.0500000000 0.0000000000 0.7000000000 0.0000000000 0.0000000000 0.6500000000 0.0500000000 0.0000000000 0.6500000000 0.0000000000 0.0000000000 0.6500000000 0.0000000000 0.0000000000 0.6500000000 0.0500000000 0.0000000000 0.6000000000 0.0500000000 0.0000000000 0.6500000000 0.0000000000 0.0000000000 0.6000000000 0.0500000000 0.0000000000 0.6000000000 0.0000000000 0.0000000000 0.6000000000 0.0000000000 0.0000000000 0.6000000000 0.0500000000 0.0000000000 0.5500000000 0.0500000000 0.0000000000 0.6000000000 0.0000000000 0.0000000000 0.5500000000 0.0500000000 0.0000000000 0.5500000000 0.0000000000 0.0000000000 0.5500000000 0.0000000000 0.0000000000 0.5500000000 0.0500000000 0.0000000000 0.5000000000 0.0500000000 0.0000000000 0.5500000000 0.0000000000 0.0000000000 0.5000000000 0.0500000000 0.0000000000 0.5000000000 0.0000000000 0.0000000000 0.5000000000 0.0000000000 0.0000000000 0.5000000000 0.0500000000 0.0000000000 0.4500000000 0.0500000000 0.0000000000 0.5000000000 0.0000000000 0.0000000000 0.4500000000 0.0500000000 0.0000000000 0.4500000000 0.0000000000 0.0000000000 0.4500000000 0.0000000000 0.0000000000 0.4500000000 0.0500000000 0.0000000000 0.4000000000 0.0500000000 0.0000000000 0.4500000000 0.0000000000 0.0000000000 0.4000000000 0.0500000000 0.0000000000 0.4000000000 0.0000000000 0.0000000000 0.4000000000 0.0000000000 0.0000000000 0.4000000000 0.0500000000 0.0000000000 0.3500000000 0.0500000000 0.0000000000 0.4000000000 0.0000000000 0.0000000000 0.3500000000 0.0500000000 0.0000000000 0.3500000000 0.0000000000 0.0000000000 0.3500000000 0.0000000000 0.0000000000 0.3500000000 0.0500000000 0.0000000000 0.3000000000 0.0500000000 0.0000000000 0.3500000000 0.0000000000 0.0000000000 0.3000000000 0.0500000000 0.0000000000 0.3000000000 0.0000000000 0.0000000000 0.3000000000 0.0000000000 0.0000000000 0.3000000000 0.0500000000 0.0000000000 0.2500000000 0.0500000000 0.0000000000 0.3000000000 0.0000000000 0.0000000000 0.2500000000 0.0500000000 0.0000000000 0.2500000000 0.0000000000 0.0000000000 0.2500000000 0.0000000000 0.0000000000 0.2500000000 0.0500000000 0.0000000000 0.2000000000 0.0500000000 0.0000000000 0.2500000000 0.0000000000 0.0000000000 0.2000000000 0.0500000000 0.0000000000 0.2000000000 0.0000000000 0.0000000000 0.2000000000 0.0000000000 0.0000000000 0.2000000000 0.0500000000 0.0000000000 0.1500000000 0.0500000000 0.0000000000 0.2000000000 0.0000000000 0.0000000000 0.1500000000 0.0500000000 0.0000000000 0.1500000000 0.0000000000 0.0000000000 0.1500000000 0.0000000000 0.0000000000 0.1500000000 0.0500000000 0.0000000000 0.1000000000 0.0500000000 0.0000000000 0.1500000000 0.0000000000 0.0000000000 0.1000000000 0.0500000000 0.0000000000 0.1000000000 0.0000000000 0.0000000000 0.1000000000 0.0000000000 0.0000000000 0.1000000000 0.0500000000 0.0000000000 0.0500000000 0.0500000000 0.0000000000 0.1000000000 0.0000000000 0.0000000000 0.0500000000 0.0500000000 0.0000000000 0.0500000000 0.0000000000 0.0000000000 0.0500000000 0.0000000000 0.0000000000 0.0500000000 0.0500000000 0.0000000000 0.0000000000 0.0500000000 0.0000000000 0.0500000000 0.0000000000 0.0000000000 0.0000000000 0.0500000000 0.0000000000 0.0000000000 0.0000000000 0.0000000000 1.0000000000 0.0500000000 0.0000000000 1.0000000000 0.1000000000 0.0000000000 0.9500000000 0.1000000000 0.0000000000 1.0000000000 0.0500000000 0.0000000000 0.9500000000 0.1000000000 0.0000000000 0.9500000000 0.0500000000 0.0000000000 0.9500000000 0.0500000000 0.0000000000 0.9500000000 0.1000000000 0.0000000000 0.9000000000 0.1000000000 0.0000000000 0.9500000000 0.0500000000 0.0000000000 0.9000000000 0.1000000000 0.0000000000 0.9000000000 0.0500000000 0.0000000000 0.9000000000 0.0500000000 0.0000000000 0.9000000000 0.1000000000 0.0000000000 0.8500000000 0.1000000000 0.0000000000 0.9000000000 0.0500000000 0.0000000000 0.8500000000 0.1000000000 0.0000000000 0.8500000000 0.0500000000 0.0000000000 0.8500000000 0.0500000000 0.0000000000 0.8500000000 0.1000000000 0.0000000000 0.8000000000 0.1000000000 0.0000000000 0.8500000000 0.0500000000 0.0000000000 0.8000000000 0.1000000000 0.0000000000 0.8000000000 0.0500000000 0.0000000000 0.8000000000 0.0500000000 0.0000000000 0.8000000000 0.1000000000 0.0000000000 0.7500000000 0.1000000000 0.0000000000 0.8000000000 0.0500000000 0.0000000000 0.7500000000 0.1000000000 0.0000000000 0.7500000000 0.0500000000 0.0000000000 0.7500000000 0.0500000000 0.0000000000 0.7500000000 0.1000000000 0.0000000000 0.7000000000 0.1000000000 0.0000000000 0.7500000000 0.0500000000 0.0000000000 0.7000000000 0.1000000000 0.0000000000 0.7000000000 0.0500000000 0.0000000000 0.7000000000 0.0500000000 0.0000000000 0.7000000000 0.1000000000 0.0000000000 0.6500000000 0.1000000000 0.0000000000 0.7000000000 0.0500000000 0.0000000000 0.6500000000 0.1000000000 0.0000000000 0.6500000000 0.0500000000 0.0000000000 0.6500000000 0.0500000000 0.0000000000 0.6500000000 0.1000000000 0.0000000000 0.6000000000 0.1000000000 0.0000000000 0.6500000000 0.0500000000 0.0000000000 0.6000000000 0.1000000000 0.0000000000 0.6000000000 0.0500000000 0.0000000000 0.6000000000 0.0500000000 0.0000000000 0.6000000000 0.1000000000 0.0000000000 0.5500000000 0.1000000000 0.0000000000 0.6000000000 0.0500000000 0.0000000000 0.5500000000 0.1000000000 0.0000000000 0.5500000000 0.0500000000 0.0000000000 0.5500000000 0.0500000000 0.0000000000 0.5500000000 0.1000000000 0.0000000000 0.5000000000 0.1000000000 0.0000000000 0.5500000000 0.0500000000 0.0000000000 0.5000000000 0.1000000000 0.0000000000 0.5000000000 0.0500000000 0.0000000000 0.5000000000 0.0500000000 0.0000000000 0.5000000000 0.1000000000 0.0000000000 0.4500000000 0.1000000000 0.0000000000 0.5000000000 0.0500000000 0.0000000000 0.4500000000 0.1000000000 0.0000000000 0.4500000000 0.0500000000 0.0000000000 0.4500000000 0.0500000000 0.0000000000 0.4500000000 0.1000000000 0.0000000000 0.4000000000 0.1000000000 0.0000000000 0.4500000000 0.0500000000 0.0000000000 0.4000000000 0.1000000000 0.0000000000 0.4000000000 0.0500000000 0.0000000000 0.4000000000 0.0500000000 0.0000000000 0.4000000000 0.1000000000 0.0000000000 0.3500000000 0.1000000000 0.0000000000 0.4000000000 0.0500000000 0.0000000000 0.3500000000 0.1000000000 0.0000000000 0.3500000000 0.0500000000 0.0000000000 0.3500000000 0.0500000000 0.0000000000 0.3500000000 0.1000000000 0.0000000000 0.3000000000 0.1000000000 0.0000000000 0.3500000000 0.0500000000 0.0000000000 0.3000000000 0.1000000000 0.0000000000 0.3000000000 0.0500000000 0.0000000000 0.3000000000 0.0500000000 0.0000000000 0.3000000000 0.1000000000 0.0000000000 0.2500000000 0.1000000000 0.0000000000 0.3000000000 0.0500000000 0.0000000000 0.2500000000 0.1000000000 0.0000000000 0.2500000000 0.0500000000 0.0000000000 0.2500000000 0.0500000000 0.0000000000 0.2500000000 0.1000000000 0.0000000000 0.2000000000 0.1000000000 0.0000000000 0.2500000000 0.0500000000 0.0000000000 0.2000000000 0.1000000000 0.0000000000 0.2000000000 0.0500000000 0.0000000000 0.2000000000 0.0500000000 0.0000000000 0.2000000000 0.1000000000 0.0000000000 0.1500000000 0.1000000000 0.0000000000 0.2000000000 0.0500000000 0.0000000000 0.1500000000 0.1000000000 0.0000000000 0.1500000000 0.0500000000 0.0000000000 0.1500000000 0.0500000000 0.0000000000 0.1500000000 0.1000000000 0.0000000000 0.1000000000 0.1000000000 0.0000000000 0.1500000000 0.0500000000 0.0000000000 0.1000000000 0.1000000000 0.0000000000 0.1000000000 0.0500000000 0.0000000000 0.1000000000 0.0500000000 0.0000000000 0.1000000000 0.1000000000 0.0000000000 0.0500000000 0.1000000000 0.0000000000 0.1000000000 0.0500000000 0.0000000000 0.0500000000 0.1000000000 0.0000000000 0.0500000000 0.0500000000 0.0000000000 0.0500000000 0.0500000000 0.0000000000 0.0500000000 0.1000000000 0.0000000000 0.0000000000 0.1000000000 0.0000000000 0.0500000000 0.0500000000 0.0000000000 0.0000000000 0.1000000000 0.0000000000 0.0000000000 0.0500000000 0.0000000000 1.0000000000 0.1000000000 0.0000000000 1.0000000000 0.1500000000 0.0000000000 0.9500000000 0.1500000000 0.0000000000 1.0000000000 0.1000000000 0.0000000000 0.9500000000 0.1500000000 0.0000000000 0.9500000000 0.1000000000 0.0000000000 0.9500000000 0.1000000000 0.0000000000 0.9500000000 0.1500000000 0.0000000000 0.9000000000 0.1500000000 0.0000000000 0.9500000000 0.1000000000 0.0000000000 0.900000000
[...]
<PointData Scalars="tracer_conc," Vectors="" Tensors="">
<DataArray type="Float64" Name="tracer_conc" format="ascii">
0.8672649442 0.5296234531 0.7824346594 0.9239580313 0.6983758704 1.0340460538 0.9520050204 0.7913090872 0.8885660939 0.9687339878 0.8628897447 1.0154869652 0.9791546792 0.9037717026 0.9488736376 0.9848879120 0.9391128163 1.0078251319 0.9893362957 0.9596706448 0.9841058360 0.9914231360 0.9800367827 1.0046424907 0.9935206323 0.9921312387 1.0077792477 0.9942325628 1.0059906523 1.0032604164 0.9953378869 1.0143790511 1.0261742482 0.9954655192 1.0253906902 1.0026631250 0.9961457198 1.0321277610 1.0422620049 0.9959892686 1.0419672765 1.0024284459 0.9965005590 1.0479868353 1.0574812880 0.9961797496 1.0574574290 1.0023696115 0.9966455062 1.0631979085 1.0725502758 0.9962059096 1.0727085042 1.0024025123 0.9966892844 1.0783828115 1.0878587525 0.9961412607 1.0881732245 1.0024923042 0.9966773908 1.0938952290 1.1036738731 0.9960100340 1.1041558905 1.0026312734 0.9966216343 1.1100062494 1.1202660100 0.9958056910 1.1209568930 1.0028307224 0.9965117218 1.1270237243 1.1380095279 0.9954955636 1.1389854631 1.0031209025 0.9963176141 1.1453972705 1.1574962881 0.9950153887 1.1588866371 1.0035586806 0.9959854405 1.1658482654 1.1797059167 0.9942506768 1.1817365217 1.0042489364 0.9954284198 1.1895763284 1.2063151458 0.9929911851 1.2094132645 1.0054018927 0.9945247904 1.2186403147 1.2403436235 0.9908166592 1.2454247008 1.0075068685 0.9932085741 1.2567280253 1.2876797070 0.9867890480 1.2970540451 1.0119326348 0.9921065685 1.3107651402 1.3612423810 0.9782730892 1.3821454129 1.0232128771 0.9949723111 1.3960259948 1.4951008867 0.9435438794 1.5563578006 1.0647671812 0.4112749634 0.2186130978 0.6958354561 0.5190972041 0.5747577687 0.7994959117 0.7395834203 0.6279185763 0.8258923159 0.7774431046 0.7909862956 0.9086827345 0.8777984009 0.8199747579 0.9202255650 0.8929534122 0.9057978803 0.9616617771 0.9451361134 0.9220230307 0.9797709873 0.9515341895 0.9736170639 0.9929783100 0.9829127436 0.9836691006 1.0221720405 0.9855588854 1.0197160675 1.0147481811 1.0076780766 1.0267844565 1.0565230941 1.0085791629 1.0558431697 1.0322945336 1.0266410947 1.0614557638 1.0873321697 1.0266465705 1.0875906588 1.0480769252 1.0431047894 1.0924776371 1.1168463532 1.0425804852 1.1176769845 1.0632735759 1.0586408411 1.1221795501 1.1462045247 1.0577336201 1.1474618781 1.0784778214 1.0740310095 1.1517279883 1.1760289624 1.0727765770 1.1776841394 1.0940302980 1.0897066807 1.1817637835 1.2067506116 1.0880715815 1.2088509898 1.1101966123 1.1059761078 1.2127424375 1.2388145130 1.1038676721 1.2414763037 1.1272835917 1.1231655960 1.2451459697 1.2728446686 1.1204203653 1.2762689315 1.1457436608 1.1417399887 1.2796522791 1.3098220406 1.1380879519 1.3143382282 1.1663064790 1.1624528817 1.3173171722 1.3513307984 1.1574401250 1.3574874019 1.1901914396 1.1865972389 1.3598214699 1.3999567718 1.1794210123 1.4087074833 1.2195071347 1.2165049638 1.4098542449 1.4599908808 1.2056488321 1.4730855140 1.2580814362 1.2566590708 1.4717391752 1.5387143695 1.2390669606 1.5595217479 1.3133058648 1.3163113484 1.5524493949 1.6487023272 1.2854808956 1.6839182628 1.4003566948 1.4151846496 1.6641345496 1.8114323993 1.3539556814 1.8739027421 1.5525318730 0.1858997334 0.0924144140 0.6153915648 0.2771885146 0.5043808966 0.6366737672 0.5966705807 0.5310104039 0.7791727326 0.6376274387 0.7427431245 0.8242445743 0.8000818750 0.7618160727 0.8992655463 0.8191950605 0.8818790510 0.9240799093 0.9096141210 0.8944258010 0.9782948955 0.9184082350 0.9702352369 0.9846628594 0.9754062302 0.9786983522 1.0367656444 0.9792465464 1.0333448098 1.0272648610 1.0207257793 1.0395023279 1.0853444616 1.0220855653 1.0843128995 1.0616969189 1.0565808734 1.0891948876 1.1294918671 1.0566055084 1.1297799026 1.0926175029 1.0882813989 1.1339243812 1.1719795657 1.0874963251 1.1730891571 1.1222899289 1.1184335204 1.1767490378 1.2142084664 1.1170617857 1.2159290447 1.1518482518 1.1483530689 1.2191959431 1.2569152146 1.1464575428 1.2591932396 1.1819173689 1.1787658395 1.2620636370 1.3005699675 1.1763097332 1.3034530535 1.2129452419 1.2101834864 1.3058589563 1.3456244110 1.2070493192 1.3492446102 1.2454110099 1.2431385727 1.3510603688 1.3926954917 1.2391212694 1.3972774018 1.2799928386 1.2783753405 1.3983051812 1.4427342072 1.2731523794 1.4486246079 1.3177496871 1.3170614542 1.4485521968 1.4972114505 1.3101344714 1.5049333797 1.3603686344 1.3610870479 1.5032470802 1.5583402676 1.3516836278 1.5686745018 1.4105461900 1.4135430351 1.5644959222 1.6293222897 1.4004743491 1.6433974977 1.4725993049 1.4795056607 1.6352067926 1.7144902324 1.4610429075 1.7337598136 1.5533919964 1.5672068260 1.7190325684 1.8188304988 1.5413878529 1.8444386107 1.6633702720 1.6889057227 1.8195687279 1.9456174533 1.6560362412 1.9768937854 1.8144681735 0.0864192021 0.0454762137 0.5612002706 0.1598951964 0.4661655049 0.5399173331 0.5138752085 0.4798505139 0.7480468265 0.5509454159 0.7145787634 0.7656075904 0.7483088969 0.7261846286 0.8855231687 0.7676548785 0.8679774173 0.8964789066 0.8848992733 0.8768789948 0.9793964212 0.8944620610 0.9707532156 0.9797643033 0.9718959952 0.9773435241 1.0510552518 0.9762678469 1.0472240615 1.0400393062 1.0343754629 1.0522373274 1.1117795835 1.0359590981 1.1105838939 1.0894650094 1.0850932671 1.1145797262 1.1674866166 1.0851045550 1.1678063876 1.1340703976 1.1305003351 1.1711127540 1.2212064939 1.1295363379 1.2224850042 1.1768483424 1.1738484855 1.2252551700 1.2744416559 1.1721813852 1.2764242567 1.2192910109 1.2167842554 1.2786943578 1.3279198163 1.2145076291 1.3305213133 1.2621782109 1.2601838606 1.3322474633 1.3820233687 1.2572821252 1.3852639942 1.3060063676 1.3046133703 1.3863400116 1.4370494097 1.3009909187 1.4410271290 1.3512474989 1.3506095146 1.4412864279 1.4933815345 1.3460979026 1.4982634737 1.3985336533 1.3988827804 1.4974665944 1.5516120271 1.3932359447 1.5576342453 1.4488168580 1.4504977078 1.5554413299 1.6126233299 1.4433840344 1.6200872729 1.5035297338 1.5070580842 1.6160151424 1.6776054914 1.4980665725 1.6868481322 1.5647478494 1.5708933393 1.6802201172 1.7479325005 1.5595990957 1.7592159169 1.6353039354 1.6451673681 1.7491437283 1.8247179730 1.6313692519 1.8379182941 1.7186696839 1.7336321542 1.8234387817 1.9076944893 1.7180535126 1.9215601164 1.8180754834 1.8392279070 1.9019871333 1.9931672645 1.8263660875 2.0050755356 1.9318168356 0.0466837991 0.0306660673 0.5292316474 0.1079023753 0.4465909502 0.4880317509 0.4697886261 0.4544831399 0.7289659652 0.5024091744 0.6988688610 0.7297382689 0.7171294020 0.7060854251 0.8775031864 0.7352344459 0.8609065975 0.8788734563 0.8698430336 0.8670766215 0.9823172644 0.8792495709 0.9737993749 0.9784117367 0.9720094623 0.9787120239 1.0644021506 0.9764601147 1.0605095993 1.0527893288 1.0481205393 1.0643812570 1.1350775066 1.0497560399 1.1338385642 1.1148576108 1.1113144810 1.1369221185 1.2003714441 1.1113017287 1.2007041004 1.1712543430 1.1684872240 1.2031684034 1.2633685966 1.1674378100 1.2647008489 1.2253374978 1.2231797878 1.2666204145 1.3255444269 1.2213954078 1.3275914708 1.2787598571 1.2771661442 1.3289640912 1.3875213628 1.2747735053 1.3901619099 1.3323186950 1.3313255239 1.3909261047 1.4495035059 1.3283476987 1.4527132013 1.3864273716 1.3861329209 1.4527586105 1.5115330038 1.3825265057 1.5153482597 1.4413915421 1.4419491162 1.5145188764 1.5736429246 1.4376251496 1.5781381785 1.4975827060 1.4992039984 1.5762303597 1.6359391016 1.4940454111 1.6412046069 1.5555508669 1.5585148811 1.6379635885 1.6986134224 1.5524035552 1.7047197987 1.6160836450 1.6207434383 1.6998428393 1.7618642702 1.6136159553 1.7687944282 1.6801850818 1.6869531464 1.7619588384 1.8256715999 1.6789159014 1.8331922598 1.7488988427 1.7581669139 1.8241454962 1.8893506321 1.7497109276 1.8967955118 1.8228274065 1.8347388200 1.8855698320 1.9508187301 1.8271121154 1.9567794937 1.9011105920 1.9151120835 1.9438755194 2.0057856699 1.9121771628 2.0085553943 1.9781300741 0.0322868363 0.0270857142 0.5116684223 0.0864868229 0.4366194839 0.4619158942 0.4474299655 0.4422832057 0.7180528868 0.4767384698 0.6905281589 0.7094902833 0.6996687278 0.6954101406 0.8735133795 0.7163495754 0.8580313846 0.8690105827 0.8618857045 0.8623627595 0.9861563203 0.8707901228 0.9780302723 0.9797618062 0.9746535824 0.9816002371 1.0761839554 0.9789570140 1.0723985687 1.0649303050 1.0612269038 1.0752471037 1.1546693278 1.0628235343 1.1534438964 1.1371971044 1.1344729782 1.1556710981 1.2275502791 1.1344475697 1.2278648299 1.2033007776 1.2013024867 1.2295463409 1.2978387645 1.2002552647 1.2991256488 1.2666849032 1.2652897989 1.3002893603 1.3669035188 1.2635401485 1.3688569253 1.3290020400 1.3281792573 1.3694843611 1.4352088470 1.3258858281 1.4376725827 1.3909589487 1.3907414100 1.4377065960 1.5027428155 1.3879710915 1.5056451536 1.4527951271 1.4532620441 1.5049973431 1.5692672436 1.4500307215 1.5725812780 1.5145585713 1.5158250472 1.5711382551 1.6344600816 1.5121256238 1.6381749485 1.5762643628 1.5784737313 1.6358054528 1.6979825061 1.5743027630 1.7020746828 1.6379738680 1.6412869311 1.6986418817 1.7594786678 1.6366797538 1.7638742711 1.6998005038 1.7043725061 1.7592606930 1.8185008410 1.6994564174 1.8230213561 1.7618233004 1.7677537441 1.8171779568 1.8743478551 1.7628260827 1.8786372040 1.8238693840 1.8311034336 1.8716708524 1.9258197568 1.8267274573 1.9292683255 1.8851207196 1.8932858370 1.9215764754 1.9709411361 1.8903849413 1.9726458740 1.9435385059 1.9517846643 1.9649162939 2.0068630438 1.9528197285 2.0061003351 1.9941382779 0.0273978892 0.0266158577 0.5024682060 0.0780220337 0.4315076801 0.4492258109 0.4363625817 0.4364617369 0.7121875608 0.4635705256 0.6863419457 0.6987277017 0.6904702671 0.6900221080 0.8719914953 0.7060089671 0.8574206263 0.8642477978 0.8584532950 0.8605534271 0.9900696210 0.8668336520 0.9823512455 0.9826287496 0.9785739561 0.9848938250 1.0858832520 0.9826671516 1.0822472653 1.0757872724 1.0729468829 1.0842261384 1.1701833637 1.0744786951 1.1689815237 1.1559395853 1.1539700571 1.1704457239 1.2487371278 1.1539540576 1.2490032802 1.2296694274 1.2283661796 1.2499899726 1.3244286152 1.2273857234 1.3256042939 1.3003394532 1.2995990523 1.3261248387 1.3984901612 1.2979847966 1.4002547650 1.3695018551 1.3692910068 1.4002938050 1.4712193686 1.3672286946 1.4733877679 1.4377125821 1.4380451685 1.4729078284 1.5423987365 1.4356402542 1.5448597462 1.5050006805 1.5059213112 1.5438077466 1.6115427291 1.5032391051 1.6142204418 1.5711392638 1.5727103514 1.6125356000 1.6780409626 1.5698042910 1.6808670496 1.6357977075 1.6380863088 1.6784916201 1.7412324508 1.6350228322 1.7441217161 1.6986132418 1.7016731086 1.7410173507 1.8004265895 1.6985585800 1.8032513936 1.7591947921 1.7630381532 1.7994247744 1.8548782867 1.7600498308 1.8574415565 1.8170579689 1.8216114238 1.8529825552 1.9037275864 1.8190282161 1.9057411832 1.8714881795 1.8765304183 1.9008730608 1.9459314108 1.8747469107 1.9470184692 1.9213463972 1.9264394878 1.9421495178 1.9802448530 1.9259433223 1.9799873625 1.9648814907 1.9693773837 1.9756338273 2.0053528900 1.9715690166 2.0035970652 1.9989183552 0.0256826020 0.0267112531 0.4978370062 0.0746196630 0.4289081834 0.4431414729 0.4309281641 0.4336917730 0.7092456593 0.4569176091 0.6843991267 0.6932938524 0.6859167086 0.6874411330 0.8717365046 0.7006745148 0.8577933908 0.8624055330 0.8575312710 0.8601293998 0.9933889998 0.8654976881 0.9859876500 0.9859056382 0.9826867178 0.9877435710 1.0931255485 0.9865939140 1.0896146035 1.0847580575 1.0826624662 1.0908642623 1.1814197538 1.0841396271 1.1802287959 1.1707086354 1.1694116201 1.1810251357 1.2638717181 1.1694242742 1.2640712214 1.2501067998 1.2494164312 1.2644491776 1.3432387842 1.2485343745 1.3442780669 1.3261664678 1.3259781081 1.3442543124 1.4206286054 1.3245394637 1.4221771480 1.4003003081 1.4005658039 1.4217525776 1.4961984992 1.3987763685 1.4980505891 1.4729008064 1.4736069725 1.4972150482 1.5695689268 1.4716002383 1.5715862768 1.5437973646 1.5449502589 1.5703246481 1.6400714970 1.5428245690 1.6421478303 1.6125245539 1.6141365257 1.6404474632 1.7068995742 1.6119797854 1.7089373212 1.6784775164 1.6805541886 1.7067975573 1.7691989044 1.6784623121 1.7710924599 1.7409946049 1.7435191649 1.7685373468 1.8261190313 1.7416110346 1.8277425149 1.7993870102 1.8022998476 1.8248374252 1.8768396162 1.8007280568 1.8780406245 1.8529264409 1.8561001245 1.8749118441 1.9205871297 1.8550523903 1.9211920655 1.9008040898 1.9040182409 1.9180446839 1.9566650932 1.9036990685 1.9565055292 1.9420883729 1.9450184913 1.9536288824 1.9845284516 1.9456038675 1.9834912532 1.9757358920 1.9780136642 1.9811798935 2.0039174028 1.9802975514 2.0020857847 2.0001726914 0.0249719503 0.0268284618 0.4956509863 0.0731445670 0.4276799004 0.4402496208 0.4282893203 0.4324532600 0.7079387412 0.4536242040 0.6836310382 0.6906928600 0.6838389517 0.6863043987 0.8719491262 0.6981272434 0.8583753482 0.8619635242 0.8577453533 0.8601516985 0.9956593076 0.8654409275 0.9884542534 0.9887456300 0.9861970998 0.9895880376 1.0976774906 0.9899773482 1.0942409712 1.0913914510 1.0899382342 1.0948684290 1.1883011933 1.0913838773 1.1871029426 1.1812855509 1.1805878751 1.1873063955 1.2730173984 1.1806370492 1.2731489850 1.2645640380 1.2644198017 1.2729814781 1.3544958232 1.2636338656 1.3554116162 1.3442939150 1.3445838973 1.3549080064 1.4337598202 1.3433055785 1.4351235858 1.4217573234 1.4224116323 1.4343077189 1.5108754156 1.4208593299 1.5124693227 1.4972076404 1.4981840240 1.5113600632 1.5853619715 1.4965081213 1.5870325792 1.5703171057 1.5715860975 1.5856494547 1.6564427260 1.5699028166 1.6580688570 1.6404451707 1.6419789240 1.6564376768 1.7232031586 1.6403909087 1.7246769166 1.7068017611 1.7085644377 1.7228356572 1.7846959677 1.7071730347 1.7859123496 1.7685470495 1.7704854344 1.7839173920 1.8400155332 1.7693965622 1.8408691061 1.8248513364 1.8268853952 1.8388013359 1.8883573814 1.8262084117 1.8887467474 1.8749307493 1.8769455211 1.8867159066 1.9290760248 1.8767826031 1.9289181656 1.9180740020 1.9199168173 1.9270621642 1.9617542029 1.9203397327 1.9610103048 1.9536800907 1.9551709645 1.9594841902 1.9862921105 1.9561852207 1.9849991034 1.9813345835 1.9823240323 1.9839252101 2.0029858924 1.9844380515 2.0012812688 2.0005174843 0.0246090938 0.0269472940 0.4948557979 0.0724600419 0.4272859526 0.4389622068 0.4270897265 0.4321118909 0.7075922415 0.4521316009 0.6835040234 0.6895519437 0.6830312172 0.6859486964 0.8721888320 0.6970976264 0.8587663687 0.8619798145 0.8582542056 0.8601213503 0.9966303589 0.8658184087 0.9894998500 0.9905872034 0.9885959477 0.9901146646 1.0994248867 0.9923167866 1.0960056369 1.0953951000 1.0945110414 1.0960796214 1.1908192107 1.0959490089 1.1895977431 1.1875678128 1.1874201537 1.1892529951 1.2762672810 1.1875008641 1.2763446505 1.2730984131 1.2734626979 1.2756618435 1.3584114810 1.2727433825 1.3592447460 1.3549509307 1.3556865493 1.3582825240 1.4382472132 1.3545120138 1.4394981217 1.4343178387 1.4353309679 1.4383048735 1.5158096469 1.4339254571 1.5172556824 1.5113614784 1.5125824547 1.5158773625 1.5905844816 1.5111038232 1.5920666343 1.5856561260 1.5870253388 1.5905521991 1.6617603405 1.5855967749 1.6631528247 1.6564573936 1.6579164068 1.6615579232 1.7283908031 1.6566443928 1.7295843898 1.7228723381 1.7243584561 1.7279734133 1.7895052905 1.7233415160 1.7903999938 1.7839725393 1.7854160583 1.7888461582 1.8441921148 1.7847461156 1.8446976150 1.8388751281 1.8401993155 1.8432803868 1.8916690429 1.8399557932 1.8917127275 1.8868081302 1.8879326222 1.8905117217 1.9313530052 1.8881688969 1.9308956333 1.9271728212 1.9280214970 1.9299804239 1.9629373404 1.9287446523 1.9619943542 1.9596134842 1.9601280279 1.9614101189 1.9864776243 1.9612726922 1.9851389979 1.9841030933 1.9842807382 1.9848909428 2.0024371648 1.9862503679 2.0008194137 2.0006842318 0.0243760296 0.0271285392 0.4950636010 0.0721614921 0.4275482723 0.4386057117 0.4267177672 0.4325036404 0.7079927507 0.4517359105 0.6838633575 0.6892025525 0.6828976143 0.6861734886 0.8723273810 0.6969523362 0.8588598415 0.8619524613 0.8586183861 0.8598753499 0.9962394669 0.8661826953 0.9890644702 0.9911166095 0.9896134522 0.9892170660 1.0983505816 0.9933425655 1.0948905339 1.0966093859 1.0962534289 1.0944437042 1.1889933663 1.0977053408 1.1877351106 1.1895181660 1.1899003649 1.1868550289 1.2736784761 1.1899992127 1.2737231832 1.2757835912 1.2766520584 1.2725210827 1.3550881856 1.2759543957 1.3558935316 1.3583319956 1.3595230542 1.3544521170 1.4342509523 1.3583734720 1.4354799262 1.4383243364 1.4397215645 1.4338699009 1.5112342687 1.4383442432 1.5126661388 1.5158923956 1.5174023367 1.5109564205 1.5855581967 1.5159549480 1.5870361333 1.5905786193 1.5921167400 1.5852998305 1.6564480000 1.5907219230 1.6578485672 1.6616056145 1.6630889948 1.6561656961 1.7229941964 1.6618520728 1.7242103156 1.7280483335 1.7293934089 1.7226673762 1.7842590362 1.7284109068 1.7851920817 1.7889512712 1.7900761213 1.7838779493 1.8393522421 1.7894369659 1.8399116211 1.8434159396 1.8442472234 1.8389088716 1.8874911979 1.8440268737 1.8876014095 1.8906750966 1.8911595727 1.8869725480 1.9280583588 1.8914068670 1.9276739031 1.9301656607 1.9302849595 1.9274435742 1.9606680112 1.9310029830 1.9597947804 1.9616079031 1.9613928146 1.9599311677 1.9852514661 1.9625106003 1.9839707548 1.9850943081 1.9846457864 1.9843959857 2.0021135554 1.9865610673 2.0004908904 2.0008605164 0.0241549432 0.0274695822 0.4963811175 0.0721030529 0.4285948378 0.4389964681 0.4269717735 0.4338203559 0.7093461915 0.4522321309 0.6848988967 0.6894412275 0.6832587220 0.6871605742 0.8725401121 0.6975112357 0.8588231891 0.8617158353 0.8587115902 0.8595454414 0.9946083893 0.8664082907 0.9872660382 0.9902256754 0.9891775583 0.9869758743 1.0945264535 0.9929833406 1.0909657781 1.0949787444 1.0951400192 1.0899990952 1.1828548024 1.0966275090 1.1815449668 1.1871252041 1.1880446702 1.1801147250 1.2652460850 1.1881474933 1.2652781467 1.2726484536 1.2740463062 1.2635248259 1.3444830130 1.2733239443 1.3453127153 1.3545087185 1.3562005878 1.3433391405 1.4216819896 1.3549953831 1.4229765149 1.4338990877 1.4357502657 1.4208701640 1.4970012295 1.4342807638 1.4985478942 1.5109851781 1.5128836786 1.4963944084 1.5700600839 1.5113001643 1.5717119095 1.5853457245 1.5871871393 1.5696027202 1.6401909674 1.5856047843 1.6418339947 1.6562406153 1.6579207912 1.6398697121 1.7065930925 1.6564395001 1.7081264795 1.7227793186 1.7241930770 1.7064164127 1.7684261453 1.7229089847 1.7697502180 1.7840315544 1.7850772365 1.7684072524 1.8248648707 1.7840878718 1.8258753739 1.8391050771 1.8396956380 1.8250045437 1.8751282922 1.8390984746 1.8757176782 1.8872075870 1.8872888648 1.8753966191 1.9184980272 1.8871713155 1.9185667332 1.9277075279 1.9272823897 1.9188178114 1.9543471105 1.9277012811 1.9538282768 1.9602077238 1.9593599030 1.9545855878 1.9822110939 1.9602984565 1.9811133819 1.9846462625 1.9835620152 1.9822404383 2.0018770852 1.9854991596 2.0001658736 2.0011312690 0.0238226276 0.0282171222 0.4995212065 0.0722789593 0.4309657882 0.4403136355 0.4279640348 0.4367076420 0.7123724230 0.4538215319 0.6872288670 0.6904478750 0.6842981314 0.6895290397 0.8733535270 0.6989965397 0.8591433119 0.8613990351 0.8586951790 0.8595830555 0.9920640991 0.8666679148 0.9844214451 0.9879925851 0.9873999824 0.9836710870 1.0881244940 0.9913530666 1.0844015097 1.0905394476 1.0912340662 1.0828878204 1.1724577820 1.0927814523 1.1710775261 1.1803891254 1.1818747510 1.1690621593 1.2509204268 1.1819744044 1.2509496447 1.2636563987 1.2656285785 1.2485969618 1.3264333371 1.2648477796 1.3273221056 1.3434006927 1.3456605955 1.3247469168 1.4002376632 1.3443376659 1.4016601663 1.4209058851 1.4233080618 1.3989576116 1.4726274796 1.4216500752 1.4743858389 1.4964324240 1.4988541457 1.4716490266 1.5433780804 1.4969958043 1.5453443429 1.5696621730 1.5719859527 1.5426745738 1.6119979608 1.5700257445 1.6140780999 1.6399645479 1.6420688703 1.6115906513 1.6778756652 1.6400926328 1.6799853625 1.7065571305 1.7083131277 1.6778119494 1.7403580728 1.7064110148 1.7424041738 1.7686013016 1.7698753603 1.7406913714 1.7987767651 1.7681550004 1.8006416512 1.825