<?xml version="1.0"?>
<VTKFile type="UnstructuredGrid" version="0.1" byte_order="LittleEndian">
<UnstructuredGrid>
<Piece NumberOfPoints="2400" NumberOfCells="800">
<Points>
<DataArray type="Float64" NumberOfComponents="3" format="ascii">
1.0000000000 0.0000000000 0.0000000000 1.0000000000 0.0500000000 0.0000000000 0.9500000000 0.0500000000 0.0000000000 1.0000000000 0.0000000000 0.0000000000 0.9500000000 0.0500000000 0.0000000000 0.9500000000 0.0000000000 0.0000000000 0.9500000000 0.0000000000 0.0000000000 0.9500000000 0.0500000000 0.0000000000 0.9000000000 0.0500000000 0.0000000000 0.9500000000 0.0000000000 0.0000000000 0.9000000000 0.0500000000 0.0000000000 0.9000000000 0.0000000000 0.0000000000 0.9000000000 0.0000000000 0.0000000000 0.9000000000 0.0500000000 0.0000000000 0.8500000000 0.0500000000 0.0000000000 0.9000000000 0.0000000000 0.0000000000 0.8500000000 0.0500000000 0.0000000000 0.8500000000 0.0000000000 0.0000000000 0.8500000000 0.0000000000 0.0000000000 0.8500000000 0.0500000000 0.0000000000 0.8000000000 0.0500000000 0.0000000000 0.8500000000 0.0000000000 0.0000000000 0.8000000000 0.0500000000 0.0000000000 0.8000000000 0.0000000000 0.0000000000 0.8000000000 0.0000000000 0.0000000000 0.8000000000 0.0500000000 0.0000000000 0.7500000000 0.0500000000 0.0000000000 0.8000000000 0.0000000000 0.0000000000 0.7500000000 0.0500000000 0.0000000000 0.7500000000 0.0000000000 0.0000000000 0.7500000000 0.0000000000 0.0000000000 0.7500000000 0.0500000000 0.0000000000 0.7000000000 0.0500000000 0.0000000000 0.7500000000 0.0000000000 0.0000000000 0.7000000000 0.0500000000 0.0000000000 0.7000000000 0.0000000000 0.0000000000 0.7000000000 0.0000000000 0.0000000000 0.7000000000 0.0500000000 0.0000000000 0.6500000000 0.0500000000 0.0000000000 0.7000000000 0.0000000000 0.0000000000 0.6500000000 0.0500000000 0.0000000000 0.6500000000 0.0000000000 0.0000000000 0.6500000000 0.0000000000 0.0000000000 0.6500000000 0.0500000000 0.0000000000 0.6000000000 0.0500000000 0.0000000000 0.6500000000 0.0000000000 0.0000000000 0.6000000000 0.0500000000 0.0000000000 0.6000000000 0.0000000000 0.0000000000 0.6000000000 0.0000000000 0.0000000000 0.6000000000 0.0500000000 0.0000000000 0.5500000000 0.0500000000 0.0000000000 0.6000000000 0.0000000000 0.0000000000 0.5500000000 0.0500000000 0.0000000000 0.5500000000 0.0000000000 0.0000000000 0.5500000000 0.0000000000 0.0000000000 0.5500000000 0.0500000000 0.0000000000 0.5000000000 0.0500000000 0.0000000000 0.5500000000 0.0000000000 0.0000000000 0.5000000000 0.0500000000 0.0000000000 0.5000000000 0.0000000000 0.0000000000 0.5000000000 0.0000000000 0.0000000000 0.5000000000 0.0500000000 0.0000000000 0.4500000000 0.0500000000 0.0000000000 0.5000000000 0.0000000000 0.0000000000 0.4500000000 0.0500000000 0.0000000000 0.4500000000 0.0000000000 0.0000000000 0.4500000000 0.0000000000 0.0000000000 0.4500000000 0.0500000000 0.0000000000 0.4000000000 0.0500000000 0.0000000000 0.4500000000 0.0000000000 0.0000000000 0.4000000000 0.0500000000 0.0000000000 0.4000000000 0.0000000000 0.0000000000 0.4000000000 0.0000000000 0.0000000000 0.4000000000 0.0500000000 0.0000000000 0.3500000000 0.0500000000 0.0000000000 0.4000000000 0.0000000000 0.0000000000 0.3500000000 0.0500000000 0.0000000000 0.3500000000 0.0000000000 0.0000000000 0.3500000000 0.0000000000 0.0000000000 0.3500000000 0.0500000000 0.0000000000 0.3000000000 0.0500000000 0.0000000000 0.3500000000 0.0000000000 0.0000000000 0.3000000000 0.0500000000 0.0000000000 0.3000000000 0.0000000000 0.0000000000 0.3000000000 0.0000000000 0.0000000000 0.3000000000 0.0500000000 0.0000000000 0.2500000000 0.0500000000 0.0000000000 0.3000000000 0.0000000000 0.0000000000 0.2500000000 0.0500000000 0.0000000000 0.2500000000 0.0000000000 0.0000000000 0.2500000000 0.0000000000 0.0000000000 0.2500000000 0.0500000000 0.0000000000 0.2000000000 0.0500000000 0.0000000000 0.2500000000 0.0000000000 0.0000000000 0.2000000000 0.0500000000 0.0000000000 0.2000000000 0.0000000000 0.0000000000 0.2000000000 0.0000000000 0.0000000000 0.2000000000 0.0500000000 0.0000000000 0.1500000000 0.0500000000 0.0000000000 0.2000000000 0.0000000000 0.0000000000 0.1500000000 0.0500000000 0.0000000000 0.1500000000 0.0000000000 0.0000000000 0.1500000000 0.0000000000 0.0000000000 0.1500000000 0.0500000000 0.0000000000 0.1000000000 0.0500000000 0.0000000000 0.1500000000 0.0000000000 0.0000000000 0.1000000000 0.0500000000 0.0000000000 0.1000000000 0.0000000000 0.0000000000 0.1000000000 0.0000000000 0.0000000000 0.1000000000 0.0500000000 0.0000000000 0.0500000000 0.0500000000 0.0000000000 0.1000000000 0.0000000000 0.0000000000 0.0500000000 0.0500000000 0.0000000000 0.0500000000 0.0000000000 0.0000000000 0.0500000000 0.0000000000 0.0000000000 0.0500000000 0.0500000000 0.0000000000 0.0000000000 0.0500000000 0.0000000000 0.0500000000 0.0000000000 0.0000000000 0.0000000000 0.0500000000 0.0000000000 0.0000000000 0.0000000000 0.0000000000 1.0000000000 0.0500000000 0.0000000000 1.0000000000 0.1000000000 0.0000000000 0.9500000000 0.1000000000 0.0000000000 1.0000000000 0.0500000000 0.0000000000 0.9500000000 0.1000000000 0.0000000000 0.9500000000 0.0500000000 0.0000000000 0.9500000000 0.0500000000 0.0000000000 0.9500000000 0.1000000000 0.0000000000 0.9000000000 0.1000000000 0.0000000000 0.9500000000 0.0500000000 0.0000000000 0.9000000000 0.1000000000 0.0000000000 0.9000000000 0.0500000000 0.0000000000 0.9000000000 0.0500000000 0.0000000000 0.9000000000 0.1000000000 0.0000000000 0.8500000000 0.1000000000 0.0000000000 0.9000000000 0.0500000000 0.0000000000 0.8500000000 0.1000000000 0.0000000000 0.8500000000 0.0500000000 0.0000000000 0.8500000000 0.0500000000 0.0000000000 0.8500000000 0.1000000000 0.0000000000 0.8000000000 0.1000000000 0.0000000000 0.8500000000 0.0500000000 0.0000000000 0.8000000000 0.1000000000 0.0000000000 0.8000000000 0.0500000000 0.0000000000 0.8000000000 0.0500000000 0.0000000000 0.8000000000 0.1000000000 0.0000000000 0.7500000000 0.1000000000 0.0000000000 0.8000000000 0.0500000000 0.0000000000 0.7500000000 0.1000000000 0.0000000000 0.7500000000 0.0500000000 0.0000000000 0.7500000000 0.0500000000 0.0000000000 0.7500000000 0.1000000000 0.0000000000 0.7000000000 0.1000000000 0.0000000000 0.7500000000 0.0500000000 0.0000000000 0.7000000000 0.1000000000 0.0000000000 0.7000000000 0.0500000000 0.0000000000 0.7000000000 0.0500000000 0.0000000000 0.7000000000 0.1000000000 0.0000000000 0.6500000000 0.1000000000 0.0000000000 0.7000000000 0.0500000000 0.0000000000 0.6500000000 0.1000000000 0.0000000000 0.6500000000 0.0500000000 0.0000000000 0.6500000000 0.0500000000 0.0000000000 0.6500000000 0.1000000000 0.0000000000 0.6000000000 0.1000000000 0.0000000000 0.6500000000 0.0500000000 0.0000000000 0.6000000000 0.1000000000 0.0000000000 0.6000000000 0.0500000000 0.0000000000 0.6000000000 0.0500000000 0.0000000000 0.6000000000 0.1000000000 0.0000000000 0.5500000000 0.1000000000 0.0000000000 0.6000000000 0.0500000000 0.0000000000 0.5500000000 0.1000000000 0.0000000000 0.5500000000 0.0500000000 0.0000000000 0.5500000000 0.0500000000 0.0000000000 0.5500000000 0.1000000000 0.0000000000 0.5000000000 0.1000000000 0.0000000000 0.5500000000 0.0500000000 0.0000000000 0.5000000000 0.1000000000 0.0000000000 0.5000000000 0.0500000000 0.0000000000 0.5000000000 0.0500000000 0.0000000000 0.5000000000 0.1000000000 0.0000000000 0.4500000000 0.1000000000 0.0000000000 0.5000000000 0.0500000000 0.0000000000 0.4500000000 0.1000000000 0.0000000000 0.4500000000 0.0500000000 0.0000000000 0.4500000000 0.0500000000 0.0000000000 0.4500000000 0.1000000000 0.0000000000 0.4000000000 0.1000000000 0.0000000000 0.4500000000 0.0500000000 0.0000000000 0.4000000000 0.1000000000 0.0000000000 0.4000000000 0.0500000000 0.0000000000 0.4000000000 0.0500000000 0.0000000000 0.4000000000 0.1000000000 0.0000000000 0.3500000000 0.1000000000 0.0000000000 0.4000000000 0.0500000000 0.0000000000 0.3500000000 0.1000000000 0.0000000000 0.3500000000 0.0500000000 0.0000000000 0.3500000000 0.0500000000 0.0000000000 0.3500000000 0.1000000000 0.0000000000 0.3000000000 0.1000000000 0.0000000000 0.3500000000 0.0500000000 0.0000000000 0.3000000000 0.1000000000 0.0000000000 0.3000000000 0.0500000000 0.0000000000 0.3000000000 0.0500000000 0.0000000000 0.3000000000 0.1000000000 0.0000000000 0.2500000000 0.1000000000 0.0000000000 0.3000000000 0.0500000000 0.0000000000 0.2500000000 0.1000000000 0.0000000000 0.2500000000 0.0500000000 0.0000000000 0.2500000000 0.0500000000 0.0000000000 0.2500000000 0.1000000000 0.0000000000 0.2000000000 0.1000000000 0.0000000000 0.2500000000 0.0500000000 0.0000000000 0.2000000000 0.1000000000 0.0000000000 0.2000000000 0.0500000000 0.0000000000 0.2000000000 0.0500000000 0.0000000000 0.2000000000 0.1000000000 0.0000000000 0.1500000000 0.1000000000 0.0000000000 0.2000000000 0.0500000000 0.0000000000 0.1500000000 0.1000000000 0.0000000000 0.1500000000 0.0500000000 0.0000000000 0.1500000000 0.0500000000 0.0000000000 0.1500000000 0.1000000000 0.0000000000 0.1000000000 0.1000000000 0.0000000000 0.1500000000 0.0500000000 0.0000000000 0.1000000000 0.1000000000 0.0000000000 0.1000000000 0.0500000000 0.0000000000 0.1000000000 0.0500000000 0.0000000000 0.1000000000 0.1000000000 0.0000000000 0.0500000000 0.1000000000 0.0000000000 0.1000000000 0.0500000000 0.0000000000 0.0500000000 0.1000000000 0.0000000000 0.0500000000 0.0500000000 0.0000000000 0.0500000000 0.0500000000 0.0000000000 0.0500000000 0.1000000000 0.0000000000 0.0000000000 0.1000000000 0.0000000000 0.0500000000 0.0500000000 0.0000000000 0.0000000000 0.1000000000 0.0000000000 0.0000000000 0.0500000000 0.0000000000 1.0000000000 0.1000000000 0.0000000000 1.0000000000 0.1500000000 0.0000000000 0.9500000000 0.1500000000 0.0000000000 1.0000000000 0.1000000000 0.0000000000 0.9500000000 0.1500000000 0.0000000000 0.9500000000 0.1000000000 0.0000000000 0.9500000000 0.1000000000 0.0000000000 0.9500000000 0.1500000000 0.0000000000 0.9000000000 0.1500000000 0.0000000000 0.9500000000 0.1000000000 0.0000000000 0.900000000
[...]
<PointData Scalars="tracer_conc," Vectors="" Tensors="">
<DataArray type="Float64" Name="tracer_conc" format="ascii">
0.8802479598 0.5166631270 0.7367832527 0.9357602718 0.6559391963 1.0269596813 0.9598909254 0.7324037617 0.8086132419 0.9761565229 0.7850038308 1.0110209809 0.9838517835 0.8158107718 0.8476233749 0.9895506579 0.8387978523 1.0048669913 0.9920089564 0.8532520270 0.8692424975 0.9943652970 0.8653758959 1.0026191658 0.9949057270 0.8738366978 0.8841261089 0.9960599014 0.8821136861 1.0018481938 0.9958480816 0.8884887161 0.8970477066 0.9965019501 0.8958036100 1.0016921963 0.9959915043 0.9017014356 0.9102439065 0.9963885502 0.9093645060 1.0018217532 0.9957738593 0.9155128024 0.9248665317 0.9959973262 0.9241993160 1.0021038064 0.9953732524 0.9309668166 0.9415927254 0.9954448153 0.9410858754 1.0024829210 0.9948683445 0.9486859194 0.9608855181 0.9947827402 0.9605326692 1.0029360428 0.9942988351 0.9691049559 0.9831067245 0.9940356965 0.9829274801 1.0034548111 0.9936891767 0.9925709802 1.0085703690 0.9932151800 1.0086067661 1.0040397344 0.9930569186 1.0193937619 1.0375818571 0.9923217093 1.0379054029 1.0047013643 0.9924127208 1.0498915195 1.0704974429 0.9913372654 1.0712291130 1.0054690100 0.9917534432 1.0844699215 1.1078501448 0.9902036176 1.1092055913 1.0064137816 0.9910484549 1.1237898835 1.1506318225 0.9887714210 1.1530291040 1.0077090133 0.9902298925 1.1691316614 1.2009419556 0.9866767092 1.2052928380 1.0098096435 0.9892717767 1.2231848047 1.2635660119 0.9830189419 1.2721902387 1.0140621232 0.9888114743 1.2917325836 1.3502683905 0.9751376685 1.3704478603 1.0250149635 0.9925763854 1.3890338228 1.4940820622 0.9414106341 1.5545102732 1.0662530754 0.4206195174 0.2035331086 0.5907151657 0.5210303502 0.4791406325 0.7394490408 0.6927076614 0.5180478887 0.6620448770 0.7271677111 0.6307535311 0.8194416449 0.7963666545 0.6516239545 0.7182256166 0.8104535621 0.7048948896 0.8542399035 0.8420424238 0.7167214313 0.7531027608 0.8486806697 0.7466611658 0.8738473378 0.8659500933 0.7545917470 0.7795242997 0.8695647409 0.7760243375 0.8881071294 0.8817807648 0.7824491175 0.8040002725 0.8840321763 0.8018966615 0.9011531301 0.8952035507 0.8079230806 0.8298114146 0.8967324815 0.8284949671 0.9148937033 0.9087669384 0.8346525456 0.8587627875 0.9098129258 0.8580067365 0.9303230890 0.9237456838 0.8645593225 0.8919756083 0.9243791869 0.8917193018 0.9480449749 0.9408766024 0.8988000471 0.9302400985 0.9410883904 0.9305036609 0.9684888034 0.9606636389 0.9381697014 0.9741690104 0.9603968830 0.9750229188 0.9920028275 0.9835101694 0.9832720923 1.0242663904 0.9826654357 1.0258285621 1.0189021163 1.0097860988 1.0345957661 1.0809747380 1.0082074114 1.0834284184 1.0495138389 1.0398852034 1.0925667708 1.1447500134 1.0373227925 1.1483885514 1.0842576698 1.0743197097 1.1576306995 1.2162256778 1.0703506036 1.2215455829 1.1238189095 1.1139248234 1.2304242220 1.2965661086 1.1077838639 1.3044587061 1.1695298161 1.1603292150 1.3121255557 1.3881895963 1.1505366802 1.4003425725 1.2242180271 1.2170685075 1.4051204437 1.4961761996 1.2005924901 1.5159139765 1.2941263176 1.2922524046 1.5141673763 1.6308469895 1.2625597174 1.6648746459 1.3933001567 1.4044080230 1.6493610854 1.8117321501 1.3446829154 1.8726677438 1.5540896189 0.1909849699 0.0754220305 0.4560865054 0.2695886377 0.3620891357 0.5252732987 0.4980256241 0.3759011872 0.5403019454 0.5329690081 0.5099204735 0.6544195240 0.6376324065 0.5219759290 0.6070517859 0.6545213903 0.5918356456 0.7177300506 0.7070304468 0.6009333640 0.6514299260 0.7157468987 0.6433877602 0.7547775450 0.7470588663 0.6505965294 0.6873883263 0.7520198571 0.6827979643 0.7822509986 0.7757949687 0.6891233575 0.7220779360 0.7789050276 0.7192726750 0.8075487329 0.8014756748 0.7253315745 0.7593156663 0.8035379305 0.7575786182 0.8342003276 0.8280743247 0.7637046796 0.8013067853 0.8294079492 0.8003537360 0.8640783942 0.8576911287 0.8067122683 0.8494614721 0.8583959280 0.8492096715 0.8983183770 0.8915867204 0.8558633928 0.9047670533 0.8916553959 0.9052342886 0.9377073610 0.9306317338 0.9121708477 0.9679427357 0.9299943203 0.9692068557 0.9828480017 0.9755033107 0.9763417093 1.0394924756 0.9740380999 1.0416819663 1.0342316230 1.0267784916 1.0488435860 1.1197203471 1.0243012237 1.1230257385 1.0922899295 1.0850039216 1.1299236311 1.2087535741 1.0812352863 1.2134595556 1.1574768838 1.1508023560 1.2196288178 1.3066159657 1.1453057354 1.3131599997 1.2304401959 1.2250882483 1.3178669684 1.4133968306 1.2171639497 1.4224602592 1.3123692158 1.3095011032 1.4245415407 1.5295445881 1.2980300617 1.5421608373 1.4056445083 1.4072120808 1.5397630654 1.6562131543 1.3905096861 1.6737744167 1.5149149012 1.5242223941 1.6640260491 1.7952118199 1.5002863200 1.8188878494 1.6484513098 1.6705512621 1.7979793728 1.9472114291 1.6402182310 1.9761806410 1.8162681306 0.0871830380 0.0271988768 0.3551831808 0.1431224185 0.2841113487 0.3827877994 0.3689693751 0.2865024776 0.4451355816 0.3975816919 0.4200034263 0.5241422513 0.5136911609 0.4256966947 0.5162637871 0.5295192050 0.5021090205 0.6019157589 0.5936329999 0.5083658665 0.5668796197 0.6024992473 0.5588580255 0.6509045024 0.6441476031 0.5648129762 0.6103424776 0.6494000028 0.6056027310 0.6890749678 0.6831052895 0.6112826632 0.6536686968 0.6863978928 0.6507825836 0.7251040826 0.7194304217 0.6563640235 0.7008053347 0.7215284571 0.6991048961 0.7633896833 0.7577415705 0.7047205806 0.7541260681 0.7589712793 0.7533270379 0.8063568302 0.8006111837 0.7590394771 0.8151715680 0.8010848227 0.8151796052 0.8554928867 0.8496260600 0.8209861875 0.8849870065 0.8493493510 0.8858025790 0.9118008313 0.9058680141 0.8916379610 0.9642469367 0.9047888653 0.9659208258 0.9759839626 0.9701184625 0.9716500534 1.0532695653 0.9681457914 1.0558845076 1.0485090468 1.0429362463 1.0612863266 1.1519772252 1.0399420387 1.1556438803 1.1296233089 1.1246876671 1.1603840446 1.2598387116 1.1204982874 1.2646994407 1.2193724028 1.2155787810 1.2682934530 1.3758183546 1.2099608084 1.3820511259 1.3176568244 1.3157284538 1.3838176170 1.4983432983 1.3083826217 1.5061469473 1.4243553799 1.4253050725 1.5051624586 1.6252654364 1.4159095467 1.6347765949 1.5395089380 1.5446914543 1.6298740460 1.7537071728 1.5331037289 1.7647329002 1.6634363045 1.6744576088 1.7546682363 1.8795071489 1.6613410699 1.8908499353 1.7963228567 1.8144514610 1.8747830081 1.9959118774 1.8049847969 2.0048797072 1.9337815453 0.0434324485 0.0116079673 0.2847484309 0.0829618352 0.2320443295 0.2921867084 0.2855071107 0.2302035176 0.3737376435 0.3074762127 0.3540356685 0.4275061481 0.4212115108 0.3563615416 0.4452849526 0.4344812388 0.4333361676 0.5092795378 0.5031849507 0.4374978057 0.4997297894 0.5110902044 0.4926226150 0.5651766447 0.5596372344 0.4972971966 0.5488768321 0.5644486764 0.5446072630 0.6113398893 0.6062005640 0.5493864339 0.5992128385 0.6091730055 0.5966832253 0.6562562357 0.6513219115 0.6014777455 0.6545552108 0.6530892187 0.6532105310 0.7045246858 0.6996694179 0.6580098865 0.7172733486 0.7005240578 0.7168572252 0.7587956364 0.7539718009 0.7216465863 0.7889092996 0.7540296313 0.7893193103 0.8207147646 0.8159438977 0.7940517340 0.8704523166 0.8152339294 0.8716594970 0.8913489871 0.8867166589 0.8762436835 0.9624184346 0.8852284795 0.9644231087 0.9713481359 0.9670065517 0.9687132052 1.0648196283 0.9647155687 1.0676261067 1.0609728150 1.0571498712 1.0714099812 1.1770713860 1.0540319734 1.1806710550 1.1600572234 1.1570694223 1.1836575756 1.2978702685 1.1531128537 1.3022254512 1.2679466344 1.2662115626 1.3040345222 1.4250651474 1.2614345264 1.4300849423 1.3834341139 1.3834734683 1.4302494131 1.5555403269 1.3779618434 1.5610342021 1.5047057924 1.5071183995 1.5590333588 1.6851202260 1.5011094626 1.6907066672 1.6292734868 1.6346338553 1.6860696956 1.8084943011 1.6286829278 1.8134399049 1.7538126265 1.7624147744 1.8059819445 1.9191644046 1.7576829191 1.9221500908 1.8737416613 1.8851622319 1.9122557589 2.0094911516 1.8863036830 2.0088231752 1.9802002981 0.0255076801 0.0076361227 0.2368795180 0.0546342855 0.1966594947 0.2347163022 0.2310725399 0.1940840919 0.3219340908 0.2478601016 0.3065626859 0.3579219490 0.3539033082 0.3074655580 0.3920853042 0.3645197266 0.3824281675 0.4383358851 0.4338645620 0.3852535963 0.4487433488 0.4404102277 0.4428664767 0.4976791755 0.4933011739 0.4464449114 0.5020541693 0.4973103553 0.4985474089 0.5495079062 0.5453116713 0.5023794615 0.5578467925 0.5476924172 0.5558949173 0.6014519708 0.5974089011 0.5597818575 0.6196821554 0.5986537847 0.6188454912 0.6578995015 0.6539782516 0.6227017571 0.6898230988 0.6543348633 0.6898789826 0.7214840888 0.7176870857 0.6936471360 0.7697302667 0.7172728027 0.7705682301 0.7938522559 0.7902245591 0.7741823679 0.8602678705 0.7890972314 0.8618244733 0.8760124435 0.8726439106 0.8651936189 0.9617371630 0.8708447980 0.9639552043 0.9684495906 0.9654767282 0.9669544041 1.0738072055 0.9630581635 1.0766081728 1.0711096132 1.0687172976 1.0790734504 1.1953870259 1.0657632390 1.1986496021 1.1833131783 1.1817333835 1.2003774727 1.3244729830 1.1783783579 1.3280129436 1.3036360986 1.3031380425 1.3287685745 1.4580050603 1.2995889806 1.4615532115 1.4297843032 1.4306465666 1.4610949844 1.5917730620 1.4272117580 1.5949492916 1.5584876713 1.5609374324 1.5930816595 1.7204277534 1.5580646007 1.7227139407 1.6854353380 1.6895349107 1.7193828723 1.8376754137 1.6878490433 1.8384044590 1.8052783585 1.8107455901 1.8338440645 1.9367670424 1.8110528869 1.9351618392 1.9117608924 1.9178448311 1.9299684133 2.0113335182 1.9234747119 2.0067588105 1.9962703468 0.0176417515 0.0070792391 0.2049611815 0.0405639737 0.1726484974 0.1977491460 0.1949826682 0.1707460287 0.2857275044 0.2081659063 0.2734469470 0.3088521821 0.3059036526 0.2739617594 0.3540735638 0.3143222897 0.3463370684 0.3860188271 0.3826323370 0.3483833707 0.4119777165 0.3878556378 0.4072842027 0.4468210757 0.4434144369 0.4100059254 0.4682323569 0.4465513794 0.4655275761 0.5025309273 0.4992371037 0.4684916672 0.5280652418 0.5009571602 0.5267298677 0.5598023247 0.5566566187 0.5297269243 0.5947598375 0.5573408905 0.5944438516 0.6226427153 0.6196585397 0.5973672059 0.6704347448 0.6195161860 0.6709430475 0.6935346488 0.6907367280 0.6737236420 0.7564348059 0.6898878074 0.7576482766 0.7740273720 0.7714635421 0.7602229532 0.8534772464 0.7699945689 0.8552999669 0.8649980794 0.8627424006 0.8575969805 0.9616474749 0.8607435612 0.9639708946 0.9667149848 0.9648671030 0.9659041735 1.0803038656 0.9624583629 1.0829812888 1.0787838873 1.0774651215 1.0844502853 1.2079339108 1.0748157258 1.2107616281 1.2000305468 1.1993746355 1.2116568762 1.3420003941 1.1967179572 1.3447044926 1.3283584948 1.3284932081 1.3449210514 1.4788225539 1.3261364743 1.4810532035 1.4606211611 1.4616358467 1.4805153174 1.6135515437 1.4599611801 1.6148901717 1.5925552691 1.5944497543 1.6135900543 1.7403197705 1.5938978892 1.7403100349 1.7188379283 1.7214527148 1.7383597993 1.8526651791 1.7224721173 1.8508861754 1.8333523490 1.8362946792 1.8485727452 1.9443372301 1.8392268321 1.9405302161 1.9297854706 1.9324891738 1.9382917669 2.0104084552 1.9396546519 2.0045710304 2.0010802275 0.0134842829 0.0073405386 0.1844463375 0.0327948082 0.1569780794 0.1738628388 0.1709799781 0.1561819614 0.2619319854 0.1818185237 0.2516989475 0.2752313333 0.2726642691 0.2523255183 0.3288025263 0.2794730009 0.3224805194 0.3490855383 0.3463675973 0.3241194636 0.3874217640 0.3505170747 0.3836793388 0.4103623165 0.4077034178 0.3857746941 0.4456463775 0.4100812247 0.4436223841 0.4686482661 0.4661339767 0.4458589074 0.5082543157 0.4672662919 0.5074487511 0.5297652562 0.5274319710 0.5096559791 0.5783003018 0.5276259761 0.5784222928 0.5973313137 0.5952002980 0.5805062504 0.6577708112 0.5946388089 0.6586434945 0.6736351726 0.6717312700 0.6605450186 0.7479010566 0.6705382655 0.7493972402 0.7600901732 0.7584488749 0.7510702544 0.8492780261 0.7567348141 0.8512761088 0.8574202395 0.8560883484 0.8526780332 0.9618105893 0.8539818769 0.9641637910 0.9656794314 0.9647119368 0.9652530013 1.0846201034 0.9623822179 1.0871351077 1.0841718247 1.0836254149 1.0878730125 1.2158937724 1.0812968114 1.2183176880 1.2113200614 1.2112423836 1.2186747415 1.3527436288 1.2092006856 1.3547608792 1.3445258814 1.3449391805 1.3547266511 1.4911235435 1.3435259493 1.4923670048 1.4800714364 1.4809497807 1.4919642306 1.6258722961 1.4805385907 1.6259556790 1.6131236188 1.6143652864 1.6252566237 1.7509677535 1.6153110216 1.7495481632 1.7379215853 1.7393234582 1.7486881692 1.8600858756 1.7418748669 1.8569643178 1.8482430047 1.8494930456 1.8561432994 1.9475366216 1.8536558106 1.9427858294 1.9382543722 1.9390576983 1.9422264679 2.0094036788 1.9465792679 2.0033076418 2.0023395634 0.0108032644 0.0078574644 0.1725021354 0.0280656664 0.1478852167 0.1589666981 0.1555259862 0.1482899698 0.2483047401 0.1649554182 0.2392964256 0.2535226678 0.2509429322 0.2402858887 0.3143564041 0.2567073825 0.3089380794 0.3247722417 0.3224131371 0.3104259312 0.3734144439 0.3258194807 0.3703119571 0.3861052177 0.3839777442 0.3719872996 0.4328094254 0.3858073727 0.4312576884 0.4460044745 0.4441134518 0.4329286741 0.4970579538 0.4448155451 0.4966214810 0.5096919346 0.5080422562 0.4981763936 0.5690740732 0.5078813754 0.5694957269 0.5804726491 0.5790707261 0.5708706858 0.6507574082 0.5782144264 0.6518705386 0.6604611797 0.6593177642 0.6530280793 0.7432682783 0.6578938111 0.7449397635 0.7509432662 0.7500730916 0.7458577425 0.8471062558 0.7482086305 0.8491977938 0.8525079344 0.8519266275 0.8498653375 0.9620665506 0.8497755879 0.9644078718 0.9650362833 0.9647553085 0.9648255319 1.0871249021 0.9625168187 1.0894963882 1.0876055162 1.0876254679 1.0896786006 1.2202935650 1.0855533828 1.2224186332 1.2183547100 1.2186570296 1.2223971900 1.3584937344 1.2170582777 1.3600438213 1.3543584883 1.3548959441 1.3598711615 1.4975002219 1.3541132681 1.4981172602 1.4915632413 1.4922504661 1.4978679640 1.6320287046 1.4926236538 1.6313710846 1.6248544593 1.6255617067 1.6311390969 1.7560481827 1.6273616785 1.7538650124 1.7483375243 1.7488935734 1.7537531600 1.8633998891 1.7522278066 1.8596324748 1.8559171296 1.8561301474 1.8597316966 1.9487676470 1.8608167411 1.9436568161 1.9422470824 1.9420366338 1.9440204778 2.0087753253 1.9495577376 2.0026956265 2.0026678516 0.0088576093 0.0086199226 0.1675567045 0.0251006728 0.1443941374 0.1508916656 0.1466406147 0.1460583457 0.2435131297 0.1553823239 0.2350547422 0.2414496519 0.2385921419 0.2365789814 0.3095326588 0.2438256490 0.3045344026 0.3110454982 0.3088013679 0.3060716363 0.3688850238 0.3118182538 0.3660839621 0.3722918257 0.3704982731 0.3675235130 0.4287545544 0.3720355982 0.4274251950 0.4330541280 0.4316256704 0.4286919830 0.4935973101 0.4320983385 0.4933314444 0.4981967527 0.4970914158 0.4943784218 0.5662943682 0.4967442133 0.5668494948 0.5708249966 0.5700223016 0.5676498371 0.6487223612 0.5690157266 0.6499362619 0.6529351866 0.6524247087 0.6504784607 0.7420177542 0.6508887808 0.7437546018 0.7457247909 0.7454978132 0.7440413431 0.8466495186 0.7435682282 0.8487637110 0.8496929484 0.8497351330 0.8488134014 0.9623726723 0.8475781808 0.9646841743 0.9646113407 0.9648959475 0.9645336477 1.0881128209 0.9627244064 1.0903920269 1.0894201969 1.0899020183 1.0900989456 1.2218246621 1.0879814301 1.2237876941 1.2220951284 1.2227057926 1.2234310287 1.3603706610 1.2213482824 1.3616883002 1.3595324308 1.3601782969 1.3613650182 1.4994765536 1.3597194298 1.4998015988 1.4975099613 1.4980744957 1.4996174992 1.6338340169 1.4988281272 1.6328520675 1.6307936087 1.6311466978 1.6329049957 1.7574311024 1.6333346369 1.7549371744 1.7534689121 1.7534856293 1.7552922925 1.8641860447 1.7571451391 1.8601819415 1.8595715606 1.8591615356 1.8608428354 1.9489198739 1.8640309296 1.9437081298 1.9440651013 1.9432904150 1.9446139821 2.0084255283 1.9507572314 2.0023843131 2.0027964764 0.0073426021 0.0097236671 0.1689804421 0.0233739879 0.1461368854 0.1485874683 0.1432805645 0.1492054737 0.2470862989 0.1519547437 0.2385669149 0.2377481990 0.2343802710 0.2408020645 0.3139190826 0.2395619460 0.3088745186 0.3066769113 0.3043368266 0.3106407950 0.3734722182 0.3073212373 0.3706259146 0.3678067778 0.3661700401 0.3719945557 0.4331579958 0.3676876439 0.4317851741 0.4287939330 0.4276791264 0.4327953638 0.4975810121 0.4281408037 0.4972719957 0.4943756824 0.4936858103 0.4979433558 0.5697052671 0.4933341476 0.5702165135 0.5675829691 0.5672651255 0.5705606769 0.6514548449 0.5662597715 0.6526240061 0.6503673694 0.6503881469 0.6526545013 0.7439985716 0.6488591197 0.7456906828 0.7438941654 0.7442229826 0.7454315712 0.8478355374 0.7423063888 0.8499068234 0.8486319022 0.8492288493 0.8494001139 0.9627561750 0.8470914186 0.9650293302 0.9643168711 0.9651236706 0.9643407911 1.0877305657 0.9629782807 1.0899794648 1.0898461625 1.0907801348 1.0892018466 1.2207673843 1.0888917014 1.2227120269 1.2231445991 1.2240965468 1.2219639963 1.3587892561 1.2227754626 1.3601040248 1.3610534644 1.3618912133 1.3595224813 1.4975803079 1.3614699027 1.4979202728 1.4992987422 1.4998784913 1.4976435579 1.6318757367 1.5006661915 1.6309261147 1.6326092413 1.6327964181 1.6310666027 1.7556750926 1.6350092261 1.7532266827 1.7550633618 1.7547627009 1.7538343169 1.8628591801 1.7584322452 1.8589054179 1.8607349187 1.8599251245 1.8599302228 1.9481550253 1.8647838751 1.9429888668 1.9446796750 1.9435193880 1.9442926982 2.0082139547 1.9509512298 2.0021771443 2.0029098886 0.0060647024 0.0113204604 0.1769479071 0.0226563062 0.1533247554 0.1517548577 0.1450682792 0.1580801696 0.2594090949 0.1542904567 0.2502008631 0.2420190560 0.2378936428 0.2533596205 0.3279258174 0.2435013844 0.3223609994 0.3112544702 0.3086241121 0.3245260072 0.3875653822 0.3119341903 0.3843240412 0.3722659679 0.3706317245 0.3857636275 0.4463778706 0.3724038023 0.4446949434 0.4328755327 0.4319477592 0.4455719696 0.5093369542 0.4326181194 0.5087709551 0.4979151518 0.4975346737 0.5091749726 0.5796045844 0.4973610230 0.5798943350 0.5704683390 0.5705477292 0.5798741319 0.6592179357 0.5696950967 0.6601958475 0.6525202163 0.6530050445 0.6597854390 0.7494288909 0.6516013512 0.7509640320 0.7452651146 0.7461078614 0.7502019593 0.8508222169 0.7442817569 0.8527814447 0.8492046964 0.8503467362 0.8517248831 0.9632951627 0.8482538868 0.9655161855 0.9641169504 0.9654760377 0.9642509715 1.0859545859 0.9633164711 1.0882282578 1.0889504769 1.0904130105 1.0868747408 1.2169759206 1.0884394888 1.2190377809 1.2216891382 1.2231081045 1.2177510070 1.3534680307 1.2216232290 1.3550015150 1.3592341345 1.3604349747 1.3539629680 1.4913966338 1.3597727751 1.4920525313 1.4973604115 1.4981578273 1.4914498620 1.6256336526 1.4986443454 1.6250718925 1.6308181325 1.6310463326 1.6250635913 1.7502158846 1.6329342548 1.7481754334 1.7536611329 1.7532170999 1.7488406924 1.8589040229 1.7565940125 1.8553020132 1.8598802457 1.8587723775 1.8565844697 1.9461129849 1.8634333523 1.9411594599 1.9443954460 1.9428548877 1.9428732963 2.0080127792 1.9502588844 2.0019554271 2.0030871475 0.0048462892 0.0137233406 0.1925392989 0.0229078707 0.1668421421 0.1607342608 0.1522198784 0.1737370240 0.2817906648 0.1627013239 0.2711574144 0.2546730161 0.2495157815 0.2754856228 0.3527982770 0.2560624088 0.3462048489 0.3251759753 0.3220812459 0.3489139606 0.4122848124 0.3260763406 0.4083009635 0.3860378575 0.3842847536 0.4099146544 0.4694208635 0.3865733882 0.4671764521 0.4456376013 0.4448034640 0.4680061211 0.5297767789 0.4458878354 0.5287560057 0.5091245853 0.5089790839 0.5289668886 0.5968123804 0.5091543301 0.5967145699 0.5797575180 0.5801787342 0.5963892127 0.6727247754 0.5796236355 0.6733697443 0.6596279626 0.6605455144 0.6725549142 0.7588822161 0.6593848222 0.7601451427 0.7500153719 0.7513728474 0.7588837272 0.8559956528 0.7497203334 0.8577624254 0.8515138775 0.8532436394 0.8561151686 0.9641286864 0.8512320961 0.9662649550 0.9640174778 0.9660232147 0.9643258073 1.0826110520 0.9638251966 1.0849407207 1.0866211827 1.0887661929 1.0828473708 1.2099019827 1.0866068715 1.2121934643 1.2174832127 1.2195848276 1.2101323484 1.3434445270 1.2177459706 1.3454055983 1.3536930154 1.3555257895 1.3436084942 1.4795570137 1.3543375160 1.4808417079 1.491