<?xml version="1.0"?>
<VTKFile type="UnstructuredGrid" version="0.1" byte_order="LittleEndian">
<UnstructuredGrid>
<Piece NumberOfPoints="2400" NumberOfCells="800">
<Points>
<DataArray type="Float64" NumberOfComponents="3" format="ascii">
1.0000000000 0.0000000000 0.0000000000 1.0000000000 0.0500000000 0.0000000000 0.9500000000 0.0500000000 0.0000000000 1.0000000000 0.0000000000 0.0000000000 0.9500000000 0.0500000000 0.0000000000 0.9500000000 0.0000000000 0.0000000000 0.9500000000 0.0000000000 0.0000000000 0.9500000000 0.0500000000 0.0000000000 0.9000000000 0.0500000000 0.0000000000 0.9500000000 0.0000000000 0.0000000000 0.9000000000 0.0500000000 0.0000000000 0.9000000000 0.0000000000 0.0000000000 0.9000000000 0.0000000000 0.0000000000 0.9000000000 0.0500000000 0.0000000000 0.8500000000 0.0500000000 0.0000000000 0.9000000000 0.0000000000 0.0000000000 0.8500000000 0.0500000000 0.0000000000 0.8500000000 0.0000000000 0.0000000000 0.8500000000 0.0000000000 0.0000000000 0.8500000000 0.0500000000 0.0000000000 0.8000000000 0.0500000000 0.0000000000 0.8500000000 0.0000000000 0.0000000000 0.8000000000 0.0500000000 0.0000000000 0.8000000000 0.0000000000 0.0000000000 0.8000000000 0.0000000000 0.0000000000 0.8000000000 0.0500000000 0.0000000000 0.7500000000 0.0500000000 0.0000000000 0.8000000000 0.0000000000 0.0000000000 0.7500000000 0.0500000000 0.0000000000 0.7500000000 0.0000000000 0.0000000000 0.7500000000 0.0000000000 0.0000000000 0.7500000000 0.0500000000 0.0000000000 0.7000000000 0.0500000000 0.0000000000 0.7500000000 0.0000000000 0.0000000000 0.7000000000 0.0500000000 0.0000000000 0.7000000000 0.0000000000 0.0000000000 0.7000000000 0.0000000000 0.0000000000 0.7000000000 0.0500000000 0.0000000000 0.6500000000 0.0500000000 0.0000000000 0.7000000000 0.0000000000 0.0000000000 0.6500000000 0.0500000000 0.0000000000 0.6500000000 0.0000000000 0.0000000000 0.6500000000 0.0000000000 0.0000000000 0.6500000000 0.0500000000 0.0000000000 0.6000000000 0.0500000000 0.0000000000 0.6500000000 0.0000000000 0.0000000000 0.6000000000 0.0500000000 0.0000000000 0.6000000000 0.0000000000 0.0000000000 0.6000000000 0.0000000000 0.0000000000 0.6000000000 0.0500000000 0.0000000000 0.5500000000 0.0500000000 0.0000000000 0.6000000000 0.0000000000 0.0000000000 0.5500000000 0.0500000000 0.0000000000 0.5500000000 0.0000000000 0.0000000000 0.5500000000 0.0000000000 0.0000000000 0.5500000000 0.0500000000 0.0000000000 0.5000000000 0.0500000000 0.0000000000 0.5500000000 0.0000000000 0.0000000000 0.5000000000 0.0500000000 0.0000000000 0.5000000000 0.0000000000 0.0000000000 0.5000000000 0.0000000000 0.0000000000 0.5000000000 0.0500000000 0.0000000000 0.4500000000 0.0500000000 0.0000000000 0.5000000000 0.0000000000 0.0000000000 0.4500000000 0.0500000000 0.0000000000 0.4500000000 0.0000000000 0.0000000000 0.4500000000 0.0000000000 0.0000000000 0.4500000000 0.0500000000 0.0000000000 0.4000000000 0.0500000000 0.0000000000 0.4500000000 0.0000000000 0.0000000000 0.4000000000 0.0500000000 0.0000000000 0.4000000000 0.0000000000 0.0000000000 0.4000000000 0.0000000000 0.0000000000 0.4000000000 0.0500000000 0.0000000000 0.3500000000 0.0500000000 0.0000000000 0.4000000000 0.0000000000 0.0000000000 0.3500000000 0.0500000000 0.0000000000 0.3500000000 0.0000000000 0.0000000000 0.3500000000 0.0000000000 0.0000000000 0.3500000000 0.0500000000 0.0000000000 0.3000000000 0.0500000000 0.0000000000 0.3500000000 0.0000000000 0.0000000000 0.3000000000 0.0500000000 0.0000000000 0.3000000000 0.0000000000 0.0000000000 0.3000000000 0.0000000000 0.0000000000 0.3000000000 0.0500000000 0.0000000000 0.2500000000 0.0500000000 0.0000000000 0.3000000000 0.0000000000 0.0000000000 0.2500000000 0.0500000000 0.0000000000 0.2500000000 0.0000000000 0.0000000000 0.2500000000 0.0000000000 0.0000000000 0.2500000000 0.0500000000 0.0000000000 0.2000000000 0.0500000000 0.0000000000 0.2500000000 0.0000000000 0.0000000000 0.2000000000 0.0500000000 0.0000000000 0.2000000000 0.0000000000 0.0000000000 0.2000000000 0.0000000000 0.0000000000 0.2000000000 0.0500000000 0.0000000000 0.1500000000 0.0500000000 0.0000000000 0.2000000000 0.0000000000 0.0000000000 0.1500000000 0.0500000000 0.0000000000 0.1500000000 0.0000000000 0.0000000000 0.1500000000 0.0000000000 0.0000000000 0.1500000000 0.0500000000 0.0000000000 0.1000000000 0.0500000000 0.0000000000 0.1500000000 0.0000000000 0.0000000000 0.1000000000 0.0500000000 0.0000000000 0.1000000000 0.0000000000 0.0000000000 0.1000000000 0.0000000000 0.0000000000 0.1000000000 0.0500000000 0.0000000000 0.0500000000 0.0500000000 0.0000000000 0.1000000000 0.0000000000 0.0000000000 0.0500000000 0.0500000000 0.0000000000 0.0500000000 0.0000000000 0.0000000000 0.0500000000 0.0000000000 0.0000000000 0.0500000000 0.0500000000 0.0000000000 0.0000000000 0.0500000000 0.0000000000 0.0500000000 0.0000000000 0.0000000000 0.0000000000 0.0500000000 0.0000000000 0.0000000000 0.0000000000 0.0000000000 1.0000000000 0.0500000000 0.0000000000 1.0000000000 0.1000000000 0.0000000000 0.9500000000 0.1000000000 0.0000000000 1.0000000000 0.0500000000 0.0000000000 0.9500000000 0.1000000000 0.0000000000 0.9500000000 0.0500000000 0.0000000000 0.9500000000 0.0500000000 0.0000000000 0.9500000000 0.1000000000 0.0000000000 0.9000000000 0.1000000000 0.0000000000 0.9500000000 0.0500000000 0.0000000000 0.9000000000 0.1000000000 0.0000000000 0.9000000000 0.0500000000 0.0000000000 0.9000000000 0.0500000000 0.0000000000 0.9000000000 0.1000000000 0.0000000000 0.8500000000 0.1000000000 0.0000000000 0.9000000000 0.0500000000 0.0000000000 0.8500000000 0.1000000000 0.0000000000 0.8500000000 0.0500000000 0.0000000000 0.8500000000 0.0500000000 0.0000000000 0.8500000000 0.1000000000 0.0000000000 0.8000000000 0.1000000000 0.0000000000 0.8500000000 0.0500000000 0.0000000000 0.8000000000 0.1000000000 0.0000000000 0.8000000000 0.0500000000 0.0000000000 0.8000000000 0.0500000000 0.0000000000 0.8000000000 0.1000000000 0.0000000000 0.7500000000 0.1000000000 0.0000000000 0.8000000000 0.0500000000 0.0000000000 0.7500000000 0.1000000000 0.0000000000 0.7500000000 0.0500000000 0.0000000000 0.7500000000 0.0500000000 0.0000000000 0.7500000000 0.1000000000 0.0000000000 0.7000000000 0.1000000000 0.0000000000 0.7500000000 0.0500000000 0.0000000000 0.7000000000 0.1000000000 0.0000000000 0.7000000000 0.0500000000 0.0000000000 0.7000000000 0.0500000000 0.0000000000 0.7000000000 0.1000000000 0.0000000000 0.6500000000 0.1000000000 0.0000000000 0.7000000000 0.0500000000 0.0000000000 0.6500000000 0.1000000000 0.0000000000 0.6500000000 0.0500000000 0.0000000000 0.6500000000 0.0500000000 0.0000000000 0.6500000000 0.1000000000 0.0000000000 0.6000000000 0.1000000000 0.0000000000 0.6500000000 0.0500000000 0.0000000000 0.6000000000 0.1000000000 0.0000000000 0.6000000000 0.0500000000 0.0000000000 0.6000000000 0.0500000000 0.0000000000 0.6000000000 0.1000000000 0.0000000000 0.5500000000 0.1000000000 0.0000000000 0.6000000000 0.0500000000 0.0000000000 0.5500000000 0.1000000000 0.0000000000 0.5500000000 0.0500000000 0.0000000000 0.5500000000 0.0500000000 0.0000000000 0.5500000000 0.1000000000 0.0000000000 0.5000000000 0.1000000000 0.0000000000 0.5500000000 0.0500000000 0.0000000000 0.5000000000 0.1000000000 0.0000000000 0.5000000000 0.0500000000 0.0000000000 0.5000000000 0.0500000000 0.0000000000 0.5000000000 0.1000000000 0.0000000000 0.4500000000 0.1000000000 0.0000000000 0.5000000000 0.0500000000 0.0000000000 0.4500000000 0.1000000000 0.0000000000 0.4500000000 0.0500000000 0.0000000000 0.4500000000 0.0500000000 0.0000000000 0.4500000000 0.1000000000 0.0000000000 0.4000000000 0.1000000000 0.0000000000 0.4500000000 0.0500000000 0.0000000000 0.4000000000 0.1000000000 0.0000000000 0.4000000000 0.0500000000 0.0000000000 0.4000000000 0.0500000000 0.0000000000 0.4000000000 0.1000000000 0.0000000000 0.3500000000 0.1000000000 0.0000000000 0.4000000000 0.0500000000 0.0000000000 0.3500000000 0.1000000000 0.0000000000 0.3500000000 0.0500000000 0.0000000000 0.3500000000 0.0500000000 0.0000000000 0.3500000000 0.1000000000 0.0000000000 0.3000000000 0.1000000000 0.0000000000 0.3500000000 0.0500000000 0.0000000000 0.3000000000 0.1000000000 0.0000000000 0.3000000000 0.0500000000 0.0000000000 0.3000000000 0.0500000000 0.0000000000 0.3000000000 0.1000000000 0.0000000000 0.2500000000 0.1000000000 0.0000000000 0.3000000000 0.0500000000 0.0000000000 0.2500000000 0.1000000000 0.0000000000 0.2500000000 0.0500000000 0.0000000000 0.2500000000 0.0500000000 0.0000000000 0.2500000000 0.1000000000 0.0000000000 0.2000000000 0.1000000000 0.0000000000 0.2500000000 0.0500000000 0.0000000000 0.2000000000 0.1000000000 0.0000000000 0.2000000000 0.0500000000 0.0000000000 0.2000000000 0.0500000000 0.0000000000 0.2000000000 0.1000000000 0.0000000000 0.1500000000 0.1000000000 0.0000000000 0.2000000000 0.0500000000 0.0000000000 0.1500000000 0.1000000000 0.0000000000 0.1500000000 0.0500000000 0.0000000000 0.1500000000 0.0500000000 0.0000000000 0.1500000000 0.1000000000 0.0000000000 0.1000000000 0.1000000000 0.0000000000 0.1500000000 0.0500000000 0.0000000000 0.1000000000 0.1000000000 0.0000000000 0.1000000000 0.0500000000 0.0000000000 0.1000000000 0.0500000000 0.0000000000 0.1000000000 0.1000000000 0.0000000000 0.0500000000 0.1000000000 0.0000000000 0.1000000000 0.0500000000 0.0000000000 0.0500000000 0.1000000000 0.0000000000 0.0500000000 0.0500000000 0.0000000000 0.0500000000 0.0500000000 0.0000000000 0.0500000000 0.1000000000 0.0000000000 0.0000000000 0.1000000000 0.0000000000 0.0500000000 0.0500000000 0.0000000000 0.0000000000 0.1000000000 0.0000000000 0.0000000000 0.0500000000 0.0000000000 1.0000000000 0.1000000000 0.0000000000 1.0000000000 0.1500000000 0.0000000000 0.9500000000 0.1500000000 0.0000000000 1.0000000000 0.1000000000 0.0000000000 0.9500000000 0.1500000000 0.0000000000 0.9500000000 0.1000000000 0.0000000000 0.9500000000 0.1000000000 0.0000000000 0.9500000000 0.1500000000 0.0000000000 0.9000000000 0.1500000000 0.0000000000 0.9500000000 0.1000000000 0.0000000000 0.900000000
[...]
<PointData Scalars="tracer_conc," Vectors="" Tensors="">
<DataArray type="Float64" Name="tracer_conc" format="ascii">
0.8933387843 0.5030189677 0.6852875417 0.9481687327 0.6064912386 1.0175579473 0.9631327959 0.6697258140 0.7250857249 0.9823188743 0.6989241357 1.0046420595 0.9823286397 0.7252434669 0.7455670148 0.9925210826 0.7317248938 1.0000214530 0.9882145749 0.7460830048 0.7551817750 0.9958230257 0.7450622841 0.9984981348 0.9900953155 0.7554660755 0.7609178449 0.9968680797 0.7520495267 0.9980271938 0.9906278658 0.7612252366 0.7657222070 0.9970867242 0.7573250369 0.9979569949 0.9906430435 0.7663066399 0.7709527667 0.9969469631 0.7627722538 0.9980721825 0.9904099836 0.7720306547 0.7774088836 0.9965990399 0.7693690010 0.9983055764 0.9900088020 0.7791958349 0.7857463163 0.9960775873 0.7778397211 0.9986462841 0.9894489812 0.7884906606 0.7966626267 0.9953686231 0.7889157084 0.9991090976 0.9887089908 0.8006721708 0.8109999454 0.9944318115 0.8034641851 0.9997249395 0.9877498306 0.8166670055 0.8298233705 0.9932065605 0.8225783634 1.0005396089 0.9865196284 0.8376524863 0.8545011400 0.9916112247 0.8476663485 1.0016171735 0.9849555498 0.8651432803 0.8868036622 0.9895376432 0.8805625231 1.0030486630 0.9829864628 0.9011017294 0.9290438445 0.9868387981 0.9236934324 1.0049722450 0.9805426438 0.9480974669 0.9843086989 0.9832996177 0.9803743745 1.0076272472 0.9775987297 1.0095707297 1.0569199428 0.9785581456 1.0554632749 1.0115248412 0.9743761689 1.0903262140 1.1535406184 0.9718778596 1.1571217800 1.0180518923 0.9722636628 1.1975043583 1.2863829750 0.9610314181 1.3027691141 1.0318065225 0.9770112870 1.3449346154 1.4842960380 0.9268395726 1.5413542902 1.0765789657 0.4255171584 0.1915837020 0.4903987718 0.5187621106 0.3877713655 0.6756589484 0.6368086214 0.4189345336 0.5148950890 0.6715773795 0.4830266912 0.7272616116 0.7067104541 0.5020776332 0.5408999826 0.7251817695 0.5230157608 0.7457325375 0.7328846464 0.5362535989 0.5548790923 0.7459774305 0.5418354089 0.7543291891 0.7442225573 0.5527740357 0.5644745567 0.7553501125 0.5532986705 0.7598009188 0.7505759148 0.5634454011 0.5734397332 0.7608922664 0.5630869452 0.7647644526 0.7556610908 0.5731012600 0.5837252486 0.7655520119 0.5738463787 0.7704305314 0.7610843394 0.5840540148 0.5966458984 0.7706532410 0.5871604003 0.7775583491 0.7677394745 0.5977655371 0.6133974419 0.7769711569 0.6043449801 0.7868216580 0.7763327361 0.6155182705 0.6353120372 0.7851464621 0.6268046733 0.7989723180 0.7876061331 0.6387201955 0.6640140114 0.7958667443 0.6562284757 0.8149364363 0.8024584491 0.6690776732 0.7015442904 0.8099673973 0.6947347350 0.8358945167 0.8220398606 0.7087256524 0.7504829081 0.8285104342 0.7450108099 0.8633695114 0.8478564055 0.7603497496 0.8140827400 0.8528673768 0.8104704901 0.8993413434 0.8819149724 0.8273114292 0.8964210612 0.8848243474 0.8954481041 0.9464165805 0.9269602699 0.9137733993 1.0025732935 0.9267351555 1.0054571662 1.0081170788 0.9869228179 1.0248035200 1.1388080168 0.9817837029 1.1475587593 1.0894441500 1.0678763775 1.1663860182 1.3127558645 1.0545409526 1.3308621534 1.1980932083 1.1801975826 1.3451177942 1.5332845132 1.1521426021 1.5670120449 1.3471784215 1.3429861392 1.5686166789 1.8081155333 1.2867584272 1.8660710823 1.5610180034 0.1896762824 0.0651834001 0.3282800323 0.2574408653 0.2487831820 0.4255690926 0.4038540590 0.2583908474 0.3572940930 0.4361112317 0.3291797681 0.5041962465 0.4893817631 0.3404976384 0.3855364960 0.5083204051 0.3680938646 0.5369033110 0.5257831273 0.3785147210 0.4019611291 0.5392000173 0.3891838919 0.5528094639 0.5433845357 0.3988247985 0.4144988389 0.5544943969 0.4037794558 0.5632190060 0.5544302441 0.4130740089 0.4270521744 0.5644794123 0.4173440251 0.5727623073 0.5640834278 0.4265968776 0.4418692924 0.5735204833 0.4327980897 0.5836637440 0.5748188966 0.4421967056 0.4606243187 0.5837615989 0.4521095804 0.5973487890 0.5881659144 0.4617805900 0.4849344450 0.5965792581 0.4770400247 0.6150850779 0.6054299982 0.4870839516 0.5166346644 0.6131890562 0.5095159366 0.6382749507 0.6280260714 0.5200210308 0.5579509721 0.6349307628 0.5518441520 0.6686234117 0.6576693263 0.5628844109 0.6116314973 0.6634360232 0.6068638310 0.7082666489 0.6965230130 0.6184811586 0.6810530365 0.7007608856 0.6780663633 0.7598938612 0.7473461070 0.6902303919 0.7702917399 0.7495187517 0.7696771039 0.8268727724 0.8136626458 0.7822080220 0.8841129365 0.8130327329 0.8866532245 0.9133746746 0.8999658610 0.8990815349 1.0277740324 0.8955245378 1.0344795960 1.0244724392 1.0119568554 1.0458039465 1.2064012868 1.0023679115 1.2184764387 1.1661222911 1.1567549013 1.2267848469 1.4233895528 1.1404614489 1.4419117269 1.3447330490 1.3427308111 1.4439341230 1.6765511079 1.3187063896 1.7012116356 1.5653757592 1.5775216305 1.6927781531 1.9488474650 1.5525380468 1.9735708888 1.8221995068 0.0820403943 0.0184395683 0.2154954378 0.1251972215 0.1620232863 0.2644129275 0.2545916982 0.1623855891 0.2464506195 0.2784405558 0.2256173025 0.3422257297 0.3334686312 0.2310765549 0.2738393874 0.3490750483 0.2596763079 0.3794352010 0.3712930099 0.2667485002 0.2912822059 0.3826416315 0.2807147354 0.3993028449 0.3917830813 0.2880913703 0.3059355029 0.4010774536 0.2971745397 0.4133346408 0.4061158496 0.3045980038 0.3214435373 0.4143386096 0.3136868762 0.4267562382 0.4195871763 0.3211662080 0.3401330829 0.4271172849 0.3330801821 0.4423084825 0.4350300964 0.3406690648 0.3638938799 0.4419584434 0.3574940303 0.4618683080 0.4543783488 0.3652418505 0.3946358862 0.4606477954 0.3889739385 0.4871571610 0.4793860368 0.3969164304 0.4345453854 0.4848468568 0.4297961346 0.5200826594 0.5119864456 0.4379496986 0.4862453467 0.5164128670 0.4826600719 0.5629337035 0.5545027184 0.4910097652 0.5529005944 0.5575919738 0.5508072944 0.6185141553 0.6097981799 0.5592838630 0.6382667364 0.6111632276 0.6380727584 0.6902382286 0.6813936188 0.6465140199 0.7466440104 0.6805592000 0.7488289510 0.7821716521 0.7735394330 0.7569202750 0.8826456472 0.7699579617 0.8877226989 0.8989585082 0.8911836424 0.8949142996 1.0506032388 0.8843081311 1.0590023727 1.0454963869 1.0396883322 1.0644162768 1.2532760410 1.0291885940 1.2650494066 1.2260647945 1.2239539609 1.2674362398 1.4892617713 1.2102643512 1.5034151954 1.4422827331 1.4461873230 1.5013378476 1.7481013984 1.4316963560 1.7612402301 1.6886630405 1.7008948823 1.7539940812 2.0013113520 1.6981999203 2.0050032432 1.9391569090 0.0363305411 0.0039401964 0.1427037688 0.0623795813 0.1088342994 0.1668612690 0.1632695259 0.1061575677 0.1717357608 0.1793457196 0.1574738401 0.2324342634 0.2276922717 0.1597401871 0.1966415119 0.2391648529 0.1862309051 0.2676195820 0.2621341334 0.1907133547 0.2142446211 0.2707531970 0.2063100631 0.2886560395 0.2831406502 0.2115469319 0.2303556855 0.2901673861 0.2238414522 0.3050018108 0.2995376267 0.2293329074 0.2481981020 0.3056096482 0.2425854538 0.3214902801 0.3160241883 0.2481833672 0.2700455922 0.3213991282 0.2651382629 0.3409544035 0.3354261971 0.2708066551 0.2978916926 0.3401500039 0.2936777726 0.3655075466 0.3598763912 0.2994080695 0.3338240985 0.3638733588 0.3304018862 0.3971699592 0.3914188483 0.3361819708 0.3802416132 0.3945332452 0.3777846353 0.4381917438 0.4323328447 0.3835831168 0.4399841543 0.4343463029 0.4387251601 0.4912355718 0.4853229035 0.4444768377 0.5163964333 0.4859632735 0.5166161762 0.5594819838 0.5536339315 0.5222035689 0.6133081650 0.5525877231 0.6153165862 0.6466621725 0.6410953297 0.6205462862 0.7348745175 0.6380379489 0.7389685575 0.7569767754 0.7520503140 0.7435452923 0.8851676659 0.7467168728 0.8915404714 0.8948019549 0.8910641973 0.8950501944 1.0673312626 0.8834006576 1.0758908540 1.0639940253 1.0622036756 1.0778219151 1.2819934043 1.0526645051 1.2920265552 1.2664552266 1.2675093090 1.2918900495 1.5244818789 1.2575944162 1.5340861632 1.4993924950 1.5040258882 1.5317417151 1.7802428940 1.4970932491 1.7854848483 1.7504528230 1.7587447365 1.7818366190 2.0173957594 1.7676445281 2.0107261203 1.9852560417 0.0176881862 0.0006852321 0.0973772373 0.0333647881 0.0761040492 0.1092052282 0.1082021683 0.0732068189 0.1229479933 0.1186458708 0.1135032161 0.1607632526 0.1582433857 0.1143359660 0.1450560223 0.1661667799 0.1378292801 0.1914330632 0.1878679889 0.1406080936 0.1623936470 0.1939735411 0.1568090901 0.2120570088 0.2082021377 0.1603756616 0.1794781614 0.2131429496 0.1749638742 0.2297292899 0.2258035230 0.1788304294 0.1990917463 0.2299402339 0.1953520892 0.2485212785 0.2445736488 0.1993243591 0.2233938133 0.2480495578 0.2203257498 0.2711157719 0.2671495559 0.2243246315 0.2544075486 0.2699670934 0.2520333226 0.2997027639 0.2957200905 0.2560163546 0.2943109770 0.2977918588 0.2927342028 0.3364674194 0.3324860197 0.2966613384 0.3456094549 0.3336637184 0.3449894312 0.3838580530 0.3799215337 0.3488057431 0.4112308560 0.3800135087 0.4117649879 0.4447337333 0.4409229661 0.4153887628 0.4945481406 0.4397109414 0.4964523605 0.5224265473 0.5188741448 0.4997649345 0.5993022633 0.5161398885 0.6027785596 0.6207064678 0.6176130333 0.6056170107 0.7293634042 0.6131885026 0.7345404306 0.7435927277 0.7412393306 0.7366991204 0.8882233015 0.7350996504 0.8950505018 0.8949012930 0.8936450694 0.8963045244 1.0780506053 0.8860717097 1.0861198079 1.0773420288 1.0775692812 1.0862935474 1.2980635525 1.0694171338 1.3063294855 1.2908743477 1.2928693209 1.3054443411 1.5418888962 1.2859645639 1.5482733514 1.5299030468 1.5335812120 1.5468127752 1.7935076280 1.5311915808 1.7944032706 1.7788372907 1.7835832173 1.7937452911 2.0208329697 1.7976161730 2.0097804910 2.0011408916 0.0098336775 0.0005322110 0.0698094725 0.0196804043 0.0560009633 0.0752489397 0.0749874798 0.0538596238 0.0920478769 0.0817729264 0.0857910602 0.1150974801 0.1136535861 0.0861258856 0.1117859572 0.1189660474 0.1069061248 0.1411651958 0.1388394918 0.1086648880 0.1287486358 0.1429730589 0.1249835207 0.1607877704 0.1581520736 0.1273739197 0.1464713736 0.1614314316 0.1435202830 0.1791630214 0.1764345452 0.1461595686 0.1673677577 0.1790422650 0.1650793723 0.1996158270 0.1968763166 0.1677880609 0.1934748024 0.1988724215 0.1918126674 0.2245964397 0.2218798787 0.1945018448 0.2268058486 0.2232343885 0.2258160407 0.2562791468 0.2536113876 0.2284296508 0.2695730329 0.2542320864 0.2693583727 0.2969185451 0.2943350177 0.2718452440 0.3243205236 0.2940875629 0.3250213476 0.3490549878 0.3466105392 0.3273212793 0.3939893523 0.3453355687 0.3957655738 0.4156213896 0.4133978685 0.3978021167 0.4819080684 0.4109320295 0.4849155505 0.4999637517 0.4980763106 0.4865935298 0.5916777552 0.4942855720 0.5960306169 0.6057520670 0.6043519090 0.5972403040 0.7268906260 0.5991876979 0.7325990252 0.7367211630 0.7359889669 0.7332324978 0.8905845057 0.7295806428 0.8974549252 0.8961358829 0.8962556956 0.8974441530 1.0842881393 0.8890554727 1.0917716117 1.0858167840 1.0869154579 1.0911614588 1.3064535433 1.0799113510 1.3134292265 1.3044901566 1.3065258443 1.3124989803 1.5500029255 1.3015297880 1.5544935347 1.5451458777 1.5477375052 1.5539350056 1.7986386581 1.5476878337 1.7974554118 1.7910658489 1.7935533061 1.7986552582 2.0208912939 1.8095254731 2.0082790435 2.0058417982 0.0060589117 0.0009472742 0.0535640371 0.0127586205 0.0439853577 0.0552693334 0.0549557453 0.0427765580 0.0733876712 0.0595222679 0.0690964901 0.0866997417 0.0856862947 0.0693825713 0.0914684404 0.0892566087 0.0881575119 0.1090826861 0.1074866946 0.0893627210 0.1081272138 0.1102312296 0.1056305856 0.1276858804 0.1258705353 0.1072587543 0.1262610104 0.1279573650 0.1244136325 0.1464143671 0.1445427176 0.1261983356 0.1480254469 0.1460549256 0.1467578061 0.1680143410 0.1661632360 0.1485577481 0.1753594863 0.1671093585 0.1746758829 0.1947160002 0.1929276288 0.1764106068 0.2102539704 0.1932576134 0.2102143475 0.2286399945 0.2269491047 0.2118274563 0.2549263305 0.2265705836 0.2556297098 0.2720542993 0.2705014995 0.2570699368 0.3119251065 0.2692947303 0.3134942951 0.3275264510 0.3261649984 0.3147067109 0.3841730270 0.3239991317 0.3867371975 0.3979949291 0.3968942063 0.3876606357 0.4749370820 0.3936496068 0.4786073018 0.4867574537 0.4860033785 0.4791772452 0.5876929335 0.4816061522 0.5925244960 0.5973470369 0.5970373877 0.5926831630 0.7258261748 0.5915137609 0.7317602543 0.7332364493 0.7334670234 0.7314777804 0.8920815098 0.7270268030 0.8988573231 0.8972748475 0.8981105328 0.8981697335 1.0876299159 0.8912700350 1.0946576527 1.0907135115 1.0921376896 1.0937281064 1.3105697573 1.0858925840 1.3167543664 1.3116189197 1.3134571984 1.3159624158 1.5536048480 1.3095143011 1.5571107902 1.5523990180 1.5542204920 1.5571715601 1.8005384814 1.5552451676 1.7984685863 1.7961308091 1.7974102755 1.8006551932 2.0204784146 1.8139813464 2.0074314279 2.0070328038 0.0039039313 0.0014184262 0.0447460264 0.0089551549 0.0374686536 0.0438133370 0.0431330211 0.0371420680 0.0633539982 0.0464500817 0.0601695069 0.0698290759 0.0688845904 0.0606345534 0.0805420952 0.0714056697 0.0781653858 0.0896715523 0.0884426881 0.0791371329 0.0970517776 0.0903164569 0.0953339271 0.1074818375 0.1061620080 0.0965265950 0.1154385198 0.1074892016 0.1142759620 0.1263769442 0.1250652221 0.1155222140 0.1377165852 0.1258794172 0.1370808746 0.1487159988 0.1474683360 0.1382814609 0.1657676078 0.1477503106 0.1656846344 0.1765624764 0.1754166808 0.1667750430 0.2015653139 0.1751058085 0.2021017567 0.2119802781 0.2109708832 0.2030318760 0.2473236487 0.2099765714 0.2485745122 0.2572261404 0.2563917963 0.2492982485 0.3055848108 0.2546057386 0.3076603018 0.3148641749 0.3142506513 0.3081318757 0.3792500535 0.3115621912 0.3822589756 0.3878118264 0.3874720228 0.3824341915 0.4715391003 0.3837901923 0.4755649852 0.4793071334 0.4792979686 0.4754073935 0.5858456147 0.4745848678 0.5909108718 0.5927657496 0.5931405832 0.5904041022 0.7254338919 0.5874618991 0.7314462152 0.7314708979 0.7322651815 0.7306148556 0.8928930815 0.7258649295 0.8995670950 0.8980075682 0.8992148803 0.8985092874 1.0892261655 0.8926230140 1.0959715506 1.0933104827 1.0948464164 1.0949067631 1.3123960173 1.0890303258 1.3181603340 1.3151391076 1.3167922968 1.3174952436 1.5550708008 1.3133675110 1.5581193628 1.5557147574 1.5570862541 1.5585366131 1.8011903504 1.5585563959 1.7987816640 1.7981948535 1.7988935118 1.8014480607 2.0201996701 1.8156024720 2.0070730926 2.0073107408 0.0024910791 0.0019740297 0.0412506637 0.0067708036 0.0350750389 0.0379731785 0.0367528900 0.0356153054 0.0599437117 0.0394889666 0.0572396375 0.0609999258 0.0598813906 0.0580516966 0.0769927462 0.0618956414 0.0750364850 0.0793631568 0.0782271329 0.0760223344 0.0935452557 0.0796714180 0.0921827640 0.0966725365 0.0955836175 0.0932060667 0.1120665596 0.0965332021 0.1112176493 0.1156285494 0.1146255373 0.1121913498 0.1345440777 0.1150933370 0.1341964889 0.1383716769 0.1374841710 0.1350605877 0.1628506185 0.1374387820 0.1630388899 0.1668628544 0.1661184033 0.1637464374 0.1989586094 0.1654947420 0.1997517682 0.2031248056 0.2025535082 0.2002607325 0.2450816535 0.2012625382 0.2465722704 0.2493993161 0.2490353948 0.2468424178 0.3037584704 0.2469751833 0.3060505213 0.3082399085 0.3081209527 0.3060442691 0.3778804984 0.3051913912 0.3810733529 0.3825429640 0.3827070781 0.3807602295 0.4706485519 0.3788313327 0.4748137857 0.4755035779 0.4759841145 0.4741788310 0.5854263433 0.4711407538 0.5905732658 0.5904638092 0.5912809472 0.5896302596 0.7254371402 0.5855517232 0.7314619286 0.7305983207 0.7317464981 0.7302727516 0.8932215950 0.7253861281 0.8998335044 0.8983529473 0.8997830570 0.8985353270 1.0897358995 0.8933195067 1.0963516219 1.0945114881 1.0961067440 1.0951942186 1.3129135768 1.0904844228 1.3185063081 1.3167087995 1.3182530594 1.3179029895 1.5554310790 1.3150383463 1.5583126637 1.5571237882 1.5582585801 1.5589138462 1.8012911951 1.5598837449 1.7987803248 1.7990121966 1.7994372791 1.8016823580 2.0200529649 1.8161615082 2.0069243880 2.0073905958 0.0014337767 0.0027435978 0.0422529082 0.0055569510 0.0363038108 0.0363519226 0.0343862675 0.0378355644 0.0624721677 0.0370672381 0.0597244161 0.0583720946 0.0568500287 0.0610811775 0.0801559080 0.0588169374 0.0781676455 0.0761843389 0.0749000655 0.0793992454 0.0969672683 0.0763084635 0.0955735884 0.0932814754 0.0921915673 0.0966660054 0.1155228814 0.0931123409 0.1146440248 0.1122252327 0.1113100250 0.1155815472 0.1379021030 0.1117535501 0.1375244769 0.1350790303 0.1343390862 0.1382841681 0.1660221545 0.1342726130 0.1661791741 0.1637647300 0.1632149331 0.1667309784 0.2018743287 0.1625729580 0.2026343600 0.2002875975 0.1999528714 0.2029430363 0.2476792803 0.1986465935 0.2491347429 0.2468820328 0.2467932939 0.2491632232 0.3059795152 0.2447214591 0.3082347952 0.3060967516 0.3062864139 0.3079492646 0.3796726406 0.3033498553 0.3828281864 0.3808208642 0.3813172418 0.3822055692 0.4719722251 0.3774401311 0.4761014800 0.4742360380 0.4750560695 0.4751401402 0.5862645226 0.4702177710 0.5913794864 0.5896620539 0.5908019650 0.5901138949 0.7258068027 0.5850844393 0.7318069658 0.7302411771 0.7316649924 0.7303269315 0.8931839345 0.7253221102 0.8997818940 0.8983780046 0.9000040421 0.8982569010 1.0894004880 0.8935614056 1.0960152442 1.0948116902 1.0964968742 1.0947250276 1.3124302875 1.0908947778 1.3180349516 1.3171400198 1.3186602322 1.3174095914 1.5549645950 1.3154595496 1.5578674575 1.5575285977 1.5585474707 1.5585483791 1.8009788760 1.5601743173 1.7984922093 1.7992607774 1.7995324007 1.8015376696 2.0199570199 1.8162416562 2.0068365632 2.0074413953 0.0004802800 0.0039206757 0.0479864542 0.0050180323 0.0414378420 0.0385609288 0.0355168603 0.0442839899 0.0714776461 0.0386595558 0.0681440654 0.0613870705 0.0591798248 0.0703251654 0.0906520595 0.0615527869 0.0881707101 0.0795086724 0.0778254929 0.0899031725 0.1079579953 0.0795882507 0.1061416081 0.0966702397 0.0953522984 0.1075430489 0.1264443749 0.0965906620 0.1251889389 0.1155357192 0.1144968901 0.1263208682 0.1484173337 0.1152359911 0.1476891446 0.1382201173 0.1374273456 0.1485676485 0.1758951391 0.1376435846 0.1757160259 0.1666673068 0.1661215816 0.1763269971 0.2109067155 0.1657529734 0.2113409534 0.2028905850 0.2026132374 0.2116527007 0.2556839314 0.2015699179 0.2568257275 0.2491278184 0.2491504167 0.2567990057 0.3127762041 0.2473262376 0.3147366495 0.3079325987 0.3082884278 0.3143339974 0.3850986212 0.3055758186 0.3879894157 0.3822046264 0.3829199841 0.3871858768 0.4759045744 0.3792314525 0.4798146180 0.4751452312 0.4762293425 0.4786115342 0.5886521593 0.4715300814 0.5936120042 0.5901050637 0.5915381666 0.5920549813 0.7267082442 0.5858954196 0.7326361911 0.7302681895 0.7319882821 0.7308375347 0.8928022785 0.7256445221 0.8994245204 0.8980873694 0.8999770829 0.8975894838 1.0881004463 0.8934558528 1.0948360429 1.0943456059 1.0962210437 1.0932916721 1.3107159159 1.0904770907 1.3165150037 1.3166633450 1.3182650607 1.3157415870 1.5533966399 1.3148951760 1.5565158525 1.5571887359 1.5581668661 1.5571903575 1.8000269798 1.5596514502 1.7977048474 1.7991372091 1.7992706494 1.8008844225 2.0198194092 1.8159284991 2.0067269482 2.0075229270 -0.0006070369 0.0058861898 0.0598686262 0.0050761683 0.0516663260 0.0450694253 0.0404089511 0.0564135353 0.0888523324 0.0446573856 0.0842417152 0.0706457710 0.0673750130 0.0876411130 0.1104817207 0.0706804256 0.1069653668 0.0899654354 0.0875943673 0.1094994171 0.1285102773 0.0901444913 0.1258329942 0.1074678040 0.1056780455 0.1278045833 0.1467884637 0.1076100854 0.1447768420 0.1261799183 0.1247960583 0.1463482356 0.1680072037 0.1261764104 0.1665782979 0.1484021411 0.1473486095 0.1678117230 0.1943410206 0.1481775300 0.1934900115 0.1761606411 0.1754233292 0.1943866157 0.2278663769 0.1756482369 0.2276478400 0.2114993206 0.2110992520 0.2281747272 0.2708190997 0.2106290463 0.2713296143 0.2566664962 0.2566423571 0.2714376852 0.3257455167 0.2553612110 0.3271081874 0.3142258633 0.3146209840 0.3267458593 0.3955750325 0.3124039263 0.3979226056 0.3871010011 0.3879510868 0.3970498518 0.4836136455 0.3846856745 0.4870650748 0.4785423772 0.4798614509 0.4856711261 0.5934303848 0.4754812526 0.5980542911 0.5919840441 0.5937473446 0.5961812821 0.7285783883 0.5882844728 0.7343352141 0.7307315601 0.7328557905 0.7321086944 0.8920551427 0.7265214039 0.8987080035 0.89