<?xml version="1.0"?>
<VTKFile type="UnstructuredGrid" version="0.1" byte_order="LittleEndian">
<UnstructuredGrid>
<Piece NumberOfPoints="2400" NumberOfCells="800">
<Points>
<DataArray type="Float64" NumberOfComponents="3" format="ascii">
0 0 0 0.050000000000000037 0 0 0 0.049999999999899652 0 0.050000000000000037 0 0 0.050000000000000037 0.049999999999899652 0 0 0.049999999999899652 0 0.050000000000000037 0.049999999999899652 0 0 0.049999999999899652 0 0 0.099999999999814668 0 0 0.099999999999814668 0 0.050000000000000037 0.099999999999814668 0 0 0.14999999999970359 0 0.050000000000000037 0.049999999999899652 0 0 0.099999999999814668 0 0.050000000000000037 0.099999999999814668 0 0.050000000000000037 0.049999999999899652 0 0.050000000000000037 0.099999999999814668 0 0.099999999999999978 0.049999999999899652 0 0.050000000000000037 0.099999999999814668 0 0.099999999999999978 0.099999999999814668 0 0.099999999999999978 0.049999999999899652 0 0.050000000000000037 0.099999999999814668 0 0.099999999999999978 0.099999999999814668 0 0.050000000000000037 0.14999999999970359 0 0.099999999999999978 0.099999999999814668 0 0.099999999999999978 0.14999999999970359 0 0.14999999999999999 0.099999999999814668 0 0.099999999999999978 0.099999999999814668 0 0.099999999999999978 0.049999999999899652 0 0.14999999999999999 0.049999999999899652 0 0.099999999999999978 0.049999999999899652 0 0.099999999999999978 0 0 0.14999999999999999 0 0 0.050000000000000037 0 0 0.050000000000000037 0.049999999999899652 0 0.099999999999999978 0 0 0.050000000000000037 0.049999999999899652 0 0.099999999999999978 0.049999999999899652 0 0.099999999999999978 0 0 0.050000000000000037 0.24999999999941211 0 0 0.24999999999941211 0 0.050000000000000037 0.19999999999955789 0 0 0.24999999999941211 0 0 0.19999999999955789 0 0.050000000000000037 0.19999999999955789 0 0 0.19999999999955789 0 0.050000000000000037 0.19999999999955789 0 0.050000000000000037 0.14999999999970359 0 0 0.19999999999955789 0 0 0.14999999999970359 0 0.050000000000000037 0.14999999999970359 0 0.050000000000000037 0.099999999999814668 0 0 0.14999999999970359 0 0.050000000000000037 0.14999999999970359 0 0.099999999999999978 0.099999999999814668 0 0.050000000000000037 0.14999999999970359 0 0.099999999999999978 0.14999999999970359 0 0.099999999999999978 0.14999999999970359 0 0.099999999999999978 0.19999999999955789 0 0.14999999999999999 0.14999999999970359 0 0.050000000000000037 0.19999999999955789 0 0.099999999999999978 0.14999999999970359 0 0.099999999999999978 0.19999999999955789 0 0.050000000000000037 0.19999999999955789 0 0.050000000000000037 0.14999999999970359 0 0.099999999999999978 0.14999999999970359 0 0.050000000000000037 0.24999999999941211 0 0.050000000000000037 0.19999999999955789 0 0.099999999999999978 0.19999999999955789 0 0.099999999999999978 0.19999999999955789 0 0.099999999999999978 0.24999999999941211 0 0.14999999999999999 0.19999999999955789 0 0.050000000000000037 0.24999999999941211 0 0.099999999999999978 0.19999999999955789 0 0.099999999999999978 0.24999999999941211 0 0.14999999999999999 0.24999999999941211 0 0.20000000000000001 0.19999999999955789 0 0.20000000000000001 0.24999999999941211 0 0.099999999999999978 0.24999999999941211 0 0.14999999999999999 0.24999999999941211 0 0.14999999999999999 0.19999999999955789 0 0.14999999999999999 0.24999999999941211 0 0.14999999999999999 0.19999999999955789 0 0.20000000000000001 0.19999999999955789 0 0.14999999999999999 0.19999999999955789 0 0.20000000000000001 0.14999999999970359 0 0.20000000000000001 0.19999999999955789 0 0.14999999999999999 0.19999999999955789 0 0.14999999999999999 0.14999999999970359 0 0.20000000000000001 0.14999999999970359 0 0.099999999999999978 0.19999999999955789 0 0.14999999999999999 0.19999999999955789 0 0.14999999999999999 0.14999999999970359 0 0.099999999999999978 0.14999999999970359 0 0.14999999999999999 0.14999999999970359 0 0.14999999999999999 0.099999999999814668 0 0.14999999999999999 0.14999999999970359 0 0.20000000000000001 0.14999999999970359 0 0.20000000000000001 0.099999999999814668 0 0.20000000000000001 0.14999999999970359 0 0.25 0.099999999999814668 0 0.25 0.14999999999970359 0 0.20000000000000001 0.19999999999955789 0 0.25 0.14999999999970359 0 0.25 0.19999999999955789 0 0.20000000000000001 0.14999999999970359 0 0.20000000000000001 0.19999999999955789 0 0.25 0.14999999999970359 0 0.20000000000000001 0.19999999999955789 0 0.20000000000000001 0.24999999999941211 0 0.25 0.19999999999955789 0 0.20000000000000001 0.24999999999941211 0 0.25 0.24999999999941211 0 0.25 0.19999999999955789 0 0.14999999999999999 0.049999999999899652 0 0.20000000000000001 0.049999999999899652 0 0.20000000000000001 0 0 0.14999999999999999 0 0 0.14999999999999999 0.049999999999899652 0 0.20000000000000001 0 0 0.099999999999999978 0.049999999999899652 0 0.14999999999999999 0 0 0.14999999999999999 0.049999999999899652 0 0.099999999999999978 0.099999999999814668 0 0.14999999999999999 0.049999999999899652 0 0.14999999999999999 0.099999999999814668 0 0.14999999999999999 0.14999999999970359 0 0.14999999999999999 0.099999999999814668 0 0.20000000000000001 0.099999999999814668 0 0.14999999999999999 0.049999999999899652 0 0.14999999999999999 0.099999999999814668 0 0.20000000000000001 0.049999999999899652 0 0.14999999999999999 0.099999999999814668 0 0.20000000000000001 0.099999999999814668 0 0.20000000000000001 0.049999999999899652 0 0.20000000000000001 0.099999999999814668 0 0.20000000000000001 0.049999999999899652 0 0.25 0.049999999999899652 0 0.20000000000000001 0.14999999999970359 0 0.20000000000000001 0.099999999999814668 0 0.25 0.099999999999814668 0 0.20000000000000001 0.099999999999814668 0 0.25 0.049999999999899652 0 0.25 0.099999999999814668 0 0.20000000000000001 0.049999999999899652 0 0.25 0 0 0.25 0.049999999999899652 0 0.20000000000000001 0.049999999999899652 0 0.20000000000000001 0 0 0.25 0 0 0.25 0 0 0.25 0.049999999999899652 0 0.29999999999999999 0 0 0.25 0.049999999999899652 0 0.29999999999999999 0.049999999999899652 0 0.29999999999999999 0 0 0.29999999999999999 0.049999999999899652 0 0.29999999999999999 0 0 0.34999999999999998 0 0 0.29999999999999999 0.049999999999899652 0 0.34999999999999998 0.049999999999899652 0 0.34999999999999998 0 0 0.34999999999999998 0.049999999999899652 0 0.34999999999999998 0 0 0.40000000000000002 0 0 0.34999999999999998 0.099999999999814668 0 0.34999999999999998 0.14999999999970359 0 0.40000000000000002 0.099999999999814668 0 0.34999999999999998 0.049999999999899652 0 0.34999999999999998 0.099999999999814668 0 0.40000000000000002 0.049999999999899652 0 0.29999999999999999 0.049999999999899652 0 0.34999999999999998 0.049999999999899652 0 0.29999999999999999 0.099999999999814668 0 0.34999999999999998 0.049999999999899652 0 0.34999999999999998 0.099999999999814668 0 0.29999999999999999 0.099999999999814668 0 0.34999999999999998 0.099999999999814668 0 0.29999999999999999 0.099999999999814668 0 0.29999999999999999 0.14999999999970359 0 0.29999999999999999 0.049999999999899652 0 0.29999999999999999 0.099999999999814668 0 0.25 0.099999999999814668 0 0.25 0.049999999999899652 0 0.29999999999999999 0.049999999999899652 0 0.25 0.099999999999814668 0 0.29999999999999999 0.099999999999814668 0 0.25 0.099999999999814668 0 0.25 0.14999999999970359 0 0.25 0.14999999999970359 0 0.29999999999999999 0.14999999999970359 0 0.25 0.19999999999955789 0 0.29999999999999999 0.14999999999970359 0 0.25 0.19999999999955789 0 0.29999999999999999 0.19999999999955789 0 0.29999999999999999 0.099999999999814668 0 0.25 0.14999999999970359 0 0.29999999999999999 0.14999999999970359 0 0.25 0.24999999999941211 0 0.25 0.19999999999955789 0 0.29999999999999999 0.19999999999955789 0 0.25 0.24999999999941211 0 0.29999999999999999 0.19999999999955789 0 0.29999999999999999 0.24999999999941211 0 0.29999999999999999 0.24999999999941211 0 0.34999999999999998 0.19999999999955789 0 0.34999999999999998 0.24999999999941211 0 0.29999999999999999 0.19999999999955789 0 0.29999999999999999 0.24999999999941211 0 0.34999999999999998 0.19999999999955789 0 0.34999999999999998 0.19999999999955789 0 0.34999999999999998 0.24999999999941211 0 0.40000000000000002 0.19999999999955789 0 0.34999999999999998 0.099999999999814668 0 0.29999999999999999 0.14999999999970359 0 0.34999999999999998 0.14999999999970359 0 0.29999999999999999 0.19999999999955789 0 0.34999999999999998 0.19999999999955789 0 0.34999999999999998 0.14999999999970359 0 0.29999999999999999 0.14999999999970359 0 0.29999999999999999 0.19999999999955789 0 0.34999999999999998 0.14999999999970359 0 0.34999999999999998 0.19999999999955789 0 0.34999999999999998 0.14999999999970359 0 0.40000000000000002 0.14999999999970359 0 0.34999999999999998 0.14999999999970359 0 0.40000000000000002 0.14999999999970359 0 0.40000000000000002 0.099999999999814668 0 0.34999999999999998 0.19999999999955789 0 0.40000000000000002 0.14999999999970359 0 0.40000000000000002 0.19999999999955789 0 0.40000000000000002 0.19999999999955789 0 0.45000000000000001 0.19999999999955789 0 0.45000000000000001 0.14999999999970359 0 0.40000000000000002 0.14999999999970359 0 0.40000000000000002 0.19999999999955789 0 0.45000000000000001 0.14999999999970359 0 0.40000000000000002 0.14999999999970359 0 0.45000000000000001 0.14999999999970359 0 0.45000000000000001 0.099999999999814668 0 0.34999999999999998 0.24999999999941211 0 0.40000000000000002 0.24999999999941211 0 0.40000000000000002 0.19999999999955789 0 0.40000000000000002 0.24999999999941211 0 0.40000000000000002 0.19999999999955789 0 0.45000000000000001 0.19999999999955789 0 0.40000000000000002 0.24999999999941211 0 0.45000000000000001 0.24999999999941211 0 0.45000000000000001 0.19999999999955789 0 0.45000000000000001 0.24999999999941211 0 0.45000000000000001 0.19999999999955789 0 0.5 0.19999999999955789 0 0.45000000000000001 0.24999999999941211 0 0.5 0.19999999999955789 0 0.5 0.24999999999941211 0 0.45000000000000001 0.19999999999955789 0 0.45000000000000001 0.14999999999970359
[...]
<PointData Scalars="tracer_conc," Vectors="" Tensors="">
<DataArray type="Float64" Name="tracer_conc" format="ascii">
1.0650732360962099 0.94310229156483216 1.5559768026234997 0.99447410756904431 1.3945708260451417 1.4948992345808492 1.3520242173195851 1.5528644274956549 1.8736388881774781 1.8148693614938651 1.6526790363428803 1.9767250381647146 1.4129274993833505 1.8115066995837965 1.6610132166997214 1.398916505431566 1.6798694838958039 1.2805673052364837 1.6449649106632176 1.5441086064905767 1.3111107435290326 1.6602549361198453 1.532439119864565 1.838872159638234 1.5450541450831867 1.7203032150053204 1.4449496147653007 1.5499422229083171 1.309237697641036 1.2303927832329287 1.2916329019329704 1.0124424036475594 0.98589604399576003 1.0236040212921573 1.3796884008785224 0.97759284050137263 1.3589639104157429 1.3066861729047197 0.99138439689938773 1.9367046290501235 2.0066294824720008 1.9083959253059772 2.0085848745040282 1.9786247738293843 1.9064183115284512 1.9937787586225355 1.8959627676608095 1.8338068032912707 2.005007212164259 1.9322718050822585 1.8217208895694172 1.6849848238599998 1.9459689683011356 1.8149036738455162 1.5577602834054658 1.8137837420581222 1.7067827374190658 1.7064185287580165 1.8211083930099283 1.6085244838358672 1.9015282642199143 1.7203376807200303 1.8077584337446453 1.914693475420697 1.8134181803182277 1.7054398223561795 1.9488464643866046 1.8950967308640372 1.8113118647921833 1.8071434355386102 1.8772098233739662 1.7209799982095884 1.9437369762034482 1.8181057171629029 1.8670054179778435 1.7916815359789691 1.6415949088112236 1.7100803642596052 1.8706581396849247 1.7905733004114477 1.7285510610442218 1.7983288514441058 1.7204688350377173 1.6344347385626752 1.718844171014795 1.534886402225748 1.6363441985851368 1.7294007208262892 1.6130429868256355 1.5243246467253586 1.8086464081714375 1.720755941568181 1.6215921464935579 1.7015819657837385 1.6129840137258833 1.4628731583840118 1.6061194551063069 1.5301236544575478 1.3882554885801146 1.5226846831199981 1.3260247390246347 1.4550156079042718 1.6327204596410261 1.4569588132284261 1.5544581461186024 1.5302994013466922 1.6412833055654708 1.4486698338737689 1.6362284190418472 1.7153847630773995 1.5511908197521374 1.7092619822495734 1.627044259241311 1.5574908952251345 1.2313568854911288 1.2068903522960841 0.99339562886133437 1.0081262530412818 1.2362216681051834 0.98972687007633209 1.282463497988531 0.99227031236035745 1.2491984258057007 1.529461121252335 1.2476699712599764 1.4565410958215999 1.6196537786658167 1.4573706140506519 1.3757328990337923 1.2505310437971218 1.4563320524571686 1.1924580187011402 1.443555958759847 1.3862992507509522 1.2029927957806406 1.3833297022977735 1.2077004848134347 1.1611559267557094 1.5325102247311679 1.3869243871123358 1.3171524218305031 1.3748757073962665 1.1680162896766098 1.3267331620032128 1.192837572570091 0.99415096737609276 1.1729977024745273 1.1957179237991582 1.0061061609809321 0.99174610144326769 1.005004471443619 1.1630238967834272 0.99290625835394053 1.1612054062250137 1.1440513628444129 0.99461433910252561 1.1348643473140119 1.0043277430304189 0.99363476985919519 1.1336760531469519 1.1182403567277808 0.9949129306003599 1.1096119731402401 1.0038658470627524 0.99414216636943431 1.2259347662173232 1.316626114713785 1.1731575259244817 1.1184248655044673 1.2202261696949284 1.0860836461368126 1.1443796292207549 1.108992196402508 1.2688462196116637 1.1123528119513439 1.2257577403844284 1.2645724945563557 1.2175075260456887 1.2742498476213546 1.3833285607483197 1.1384947742193956 1.2739528417081638 1.316493309393366 1.1735187218077558 1.1337860784379046 1.3223810822577662 1.2651331973756379 1.3271776567237841 1.4547043157048931 1.4551861540362763 1.3788313922586388 1.5566368435450628 1.3852905780050959 1.5497863964914755 1.4748075688277429 1.2715562626366097 1.4474463485971085 1.3853803499783148 1.6301978893573106 1.5544109869749245 1.4706701445652788 1.6248070039462095 1.4760276556075362 1.5425678157895961 1.5393051870480094 1.3970540765294235 1.457629344856626 1.4747725192915828 1.5439525922698556 1.3925697246851829 1.3972145868425703 1.4576118962000604 1.3169028870694932 1.2222563463066465 1.3778567549690746 1.3198214007767317 1.469494350010601 1.3972649095779246 1.3182704631622135 1.3855016013960737 1.474972357241799 1.3132257910360845 1.3959735850438855 1.3198812228733481 1.2510545651720384 1.3124260407096302 1.25760693055603 1.1767256085887088 1.3915764901289933 1.2550097373257887 1.3219392427834435 1.3160696675411827 1.2491140201169877 1.1950967900083533 1.2576066288262397 1.319604280503851 1.191997999395396 1.2503991734810547 1.1984354649058213 1.1342411784008859 1.4536483956758928 1.3731895212946668 1.3206238437026701 1.372087462281836 1.3218630953577357 1.2439033535758803 1.3687389020331266 1.2901847481701176 1.2469610101491295 1.2882596256218726 1.2490113201151332 1.1738911783846548 1.285475633187882 1.1763556736891689 1.2094603380966147 1.2460408709084096 1.1983826093926782 1.1359796769854211 1.2432209026009755 1.13837656281301 1.1791348931294179 1.1914748856013098 1.0944346908128246 1.1422326926279289 1.1940072105876767 1.1389473346529448 1.0924055168820395 1.1331102510993809 1.0726657227193408 1.0447173348224512 1.1312254132064077 1.099433912427916 1.0460727915832617 1.0645884395710916 1.0521961020480355 0.99550488478256749 1.0032303453541005 1.0649053686127614 0.9948776743449842 0.9953227679429093 1.0726842338840483 1.0859210202167786 0.99453784848753679 1.0035172324585957 1.0864345170678125 1.108825971016302 0.99513286200768258 1.0946149587390634 1.2170251794806848 1.0885468201666713 1.1809574838569592 1.2536604021493085 1.1315403604844256 1.1810366510988808 1.1389470491521532 1.06654630454208 1.1727561436843663 1.0647160093590813 1.094686436041268 1.1752036647757487 1.4578472217050544 1.4689498467841569 1.3591499982356179 1.4676295168652338 1.3689029445960228 1.3604817900129131 1.4567567524849161 1.3601967959764969 1.344733643671115 1.4580073335556185 1.4400922227790913 1.5532989939585635 1.4585818073856993 1.4682850494951483 1.5650784606288879 1.469048928302245 1.4714719892216999 1.5688825798799626 1.4712378207068491 1.3695335584227477 1.3715774868824959 1.4681460430127904 1.4723392598989926 1.3684277640236511 1.3687549011301372 1.3723291493138485 1.2683025502682508 1.3710142074770579 1.271146613579311 1.269573834581418 1.3678188286924109 1.2624000717621102 1.2691208518224373 1.3692998405770782 1.3600341094126074 1.2609685199322898 1.3584590773935752 1.2501042253709789 1.2624105588464054 1.3422551425177716 1.2320514379303746 1.2506138989241158 1.3444022905998356 1.3216591823141648 1.2300392447023134 1.3602333873830128 1.3446484676212711 1.2484086265601484 1.3182562550342387 1.207604978929729 1.2331586346425576 1.290043749487235 1.3207761021669888 1.2053028732858031 1.3730566900823629 1.2862465483407091 1.4116970006351839 1.2889548034832541 1.3218222667648201 1.4088275772739858 1.3727472022246801 1.4119770887888992 1.4997956925193834 1.4584878703259401 1.3430121534014503 1.4395378608248113 1.3190466141358164 1.4118134133300635 1.4399154481034722 1.3448176553531463 1.3212612120968479 1.4376349807998632 1.4120624698848507 1.4397085222437926 1.532213229612011 1.4384643081533273 1.5334336124838119 1.5548538129527398 1.4097269206247258 1.5345261449129239 1.5021452980726233 1.5336020108952206 1.503141966473581 1.6240783493185933 1.5007759849040885 1.5911518144315593 1.626311312150744 1.5330725657156594 1.6244284665244693 1.6471476010771131 1.4575018633192456 1.3696493470912927 1.5029752162543459 1.4581603804467667 1.5023099106213134 1.5896792266058484 1.5424351253050874 1.4546902748067658 1.5931207613215985 1.5442679620234123 1.591321640597535 1.6768848787380237 1.6268853990310868 1.5404708137297152 1.6805027304945863 1.5929825242154811 1.6245919774531439 1.7111917353683435 1.5907034662380723 1.6772174418014054 1.713204958551527 1.6249136964336746 1.7105011942475676 1.7330895224398684 1.7311205577956785 1.6465556764239075 1.7435643681944992 1.6468011733214714 1.65730397483949 1.7435491135636965 1.625978871280398 1.732294569230731 1.6457224710002178 1.5344843846857017 1.6459037294216019 1.5539027749783585 1.6455898978697037 1.5540188849804768 1.6584176016640204 1.5547482468841971 1.5651834013568571 1.6578442012159036 1.4574864343881995 1.5537526799870141 1.5660928358659238 1.4682503211637716 1.56962335091856 1.5650635959814219 1.5656628151571423 1.6618381932511779 1.6572136002743616 1.5687009589453211 1.566026756397314 1.6615881900335678 1.6609292298762737 1.6581638365908202 1.7469559718952625 1.6583383603298671 1.7422594237048883 1.7466136982992373 1.7431165353741955 1.7457909947625616 1.8227512820400587 1.7438950991556794 1.8217605564364618 1.8180154445114505 1.7324746302327299 1.7423100772982665 1.8199491389013422 1.7125100317721675 1.7312271632257203 1.8102527323024771 1.7328094986582865 1.8193200187661567 1.808188369137371 1.8105526953124518 1.8748951496857515 1.8838390401640086 1.8180166554473189 1.8095775408053365 1.8851491328136931 1.8082587538043924 1.8777865878154458 1.7919773552914784 1.8749166050572783 1.8623459177572426 1.9333167713318447 1.8761748325861629 1.8826071613333957 1.9378306326951624 1.8830971526452431 1.8850515147795928 1.9388863820713826 1.8210946199621147 1.8186977731468996 1.8871322089382061 1.8200895870286675 1.8826631594779015 1.8855021279875126 1.7098618962961851 1.6260863419381621 1.763363414354886 1.6300910251701723 1.6774001971888515 1.7597395948632204 1.6779004027660553 1.7586557918804284 1.7930879233342314 1.6799249222647727 1.7106569437149852 1.791480694069282 1.7119326967089978 1.8104595974913826 1.7896210920315174 1.8772747151681157 1.7920365609745261 1.8598486535971994 1.8599656294151956 1.8378699837824028 1.9236262761547629 1.7606673956231043 1.8638741198307403 1.8337034129766108 1.7621931452584891 1.7897635447326969 1.8629228777981601 1.7145773815190577 1.7588601998847142 1.8364621680878199 1.7964517219879776 1.8339321736868652 1.9050560529634006 1.7902527313703414 1.7106329602127033 1.8397682211570587 1.9363813965466572 1.8719308831815753 1.9638792725821335 1.8665514023788685 1.7930798567883703 1.9074905358255425 1.873877758681828 1.900694598514437 1.9631465815665829 1.9048295292791684 1.9195043984945175 1.9719302560462806 1.9053797667522556 1.9706083269385126 1.9568029160416676 1.837178580502608 1.900458617160466 1.9236088787835155 1.8631806196417631 1.9194359962511998 1.9319886250164067 1.9234589415843273 1.9669528145618287 1.9737053910690805 1.9723467423756669 2.0007164672787154 2.0023548765373258 2.0037971925356373 1.9641594933198205 1.999456010447757 1.9668312089337083 2.0065589005197593 1.9607459659753335 1.9439977337336449 1.9568207437558762 2.0079057329018926 1.946138613505731 1.9946600130223846 2.006220243017335 1.9374341633400893 1.9745140568398125 1.9751055486612568 1.9365093895877443 1.9351080268575849 1.9776417301721123 1.8850364132420787 1.9367102413847339 1.9349737073604492 1.8777917892787495 1.9358762630435988 1.9297876256633311 1.9217604511311492 1.9297458554344291 1.975873692722157 1.9348571589614776 1.9307866727134082 1.9774658055144703 1.9329582303753705 1.9720523106677978 1.9749980406143475 1.9726436822527351 2.0044154686977014 1.9743149083090656 1.9687554223683701 1.971876558485544 2.005251702080852 1.9761224737175676 2.0010584040134538 2.001608378043036 2.0012135634654515 1.9777364479877302 2.0011947443902591 1.9743708574125647 1.9751576666625925 2.0039315013492387 1.9780087401781579 2.0013692130789642 2.0009061584615178 1.9746912062910078 2.0036442990964476 1.9747194400340964 1.938511423272943 1.9753810464252317 1.974085982687132 1.9362065595602673 1.9765673848451921 1.9352176363020988 1.8869676941747926 1.9366898748328654 1.9348211465199425 1.9308770296354512 1.9195002178849796 1.8758956677474892 1.9354711792047048 1.9296370301846995 1.8841615616556193 1.9344713950514107 1.9305272511761125 1.9738458513693893 1.9749870277595862 1.9365842494860634 1.9715639331542818 1.9310217650010479 1.9731511597948888 1.9665305907468984 1.9737461772367362 1.9728025579505861 2.0034171601233899 2.0016095094162409 1.9770671610557522 2.0006142534888172 1.9744935012687181 2.0020425610162405 2.0001360794030005 2.0027968249246562 1.9690497455995284 1.9988730619636366 1.9661181706093582 2.0014585259298121 1.9596350679947767 1.9712050385669913 2.0029880143596026 1.9685240886120321 1.9946540029000506 2.0036570143917061 1.9578939381012304 1.9958469498726732 1.9563852923992733 1.9409541659604224 1.93541098826435 1.9013089064365585 1.8694225107099156 1.9603384080956332 1.9372924318950728 1.89968783196844 1.9032149158978489 1.8683294997146771 1.8325940831185232 1.929390730889305 1.9683144938978294 1.9208094505192874 1.9690110214006853 1.9567268342755879 1.9199604056423747 1.9573508263589261 1.9026050522022411 1.9193933547547695 1.9010824612942998 1.9212834196125406 1.8600230618734865 1.9204294189960742 1.8607797106924131 1.8749913213726277 1.9004532863089088 1.8604948743747891 1.8349063183456913 1.8611505732149147 1.8347825949481882 1.7895634548656736 1.8333109093522337 1.758914382467706 1.790774267002873 1.8604563147878372 1.7899945313447998 1.8087264415416047 1.8649731545813335 1.7913944184157735 1.8354303738830213 1.7924440946790585 1.8353509717146119 1.7575056639562601 1.7885055305454904 1.7096196858516952 1.7608716373697459 1.7122257534984098 1.7592069709462836 1.6762033496096289 1.7082476042010504 1.625658983810583 1.6796624366366146 1.7600175147408561 1.7902530144259166 1.710322072070007 1.7580534003639481 1.711997363840321 1.676685480316189 1.7898873576069649 1.7320190393578891 1.7103352587080838 1.7903714147343439 1.808678644431301 1.7316416839545046 1.8086398000077497 1.8182742477748892 1.7432961059629066 1.8090998210402172 1.7428622079463454 1.7311051661557875 1.7463648867519712 1.8193582345183983 1.7422743796855449 1.7471729465290688 1.8211594656439043 1.8184237447001346 1.8213792634996526 1.8181431358159064 1.884365438628242 1.8227884450626786 1.8851771158307826 1.8828005739327025 1.8850276515988098 1.9369326563267248 1.8828780109988088 1.9313817741880488 1.8825306875932684 1.8754660261873237 1.8603033580079888 1.8089382876224824 1.8757475461718323 1.8084805238292561 1.8182673252866122 1.8761729768134943 1.8193071167493016 1.8830765931708375 1.8750662741318496 1.0251375080508438 1.2966324491950716 1.2517982066679083 1.3091389323262228 1.0441225312739755 1.3818309397732915 0.98989212682203132 1.3341493756335008 1.027630878154961 0.98090323430224835 1.0541992618979292 1.4463132051830849 1.104036176822899 1.5290290000219384 1.3863301987550773 1.5288563015535417 1.3800588679498895 1.6916021233427194 1.5951225450028734 1.8372625591930973 1.6347182840096466 1.8022866274296416 1.6608477828130406 1.8275306737036421 1.6489253200408838 1.5407492233418831 1.7189796730583857 1.2964332752487711 1.3887880179939858 1.5646465907862266 1.4203894902300251 1.6610228087025802 1.5371049403263164 1.3242308446155078 1.5402931596931717 1.4533793093502361 1.5563951980298278 1.7076369290914377 1.6072993291056918 1.7135782010616518 1.8106815894475696 1.7156860951377055 1.7075398320784625 1.8060344845959164 1.8136921691719707 1.8210609311767003 1.9027173279607581 1.8012003028707033 1.6748279142550688 1.697648336262668 1.8210413167421555 1.8360255299550396 1.7979471310364272 1.9534767418523191 1.9404459539896994 1.8885638542247609 1.9926307494481903 1.8199092244833861 1.9271734173487063 1.9003547630759101 1.9375244141152128 1.9014548821493029 1.9777768041552044 2.0026777948344208 1.9350024978325842 1.9808394160556935 1.9419489922272344 1.8636272761492563 1.8982916488737986 1.8693565349261201 1.8915273796627576 1.810093841507791 1.8701174576207702 1.7873779465317794 1.8110147598711617 1.793877995724098 1.803372592221314 1.7207619751880781 1.7136952823655582 1.7171967771463148 1.6348640451062955 1.7918478802624587 1.7074569553445296 1.7244129800474211 1.7098881257022254 1.6400369360680407 1.6250732010856208 1.6337288775620518 1.552079262667126 1.6306332088907856 1.6350182749543247 1.5359178729040681 1.5521805253796224 1.527579610005277 1.4513811940089651 1.5596740248994228 1.527005081217206 1.394331623847842 1.4533798187823181 1.5268783156169403 1.6111621838754095 1.4664447459369534 1.6421876825792401 1.5270594515637061 1.6087073431872436 1.7210887774766124 1.6328129517661873 1.6194024114107628 1.7002844324936379 1.7270260346174959 1.611131630643174 1.5380568066275526 1.6232470323498498 1.451772492578236 1.3061371186347579 1.4702745800903336 1.2410091389008751 1.3960956899352261 1.1999852177037604 1.2503909614294491 1.4514293934167382 1.3853136108782116 1.2614478742029034 1.5384323114081171 1.4536688094637902 1.3813079581529635 1.3853324327447123 1.3217880875450432 1.4617702514657629 1.2088318191233554 1.1668562565549119 1.3341218678424995 1.380973674757596 1.2159313899264723 1.3269490158065953 1.1995794125473278 1.011764892401233 1.1756438225324164 1.009576824556677 0.99571257079500308 1.1806932299236592 1.2174354910234051 0.99485302624608318 1.0122518643181808 1.2095920743683772 1.2407055687286259 1.0162828438813143 1.0173029231656232 1.2651753343159517 0.99324448414983557 1.0067189584107616 1.1127043820476563 1.0970007416143164 1.1207102867505196 1.0077291209359234 1.1380958947888717 0.99652051729268476 1.123311882192082 1.0070785993884201 0.99620745551720336 1.0080409784506408 1.1501226270852214 1.0092527413901797 1.1664862244465739 1.1466086499502786 1.1752311270989042 1.1383895022988084 1.279793977348024 1.1799621538656226 1.3214835797306332 1.2748559977428986 1.3268769164322451 1.2691159459073404 1.3909643391268425 1.2747371445865208 1.2210506512805279 1.3245221820825115 1.1496068274184186 1.2688569617184848 1.227063560452017 1.1129136168795188 1.1463714977046062 1.2305548789467804 1.1227923605122647 1.2208447038925097 1.182498434987177 1.2303164747292021 1.3157014627657901 1.2581981046571131 1.3237193718113469 1.3940144010757585 1.3218259369978442 1.3158332441110581 1.3849008762176045 1.4013033470622225 1.3898633000645406 1.4718778770372969 1.3966466900378844 1.2794005020251698 1.3199507384993618 1.3813536512275721 1.3333106159222958 1.3848080611563414 1.4512725639522204 1.4601388872251868 1.4734867287000102 1.55212123382593 1.3814855307338301 1.4537020964339511 1.4794025712913683 1.4719064337028118 1.5526835656062741 1.5459751511185007 1.5580005475868344 1.6257935761686049 1.5411965263373633 1.4781045531920616 1.5406021738465605 1.4567565553810444 1.4737009646156571 1.3940821834992831 1.4607893675457082 1.4002687764347412 1.4552138156968217 1.3727100347710606 1.3966586894492536 1.3186350786179994 1.376075286387942 1.3216993404805122 1.2457989088928307 1.292782704604577 1.324626376652531 1.3705231092264185 1.2900096463719606 1.2514716670497497 1.2874154229113501 1.2095258542666576 1.249147584043353 1.2117585543068814 1.1758850017508746 1.2457162473245007 1.2013227506793471 1.1796430817811479 1.1991061010114945 1.1384672927470267 1.1818454707813837 1.1944494468326161 1.1421920830663743 1.1433272179558172 1.1993295619827069 1.2535132634858359 1.1847992417016888 1.2522264745628942 1.1945394748004181 1.2580385077008955 1.3185512800258283 1.2493607925052892 1.2609759964114187 1.3198930061843299 1.3254883138821745 1.2536292284780275 1.2269051023967856 1.2616236734804913 1.1763998008152547 1.120548081737627 1.1850121675357523 1.0895570290529439 1.1762491764413656 1.1406191899670866 1.0984151105692435 1.1424416457710265 1.067869918116219 1.0968587973734389 1.201900366198436 1.182302679850771 1.1345603980079875 1.1403944920979119 1.0952365711329584 1.1452299170401909 1.0748391732102052 1.0476173346594788 1.1024786217093852 1.134464337961147 1.0758925373664521 1.1011723927866606 1.0678152683887288 1.0054068858905987 1.0544084702059704 1.0054743705013751 0.9970877163173838 1.0557387243296494 1.0766068552067845 0.99692553313561438 1.0059021983529983 1.0749847721546286 1.0894288212075671 1.005985585891906 1.0064129220488871 1.0990203825388618 0.99674404107792147 1.5655476562823896