<?xml version="1.0"?>
<VTKFile type="UnstructuredGrid" version="0.1" byte_order="LittleEndian">
<UnstructuredGrid>
<Piece NumberOfPoints="2400" NumberOfCells="800">
<Points>
<DataArray type="Float64" NumberOfComponents="3" format="ascii">
0.050000000000000037 0 0 0 0.049999999999899652 0 0 0 0 0.050000000000000037 0 0 0.050000000000000037 0.049999999999899652 0 0 0.049999999999899652 0 0.099999999999999978 0 0 0.050000000000000037 0.049999999999899652 0 0.050000000000000037 0 0 0.14999999999999999 0 0 0.099999999999999978 0.049999999999899652 0 0.099999999999999978 0 0 0.099999999999999978 0 0 0.099999999999999978 0.049999999999899652 0 0.050000000000000037 0.049999999999899652 0 0.099999999999999978 0.049999999999899652 0 0.099999999999999978 0.099999999999814668 0 0.050000000000000037 0.099999999999814668 0 0.099999999999999978 0.049999999999899652 0 0.050000000000000037 0.099999999999814668 0 0.050000000000000037 0.049999999999899652 0 0.14999999999999999 0.049999999999899652 0 0.099999999999999978 0.099999999999814668 0 0.099999999999999978 0.049999999999899652 0 0.14999999999999999 0.099999999999814668 0 0.099999999999999978 0.14999999999970359 0 0.099999999999999978 0.099999999999814668 0 0.099999999999999978 0.099999999999814668 0 0.050000000000000037 0.14999999999970359 0 0.050000000000000037 0.099999999999814668 0 0.050000000000000037 0.049999999999899652 0 0.050000000000000037 0.099999999999814668 0 0 0.099999999999814668 0 0.050000000000000037 0.049999999999899652 0 0 0.099999999999814668 0 0 0.049999999999899652 0 0.050000000000000037 0.099999999999814668 0 0 0.14999999999970359 0 0 0.099999999999814668 0 0.050000000000000037 0.099999999999814668 0 0.050000000000000037 0.14999999999970359 0 0 0.14999999999970359 0 0.050000000000000037 0.14999999999970359 0 0.050000000000000037 0.19999999999955789 0 0 0.19999999999955789 0 0.050000000000000037 0.14999999999970359 0 0 0.19999999999955789 0 0 0.14999999999970359 0 0.050000000000000037 0.19999999999955789 0 0 0.24999999999941211 0 0 0.19999999999955789 0 0.050000000000000037 0.19999999999955789 0 0.050000000000000037 0.24999999999941211 0 0 0.24999999999941211 0 0.099999999999999978 0.19999999999955789 0 0.050000000000000037 0.24999999999941211 0 0.050000000000000037 0.19999999999955789 0 0.099999999999999978 0.19999999999955789 0 0.099999999999999978 0.24999999999941211 0 0.050000000000000037 0.24999999999941211 0 0.14999999999999999 0.19999999999955789 0 0.099999999999999978 0.24999999999941211 0 0.099999999999999978 0.19999999999955789 0 0.14999999999999999 0.14999999999970359 0 0.099999999999999978 0.19999999999955789 0 0.099999999999999978 0.14999999999970359 0 0.099999999999999978 0.14999999999970359 0 0.099999999999999978 0.19999999999955789 0 0.050000000000000037 0.19999999999955789 0 0.099999999999999978 0.14999999999970359 0 0.050000000000000037 0.19999999999955789 0 0.050000000000000037 0.14999999999970359 0 0.099999999999999978 0.099999999999814668 0 0.099999999999999978 0.14999999999970359 0 0.050000000000000037 0.14999999999970359 0 0.14999999999999999 0.099999999999814668 0 0.14999999999999999 0.14999999999970359 0 0.099999999999999978 0.14999999999970359 0 0.20000000000000001 0.099999999999814668 0 0.20000000000000001 0.14999999999970359 0 0.14999999999999999 0.14999999999970359 0 0.20000000000000001 0.14999999999970359 0 0.20000000000000001 0.19999999999955789 0 0.14999999999999999 0.19999999999955789 0 0.20000000000000001 0.14999999999970359 0 0.14999999999999999 0.19999999999955789 0 0.14999999999999999 0.14999999999970359 0 0.14999999999999999 0.14999999999970359 0 0.14999999999999999 0.19999999999955789 0 0.099999999999999978 0.19999999999955789 0 0.14999999999999999 0.19999999999955789 0 0.14999999999999999 0.24999999999941211 0 0.099999999999999978 0.24999999999941211 0 0.20000000000000001 0.19999999999955789 0 0.20000000000000001 0.24999999999941211 0 0.14999999999999999 0.24999999999941211 0 0.20000000000000001 0.19999999999955789 0 0.14999999999999999 0.24999999999941211 0 0.14999999999999999 0.19999999999955789 0 0.25 0.19999999999955789 0 0.20000000000000001 0.24999999999941211 0 0.20000000000000001 0.19999999999955789 0 0.25 0.19999999999955789 0 0.25 0.24999999999941211 0 0.20000000000000001 0.24999999999941211 0 0.25 0.14999999999970359 0 0.25 0.19999999999955789 0 0.20000000000000001 0.19999999999955789 0 0.25 0.14999999999970359 0 0.20000000000000001 0.19999999999955789 0 0.20000000000000001 0.14999999999970359 0 0.25 0.099999999999814668 0 0.25 0.14999999999970359 0 0.20000000000000001 0.14999999999970359 0 0.25 0.049999999999899652 0 0.25 0.099999999999814668 0 0.20000000000000001 0.099999999999814668 0 0.25 0.049999999999899652 0 0.20000000000000001 0.099999999999814668 0 0.20000000000000001 0.049999999999899652 0 0.25 0.099999999999814668 0 0.20000000000000001 0.14999999999970359 0 0.20000000000000001 0.099999999999814668 0 0.20000000000000001 0.099999999999814668 0 0.14999999999999999 0.14999999999970359 0 0.14999999999999999 0.099999999999814668 0 0.14999999999999999 0.049999999999899652 0 0.14999999999999999 0.099999999999814668 0 0.099999999999999978 0.099999999999814668 0 0.20000000000000001 0.049999999999899652 0 0.14999999999999999 0.099999999999814668 0 0.14999999999999999 0.049999999999899652 0 0.20000000000000001 0.049999999999899652 0 0.20000000000000001 0.099999999999814668 0 0.14999999999999999 0.099999999999814668 0 0.20000000000000001 0 0 0.20000000000000001 0.049999999999899652 0 0.14999999999999999 0.049999999999899652 0 0.14999999999999999 0 0 0.14999999999999999 0.049999999999899652 0 0.099999999999999978 0.049999999999899652 0 0.20000000000000001 0 0 0.14999999999999999 0.049999999999899652 0 0.14999999999999999 0 0 0.25 0 0 0.20000000000000001 0.049999999999899652 0 0.20000000000000001 0 0 0.25 0 0 0.25 0.049999999999899652 0 0.20000000000000001 0.049999999999899652 0 0.29999999999999999 0 0 0.25 0.049999999999899652 0 0.25 0 0 0.29999999999999999 0 0 0.29999999999999999 0.049999999999899652 0 0.25 0.049999999999899652 0 0.29999999999999999 0.049999999999899652 0 0.25 0.099999999999814668 0 0.25 0.049999999999899652 0 0.29999999999999999 0.099999999999814668 0 0.25 0.14999999999970359 0 0.25 0.099999999999814668 0 0.29999999999999999 0.049999999999899652 0 0.29999999999999999 0.099999999999814668 0 0.25 0.099999999999814668 0 0.34999999999999998 0.049999999999899652 0 0.29999999999999999 0.099999999999814668 0 0.29999999999999999 0.049999999999899652 0 0.34999999999999998 0.049999999999899652 0 0.34999999999999998 0.099999999999814668 0 0.29999999999999999 0.099999999999814668 0 0.34999999999999998 0.099999999999814668 0 0.29999999999999999 0.14999999999970359 0 0.29999999999999999 0.099999999999814668 0 0.40000000000000002 0.099999999999814668 0 0.34999999999999998 0.14999999999970359 0 0.34999999999999998 0.099999999999814668 0 0.40000000000000002 0.049999999999899652 0 0.34999999999999998 0.099999999999814668 0 0.34999999999999998 0.049999999999899652 0 0.34999999999999998 0 0 0.34999999999999998 0.049999999999899652 0 0.29999999999999999 0.049999999999899652 0 0.34999999999999998 0 0 0.29999999999999999 0.049999999999899652 0 0.29999999999999999 0 0 0.40000000000000002 0 0 0.34999999999999998 0.049999999999899652 0 0.34999999999999998 0 0 0.40000000000000002 0 0 0.40000000000000002 0.049999999999899652 0 0.34999999999999998 0.049999999999899652 0 0.45000000000000001 0 0 0.45000000000000001 0.049999999999899652 0 0.40000000000000002 0.049999999999899652 0 0.45000000000000001 0 0 0.40000000000000002 0.049999999999899652 0 0.40000000000000002 0 0 0.5 0 0 0.45000000000000001 0.049999999999899652 0 0.45000000000000001 0 0 0.5 0 0 0.5 0.049999999999899652 0 0.45000000000000001 0.049999999999899652 0 0.5 0.049999999999899652 0 0.45000000000000001 0.099999999999814668 0 0.45000000000000001 0.049999999999899652 0 0.5 0.049999999999899652 0 0.5 0.099999999999814668 0 0.45000000000000001 0.099999999999814668 0 0.5 0.099999999999814668 0 0.45000000000000001 0.14999999999970359 0 0.45000000000000001 0.099999999999814668 0 0.45000000000000001 0.099999999999814668 0 0.40000000000000002 0.14999999999970359 0 0.40000000000000002 0.099999999999814668 0 0.45000000000000001 0.049999999999899652 0 0.40000000000000002 0.099999999999814668 0 0.40000000000000002 0.049999999999899652 0 0.45000000000000001 0.049999999999899652 0 0.45000000000000001 0.099999999999814668 0 0.40000000000000002 0.099999999999814668 0 0.40000000000000002 0.049999999999899652 0 0.40000000000000002 0.099999999999814668 0 0.34999999999999998 0.099999999999814668 0 0.40000000000000002 0.099999999999814668 0 0.40000000000000002 0.14999999999970359 0 0.34999999999999998 0.14999999999970359 0 0.40000000000000002 0.14999999999970359 0 0.40000000000000002 0.19999999999955789 0 0.34999999999999998 0.19999999999955789 0 0.45000000000000001 0.14999999999970359 0 0.45000000000000001 0.19999999999955789 0 0.40000000000000002 0.19999999999955789 0 0.45000000000000001 0.14999999999970359 0 0.40000000000000002 0.19999999999955789 0 0.40000000000000002 0.14999999999970359 0 0.45000000000000001 0.099999999999814668 0 0.45000000000000001 0.14999999999970359 0 0.40000000000000002 0.14999999999970359 0 0.5 0.099999999999814668 0 0.5 0.14999999999970359 0 0.45000000000000001 0.14999999999970359 0 0.5 0.14999999999970359 0 0.5 0.19999999999955789 0 0.45000000000000001 0.19999999999955789 0 0.5 0.14999999999970359 0 0.45000000000000001 0.19999999999955789 0 0.45000000000000001 0.14999999999970359 0 0.5 0.19999999999955789 0 0.45000000000000001 0.24999999999941211 0 0.45000000000000001 0.19999999999955789 0 0.5 0.19999999999955789 0 0.5 0.24999999999941211 0 0.45000000000000001 0.24999999999941211 0 0.45000000000000001 0.19999999999955789 0 0.45000000000000001 0.24999999999941211 0 0.40000000000000002 0.24999999999941211 0 0.45000000000000001 0.19999999999955789 0 0.40000000000000002 0.24999999999941211 0 0.40000000000000002 0.19999999999955789 0 0.40000000000000
[...]
<PointData Scalars="tracer_conc," Vectors="" Tensors="">
<DataArray type="Float64" Name="tracer_conc" format="ascii">
0.94310229156446179 1.5559768026229244 1.0650732360964927 0.99447410756961863 1.3945708260433134 1.4948992345798153 0.97759284050141138 1.379688400877396 1.0236040212923214 0.98589604399537378 1.2916329019311075 1.0124424036483424 0.99138439689941327 1.3066861729032546 1.3589639104146527 1.3111107435275127 1.5441086064878671 1.644964910661058 1.2805673052347506 1.6798694838938835 1.3989165054306651 1.2303927832306334 1.5499422229060427 1.3092376976391868 1.4449496147640395 1.7203032150024264 1.5450541450798017 1.5324391198616643 1.8388721596341708 1.6602549361181547 1.4129274993816352 1.6610132166990037 1.8115066995831415 1.3520242173153281 1.873638888175716 1.5528644274958814 1.6526790363401831 1.9767250381639818 1.8148693614944167 1.6849848238578733 1.8149036738415996 1.9459689682992436 1.8338068032873469 1.8959627676583024 1.9937787586229763 1.8217208895648151 2.0050072121653457 1.9322718050810244 1.9064183115265356 2.0085848745039661 1.978624773829412 1.9083959253056928 1.9367046290469863 2.0066294824698301 1.8113118647925541 1.9488464643855234 1.8950967308623006 1.81810571716431 1.8670054179786191 1.9437369762016909 1.7209799982104634 1.8772098233748029 1.8071434355393616 1.6085244838356219 1.8211083930089613 1.7064185287551419 1.7203376807159054 1.8077584337448924 1.9015282642172247 1.705439822350217 1.914693475417901 1.8134181803138494 1.5577602834033024 1.7067827374137789 1.8137837420526994 1.4628731583817896 1.6129840137254559 1.7015819657818019 1.3882554885787413 1.5301236544576235 1.6061194551045985 1.5348864022267035 1.636344198588233 1.7188441710152274 1.5243246467254965 1.729400720827676 1.6130429868241618 1.6215921464921066 1.7207559415693943 1.8086464081722737 1.7285510610447292 1.7905733004142723 1.8706581396849185 1.6415949088140389 1.7100803642608231 1.7916815359804563 1.6344347385638747 1.7983288514477307 1.7204688350401558 1.5511908197559978 1.7153847630801038 1.6362284190430383 1.5574908952317901 1.6270442592446237 1.7092619822532995 1.456958813230778 1.5544581461203548 1.632720459644325 1.4486698338778221 1.6412833055695681 1.5302994013480051 1.3260247390242352 1.4550156079069436 1.5226846831219829 1.1680162896740365 1.3267331620025709 1.37487570739603 1.1611559267547598 1.3833297022955926 1.2077004848108848 1.3171524218308233 1.5325102247322198 1.3869243871117858 1.3757328990308917 1.6196537786661989 1.4573706140479799 1.2476699712578243 1.4565410958189389 1.5294611212494229 1.1924580186987903 1.4563320524545538 1.25053104379545 1.2029927957786171 1.3862992507474332 1.4435559587561815 0.99339562886042421 1.2068903522934855 1.2313568854888182 0.99227031235888963 1.2491984258029909 1.2824634979860821 0.98972687007653748 1.2362216681015983 1.0081262530405635 0.9917461014426695 1.1957179237952225 1.0061061609808004 0.99415096737551278 1.1729977024735891 1.1928375725676146 0.99290625835415847 1.1630238967817632 1.0050044714432782 0.99461433910327468 1.1440513628434288 1.161205406222986 1.1337860784356879 1.322381082255347 1.1735187218055294 1.2651331973760034 1.4547043157065773 1.3271776567237672 1.1384947742186684 1.2739528417096866 1.3164933093930047 1.1089921964025471 1.2688462196118466 1.1443796292211674 1.1123528119503208 1.2257577403850588 1.2645724945561561 1.217507526046516 1.3833285607508357 1.2742498476217725 1.1731575259252787 1.3166261147159382 1.2259347662182074 1.0860836461376291 1.2202261696951602 1.1184248655045119 0.99491293060067054 1.1182403567277255 1.1336760531473631 0.99363476985991073 1.1348643473144917 1.0043277430300865 0.99414216636927411 1.1096119731405407 1.0038658470625361 0.99513286200756768 1.0946149587388256 1.1088259710178618 0.99532276794228314 1.0726842338837312 1.0859210202168732 0.99453784848699778 1.0864345170673251 1.0035172324588928 0.99487767434484231 1.0649053686121004 1.0032303453541458 0.99550488478189836 1.0521961020469368 1.0645884395705882 1.0447173348218679 1.1331102511006677 1.0726657227196545 1.0460727915830081 1.0994339124280916 1.1312254132075348 1.0924055168825046 1.1940072105884842 1.1389473346538785 1.1315403604844421 1.25366040215027 1.1810366510997525 1.064716009358833 1.1752036647765005 1.0946864360410447 1.0665463045436263 1.1389470491525162 1.1727561436851763 1.0885468201669897 1.1809574838579662 1.2170251794814315 1.1767256085894358 1.2576069305576925 1.3124260407118622 1.2550097373268052 1.3219392427846199 1.3915764901317098 1.1950967900089677 1.2491140201171318 1.3160696675413084 1.1919979993951741 1.3196042805042778 1.2576066288273462 1.1342411784017334 1.1984354649063489 1.2503991734817823 1.0944346908121962 1.1422326926291797 1.191474885602235 1.1383765628126465 1.1791348931277303 1.2432209026000014 1.1359796769868122 1.2460408709079345 1.1983826093944392 1.1738911783834518 1.2882596256205863 1.2490113201142687 1.1763556736873162 1.2094603380950497 1.2854756331865367 1.246961010147863 1.2901847481687021 1.368738902032357 1.2439033535752801 1.3720874622814152 1.3218630953589361 1.3206238437050026 1.3731895212946961 1.4536483956779358 1.397054076532098 1.4576293448589879 1.5393051870511192 1.3925697246884257 1.5439525922731658 1.4747725192946799 1.3169028870709831 1.4576118962027709 1.3972145868453709 1.2510545651735878 1.3959735850458421 1.319881222875819 1.222256346306821 1.319821400779521 1.3778567549722069 1.3182704631652684 1.3972649095803371 1.4694943500142008 1.3132257910395468 1.4749723572451077 1.3855016014000248 1.3852905780080622 1.4748075688318532 1.549786396496077 1.2715562626375967 1.3853803499800765 1.4474463485987261 1.3788313922600677 1.5566368435473681 1.4551861540373334 1.4706701445683334 1.6301978893612494 1.5544109869803135 1.47602765561028 1.5425678157923968 1.6248070039497116 1.5404708137334253 1.6805027304972877 1.6268853990342764 1.5442679620263713 1.5913216405994657 1.6768848787399777 1.5907034662404311 1.7132049585529574 1.6772174418033898 1.6249136964368363 1.7330895224384395 1.7105011942482879 1.5929825242167561 1.6245919774543369 1.7111917353703097 1.5031419664736929 1.5336020108946102 1.6240783493195219 1.5007759849042492 1.6263113121512445 1.5911518144332626 1.5330725657149458 1.6471476010777844 1.6244284665255666 1.4384643081505684 1.5548538129517557 1.5334336124824806 1.4097269206237475 1.5345261449112499 1.5021452980739436 1.4581603804484955 1.5023099106209101 1.5896792266080946 1.4546902748096753 1.5931207613241427 1.5424351253082127 1.3696493470919182 1.5029752162553891 1.457501863319898 1.3727472022265568 1.4119770887885428 1.4997956925211524 1.2889548034825034 1.3218222667629185 1.4088275772732459 1.2862465483386856 1.411697000635413 1.3730566900829462 1.2053028732845945 1.32077610216605 1.2900437494862611 1.2076049789282526 1.2331586346410917 1.3182562550326629 1.2300392447015007 1.3444022905988082 1.3216591823121913 1.2320514379295986 1.2506138989240425 1.3422551425173999 1.2484086265603727 1.3602333873822139 1.3446484676204693 1.3430121534002954 1.4584878703239326 1.4395378608220557 1.3212612120954985 1.3448176553516502 1.4376349807971152 1.3190466141340578 1.439915448100215 1.4118134133284004 1.4120624698824982 1.4397085222403379 1.532213229611439 1.4400922227770072 1.4580073335530634 1.5532989939566251 1.4585818073839079 1.468285049493824 1.5650784606273118 1.3591499982348123 1.4689498467826927 1.4578472217033551 1.3604817900124675 1.3689029445953114 1.4676295168638178 1.3447336436700401 1.3601967959760868 1.4567567524833374 1.250104225370813 1.2624105588482359 1.3584590773937888 1.2624000717625079 1.2691208518219061 1.3678188286919517 1.2609685199338758 1.3692998405751955 1.3600341094131621 1.2683025502677203 1.3723291493134528 1.3687549011297173 1.2695738345806764 1.2711466135783398 1.3710142074765572 1.3695335584209229 1.3715774868834596 1.4712378207077725 1.3684277640223972 1.4723392598987803 1.4681460430112281 1.4690489282995098 1.4714719892223393 1.5688825798814601 1.5660267563977408 1.5687009589467324 1.6615881900355034 1.5656628151569916 1.6618381932521533 1.6572136002738005 1.4682503211611222 1.5696233509187711 1.565063595980968 1.457486434386462 1.5660928358641153 1.5537526799846335 1.5344843846836607 1.5539027749773133 1.6459037294234533 1.5547482468820613 1.5651834013549077 1.6578442012171657 1.5540188849798047 1.658417601663958 1.6455898978709997 1.6468011733224888 1.6573039748399447 1.7435491135629759 1.625978871281814 1.6457224710007399 1.7322945692315319 1.6465556764247578 1.743564368193842 1.7311205577957072 1.6583383603308781 1.7466136982976059 1.7422594237036413 1.6581638365918927 1.6609292298759664 1.7469559718939578 1.7431165353732452 1.7457909947615513 1.8227512820346969 1.7438950991544626 1.8217605564305932 1.818015444506522 1.8186977731383944 1.8210946199632017 1.8871322089278297 1.8830971526318414 1.8850515147706624 1.9388863820666555 1.8200895870144684 1.8855021279731723 1.8826631594659797 1.8105526953065196 1.8838390401539666 1.8748951496783344 1.8095775408020769 1.8180166554381914 1.8851491328008663 1.8761748325785157 1.8826071613231694 1.9378306326870356 1.8623459177524357 1.8749166050500619 1.9333167713253292 1.7919773552880869 1.8082587537992489 1.8777865878068103 1.7328094986596159 1.8193200187616136 1.808188369131323 1.7324746302327201 1.7423100772982096 1.8199491388990223 1.7125100317722699 1.7312271632244738 1.8102527322983357 1.7119326967105091 1.8104595974873761 1.7896210920281941 1.6779004027690834 1.7930879233296797 1.7586557918768304 1.6799249222676333 1.710656943716143 1.7914806940673456 1.6300910251741589 1.6774001971911037 1.7597395948621619 1.6260863419411502 1.7633634143521928 1.7098618962979453 1.7145773815204188 1.7588601998827476 1.8364621680859443 1.710632960213166 1.8397682211556183 1.7902527313721694 1.7964517219899172 1.8339321736845655 1.9050560529614493 1.8378699837805643 1.8599656294103331 1.9236262761506284 1.7606673956206891 1.8638741198253592 1.8337034129761909 1.7621931452545605 1.7897635447275189 1.862922877790147 1.7920365609687248 1.8772747151620206 1.8598486535910479 1.8631806196365384 1.9319886250102665 1.9194359962469618 1.9234589415809586 1.9737053910645996 1.9669528145602222 1.9048295292772177 1.9195043984910864 1.9719302560445884 1.905379766748688 1.9706083269385659 1.9568029160412597 1.837178580500396 1.9236088787799042 1.9004586171589481 1.7930798567929191 1.9074905358230101 1.8665514023793033 1.8719308831806265 1.9638792725797869 1.9363813965462986 1.873877758679501 1.9006945985120625 1.9631465815634872 1.9439977337308005 1.9568207437563419 2.0079057329007299 1.9461386134986642 2.0062202430152407 1.9946600130224925 1.9641594933189097 2.003797192535957 1.9994560104464236 1.9607459659765116 1.9668312089338233 2.0065589005207149 1.9723467423740235 2.0023548765359278 2.0007164672803275 1.9761224737105225 2.0016083780419676 2.0010584040139126 1.9726436822465991 1.9743149083066733 2.0044154686977929 1.9687554223660264 1.9718765584806757 2.0052517020792164 1.9217604511268753 1.9297458554278903 1.9758736927179801 1.8777917892707261 1.9358762630356559 1.9297876256571582 1.9307866727066159 1.9348571589531125 1.9774658055108192 1.9329582303701647 1.9749980406107548 1.9720523106642702 1.9374341633328744 1.9751055486560096 1.9745140568354449 1.8850364132310844 1.9367102413757529 1.9349737073512989 1.9351080268480227 1.9365093895798493 1.9776417301675262 1.9743708574063856 1.975157666657323 2.0039315013476444 1.977736447985756 2.0011947443912437 2.0012135634665493 1.978008740175319 2.0009061584636991 2.0013692130772389 1.9746912062871353 1.9747194400349797 2.0036442990996854 1.977067161061506 2.000614253491261 2.0016095094159621 1.9744935012712348 2.0001360794039837 2.0020425610155894 1.9737461772385707 1.9728025579503814 2.0034171601246538 1.934471395050732 1.9305272511759888 1.9738458513711159 1.9365842494858563 1.9715639331559576 1.9749870277600661 1.9310217650007024 1.9665305907491479 1.9731511597960787 1.8758956677468355 1.9195002178862952 1.9308770296364663 1.8841615616518876 1.9296370301862762 1.9354711792015722 1.9362065595557814 1.9352176363022136 1.9765673848461025 1.9385114232653167 1.9740859826870603 1.9753810464204531 1.8869676941671396 1.93482114651926 1.9366898748291423 1.8850276515918991 1.8828780109966343 1.9369326563210503 1.8213792634946562 1.8181431358111211 1.8843654386248792 1.8227884450598089 1.8828005739310851 1.8851771158239292 1.7471729465271504 1.8184237446960247 1.8211594656391121 1.74636488675076 1.7422743796835016 1.8193582345147636 1.7432961059615151 1.8086398000065622 1.8182742477719522 1.7428622079445979 1.7311051661562262 1.80909982103883 1.7316416839547977 1.7903714147368504 1.808678644430207 1.8089382876189819 1.8603033580099666 1.8757475461690745 1.8182673252839732 1.8084805238274928 1.8761729768105326 1.8193071167471291 1.8750662741288529 1.8830765931657449 1.8825306875914298 1.8754660261874254 1.9313817741888055 1.8749913213710478 1.860779710692811 1.9204294189982634 1.8604948743770373 1.8349063183479668 1.9004532863105861 1.7895634548666906 1.83478259495255 1.861150573216912 1.7907742670041011 1.7589143824711491 1.8333109093550868 1.8087264415394682 1.7899945313467489 1.860456314788143 1.732019039358496 1.7103352587106329 1.7898873576092189 1.7119973638421786 1.6766854803172502 1.7580534003661117 1.7103220720722578 1.7600175147444872 1.790253014428516 1.6762033496115327 1.7122257534995668 1.7592069709480291 1.6796624366395114 1.6256589838114965 1.7082476042020116 1.7608716373723485 1.7096196858517816 1.7885055305467752 1.757505663960774 1.7924440946820297 1.8353509717183558 1.8354303738846915 1.7913944184172643 1.8649731545812489 1.9013089064384203 1.8694225107101878 1.9354109882648429 1.8996878319693944 1.937292431896515 1.9603384080977209 1.832594083120402 1.8683294997154198 1.9032149158997103 1.860023061874621 1.9010824612975816 1.9212834196142721 1.9293907308915388 1.9208094505199953 1.968314493898091 1.9199604056415267 1.9567268342790041 1.9690110214030692 1.9193933547555537 1.9026050522047957 1.957350826359364 1.9661181706146393 1.9596350679983037 2.0014585259299955 1.9712050385680759 1.9685240886157642 2.0029880143631731 1.9690497456044049 1.998873061963216 2.0027968249250083 1.9578939381038902 1.9946540028992845 2.003657014391615 1.9563852924032057 1.9409541659612335 1.9958469498731557 1.9350024978311566 1.9808394160539284 2.0026777948352397 1.9375244141150758 1.9014548821493584 1.9777768041552151 1.863627276149036 1.8982916488723061 1.9419489922280155 1.7873779465337407 1.8110147598692297 1.8701174576225743 1.8693565349269423 1.8100938415054419 1.8915273796596739 1.8012003028673567 1.8210609311722219 1.9027173279574829 1.8136921691685419 1.7075398320830746 1.806034484595004 1.715686095137593 1.7135782010646723 1.8106815894459025 1.6072993291093616 1.5563951980347157 1.7076369290938425 1.6976483362673125 1.6748279142581257 1.8210413167439781 1.9003547630730639 1.8199092244786077 1.9271734173463151 1.8885638542235368 1.9404459539890366 1.9926307494496227 1.7979471310323314 1.8360255299581016 1.9534767418479251 1.827530673704983 1.6608477828161945 1.8022866274304912 1.6916021233458276 1.3800588679522976 1.5288563015522398 1.6347182840114316 1.5951225450021009 1.8372625591933711 1.3863301987551162 1.1040361768221321 1.5290290000222384 1.4463132051834271 0.98090323430276549 1.0541992618972262 1.3091389323296294 1.0441225312729121 1.3818309397754827 1.3341493756363432 0.98989212682217265 1.0276308781545491 1.2517982066712892 1.0251375080509688 1.296632449197856 1.4533793093542129 1.3242308446191684 1.5402931596983278 1.5371049403333332 1.4203894902337628 1.661022808704959 1.5646465907930989 1.2964332752513148 1.3887880179978151 1.7189796730615035 1.5407492233467557 1.6489253200446039 1.6232470323559822 1.4517724925839106 1.5380568066311604 1.5384323114099174 1.3813079581543117 1.4536688094679509 1.3853136108799695 1.2614478742049282 1.4514293934199687 1.3960956899359001 1.1999852177053549 1.2503909614326276 1.47027458009458 1.2410091389031164 1.3061371186388597 1.2651753343204215 0.99324448415094979 1.0173029231648889 1.2174354910258363 0.99485302624525529 1.0122518643193039 1.2095920743703776 1.0162828438840137 1.2407055687322859 1.1756438225322439 1.0117648924020808 1.1995794125481964 1.1806932299243911 0.99571257079484066 1.0095768245574446 1.3341218678401829 1.1668562565544149 1.2088318191247724 1.3269490158024195 1.2159313899295598 1.380973674757114 1.4617702514655906 1.3217880875415398 1.3853324327449776 1.559674024897685 1.4513811940074077 1.5275796100067558 1.5521805253786871 1.5359178729048564 1.6350182749550932 1.4533798187815283 1.394331623849008 1.5270050812192892 1.5268783156174461 1.4664447459422132 1.6111621838800074 1.7270260346179518 1.6111316306458572 1.7002844324967306 1.6328129517677881 1.619402411413198 1.7210887774775918 1.642187682579088 1.5270594515648561 1.6087073431906438 1.7136952823654097 1.6348640451073 1.7171967771480423 1.7938779957227944 1.7207619751875818 1.8033725922192041 1.7074569553469054 1.7244129800466743 1.7918478802616109 1.6250732010861073 1.6400369360668141 1.7098881257022498 1.6306332088907178 1.5520792626661681 1.6337288775627998 1.5411965263344043 1.5580005475847805 1.6257935761689861 1.5459751511157398 1.4719064336989396 1.5526835656043132 1.4567565553769843 1.4781045531877024 1.540602173844823 1.3727100347693899 1.4002687764317308 1.4552138156920051 1.4607893675414187 1.3940821834935273 1.4737009646089601 1.3966466900326937 1.3898633000583664 1.471877877029713 1.401303347058557 1.315833244109951 1.3849008762120281 1.3218259369994683 1.3237193718101692 1.3940144010712516 1.2581981046583648 1.2303164747280126 1.3157014627643331 1.3199507384960543 1.2794005020238142 1.3813536512224676 1.4794025712841792 1.3814855307268501 1.4537020964278857 1.4734867286948499 1.4601388872221785 1.5521212338263382 1.3848080611526761 1.3333106159214871 1.4512725639468487 1.3909643391228597 1.269115945904584 1.3268769164299199 1.2797939773467533 1.1383895022995656 1.1752311270977349 1.274855997739974 1.1799621538648981 1.3214835797283535 1.1466086499498469 1.0092527413905124 1.1664862244456244 1.1501226270877649 0.99620745551786671 1.0080409784511881 1.1207102867521299 1.0077291209362664 1.1380958947912392 1.1233118821939698 0.99652051729258562 1.0070785993887326 1.0970007416151979 1.0067189584111047 1.1127043820489657 1.182498434987409 1.1227923605146668 1.2208447038942887 1.2305548789494862 1.1129136168817404 1.146371497707205 1.2270635604531093 1.1496068274198068 1.2688569617160397 1.3245221820794657 1.2210506512815082 1.2747371445853422 1.2616236734804664 1.1763998008157688 1.2269051023974669 1.2019003661979795 1.1345603980081329 1.1823026798512828 1.1424416457717179 1.0678699181173816 1.0968587973741037 1.140619189967828 1.0984151105696289 1.176249176441696 1.185012167536833 1.0895570290538164 1.1205480817390476 1.0990203825401674 0.99674404107799508 1.0064129220490168 1.0766068552078172 0.99692553313546917 1.0059021983531249 1.0749847721558279 1.0059855858922224 1.0894288212085756 1.0544084702067387 1.0054068858908023 1.0678152683892923 1.0557387243310463 0.99708771631758131 1.0054743705014753 1.1024786217102449 1.0476173346602671 1.0748391732108336 1.1011723927866246 1.0758925373683681 1.1344643379613251 1.1452299170410869 1.0952365711327581 1.140394492096247 1.1818454707807762 1.1384672927466855 1.1991061010116233 1.1796430817799466 1.2013227506799844 1.245716247324596 1.1433272179553056 1.1421920830662173 1.1944494468322828 1.1993295619818469 1.1847992417024595 1.2535132634859798 1.3254883138868891 1.2536292284834032 1.3198930061808847 1.2522264745645764 1.1945394747979583 1.2580385077034701 1.2493607925094383 1.2609759964155247 1.3185512800290331 1.2927827046037748 1.2457989088954586 1.321699340482877 1.3760752863861814 1.3186350786183965 1.3966586894456057 1.290009646373119 1.3246263766532675 1.3705231092257506 1.2095258542658598 1.2514716670506685 1.2874154229124526 1.2117585543059426 1.1758850017492259 1.2491475840438522 1.23502188578035