<?xml version="1.0"?>
<VTKFile type="UnstructuredGrid" version="0.1" byte_order="LittleEndian">
<UnstructuredGrid>
<Piece NumberOfPoints="2400" NumberOfCells="800">
<Points>
<DataArray type="Float64" NumberOfComponents="3" format="ascii">
0 0 0 0.050000000000000037 0 0 0 0.049999999999899652 0 0.050000000000000037 0 0 0.050000000000000037 0.049999999999899652 0 0 0.049999999999899652 0 0.050000000000000037 0.049999999999899652 0 0 0.049999999999899652 0 0 0.099999999999814668 0 0 0.099999999999814668 0 0.050000000000000037 0.099999999999814668 0 0 0.14999999999970359 0 0.050000000000000037 0.049999999999899652 0 0 0.099999999999814668 0 0.050000000000000037 0.099999999999814668 0 0.050000000000000037 0.049999999999899652 0 0.050000000000000037 0.099999999999814668 0 0.099999999999999978 0.049999999999899652 0 0.050000000000000037 0.099999999999814668 0 0.099999999999999978 0.099999999999814668 0 0.099999999999999978 0.049999999999899652 0 0.050000000000000037 0.099999999999814668 0 0.099999999999999978 0.099999999999814668 0 0.050000000000000037 0.14999999999970359 0 0.099999999999999978 0.099999999999814668 0 0.099999999999999978 0.14999999999970359 0 0.14999999999999999 0.099999999999814668 0 0.099999999999999978 0.099999999999814668 0 0.099999999999999978 0.049999999999899652 0 0.14999999999999999 0.049999999999899652 0 0.099999999999999978 0.049999999999899652 0 0.099999999999999978 0 0 0.14999999999999999 0 0 0.050000000000000037 0 0 0.050000000000000037 0.049999999999899652 0 0.099999999999999978 0 0 0.050000000000000037 0.049999999999899652 0 0.099999999999999978 0.049999999999899652 0 0.099999999999999978 0 0 0.050000000000000037 0.24999999999941211 0 0 0.24999999999941211 0 0.050000000000000037 0.19999999999955789 0 0 0.24999999999941211 0 0 0.19999999999955789 0 0.050000000000000037 0.19999999999955789 0 0 0.19999999999955789 0 0.050000000000000037 0.19999999999955789 0 0.050000000000000037 0.14999999999970359 0 0 0.19999999999955789 0 0 0.14999999999970359 0 0.050000000000000037 0.14999999999970359 0 0.050000000000000037 0.099999999999814668 0 0 0.14999999999970359 0 0.050000000000000037 0.14999999999970359 0 0.099999999999999978 0.099999999999814668 0 0.050000000000000037 0.14999999999970359 0 0.099999999999999978 0.14999999999970359 0 0.099999999999999978 0.14999999999970359 0 0.099999999999999978 0.19999999999955789 0 0.14999999999999999 0.14999999999970359 0 0.050000000000000037 0.19999999999955789 0 0.099999999999999978 0.14999999999970359 0 0.099999999999999978 0.19999999999955789 0 0.050000000000000037 0.19999999999955789 0 0.050000000000000037 0.14999999999970359 0 0.099999999999999978 0.14999999999970359 0 0.050000000000000037 0.24999999999941211 0 0.050000000000000037 0.19999999999955789 0 0.099999999999999978 0.19999999999955789 0 0.099999999999999978 0.19999999999955789 0 0.099999999999999978 0.24999999999941211 0 0.14999999999999999 0.19999999999955789 0 0.050000000000000037 0.24999999999941211 0 0.099999999999999978 0.19999999999955789 0 0.099999999999999978 0.24999999999941211 0 0.14999999999999999 0.24999999999941211 0 0.20000000000000001 0.19999999999955789 0 0.20000000000000001 0.24999999999941211 0 0.099999999999999978 0.24999999999941211 0 0.14999999999999999 0.24999999999941211 0 0.14999999999999999 0.19999999999955789 0 0.14999999999999999 0.24999999999941211 0 0.14999999999999999 0.19999999999955789 0 0.20000000000000001 0.19999999999955789 0 0.14999999999999999 0.19999999999955789 0 0.20000000000000001 0.14999999999970359 0 0.20000000000000001 0.19999999999955789 0 0.14999999999999999 0.19999999999955789 0 0.14999999999999999 0.14999999999970359 0 0.20000000000000001 0.14999999999970359 0 0.099999999999999978 0.19999999999955789 0 0.14999999999999999 0.19999999999955789 0 0.14999999999999999 0.14999999999970359 0 0.099999999999999978 0.14999999999970359 0 0.14999999999999999 0.14999999999970359 0 0.14999999999999999 0.099999999999814668 0 0.14999999999999999 0.14999999999970359 0 0.20000000000000001 0.14999999999970359 0 0.20000000000000001 0.099999999999814668 0 0.20000000000000001 0.14999999999970359 0 0.25 0.099999999999814668 0 0.25 0.14999999999970359 0 0.20000000000000001 0.19999999999955789 0 0.25 0.14999999999970359 0 0.25 0.19999999999955789 0 0.20000000000000001 0.14999999999970359 0 0.20000000000000001 0.19999999999955789 0 0.25 0.14999999999970359 0 0.20000000000000001 0.19999999999955789 0 0.20000000000000001 0.24999999999941211 0 0.25 0.19999999999955789 0 0.20000000000000001 0.24999999999941211 0 0.25 0.24999999999941211 0 0.25 0.19999999999955789 0 0.14999999999999999 0.049999999999899652 0 0.20000000000000001 0.049999999999899652 0 0.20000000000000001 0 0 0.14999999999999999 0 0 0.14999999999999999 0.049999999999899652 0 0.20000000000000001 0 0 0.099999999999999978 0.049999999999899652 0 0.14999999999999999 0 0 0.14999999999999999 0.049999999999899652 0 0.099999999999999978 0.099999999999814668 0 0.14999999999999999 0.049999999999899652 0 0.14999999999999999 0.099999999999814668 0 0.14999999999999999 0.14999999999970359 0 0.14999999999999999 0.099999999999814668 0 0.20000000000000001 0.099999999999814668 0 0.14999999999999999 0.049999999999899652 0 0.14999999999999999 0.099999999999814668 0 0.20000000000000001 0.049999999999899652 0 0.14999999999999999 0.099999999999814668 0 0.20000000000000001 0.099999999999814668 0 0.20000000000000001 0.049999999999899652 0 0.20000000000000001 0.099999999999814668 0 0.20000000000000001 0.049999999999899652 0 0.25 0.049999999999899652 0 0.20000000000000001 0.14999999999970359 0 0.20000000000000001 0.099999999999814668 0 0.25 0.099999999999814668 0 0.20000000000000001 0.099999999999814668 0 0.25 0.049999999999899652 0 0.25 0.099999999999814668 0 0.20000000000000001 0.049999999999899652 0 0.25 0 0 0.25 0.049999999999899652 0 0.20000000000000001 0.049999999999899652 0 0.20000000000000001 0 0 0.25 0 0 0.25 0 0 0.25 0.049999999999899652 0 0.29999999999999999 0 0 0.25 0.049999999999899652 0 0.29999999999999999 0.049999999999899652 0 0.29999999999999999 0 0 0.29999999999999999 0.049999999999899652 0 0.29999999999999999 0 0 0.34999999999999998 0 0 0.29999999999999999 0.049999999999899652 0 0.34999999999999998 0.049999999999899652 0 0.34999999999999998 0 0 0.34999999999999998 0.049999999999899652 0 0.34999999999999998 0 0 0.40000000000000002 0 0 0.34999999999999998 0.099999999999814668 0 0.34999999999999998 0.14999999999970359 0 0.40000000000000002 0.099999999999814668 0 0.34999999999999998 0.049999999999899652 0 0.34999999999999998 0.099999999999814668 0 0.40000000000000002 0.049999999999899652 0 0.29999999999999999 0.049999999999899652 0 0.34999999999999998 0.049999999999899652 0 0.29999999999999999 0.099999999999814668 0 0.34999999999999998 0.049999999999899652 0 0.34999999999999998 0.099999999999814668 0 0.29999999999999999 0.099999999999814668 0 0.34999999999999998 0.099999999999814668 0 0.29999999999999999 0.099999999999814668 0 0.29999999999999999 0.14999999999970359 0 0.29999999999999999 0.049999999999899652 0 0.29999999999999999 0.099999999999814668 0 0.25 0.099999999999814668 0 0.25 0.049999999999899652 0 0.29999999999999999 0.049999999999899652 0 0.25 0.099999999999814668 0 0.29999999999999999 0.099999999999814668 0 0.25 0.099999999999814668 0 0.25 0.14999999999970359 0 0.25 0.14999999999970359 0 0.29999999999999999 0.14999999999970359 0 0.25 0.19999999999955789 0 0.29999999999999999 0.14999999999970359 0 0.25 0.19999999999955789 0 0.29999999999999999 0.19999999999955789 0 0.29999999999999999 0.099999999999814668 0 0.25 0.14999999999970359 0 0.29999999999999999 0.14999999999970359 0 0.25 0.24999999999941211 0 0.25 0.19999999999955789 0 0.29999999999999999 0.19999999999955789 0 0.25 0.24999999999941211 0 0.29999999999999999 0.19999999999955789 0 0.29999999999999999 0.24999999999941211 0 0.29999999999999999 0.24999999999941211 0 0.34999999999999998 0.19999999999955789 0 0.34999999999999998 0.24999999999941211 0 0.29999999999999999 0.19999999999955789 0 0.29999999999999999 0.24999999999941211 0 0.34999999999999998 0.19999999999955789 0 0.34999999999999998 0.19999999999955789 0 0.34999999999999998 0.24999999999941211 0 0.40000000000000002 0.19999999999955789 0 0.34999999999999998 0.099999999999814668 0 0.29999999999999999 0.14999999999970359 0 0.34999999999999998 0.14999999999970359 0 0.29999999999999999 0.19999999999955789 0 0.34999999999999998 0.19999999999955789 0 0.34999999999999998 0.14999999999970359 0 0.29999999999999999 0.14999999999970359 0 0.29999999999999999 0.19999999999955789 0 0.34999999999999998 0.14999999999970359 0 0.34999999999999998 0.19999999999955789 0 0.34999999999999998 0.14999999999970359 0 0.40000000000000002 0.14999999999970359 0 0.34999999999999998 0.14999999999970359 0 0.40000000000000002 0.14999999999970359 0 0.40000000000000002 0.099999999999814668 0 0.34999999999999998 0.19999999999955789 0 0.40000000000000002 0.14999999999970359 0 0.40000000000000002 0.19999999999955789 0 0.40000000000000002 0.19999999999955789 0 0.45000000000000001 0.19999999999955789 0 0.45000000000000001 0.14999999999970359 0 0.40000000000000002 0.14999999999970359 0 0.40000000000000002 0.19999999999955789 0 0.45000000000000001 0.14999999999970359 0 0.40000000000000002 0.14999999999970359 0 0.45000000000000001 0.14999999999970359 0 0.45000000000000001 0.099999999999814668 0 0.34999999999999998 0.24999999999941211 0 0.40000000000000002 0.24999999999941211 0 0.40000000000000002 0.19999999999955789 0 0.40000000000000002 0.24999999999941211 0 0.40000000000000002 0.19999999999955789 0 0.45000000000000001 0.19999999999955789 0 0.40000000000000002 0.24999999999941211 0 0.45000000000000001 0.24999999999941211 0 0.45000000000000001 0.19999999999955789 0 0.45000000000000001 0.24999999999941211 0 0.45000000000000001 0.19999999999955789 0 0.5 0.19999999999955789 0 0.45000000000000001 0.24999999999941211 0 0.5 0.19999999999955789 0 0.5 0.24999999999941211 0 0.45000000000000001 0.19999999999955789 0 0.45000000000000001 0.14999999999970359
[...]
<PointData Scalars="tracer_conc," Vectors="" Tensors="">
<DataArray type="Float64" Name="tracer_conc" format="ascii">
1.0647024498914575 0.94363743816606904 1.5564383946141902 0.99507812109111538 1.3963348544659087 1.4951428398747697 1.354365551469217 1.5524607264911765 1.8739591915992939 1.8143809590644091 1.6567534822314729 1.9769312806527366 1.4156645594940251 1.8114157173075345 1.6648002533042334 1.4006596744682518 1.6847837318793455 1.2865352249655111 1.6494953719720136 1.5542505009586514 1.3174317219984613 1.6640308408907249 1.5433191192056035 1.8456398128819314 1.5551861613848077 1.7367010882396294 1.4645900888761767 1.5615980637263605 1.3141742503032396 1.2409700218635593 1.2982269129623654 1.0118182826382023 0.98698926132472209 1.023128600474623 1.3826687547763865 0.97841985653019181 1.3617247802995056 1.3116408230262673 0.99226350713332434 1.9454522347495731 2.0056006903412347 1.9165804713291328 2.0085522095322896 1.9780189827384398 1.9134327801874 1.993034519471409 1.9032968240551198 1.8403999904710595 2.0050927269847079 1.931716267907615 1.8273679284004705 1.689745233779252 1.9455414601104215 1.820572251565383 1.5692539697834111 1.819910104804334 1.7217012839597674 1.7213312312672375 1.8416319556846257 1.6364458190996891 1.9090274749015801 1.7365396363483936 1.8268912024337476 1.9230589865830956 1.8190725465553155 1.7207999878854838 1.9585319467952185 1.9024125797662499 1.8305888188754245 1.8262724099263401 1.9011718845810721 1.7561594580276785 1.9523666187077691 1.8384159872692714 1.8897033548893949 1.8333625476243427 1.6974716757229622 1.7740707516164222 1.8934908976791718 1.831773923822851 1.7648488319001345 1.8411411185419599 1.7552788200171876 1.6891777731427127 1.7544481983830316 1.5791632858530835 1.6903570116068662 1.7659408252016311 1.6402465594647819 1.5676614772785582 1.8282401061659697 1.7555242296489779 1.6504321043949051 1.717291448108565 1.6401503683928849 1.4831887761217799 1.6344721475753727 1.5723586875956959 1.419306486259309 1.5664903181178713 1.3693571171033603 1.5146552366114772 1.6879531529723129 1.5189576278970853 1.6307139334770866 1.5726175685888961 1.6974140593059457 1.5097467974940946 1.6903300573900426 1.7813061530491845 1.6285052110263534 1.7741071064268827 1.7174005683831295 1.6359027804463908 1.242325361664216 1.2212881472192478 0.99479400011272079 1.0073600826623608 1.2474636797056764 0.99107412734008327 1.2888022999915165 0.99342081145545735 1.2583780707148116 1.5407078479817682 1.2586401977530977 1.4750906889499695 1.6486998456142736 1.475949126300349 1.4060875513569855 1.2597287358597897 1.4767987167324939 1.2086309854049904 1.4636148921147096 1.4151970487564887 1.2195734622055219 1.4144987111996832 1.2221584221140824 1.1837005734745647 1.5769831806476355 1.4158941940259722 1.3597944684438503 1.4056563679703327 1.1909684091299797 1.3675842472690916 1.2093806906539308 0.99575243396842616 1.193440112266551 1.2125410492143052 1.0052235389966409 0.99330450315533625 1.0040425512572002 1.1861639672519217 0.9946140860239403 1.184068184173148 1.1711239270192066 0.99635804858007637 1.1647958968364385 1.0033301797074032 0.99541912285457734 1.163339446841942 1.1522426952316203 0.99672893622535996 1.1465151877070379 1.0028781113045002 0.9959265886855081 1.2936998091240952 1.4179965882971997 1.2566493834201877 1.15261833358668 1.2905946964600998 1.1295425160335431 1.1716020553246234 1.145487633875343 1.3255023515966351 1.1492334398607289 1.2933273654776811 1.3208997207848974 1.2873156217123978 1.328337919318183 1.4647367021313686 1.1683135829151463 1.3278829083513815 1.3595324135741065 1.1940663742246778 1.1632068956588806 1.3657794742791105 1.3211228851572803 1.3681448412852351 1.5168695889802124 1.5149540040339859 1.4592414456673881 1.6352956670871517 1.4665786050307259 1.6276128003892929 1.5754216753184778 1.3282127804657686 1.5089889369366771 1.4640648309189817 1.7227535789485429 1.6308002749015769 1.5726433986278627 1.7163779542230355 1.5790284818188662 1.6618279407539696 1.6600872939967628 1.5256367928385166 1.6070909733011089 1.5755592930614426 1.6656133066535779 1.5202092755099768 1.5234584469121417 1.6095993125521186 1.4700891729610233 1.2927006008620749 1.4586925015581405 1.4183691309497046 1.5719606771421524 1.523304142801301 1.4195795196625629 1.4643554277287874 1.5781953571842149 1.4137116285635198 1.5247389260547644 1.4186334482869554 1.3714782320354484 1.4132693926138042 1.3759733749566752 1.2608242831028207 1.5196562581707858 1.3762033456798319 1.4733651930518303 1.4696200413735494 1.424818110922377 1.3352069060559166 1.3762058854753942 1.4737833101096633 1.3313822019207071 1.3710944874652271 1.3357432639438367 1.231293122744715 1.6048591400793157 1.5528369710215093 1.4746706364651274 1.5543076134300182 1.4735180209106649 1.4214361351906819 1.5502676143699727 1.4987255870760845 1.4252838615069772 1.499344295545646 1.4249618883785382 1.3735977576355833 1.4959331539317631 1.3767970238903542 1.4444375064927744 1.4244388219519859 1.3359449422265024 1.2925957165564235 1.4210301199191473 1.2956855491285633 1.3770357459739817 1.3310378468647712 1.2032296854791764 1.2968496428509506 1.3340433972452703 1.2333829653167456 1.2006318824137847 1.2299297020107356 1.120489642809954 1.1006462733773832 1.2277627002842473 1.2055041417366095 1.1023655249404078 1.114573824575037 1.1058441191445259 0.99712021950317664 1.0023881841795981 1.1151143291480199 0.99644805430872141 0.99706979354287273 1.1202515234881074 1.1294371833004284 0.99624862988568352 1.0025828053579517 1.1301906678688471 1.1454740770354608 0.99694892836682703 1.1355457974666685 1.2870898532356396 1.132379498653201 1.2621350060285421 1.3748492446979108 1.2280083082677118 1.2624411875918553 1.2331302096458261 1.1169345723939856 1.2564121360068159 1.1147376837746712 1.1358443268658851 1.2591477162333793 1.6910310935147532 1.7107412533303765 1.6306381645424779 1.7088235327376629 1.6484338030071877 1.6326217624839692 1.6907671286059551 1.6309760011676713 1.6025385800732044 1.6909840726439325 1.6621772208255363 1.7476743208271632 1.6928748235539059 1.708749275758537 1.7653166827398785 1.7105039073362009 1.7144795897312235 1.7709107397115054 1.714661040574742 1.6501081416708832 1.6540655952962731 1.7088182421924447 1.7163510592679143 1.648376215418325 1.6484961647473169 1.6558809482570092 1.5842848799454952 1.6541457742726311 1.5898484473451338 1.58602453061537 1.6482835661305726 1.569223339238508 1.5844850360804221 1.6502028834533868 1.631024734101912 1.5672873267785756 1.6304446159664978 1.540608655867592 1.5678523322627675 1.599827318320924 1.499396828617769 1.5394245987146129 1.6025249886362163 1.5572678088103495 1.4967380960452197 1.6327060076037869 1.6009742317230169 1.5383433412924643 1.5553413104912708 1.444883228578334 1.4984957096616209 1.498819266259791 1.5584671532783589 1.4418703775816248 1.5529254723678918 1.4963464756728508 1.6166834491859801 1.4998461323669705 1.557207351442407 1.6131166736657996 1.5547299587532042 1.6146534217765844 1.6697699979735632 1.693127033276594 1.600117841022354 1.6601737242772863 1.5557109973681433 1.6147036288347809 1.662339582023673 1.6009278661712385 1.5586785268537899 1.6593903871739148 1.6167434539910739 1.6601354736872391 1.7165451997437788 1.6596942348180077 1.7168430167198783 1.7500302090045525 1.6135254239252093 1.719673135990659 1.6708790916448253 1.7168164735243723 1.6736041804314985 1.7709698885268179 1.6702085657278665 1.7257379856889721 1.7741848676039498 1.7168412671669371 1.7706557491761297 1.8029105770486586 1.6071644644751768 1.5507407324824671 1.6737630003848536 1.6098760384984931 1.6708466482396702 1.72527286433572 1.6618676070308469 1.6053994827748863 1.7296629578882132 1.6656356530085108 1.7257363996478106 1.7795338142254533 1.7173771875954762 1.6607150473865293 1.7842388371386197 1.729193272041881 1.7706476010753691 1.8222617986319942 1.7257355376703549 1.779148504421922 1.8254266631581955 1.7712376718664797 1.8212060914961552 1.8511987008556499 1.8480115489902103 1.8007635028701794 1.8650755438236726 1.8022306482142443 1.8164737433539477 1.8638446237585116 1.7735101606426118 1.8492129209163672 1.7999900859089546 1.7192834662421956 1.8006715427824136 1.7474826765694009 1.8000313495174107 1.747824454988349 1.8187627096106287 1.7495778311086061 1.7649484868875791 1.8171874760571955 1.6909518646354207 1.7475279353328173 1.7671195519795444 1.7088919769443414 1.7724407251926846 1.7650265961239346 1.7653361563600776 1.8235617037563205 1.8165611467243874 1.7705801348968304 1.7667216700762778 1.8222998707329905 1.8217872465165388 1.8181949849587713 1.8682340125604462 1.8171389511267007 1.8628491167892529 1.8691257107014085 1.8643442552721612 1.8675183466482173 1.9081674769122932 1.8637114482086008 1.9086014141474021 1.9033491710890336 1.850277559920902 1.8627531927285907 1.9047183427905507 1.8244102506370981 1.8479763908147206 1.8927061263264129 1.8492198226062346 1.9054890001922256 1.8909079976683625 1.8925935935207878 1.9281403979166858 1.9395118036246071 1.9032451999566307 1.8931239118704322 1.9393010648086038 1.8908782886442612 1.9305123351004807 1.8714004352989837 1.9281099999719051 1.9137050198444407 1.961968900015032 1.9301525425543229 1.9374849472040112 1.9672090829712636 1.9385762605564556 1.9405328384839771 1.9684253727151437 1.9072415818488329 1.904624513889392 1.9416557888425265 1.9044846984602231 1.9375975736508073 1.941575620533752 1.7739440493243679 1.7171212164054135 1.8371352531167688 1.7223483478971076 1.7791946541974319 1.8323047141807081 1.7800087567550433 1.8308202885384111 1.8727974319265852 1.7833396265737282 1.8212233892827239 1.8698922020032862 1.8224730060339553 1.8942725656763777 1.8679769324007374 1.9314701324059014 1.8700009940108051 1.9102838056952514 1.9103523243898819 1.8854384091769132 1.9509656273398555 1.8327580574453546 1.9154730316820752 1.8801535751911544 1.8356696972809683 1.8680230006771033 1.9131299219694333 1.7802124307639076 1.8309308464116936 1.8830042949138075 1.8390063946183866 1.8803362049345234 1.9304656403613956 1.8314975720218922 1.774987851057543 1.8875916451082533 1.9451063840931411 1.8944903986050583 1.9746041907965119 1.8892466389026803 1.8343594736126734 1.9341873791501891 1.8976249139642587 1.9262764226904927 1.9726624370974974 1.9313221291716074 1.9472946723909987 1.9820967751746019 1.9305657416108153 1.982102252353241 1.9666714023103427 1.883354174018828 1.9260386937695315 1.9523552549969865 1.9130628762466828 1.9472260476013907 1.9621338104245853 1.9506261189039886 1.9777013649497281 1.9857131812369855 1.9820844312353403 2.0000468320380467 2.0020280719737502 2.0035559161907277 1.9732197113301913 1.9987947081500854 1.9776098085694327 2.0050820950718524 1.971306464040284 1.9535066793732767 1.9667160010951843 2.0066317417465331 1.9542927659967679 1.9940195188346395 2.0060774975140205 1.9667373427065524 1.9862770619763817 1.9874278950318169 1.9671476407042228 1.9658942649558977 1.988464243821247 1.9389530525451735 1.9678294118763933 1.9652710905178334 1.9302373965995951 1.9668043798361834 1.9591396281264284 1.950321040753237 1.9590954468680413 1.9864679711675857 1.9651480505681782 1.960768013884663 1.9882764433237321 1.9614882490939147 1.9834281150325084 1.9872788984418006 1.9845213012278911 2.0026583182140767 1.9861101574303266 1.9801013546049671 1.9832843412395751 2.0036144506848705 1.9863190722634447 2.0003920006719986 2.0012089517357929 2.0005616649920399 1.9881834947994681 2.0007345142309592 1.9865386326425167 1.9871086103364008 2.0020925185723208 1.9885044114198447 2.0007434059118858 2.0003954038818277 1.9869155583571974 2.001759331148214 1.986598721903662 1.9680181354307098 1.9873012990223065 1.9862201073105257 1.9672034701646852 1.987197872744523 1.9656189948517093 1.9412996824820994 1.9673402703445513 1.9655463458419704 1.9604772657534983 1.9476196448698038 1.9279058147602903 1.965891792959221 1.9593714179350534 1.9378640835841292 1.9650903263111912 1.9601000569201581 1.9840745691488699 1.9868389836504869 1.9657302534848804 1.9832743142647418 1.9592319741944466 1.9847067617389935 1.97756973345687 1.9857949340351555 1.9843804884314968 2.001520738870652 2.0010221848004983 1.9874108479626897 2.0000617430954191 1.9844800190620058 2.001507197207181 1.9995495005170676 2.0023279626800656 1.9784647698101974 1.9982597795245043 1.9770914079096706 1.999643954018606 1.9698835134976791 1.9828404620353728 2.001114624109094 1.9795624871006563 1.9940220684772139 2.0032698301189118 1.9665122676437676 1.994129426445872 1.9664341237773912 1.9501504534213556 1.9430650725902934 1.9270756831566103 1.892702300790946 1.970577718817921 1.9461900391684099 1.9241986207294819 1.9293006025294102 1.8912117158097776 1.8778521412585421 1.9590309235193604 1.9779209765453196 1.948939473759002 1.9800333479621319 1.9668324905699748 1.9466355701937987 1.9661022025162906 1.9286469242870592 1.947427333770388 1.9269278527832112 1.9494494027104421 1.9092359300843018 1.9470244138153634 1.9116027469741375 1.9285175248712785 1.9248476280212674 1.9111565866223588 1.8818994615387441 1.9120567875864396 1.8815180826027629 1.8666701268608836 1.8785881719835471 1.8316825529337459 1.8693282660412545 1.9097337036382918 1.8687718328737724 1.8917096746781221 1.8865116734723466 1.8333377879954038 1.8820369427139509 1.8338834907385768 1.8824308364761577 1.8284241551934826 1.8285788121807853 1.7744874634917691 1.833150954378659 1.7765028717815543 1.8320998865540692 1.7769029140184842 1.7712051820875472 1.7169891658272582 1.7816673853688505 1.8324781267788395 1.8691567982680017 1.8198272243413431 1.8291272678015944 1.8228719118116377 1.7792552380877489 1.867198930503067 1.8491562365663838 1.8214782300644403 1.8691062284219364 1.8917633918213901 1.8473749442016536 1.89180953126757 1.9037902782237315 1.8627784108027912 1.8908315461753284 1.8637630680231139 1.8482353764979698 1.8686171011393597 1.9037706648764599 1.8629067696508084 1.8680052246317778 1.9074177978242639 1.904273576622215 1.908001544393634 1.9035412684837869 1.9382171447347856 1.9078707244070563 1.9407211857576416 1.9382116347627942 1.9409297558680849 1.9660714415868759 1.9378982277433483 1.9595477425453069 1.9377884610202678 1.9289467781217442 1.9110978198724882 1.8904199054171051 1.9293053183110549 1.8914417609163183 1.903917869324554 1.9282904148673918 1.9034268367945888 1.9381666181165735 1.9287329223418472 1.0242200243559212 1.3025700070045823 1.260354729581916 1.3135981628550943 1.0434489636700499 1.3843534133033371 0.99043983623366205 1.3387075047383554 1.0267444936544954 0.98132213734069573 1.0535841775661747 1.4478610025372032 1.1035271855294873 1.5292387797398828 1.3877104218366767 1.5279643437160373 1.3825525497777644 1.6953000414057839 1.5945486980825596 1.8373261768108495 1.637892118449277 1.8011181617074867 1.6653319219583176 1.8331822183335156 1.6519163819741776 1.5517811497769649 1.7338280067912577 1.3023225331956008 1.3898928009780289 1.5746079002715312 1.4219375683027862 1.6655165901732318 1.5465898267590281 1.3288785917999286 1.5513695214174308 1.4711393109221413 1.5663798664814013 1.7234131255838741 1.6335441952803926 1.7284711128727048 1.8305668831777593 1.7494308677258275 1.72326508140188 1.8107824017747287 1.8328519976342217 1.8267232239450144 1.9105973880095779 1.8194180890876075 1.6785140331846224 1.7117683192579103 1.8273456524567595 1.8354095670541701 1.8027887906268625 1.9534156631751862 1.9398093078588723 1.8948883683576023 1.9924500024392036 1.8262056859902505 1.925776659600323 1.9077355377586898 1.9463761109276434 1.9093312956873294 1.9761976119884752 2.0023871994232634 1.9425906735889455 1.9801987139216279 1.9511430012219366 1.8853200548070792 1.9057035591329876 1.8921672402850569 1.8978418164658801 1.8299267265883195 1.8934469741386111 1.8274814647112174 1.8302358600069146 1.8351909318508104 1.8213961912907974 1.756421298798527 1.7777871002022412 1.7508566816670894 1.6899274825412789 1.8338771726838541 1.77031484796823 1.7593062514120688 1.7748721038752449 1.6942089359516348 1.7143176308122627 1.6866896533652007 1.6295004659069225 1.7210783550941864 1.6901809841658162 1.5781561783177591 1.6273316617663931 1.5687657726591058 1.5123604513718139 1.6358699655685138 1.5705205316059374 1.4230480960093874 1.5119553374516537 1.5680999736654573 1.6394187523407382 1.4848199017597337 1.6961713650652153 1.5705012216932956 1.634807463791591 1.7568273682625923 1.6857374346939988 1.6465560713295817 1.7141686470828517 1.761797660260394 1.6393221528647584 1.5472647679620772 1.6502911675439289 1.4714505375920002 1.310279854649941 1.4885607275028221 1.2513805551568253 1.4246439517479308 1.2158015563798414 1.2586698437572348 1.4711538201594301 1.4133084850209505 1.2702731668666174 1.5804867583446038 1.4712202293846341 1.4115373870946899 1.413212185856086 1.3641220874727449 1.5211769169560183 1.2222810001880471 1.1888927030900254 1.3745482824819515 1.4112437936663935 1.2299471888759446 1.3668176997054557 1.2154086516075804 1.0104538573551871 1.195250445457225 1.0079575985317217 0.99669227532261417 1.2003138887120413 1.2311354414799791 0.99571330384277801 1.0108344359655337 1.22324749632467 1.2511117565218557 1.0151484258414303 1.0161369130746489 1.2738035182272569 0.99395616531625341 1.0052510917705035 1.1483613021124797 1.1370226768844347 1.1537917536981581 1.0062444750897377 1.1668216847930672 0.99761736837148818 1.1563550091114896 1.0052667449952262 0.99726776711312204 1.0062869989724939 1.1762836461551485 1.0078215376567037 1.1885062530712895 1.1727847817964383 1.1947197199009545 1.1671657844779293 1.3332459762712103 1.2000205969940037 1.3638442923330643 1.3277622118851262 1.366732991719281 1.324616346193179 1.4693802199891264 1.3277328292889803 1.2902092417210975 1.4227905705810711 1.1763220263070477 1.32436348101971 1.2936064483443388 1.1486568555663621 1.1725253824180597 1.2976223346362206 1.1564929234949213 1.2899845959382501 1.262682572064443 1.2978049956425586 1.4157150484635825 1.3755813164240627 1.422395516804227 1.5213834842976133 1.4723329070571909 1.4158021959085034 1.462691139700645 1.5272654614748258 1.468617184425062 1.5738273380404952 1.52167392469601 1.3331924693906112 1.4174537013830868 1.461512155012517 1.3739909577151066 1.4624190434631428 1.5123237454021918 1.519807386655964 1.5730240943760991 1.6296517326166138 1.4615824644032835 1.5123532824113548 1.5799380707629502 1.5737466479628366 1.6279876622991929 1.6653191989310205 1.6344526404342292 1.7172601759741146 1.6594125600472203 1.5789604177991889 1.6610318313271859 1.6052773034150218 1.5734940097447441 1.5213506187258765 1.6103457971427206 1.5266079374115986 1.6058445122676936 1.5515432402681231 1.5220250970740166 1.4712372781584842 1.555849510323871 1.4726087706101711 1.4225753106194361 1.501505048077534 1.4764254870663529 1.5512829978907907 1.4978763247565705 1.4276370285773146 1.4969633626713055 1.4439762429811429 1.4244947120654179 1.446992484446471 1.3747097973498654 1.4225610641594439 1.338934766923715 1.3768668060305314 1.3359201092747159 1.294180644060283 1.379826655072689 1.3330158625845485 1.2364781860073699 1.2971597576682763 1.3357425777490504 1.3732709997088306 1.2659768204608508 1.4279335952195196 1.3331041459341415 1.3757643322300455 1.471239512031864 1.4242593578925837 1.3795495509501139 1.4176650733579292 1.4768639431805564 1.373363205856204 1.2936318892514902 1.3797295051478589 1.2591173456122475 1.153702676509242 1.2656965139982694 1.1321935714004037 1.2589215833460738 1.2338744984055354 1.1391268528651972 1.236173790718412 1.1170404246482835 1.1370430566093348 1.3389964577810081 1.2627533248378089 1.2301725955971949 1.2339862775425836 1.2025703226460114 1.2997113040562172 1.1217860535835622 1.1027064768706731 1.2081699957907033 1.230005773568164 1.1233468680997603 1.2064079931180365 1.116833061080498 1.0041694521582447 1.1072701498452624 1.0039444006862037 0.99803501237777614 1.1085527418824519 1.1232559569158358 0.99796254605691159 1.004208177739502 1.1216892410346273 1.1319442367491523 1.0046023072133117 1.0046223441854158 1.1389900095280301 0.99783235128667302 1.7647991860481549 1.8166722