<?xml version="1.0"?>
<VTKFile type="UnstructuredGrid" version="0.1" byte_order="LittleEndian">
<UnstructuredGrid>
<Piece NumberOfPoints="2400" NumberOfCells="800">
<Points>
<DataArray type="Float64" NumberOfComponents="3" format="ascii">
0.050000000000000037 0 0 0 0.049999999999899652 0 0 0 0 0.050000000000000037 0 0 0.050000000000000037 0.049999999999899652 0 0 0.049999999999899652 0 0.099999999999999978 0 0 0.050000000000000037 0.049999999999899652 0 0.050000000000000037 0 0 0.14999999999999999 0 0 0.099999999999999978 0.049999999999899652 0 0.099999999999999978 0 0 0.099999999999999978 0 0 0.099999999999999978 0.049999999999899652 0 0.050000000000000037 0.049999999999899652 0 0.099999999999999978 0.049999999999899652 0 0.099999999999999978 0.099999999999814668 0 0.050000000000000037 0.099999999999814668 0 0.099999999999999978 0.049999999999899652 0 0.050000000000000037 0.099999999999814668 0 0.050000000000000037 0.049999999999899652 0 0.14999999999999999 0.049999999999899652 0 0.099999999999999978 0.099999999999814668 0 0.099999999999999978 0.049999999999899652 0 0.14999999999999999 0.099999999999814668 0 0.099999999999999978 0.14999999999970359 0 0.099999999999999978 0.099999999999814668 0 0.099999999999999978 0.099999999999814668 0 0.050000000000000037 0.14999999999970359 0 0.050000000000000037 0.099999999999814668 0 0.050000000000000037 0.049999999999899652 0 0.050000000000000037 0.099999999999814668 0 0 0.099999999999814668 0 0.050000000000000037 0.049999999999899652 0 0 0.099999999999814668 0 0 0.049999999999899652 0 0.050000000000000037 0.099999999999814668 0 0 0.14999999999970359 0 0 0.099999999999814668 0 0.050000000000000037 0.099999999999814668 0 0.050000000000000037 0.14999999999970359 0 0 0.14999999999970359 0 0.050000000000000037 0.14999999999970359 0 0.050000000000000037 0.19999999999955789 0 0 0.19999999999955789 0 0.050000000000000037 0.14999999999970359 0 0 0.19999999999955789 0 0 0.14999999999970359 0 0.050000000000000037 0.19999999999955789 0 0 0.24999999999941211 0 0 0.19999999999955789 0 0.050000000000000037 0.19999999999955789 0 0.050000000000000037 0.24999999999941211 0 0 0.24999999999941211 0 0.099999999999999978 0.19999999999955789 0 0.050000000000000037 0.24999999999941211 0 0.050000000000000037 0.19999999999955789 0 0.099999999999999978 0.19999999999955789 0 0.099999999999999978 0.24999999999941211 0 0.050000000000000037 0.24999999999941211 0 0.14999999999999999 0.19999999999955789 0 0.099999999999999978 0.24999999999941211 0 0.099999999999999978 0.19999999999955789 0 0.14999999999999999 0.14999999999970359 0 0.099999999999999978 0.19999999999955789 0 0.099999999999999978 0.14999999999970359 0 0.099999999999999978 0.14999999999970359 0 0.099999999999999978 0.19999999999955789 0 0.050000000000000037 0.19999999999955789 0 0.099999999999999978 0.14999999999970359 0 0.050000000000000037 0.19999999999955789 0 0.050000000000000037 0.14999999999970359 0 0.099999999999999978 0.099999999999814668 0 0.099999999999999978 0.14999999999970359 0 0.050000000000000037 0.14999999999970359 0 0.14999999999999999 0.099999999999814668 0 0.14999999999999999 0.14999999999970359 0 0.099999999999999978 0.14999999999970359 0 0.20000000000000001 0.099999999999814668 0 0.20000000000000001 0.14999999999970359 0 0.14999999999999999 0.14999999999970359 0 0.20000000000000001 0.14999999999970359 0 0.20000000000000001 0.19999999999955789 0 0.14999999999999999 0.19999999999955789 0 0.20000000000000001 0.14999999999970359 0 0.14999999999999999 0.19999999999955789 0 0.14999999999999999 0.14999999999970359 0 0.14999999999999999 0.14999999999970359 0 0.14999999999999999 0.19999999999955789 0 0.099999999999999978 0.19999999999955789 0 0.14999999999999999 0.19999999999955789 0 0.14999999999999999 0.24999999999941211 0 0.099999999999999978 0.24999999999941211 0 0.20000000000000001 0.19999999999955789 0 0.20000000000000001 0.24999999999941211 0 0.14999999999999999 0.24999999999941211 0 0.20000000000000001 0.19999999999955789 0 0.14999999999999999 0.24999999999941211 0 0.14999999999999999 0.19999999999955789 0 0.25 0.19999999999955789 0 0.20000000000000001 0.24999999999941211 0 0.20000000000000001 0.19999999999955789 0 0.25 0.19999999999955789 0 0.25 0.24999999999941211 0 0.20000000000000001 0.24999999999941211 0 0.25 0.14999999999970359 0 0.25 0.19999999999955789 0 0.20000000000000001 0.19999999999955789 0 0.25 0.14999999999970359 0 0.20000000000000001 0.19999999999955789 0 0.20000000000000001 0.14999999999970359 0 0.25 0.099999999999814668 0 0.25 0.14999999999970359 0 0.20000000000000001 0.14999999999970359 0 0.25 0.049999999999899652 0 0.25 0.099999999999814668 0 0.20000000000000001 0.099999999999814668 0 0.25 0.049999999999899652 0 0.20000000000000001 0.099999999999814668 0 0.20000000000000001 0.049999999999899652 0 0.25 0.099999999999814668 0 0.20000000000000001 0.14999999999970359 0 0.20000000000000001 0.099999999999814668 0 0.20000000000000001 0.099999999999814668 0 0.14999999999999999 0.14999999999970359 0 0.14999999999999999 0.099999999999814668 0 0.14999999999999999 0.049999999999899652 0 0.14999999999999999 0.099999999999814668 0 0.099999999999999978 0.099999999999814668 0 0.20000000000000001 0.049999999999899652 0 0.14999999999999999 0.099999999999814668 0 0.14999999999999999 0.049999999999899652 0 0.20000000000000001 0.049999999999899652 0 0.20000000000000001 0.099999999999814668 0 0.14999999999999999 0.099999999999814668 0 0.20000000000000001 0 0 0.20000000000000001 0.049999999999899652 0 0.14999999999999999 0.049999999999899652 0 0.14999999999999999 0 0 0.14999999999999999 0.049999999999899652 0 0.099999999999999978 0.049999999999899652 0 0.20000000000000001 0 0 0.14999999999999999 0.049999999999899652 0 0.14999999999999999 0 0 0.25 0 0 0.20000000000000001 0.049999999999899652 0 0.20000000000000001 0 0 0.25 0 0 0.25 0.049999999999899652 0 0.20000000000000001 0.049999999999899652 0 0.29999999999999999 0 0 0.25 0.049999999999899652 0 0.25 0 0 0.29999999999999999 0 0 0.29999999999999999 0.049999999999899652 0 0.25 0.049999999999899652 0 0.29999999999999999 0.049999999999899652 0 0.25 0.099999999999814668 0 0.25 0.049999999999899652 0 0.29999999999999999 0.099999999999814668 0 0.25 0.14999999999970359 0 0.25 0.099999999999814668 0 0.29999999999999999 0.049999999999899652 0 0.29999999999999999 0.099999999999814668 0 0.25 0.099999999999814668 0 0.34999999999999998 0.049999999999899652 0 0.29999999999999999 0.099999999999814668 0 0.29999999999999999 0.049999999999899652 0 0.34999999999999998 0.049999999999899652 0 0.34999999999999998 0.099999999999814668 0 0.29999999999999999 0.099999999999814668 0 0.34999999999999998 0.099999999999814668 0 0.29999999999999999 0.14999999999970359 0 0.29999999999999999 0.099999999999814668 0 0.40000000000000002 0.099999999999814668 0 0.34999999999999998 0.14999999999970359 0 0.34999999999999998 0.099999999999814668 0 0.40000000000000002 0.049999999999899652 0 0.34999999999999998 0.099999999999814668 0 0.34999999999999998 0.049999999999899652 0 0.34999999999999998 0 0 0.34999999999999998 0.049999999999899652 0 0.29999999999999999 0.049999999999899652 0 0.34999999999999998 0 0 0.29999999999999999 0.049999999999899652 0 0.29999999999999999 0 0 0.40000000000000002 0 0 0.34999999999999998 0.049999999999899652 0 0.34999999999999998 0 0 0.40000000000000002 0 0 0.40000000000000002 0.049999999999899652 0 0.34999999999999998 0.049999999999899652 0 0.45000000000000001 0 0 0.45000000000000001 0.049999999999899652 0 0.40000000000000002 0.049999999999899652 0 0.45000000000000001 0 0 0.40000000000000002 0.049999999999899652 0 0.40000000000000002 0 0 0.5 0 0 0.45000000000000001 0.049999999999899652 0 0.45000000000000001 0 0 0.5 0 0 0.5 0.049999999999899652 0 0.45000000000000001 0.049999999999899652 0 0.5 0.049999999999899652 0 0.45000000000000001 0.099999999999814668 0 0.45000000000000001 0.049999999999899652 0 0.5 0.049999999999899652 0 0.5 0.099999999999814668 0 0.45000000000000001 0.099999999999814668 0 0.5 0.099999999999814668 0 0.45000000000000001 0.14999999999970359 0 0.45000000000000001 0.099999999999814668 0 0.45000000000000001 0.099999999999814668 0 0.40000000000000002 0.14999999999970359 0 0.40000000000000002 0.099999999999814668 0 0.45000000000000001 0.049999999999899652 0 0.40000000000000002 0.099999999999814668 0 0.40000000000000002 0.049999999999899652 0 0.45000000000000001 0.049999999999899652 0 0.45000000000000001 0.099999999999814668 0 0.40000000000000002 0.099999999999814668 0 0.40000000000000002 0.049999999999899652 0 0.40000000000000002 0.099999999999814668 0 0.34999999999999998 0.099999999999814668 0 0.40000000000000002 0.099999999999814668 0 0.40000000000000002 0.14999999999970359 0 0.34999999999999998 0.14999999999970359 0 0.40000000000000002 0.14999999999970359 0 0.40000000000000002 0.19999999999955789 0 0.34999999999999998 0.19999999999955789 0 0.45000000000000001 0.14999999999970359 0 0.45000000000000001 0.19999999999955789 0 0.40000000000000002 0.19999999999955789 0 0.45000000000000001 0.14999999999970359 0 0.40000000000000002 0.19999999999955789 0 0.40000000000000002 0.14999999999970359 0 0.45000000000000001 0.099999999999814668 0 0.45000000000000001 0.14999999999970359 0 0.40000000000000002 0.14999999999970359 0 0.5 0.099999999999814668 0 0.5 0.14999999999970359 0 0.45000000000000001 0.14999999999970359 0 0.5 0.14999999999970359 0 0.5 0.19999999999955789 0 0.45000000000000001 0.19999999999955789 0 0.5 0.14999999999970359 0 0.45000000000000001 0.19999999999955789 0 0.45000000000000001 0.14999999999970359 0 0.5 0.19999999999955789 0 0.45000000000000001 0.24999999999941211 0 0.45000000000000001 0.19999999999955789 0 0.5 0.19999999999955789 0 0.5 0.24999999999941211 0 0.45000000000000001 0.24999999999941211 0 0.45000000000000001 0.19999999999955789 0 0.45000000000000001 0.24999999999941211 0 0.40000000000000002 0.24999999999941211 0 0.45000000000000001 0.19999999999955789 0 0.40000000000000002 0.24999999999941211 0 0.40000000000000002 0.19999999999955789 0 0.40000000000000
[...]
<PointData Scalars="tracer_conc," Vectors="" Tensors="">
<DataArray type="Float64" Name="tracer_conc" format="ascii">
0.94369447238307058 1.5564874934938173 1.0646630140392075 0.99514269505093977 1.3965232453470593 1.4951682327783959 0.97850992138234272 1.3829883933536975 1.0230769213892905 0.98711387162306674 1.2989473834239191 1.0117471388131214 0.99236011869364815 1.312177165356937 1.3620187006852842 1.3181188407000983 1.5553556284313625 1.6499787450850349 1.2871807880571882 1.6853128077704824 1.4008438843062461 1.2421448983217058 1.5628738713962234 1.3147049547837981 1.4667830140172375 1.7385130596812104 1.5562854810192344 1.5445036933072731 1.8463762683883105 1.6644334572614381 1.4159574467892049 1.665206879879747 1.8114053092194868 1.3546154942425619 1.8739936930375936 1.5524172239103247 1.6571917635147748 1.9769544597909079 1.8143273616469382 1.6902586680522051 1.8211868627546675 1.9454947679138748 1.8411190127757124 1.9041016572322378 1.9929528981189217 1.8279819425302206 2.005103736451225 1.9316541306174939 1.9142050454302229 2.008550899281409 1.9779499785866064 1.9174845228738542 1.9464247773322052 2.0054866204443487 1.8327345984922023 1.9596145744309112 1.9032113861736479 1.8406895400219749 1.8922649365600683 1.9533189539803619 1.7601694909388346 1.9038874090305691 1.8283972213355164 1.6395923997007871 1.8439275981635359 1.7229669720730607 1.7383310125074056 1.8290227417340066 1.9098446267451707 1.7224893018635159 1.9239813101353249 1.8196820839582899 1.5705116616889943 1.7233433343862241 1.8205697381171291 1.4854701452346137 1.643216165876155 1.7190119706905851 1.4229167960649673 1.5772880794129074 1.6376619380267237 1.5843563506619169 1.6967332118451401 1.7584958757527989 1.5727135324393426 1.7701311889687412 1.6433090830330048 1.6537018298549691 1.7594945684155479 1.8304101946901408 1.7690126584027768 1.8365382332434534 1.8960507874948902 1.7040977549367902 1.7817165176163621 1.8381563830292786 1.6956279829420196 1.8461120371404793 1.7592458771869965 1.6379906322677729 1.7892152067152467 1.6967077420033119 1.645581419330699 1.7286318711213033 1.7818229063320441 1.5265323255846979 1.6400840038412361 1.6944537526867915 1.5171662953933036 1.704070227395178 1.577547957140043 1.3746097991886843 1.5219042640623779 1.5715962445924341 1.1937430828578137 1.3725034219541201 1.4092209819984887 1.1864114300748412 1.4181283863242571 1.2238098575830729 1.3649355082984223 1.5822015590193874 1.4192347173589719 1.4095965301218769 1.6519931663826191 1.478018442722421 1.2598656724466535 1.4771633293168158 1.541929595593992 1.2104933369811552 1.4790996457163996 1.2607435794664319 1.2214937608326069 1.4185372855758682 1.4658552369006326 0.99496573708484404 1.2229399739999887 1.2435510488677815 0.99355346535914602 1.2593964541348757 1.2894903385699596 0.99123757250696864 1.2487274848267969 1.0072668859636709 0.99350834622679196 1.2145028501764408 1.005107397589375 0.99596431799404428 1.1958830057396617 1.2112995705906306 0.99485738109091104 1.1889809977664847 1.0039041152940038 0.99660873139372208 1.1745119977798519 1.1868385974458022 1.1669203474538801 1.371049393092836 1.1965131293857287 1.3282008216634549 1.524469637483852 1.3730690104172762 1.172094963835522 1.3346842372589476 1.364735073474771 1.15033991400846 1.3327120949558138 1.1749992243422487 1.1541559306818536 1.3022851758638634 1.328042251943806 1.2966028231160867 1.4751591064126512 1.3351498752888318 1.268365270699823 1.4316356621753368 1.3026745775081294 1.1356416472109043 1.3000111430427583 1.1571067851309431 0.99701451532068086 1.156716023467379 1.1671122322316461 0.99569824220929426 1.1686177122914561 1.0031716927618342 0.99623528031971154 1.1514731337687572 1.0027033580232267 0.99726302037700332 1.1412201016877237 1.1503819747520752 0.99740373596326204 1.127208667031198 1.1355847553089129 0.99657823442457094 1.1363878313865399 1.0023969683148264 0.99678777644043348 1.1226164593979979 1.0021976650892663 0.99746328290225472 1.1141236942717785 1.1220284178352293 1.1094054357181435 1.2443307302610691 1.1274754092417039 1.1111912936510422 1.2219941874918776 1.2421079222902545 1.2175617692620908 1.354967961059979 1.2472920412617947 1.2423009122445299 1.3920233545535681 1.2738043415044153 1.1221542517329333 1.2709849491620251 1.1415403362058985 1.1244206721151102 1.2470084721444399 1.2681880765505171 1.13854934781349 1.2734744086548391 1.2964411638928259 1.2726635534817881 1.3926436169151679 1.4267912619729068 1.3933644982570375 1.4948921194369971 1.536963590195549 1.3561269129958264 1.4511474638850332 1.4914845907050689 1.352135901938498 1.4958049387845536 1.3929032186841483 1.2457066281494351 1.3561356781650777 1.3881566411145061 1.220274777512256 1.3210691985915413 1.3518588178715378 1.3204548160853096 1.4083025451441942 1.4477391129137898 1.3172073715920765 1.4512935350959137 1.3563719962900818 1.4051998746363323 1.5313935835605648 1.4513284051133997 1.4085913656974183 1.4818998351788355 1.5278019508903848 1.4521172647329448 1.5302720115766451 1.5763364469534209 1.4480653954224429 1.5805714562076509 1.495074299290492 1.4966649479387055 1.5786297950898545 1.625476996462403 1.5430769479741364 1.6274844077276822 1.67576026193142 1.5374389066179288 1.6814929008096799 1.5885097431076192 1.4918732788995215 1.6304209300998262 1.5404997300071972 1.388468982198688 1.5422101946254756 1.4318301853699624 1.3021105362362673 1.4315461370424973 1.4689956795863202 1.4331993277693211 1.5403237748056962 1.5851299423970888 1.4271614311271383 1.5915308063156852 1.4743806318524952 1.4769776190142458 1.5883578800105926 1.6371602613295675 1.3354095554745451 1.4740772844152557 1.5164712724056728 1.469475501174373 1.6450065937531151 1.5222094457835809 1.5857412368205788 1.7343060802309849 1.6401777639486568 1.5923312079590077 1.6773303108346005 1.7277272580821328 1.6763165144034156 1.7973270049050232 1.7286166382944466 1.6814751198748488 1.7433945793652061 1.7923856781061593 1.7434297863817649 1.8397200469154058 1.7919518471812172 1.7905789034080168 1.8663519992223689 1.8352491477662802 1.7471517147835456 1.7900146179523024 1.8362925216851183 1.6971781304167883 1.7422927978029255 1.7903768308854675 1.6935128615851442 1.7938581818719823 1.7434122171245241 1.7423257619231545 1.8237774817371051 1.7900394105054622 1.6919647012868058 1.7774349786908861 1.7423437452287538 1.6430231202165975 1.7454994305171705 1.6941315285835785 1.6306567472654487 1.6940752706052522 1.7430366173156298 1.6259364673510099 1.7476667266283841 1.6773852727638872 1.576722669197101 1.697385181144869 1.6275808488443073 1.5809542179930156 1.6440325237228135 1.6931559341577471 1.5318594046921947 1.5931415929323913 1.64270508010372 1.5281256837964485 1.6464973066503843 1.578749109603041 1.4796046432719918 1.5948680090139176 1.5304044020694532 1.4828363439516157 1.5411710780467522 1.5915343934300914 1.5396175518429487 1.6423589091477497 1.5932415947108407 1.5425144407346774 1.5862364213875708 1.6394330240269606 1.5852886952214194 1.6750057956494753 1.6404288887718572 1.6396225517483636 1.7277447929218446 1.6924288958471831 1.5950314506937697 1.6403426447877814 1.6917528601572418 1.5918074111398579 1.6949508697676099 1.6441144304283573 1.646508133928245 1.6923584460423708 1.7421099067726362 1.6947325572503995 1.7252676447723674 1.7747986918893413 1.7274324242963837 1.7442860477494164 1.7933645543222581 1.6725922811904239 1.7465526362244426 1.7253470869088219 1.6748587392380827 1.6919028712681159 1.7443570584544648 1.6423157045185701 1.6729126479312348 1.7251189300693912 1.5878053559892467 1.6176613561987649 1.6725014622162835 1.6193537421454927 1.6361139870382999 1.6918005441227286 1.6171579669900396 1.6939730418627987 1.6730012165110153 1.6359031668256099 1.700112122707379 1.6920046587798765 1.6379073504427435 1.6421002359563843 1.6981170257719898 1.6938117793659138 1.698061782832474 1.7505573856922503 1.6917910802906146 1.7525327190657112 1.7443873927523834 1.7462529569036569 1.7504498915967419 1.7992376789836846 1.795006517237322 1.7990221751135769 1.8437781474173673 1.7933120711996151 1.8453475976044771 1.8379394613722144 1.7443374623587431 1.801068935985042 1.7931484088508864 1.7252126449513825 1.7954608420736906 1.7746578749234345 1.7450567280886615 1.7745878013632386 1.8212523643964968 1.7769269991247774 1.7930452375549659 1.8384606728060493 1.7748719464730274 1.8403355838205626 1.8206541379812322 1.8230480381205967 1.8378344539895115 1.879208512771104 1.7931351200676222 1.820595718571631 1.8640837484758594 1.8212838759301022 1.8807355120826221 1.8629537589892029 1.8383581064946772 1.8849355728363164 1.8783406584660209 1.8397185924619213 1.8434129188345219 1.8837400680988321 1.8799629284008945 1.8831939708876515 1.9186684619183343 1.8790401653417359 1.919392031618691 1.9138997538880376 1.9152839763310121 1.91792325957446 1.9481433238010168 1.9452469505214538 1.9472010120160343 1.9718536835655827 1.9148781561434132 1.9483288439127089 1.9441774148237532 1.9026512461735268 1.9462075675053401 1.9344833128743975 1.9034407519484042 1.9137921677010465 1.9457376535241511 1.936612174434698 1.9440668749159549 1.970615818515085 1.9198036613505414 1.9344555493650748 1.9652768957524165 1.8811347270671934 1.9010496087765731 1.9367517741444016 1.8640480861337791 1.9161815204418526 1.901082346517601 1.8653884980989406 1.8782344165576514 1.9151284686703149 1.8386613023312643 1.8629088414613872 1.9027883031166699 1.8364544587690017 1.9046240654979034 1.8775371671526202 1.7928056445887608 1.8825671844280019 1.8395346319807442 1.7963869866739459 1.8352572129188296 1.8794117385175722 1.7338633575819846 1.7919892788612184 1.8410321980739708 1.7284111812821548 1.8460876154266708 1.7815916668810261 1.7880881059572187 1.8396430063785865 1.8884179420959544 1.782658249050427 1.8932114017104307 1.8362586050351541 1.8439490470498348 1.8857676804645398 1.9333480410872315 1.8910293695379232 1.9163131428245195 1.954098352199803 1.841446338628818 1.9215999511050401 1.8855818500918657 1.8445869350016639 1.8775806774196828 1.9190273624457908 1.8794883985810751 1.9379567128965709 1.9162416242313134 1.9189445524041706 1.9656591665341645 1.9504297209698365 1.9537578882353892 1.9870990142402152 1.9789207916088927 1.9343633534320119 1.9505054817387701 1.9832435168405478 1.9334392670506055 1.9834180736247911 1.9677780769719202 1.888744226155179 1.9556897333030707 1.9289548527716194 1.8391223092411368 1.9372509176064592 1.8918011940208583 1.8970335269935346 1.9758186027826219 1.9460720653635608 1.9003177985472135 1.9291997555515141 1.9737251501632291 1.9545709180946289 1.9678302202404194 2.0064885646043189 1.9552021223589493 2.0060641436146112 1.9939454028426191 1.9742423588959894 2.0035311544295666 1.9987172531138344 1.9725029985100178 1.9788372774431486 2.0049137920726103 1.983194836071716 2.0019928094133106 1.9999677983985908 1.9874906693960259 2.0011642793312276 2.0003131259565241 1.9858916364170089 1.987473592746662 2.0024532896183 1.9814003095150829 1.9845951544892466 2.0034254404478773 1.9536342558512607 1.9625157864597083 1.9876715339464965 1.9364690205273096 1.9704390671025236 1.9625530818310641 1.9642736891997843 1.9686979616709304 1.989509208245942 1.9648029774309441 1.9887028693092956 1.9847306023450801 1.9701580627418773 1.9888579612020649 1.9876321213031169 1.9453896431917874 1.9714912873240973 1.9688145927216445 1.9695111886613426 1.970746210593209 1.9896984371597526 1.9879487005776706 1.9884935529457952 2.0018763102904042 1.9893891733586149 2.0006816342655118 2.0004846649918493 1.989716816072314 2.0003355807671097 2.0006699789506373 1.9883334422244274 1.9879739174181832 2.0015368579845281 1.9886025672952607 1.9999962806905034 2.0009540105582726 1.9856237520614479 1.9994797440357457 2.0014459226509791 1.9871886513982024 1.9857147213375954 2.0012969556533484 1.9686836062579789 1.9635523968489221 1.9852284187420286 1.9691295296031956 1.9846205529255991 1.9882064255054439 1.9625038624850948 1.9788265349115917 1.9860338927376613 1.9340774181041978 1.95087130881974 1.9639258879453592 1.9442706348733791 1.9628412098281205 1.9694529927048088 1.9708496679375256 1.9691849915865614 1.9884057153281309 1.9714671080430761 1.9876242199085117 1.9886780577354921 1.947794724710102 1.9691531625386276 1.9709331339771956 1.9476600829408635 1.944501932921068 1.969444032506932 1.9187611790375136 1.9141157715229591 1.9446091050333103 1.9183629264269706 1.9448703405612167 1.9473879946823851 1.8834839341823097 1.9149188924837033 1.9181037737643332 1.8843874085947507 1.8784209823183291 1.914124830604742 1.8780555073371787 1.9020670271236049 1.9143698038943227 1.8793277580064855 1.8632333801664553 1.9008021233650192 1.8621001596395297 1.8787361209523294 1.9019951399012502 1.9003970546884861 1.9171147457108246 1.9356946022934809 1.9145344878318578 1.9016678063043524 1.9344408193469329 1.91377999148772 1.9351456536212772 1.9447698194923846 1.9444265695480929 1.9353356252031986 1.9627876120813363 1.9349119812781979 1.9176278075728739 1.9500554761288835 1.9171575755619588 1.8874151150096972 1.9275957701603108 1.87603718845528 1.886992925186195 1.9180832295481101 1.8789341489865954 1.8405009849519829 1.8838264129528881 1.9019408100639785 1.8784106632491588 1.9154983010680013 1.8641592206582078 1.8356092450628458 1.8765520559699009 1.8369613033944585 1.7921771237764885 1.8376351957769788 1.833654782652967 1.8412464880626929 1.8788018637753399 1.7894963786920368 1.7841865340597867 1.840924834977782 1.7945003332426219 1.7283754027980165 1.7786511811280787 1.8418977538497663 1.7822625866211887 1.8331568959296509 1.8369531504184091 1.8386766033618458 1.8879487368294621 1.88749827690188 1.8382046166180548 1.8889063999364453 1.9300230344147169 1.8953399221596263 1.9438971143756045 1.9269873258411045 1.9471770998539986 1.9717324915634422 1.8831232930344348 1.8937931433497461 1.9322850161649572 1.9150278375339396 1.929882195379433 1.9527052161562499 1.9624893239486709 1.9521978076309725 1.9789935641438205 1.9497032814192545 1.9679690748720076 1.9812893992882634 1.9506697672533071 1.9316326050590988 1.9670670457174078 1.9783415631055048 1.9710435424614918 1.9994325041141505 1.984178143297642 1.9808247953449094 2.0008945111502654 1.9795335654788069 1.9981871357187864 2.0022751700675441 1.9674799186948422 1.9939480342672682 2.0032269853218914 1.967566094770187 1.9511790261163133 1.9939316130723106 1.943432314939473 1.9801249014504205 2.0023555830426005 1.9473607697211153 1.9102012314479564 1.9760183217875913 1.8877585112974673 1.9065142277314588 1.9521674311497279 1.8320975173740648 1.8323747527731511 1.8960845731793385 1.8947440870883732 1.8321462992862825 1.8985182879473625 1.8214408627245537 1.8273342513832114 1.9114643639706794 1.8349889884690147 1.7250047543336866 1.8112838484810623 1.7532683311034045 1.730106751228736 1.832787613165213 1.6364954469988178 1.5674635855944172 1.7251550321792977 1.7133184645478783 1.6789070646321349 1.828031064159604 1.9085462369330943 1.826892844956876 1.9256205830499595 1.8955812874588343 1.9397374544222512 1.9924306300735992 1.8033134122370198 1.8353415285252239 1.9534092014685704 1.8337959214439925 1.6658164128511914 1.8009896784426533 1.6956980653080356 1.3828201441839802 1.5278677020401801 1.6382330973778998 1.5944865019610477 1.8373329248724302 1.3878579648243696 1.1034726906426486 1.529261042653375 1.4480267523850181 0.98136693930408891 1.0535183493588989 1.3140803084005812 1.0433750395746253 1.3846237410207121 1.339201812143674 0.99050021855676629 1.0266468539151987 1.2613011976410777 1.0241146619712487 1.3032174166028043 1.4731179692088314 1.3293766552269366 1.5525816788440898 1.5476216915409056 1.4221003461062145 1.6660005077349729 1.5756955569222832 1.3029643112094274 1.3900044561188911 1.7354647627256123 1.5529901981582717 1.6522277323583523 1.6533467513145126 1.4736626414995515 1.5482487442731718 1.585398670751184 1.4150539639675142 1.4731499871559937 1.4165322922953163 1.2712433537334189 1.4733696783482697 1.4279458680308732 1.2176343131133527 1.2595653045407589 1.4906067262663361 1.2525409413383521 1.3107147819259142 1.2747610063854986 0.99403866778699401 1.0160019771539437 1.2327052379942278 0.99581976715483045 1.0106593042584431 1.2248074624450136 1.0150096454170714 1.25227758660719 1.1975811377397214 1.0102805406051631 1.2172460413063573 1.2026522574475846 0.9968232058279175 1.0077412963704482 1.3794158167701114 1.1915555259528232 1.223789902324109 1.3715982563791205 1.2315410291393805 1.4147644991736803 1.5283994297417818 1.3692537738136448 1.4163900592220295 1.6452369983271693 1.5198083016939967 1.5735166010514106 1.6365235716065336 1.5830796648389778 1.6967127115595182 1.5190440750593781 1.4263571736444782 1.5756207489033023 1.5728913359321182 1.4868664015575312 1.6426194924424067 1.7657725300669049 1.642519153662696 1.715671263700826 1.6919569390671194 1.649615871505214 1.7609196751364531 1.7025491545323441 1.5755961905121516 1.6377126043241523 1.7854519274844745 1.6964531746604794 1.7546517335162997 1.8399731912363351 1.7605101443520441 1.8233728778854408 1.7777887835005879 1.7632889300971453 1.8387469593086962 1.7253571194327477 1.7006023145739728 1.782653690636316 1.7323283863382319 1.6390497221728397 1.6928746867739584 1.6747082328959064 1.6438447706078987 1.7286564878867094 1.6808389247953097 1.5868883885836718 1.6371566362822019 1.6254554087286803 1.5919239017336071 1.6767251047473848 1.5771191290907673 1.5436608062054022 1.6264494497186681 1.6307548119050925 1.5385968079157746 1.5862260464996787 1.5384853652622745 1.4786249140002248 1.5869796493300066 1.5442703568447005 1.4292321786331255 1.4725047392797435 1.4936453300453754 1.4355700204611919 1.5386417356194988 1.3920459827982581 1.3067222517428685 1.4291520735128527 1.4304353931514304 1.3399546751102116 1.4717603643250627 1.5928655212425487 1.4718236083657339 1.5194106518878481 1.5857645484613561 1.5270507562715991 1.6392094837325408 1.4722516593975554 1.3788743996376114 1.5197780205133176 1.4793561366783314 1.3316632262465646 1.3714740934489855 1.3399816573280889 1.1708102644905309 1.1970026193979213 1.3344043985294398 1.202396715081897 1.3689799349600842 1.176041150733538 1.0076146584990751 1.1911720432460853 1.1795446274472097 0.99742216036064901 1.0060311302425045 1.1581160184132848 1.0060073795112507 1.1704665539630454 1.160680149855797 0.99779263305458699 1.0049756623692303 1.1425339464015023 1.0049894879357169 1.1531193570734239 1.2738321787581119 1.1608884622807607 1.2992170312071813 1.3065009242858845 1.1534179768123742 1.1757405972739188 1.3023876390406259 1.1796364233904748 1.3314134771299517 1.4359210207341326 1.2994401169126533 1.3343453636640907 1.3963442357111777 1.2707495964402469 1.3023961540772326 1.3593264409335744 1.244353803351153 1.2739012176709268 1.2499515835045547 1.1243234727288058 1.1425357053908438 1.2475551869406876 1.1447228426376241 1.2705531604893983 1.276944728490619 1.1381795507546835 1.1579956107012654 1.1444980783785816 0.99802436691890306 1.0043030681853515 1.1300333495186439 0.99816579932687965 1.0038701574127074 1.1284739056287214 1.0043240800231004 1.1379229324379134 1.1153733487203283 1.0038844037316335 1.1241040190994147 1.1166448761337238 0.99824273919416284 1.0035992380155749 1.2245538431351628 1.1113145982754387 1.1285674421563812 1.2226990794887234 1.130229441260296 1.2441835196916593 1.3238642722660012 1.2193619481657592 1.2476826725669445 1.4110676963910023 1.3186735420873854 1.3561346017944744 1.4079279071480733 1.3593352306012381 1.4491491472346962 1.3211726194307776 1.2503217116563619 1.3536902898284775 1.3559253255899921 1.2772769281265077 1.3902172410873113 1.498370796243796 1.3903031175480578 1.430642703326251 1.4542390122299667 1.3537735563614255 1.3922419497495635 1.4503747882428819 1.3962213880803958 1.4930197725518117 1.5330651573583631 1.449150316143816 1.4939478866968827 1.5816564715316794 1.4930046581889382 1.5388448751807517 1.5292117677734174 1.4979927659104186 1.5773009257521273 1.4812416761470633 1.4540153389051755 1.5287401524649158 1.4844694268909433 1.4062173216523524 1.4506565188272325 1.543482