<?xml version="1.0"?>
<VTKFile type="UnstructuredGrid" version="0.1" byte_order="LittleEndian">
<UnstructuredGrid>
<Piece NumberOfPoints="2400" NumberOfCells="800">
<Points>
<DataArray type="Float64" NumberOfComponents="3" format="ascii">
1.0000000000 0.0000000000 0.0000000000 1.0000000000 0.0500000000 0.0000000000 0.9500000000 0.0500000000 0.0000000000 1.0000000000 0.0000000000 0.0000000000 0.9500000000 0.0500000000 0.0000000000 0.9500000000 0.0000000000 0.0000000000 0.9500000000 0.0000000000 0.0000000000 0.9500000000 0.0500000000 0.0000000000 0.9000000000 0.0500000000 0.0000000000 0.9500000000 0.0000000000 0.0000000000 0.9000000000 0.0500000000 0.0000000000 0.9000000000 0.0000000000 0.0000000000 0.9000000000 0.0000000000 0.0000000000 0.9000000000 0.0500000000 0.0000000000 0.8500000000 0.0500000000 0.0000000000 0.9000000000 0.0000000000 0.0000000000 0.8500000000 0.0500000000 0.0000000000 0.8500000000 0.0000000000 0.0000000000 0.8500000000 0.0000000000 0.0000000000 0.8500000000 0.0500000000 0.0000000000 0.8000000000 0.0500000000 0.0000000000 0.8500000000 0.0000000000 0.0000000000 0.8000000000 0.0500000000 0.0000000000 0.8000000000 0.0000000000 0.0000000000 0.8000000000 0.0000000000 0.0000000000 0.8000000000 0.0500000000 0.0000000000 0.7500000000 0.0500000000 0.0000000000 0.8000000000 0.0000000000 0.0000000000 0.7500000000 0.0500000000 0.0000000000 0.7500000000 0.0000000000 0.0000000000 0.7500000000 0.0000000000 0.0000000000 0.7500000000 0.0500000000 0.0000000000 0.7000000000 0.0500000000 0.0000000000 0.7500000000 0.0000000000 0.0000000000 0.7000000000 0.0500000000 0.0000000000 0.7000000000 0.0000000000 0.0000000000 0.7000000000 0.0000000000 0.0000000000 0.7000000000 0.0500000000 0.0000000000 0.6500000000 0.0500000000 0.0000000000 0.7000000000 0.0000000000 0.0000000000 0.6500000000 0.0500000000 0.0000000000 0.6500000000 0.0000000000 0.0000000000 0.6500000000 0.0000000000 0.0000000000 0.6500000000 0.0500000000 0.0000000000 0.6000000000 0.0500000000 0.0000000000 0.6500000000 0.0000000000 0.0000000000 0.6000000000 0.0500000000 0.0000000000 0.6000000000 0.0000000000 0.0000000000 0.6000000000 0.0000000000 0.0000000000 0.6000000000 0.0500000000 0.0000000000 0.5500000000 0.0500000000 0.0000000000 0.6000000000 0.0000000000 0.0000000000 0.5500000000 0.0500000000 0.0000000000 0.5500000000 0.0000000000 0.0000000000 0.5500000000 0.0000000000 0.0000000000 0.5500000000 0.0500000000 0.0000000000 0.5000000000 0.0500000000 0.0000000000 0.5500000000 0.0000000000 0.0000000000 0.5000000000 0.0500000000 0.0000000000 0.5000000000 0.0000000000 0.0000000000 0.5000000000 0.0000000000 0.0000000000 0.5000000000 0.0500000000 0.0000000000 0.4500000000 0.0500000000 0.0000000000 0.5000000000 0.0000000000 0.0000000000 0.4500000000 0.0500000000 0.0000000000 0.4500000000 0.0000000000 0.0000000000 0.4500000000 0.0000000000 0.0000000000 0.4500000000 0.0500000000 0.0000000000 0.4000000000 0.0500000000 0.0000000000 0.4500000000 0.0000000000 0.0000000000 0.4000000000 0.0500000000 0.0000000000 0.4000000000 0.0000000000 0.0000000000 0.4000000000 0.0000000000 0.0000000000 0.4000000000 0.0500000000 0.0000000000 0.3500000000 0.0500000000 0.0000000000 0.4000000000 0.0000000000 0.0000000000 0.3500000000 0.0500000000 0.0000000000 0.3500000000 0.0000000000 0.0000000000 0.3500000000 0.0000000000 0.0000000000 0.3500000000 0.0500000000 0.0000000000 0.3000000000 0.0500000000 0.0000000000 0.3500000000 0.0000000000 0.0000000000 0.3000000000 0.0500000000 0.0000000000 0.3000000000 0.0000000000 0.0000000000 0.3000000000 0.0000000000 0.0000000000 0.3000000000 0.0500000000 0.0000000000 0.2500000000 0.0500000000 0.0000000000 0.3000000000 0.0000000000 0.0000000000 0.2500000000 0.0500000000 0.0000000000 0.2500000000 0.0000000000 0.0000000000 0.2500000000 0.0000000000 0.0000000000 0.2500000000 0.0500000000 0.0000000000 0.2000000000 0.0500000000 0.0000000000 0.2500000000 0.0000000000 0.0000000000 0.2000000000 0.0500000000 0.0000000000 0.2000000000 0.0000000000 0.0000000000 0.2000000000 0.0000000000 0.0000000000 0.2000000000 0.0500000000 0.0000000000 0.1500000000 0.0500000000 0.0000000000 0.2000000000 0.0000000000 0.0000000000 0.1500000000 0.0500000000 0.0000000000 0.1500000000 0.0000000000 0.0000000000 0.1500000000 0.0000000000 0.0000000000 0.1500000000 0.0500000000 0.0000000000 0.1000000000 0.0500000000 0.0000000000 0.1500000000 0.0000000000 0.0000000000 0.1000000000 0.0500000000 0.0000000000 0.1000000000 0.0000000000 0.0000000000 0.1000000000 0.0000000000 0.0000000000 0.1000000000 0.0500000000 0.0000000000 0.0500000000 0.0500000000 0.0000000000 0.1000000000 0.0000000000 0.0000000000 0.0500000000 0.0500000000 0.0000000000 0.0500000000 0.0000000000 0.0000000000 0.0500000000 0.0000000000 0.0000000000 0.0500000000 0.0500000000 0.0000000000 0.0000000000 0.0500000000 0.0000000000 0.0500000000 0.0000000000 0.0000000000 0.0000000000 0.0500000000 0.0000000000 0.0000000000 0.0000000000 0.0000000000 1.0000000000 0.0500000000 0.0000000000 1.0000000000 0.1000000000 0.0000000000 0.9500000000 0.1000000000 0.0000000000 1.0000000000 0.0500000000 0.0000000000 0.9500000000 0.1000000000 0.0000000000 0.9500000000 0.0500000000 0.0000000000 0.9500000000 0.0500000000 0.0000000000 0.9500000000 0.1000000000 0.0000000000 0.9000000000 0.1000000000 0.0000000000 0.9500000000 0.0500000000 0.0000000000 0.9000000000 0.1000000000 0.0000000000 0.9000000000 0.0500000000 0.0000000000 0.9000000000 0.0500000000 0.0000000000 0.9000000000 0.1000000000 0.0000000000 0.8500000000 0.1000000000 0.0000000000 0.9000000000 0.0500000000 0.0000000000 0.8500000000 0.1000000000 0.0000000000 0.8500000000 0.0500000000 0.0000000000 0.8500000000 0.0500000000 0.0000000000 0.8500000000 0.1000000000 0.0000000000 0.8000000000 0.1000000000 0.0000000000 0.8500000000 0.0500000000 0.0000000000 0.8000000000 0.1000000000 0.0000000000 0.8000000000 0.0500000000 0.0000000000 0.8000000000 0.0500000000 0.0000000000 0.8000000000 0.1000000000 0.0000000000 0.7500000000 0.1000000000 0.0000000000 0.8000000000 0.0500000000 0.0000000000 0.7500000000 0.1000000000 0.0000000000 0.7500000000 0.0500000000 0.0000000000 0.7500000000 0.0500000000 0.0000000000 0.7500000000 0.1000000000 0.0000000000 0.7000000000 0.1000000000 0.0000000000 0.7500000000 0.0500000000 0.0000000000 0.7000000000 0.1000000000 0.0000000000 0.7000000000 0.0500000000 0.0000000000 0.7000000000 0.0500000000 0.0000000000 0.7000000000 0.1000000000 0.0000000000 0.6500000000 0.1000000000 0.0000000000 0.7000000000 0.0500000000 0.0000000000 0.6500000000 0.1000000000 0.0000000000 0.6500000000 0.0500000000 0.0000000000 0.6500000000 0.0500000000 0.0000000000 0.6500000000 0.1000000000 0.0000000000 0.6000000000 0.1000000000 0.0000000000 0.6500000000 0.0500000000 0.0000000000 0.6000000000 0.1000000000 0.0000000000 0.6000000000 0.0500000000 0.0000000000 0.6000000000 0.0500000000 0.0000000000 0.6000000000 0.1000000000 0.0000000000 0.5500000000 0.1000000000 0.0000000000 0.6000000000 0.0500000000 0.0000000000 0.5500000000 0.1000000000 0.0000000000 0.5500000000 0.0500000000 0.0000000000 0.5500000000 0.0500000000 0.0000000000 0.5500000000 0.1000000000 0.0000000000 0.5000000000 0.1000000000 0.0000000000 0.5500000000 0.0500000000 0.0000000000 0.5000000000 0.1000000000 0.0000000000 0.5000000000 0.0500000000 0.0000000000 0.5000000000 0.0500000000 0.0000000000 0.5000000000 0.1000000000 0.0000000000 0.4500000000 0.1000000000 0.0000000000 0.5000000000 0.0500000000 0.0000000000 0.4500000000 0.1000000000 0.0000000000 0.4500000000 0.0500000000 0.0000000000 0.4500000000 0.0500000000 0.0000000000 0.4500000000 0.1000000000 0.0000000000 0.4000000000 0.1000000000 0.0000000000 0.4500000000 0.0500000000 0.0000000000 0.4000000000 0.1000000000 0.0000000000 0.4000000000 0.0500000000 0.0000000000 0.4000000000 0.0500000000 0.0000000000 0.4000000000 0.1000000000 0.0000000000 0.3500000000 0.1000000000 0.0000000000 0.4000000000 0.0500000000 0.0000000000 0.3500000000 0.1000000000 0.0000000000 0.3500000000 0.0500000000 0.0000000000 0.3500000000 0.0500000000 0.0000000000 0.3500000000 0.1000000000 0.0000000000 0.3000000000 0.1000000000 0.0000000000 0.3500000000 0.0500000000 0.0000000000 0.3000000000 0.1000000000 0.0000000000 0.3000000000 0.0500000000 0.0000000000 0.3000000000 0.0500000000 0.0000000000 0.3000000000 0.1000000000 0.0000000000 0.2500000000 0.1000000000 0.0000000000 0.3000000000 0.0500000000 0.0000000000 0.2500000000 0.1000000000 0.0000000000 0.2500000000 0.0500000000 0.0000000000 0.2500000000 0.0500000000 0.0000000000 0.2500000000 0.1000000000 0.0000000000 0.2000000000 0.1000000000 0.0000000000 0.2500000000 0.0500000000 0.0000000000 0.2000000000 0.1000000000 0.0000000000 0.2000000000 0.0500000000 0.0000000000 0.2000000000 0.0500000000 0.0000000000 0.2000000000 0.1000000000 0.0000000000 0.1500000000 0.1000000000 0.0000000000 0.2000000000 0.0500000000 0.0000000000 0.1500000000 0.1000000000 0.0000000000 0.1500000000 0.0500000000 0.0000000000 0.1500000000 0.0500000000 0.0000000000 0.1500000000 0.1000000000 0.0000000000 0.1000000000 0.1000000000 0.0000000000 0.1500000000 0.0500000000 0.0000000000 0.1000000000 0.1000000000 0.0000000000 0.1000000000 0.0500000000 0.0000000000 0.1000000000 0.0500000000 0.0000000000 0.1000000000 0.1000000000 0.0000000000 0.0500000000 0.1000000000 0.0000000000 0.1000000000 0.0500000000 0.0000000000 0.0500000000 0.1000000000 0.0000000000 0.0500000000 0.0500000000 0.0000000000 0.0500000000 0.0500000000 0.0000000000 0.0500000000 0.1000000000 0.0000000000 0.0000000000 0.1000000000 0.0000000000 0.0500000000 0.0500000000 0.0000000000 0.0000000000 0.1000000000 0.0000000000 0.0000000000 0.0500000000 0.0000000000 1.0000000000 0.1000000000 0.0000000000 1.0000000000 0.1500000000 0.0000000000 0.9500000000 0.1500000000 0.0000000000 1.0000000000 0.1000000000 0.0000000000 0.9500000000 0.1500000000 0.0000000000 0.9500000000 0.1000000000 0.0000000000 0.9500000000 0.1000000000 0.0000000000 0.9500000000 0.1500000000 0.0000000000 0.9000000000 0.1500000000 0.0000000000 0.9500000000 0.1000000000 0.0000000000 0.900000000
[...]
<PointData Scalars="tracer_conc," Vectors="" Tensors="">
<DataArray type="Float64" Name="tracer_conc" format="ascii">
0.8762758319 0.5206140704 0.7507772211 0.9321335886 0.6690033742 1.0291682415 0.9575113767 0.7504706209 0.8332247043 0.9738405164 0.8091053657 1.0124634386 0.9824331171 0.8429985423 0.8791058989 0.9880259102 0.8701555278 1.0058903419 0.9911673824 0.8865609922 0.9055221962 0.9933012806 0.9017743399 1.0034017280 0.9944034503 0.9115305118 0.9240167942 0.9952679834 0.9222613262 1.0024887213 0.9955577536 0.9295395278 0.9398097212 0.9958874078 0.9388960477 1.0022390318 0.9958561833 0.9454325969 0.9553234290 0.9959156126 0.9548091930 1.0022913476 0.9957801516 0.9613751049 0.9717336581 0.9956671524 0.9714430443 1.0024922905 0.9955344759 0.9783978910 0.9896394101 0.9952816867 0.9895063065 1.0027733805 0.9952135111 0.9970218940 1.0093627039 0.9948246343 1.0093719297 1.0031035606 0.9948643467 1.0175281763 1.0310917240 0.9943265749 1.0312578296 1.0034707153 0.9945111620 1.0400877200 1.0549633026 0.9937972160 1.0553264365 1.0038760303 0.9941629247 1.0648425716 1.0811348790 0.9932263736 1.0817678492 1.0043359586 0.9938121641 1.0919869344 1.1098829353 0.9925748499 1.1109114597 1.0048919753 0.9934269826 1.1218877088 1.1417736447 0.9917516025 1.1434216073 1.0056344343 0.9929374709 1.1552981851 1.1779909983 0.9905632638 1.1806874448 1.0067628693 0.9922286608 1.1937658498 1.2210225837 0.9885943543 1.2256906352 1.0087632064 0.9912266530 1.2404505316 1.2762472532 0.9848943739 1.2852129791 1.0130118652 0.9905332057 1.3018007095 1.3561787291 0.9767841986 1.3767091743 1.0240694167 0.9938666887 1.3927967648 1.4946459592 0.9425622807 1.5555098305 1.0654485566 0.4178984643 0.2079866142 0.6225087693 0.5204886889 0.5081782571 0.7578733378 0.7072854658 0.5511844027 0.7117773810 0.7425379216 0.6796879310 0.8470474473 0.8217085941 0.7028379638 0.7802319677 0.8357873336 0.7669572966 0.8878908834 0.8744121969 0.7800104661 0.8238921337 0.8805938247 0.8179777238 0.9118370008 0.9032286827 0.8265326514 0.8570512935 0.9061380705 0.8543362235 0.9294314982 0.9227424666 0.8610254667 0.8869542163 0.9241594066 0.8857643467 0.9451516490 0.9390825225 0.8918130438 0.9171634204 0.9397209779 0.9168088909 0.9610280836 0.9549902793 0.9227890555 0.9494815925 0.9551366928 0.9496822565 0.9780383684 0.9717668468 0.9558543722 0.9848476133 0.9715237249 0.9855049734 0.9966820658 0.9900702310 0.9919712739 1.0237595387 0.9894515728 1.0248654784 1.0172324849 1.0102606944 1.0316374300 1.0664848017 1.0092266567 1.0680890463 1.0398592372 1.0325641476 1.0751148885 1.1131858280 1.0310263634 1.1153934602 1.0647065181 1.0571691073 1.1225656302 1.1640327298 1.0549756509 1.1670241532 1.0919735233 1.0843177958 1.1741729818 1.2193562798 1.0812141109 1.2234348737 1.1220363692 1.1144410082 1.2303041278 1.2799002559 1.1099887825 1.2855880211 1.1556674031 1.1484091986 1.2917703289 1.3472630625 1.1418169303 1.3554929449 1.1944610447 1.1880514285 1.3602615436 1.4246862803 1.1778045571 1.4372000694 1.2417119715 1.2373087678 1.4390662316 1.5184665200 1.2203393886 1.5386441700 1.3043280986 1.3049147393 1.5342181278 1.6404174572 1.2746808175 1.6749935722 1.3971377816 1.4101845663 1.6572404607 1.8115894046 1.3496700935 1.8733220121 1.5532641739 0.1897193464 0.0802413140 0.5032527956 0.2719980122 0.4043493955 0.5588497745 0.5280911258 0.4215849975 0.6112695283 0.5645011239 0.5794741111 0.7060654893 0.6872943284 0.5933185027 0.6949631235 0.7044042244 0.6795930293 0.7813300047 0.7696331892 0.6895176378 0.7516369881 0.7778667187 0.7441404821 0.8269617273 0.8188222675 0.7516189686 0.7971470251 0.8229092188 0.7934872190 0.8610352191 0.8545133059 0.7997450502 0.8395980385 0.8565467701 0.8379163598 0.8916313371 0.8857386789 0.8436786857 0.8831503568 0.8866381942 0.8826094525 0.9225273208 0.9167874003 0.8882509289 0.9299687200 0.9169471095 0.9302048871 0.9555704564 0.9497751582 0.9358911306 0.9811790702 0.9493459506 0.9820539115 0.9916989801 0.9857886233 0.9878240108 1.0373371928 0.9847995327 1.0388281380 1.0314005592 1.0254095183 1.0446340159 1.0986638172 1.0238158421 1.1008207432 1.0749341696 1.0689708775 1.1065400433 1.1651800682 1.0666652048 1.1681167415 1.1224624098 1.1167097042 1.1735481010 1.2368187388 1.1135089527 1.2407274839 1.1741715517 1.1689043704 1.2455696159 1.3135607169 1.1645140605 1.3187488305 1.2304336829 1.2260611838 1.3225571271 1.3956346841 1.2200103413 1.4025865932 1.2920668390 1.2892202524 1.4046906186 1.4838079615 1.2807553103 1.4932764227 1.3607672512 1.3604784333 1.4926278448 1.5797625609 1.3484122511 1.5928695152 1.4398133095 1.4438610492 1.5877832280 1.6864260876 1.4264418216 1.7046491449 1.5351245134 1.5466201650 1.6924630658 1.8077242917 1.5218221413 1.8322722539 1.6564586319 1.6802768655 1.8093443044 1.9463847687 1.6486335687 1.9765351155 1.8153388702 0.0873220526 0.0321715190 0.4146237435 0.1482408513 0.3367506493 0.4290307679 0.4120354358 0.3419211092 0.5328781240 0.4427579074 0.5057318615 0.5959170054 0.5837376412 0.5127932985 0.6247423998 0.6001282233 0.6101058830 0.6907715543 0.6816822154 0.6169133544 0.6905927980 0.6902305698 0.6829456718 0.7521091522 0.7450875730 0.6889748497 0.7460285397 0.7495327664 0.7421338944 0.7998303050 0.7939330396 0.7475951362 0.7991627478 0.7961665883 0.7973563798 0.8435613805 0.8381943771 0.8025168810 0.8543118741 0.8391292978 0.8537769664 0.8880386421 0.8828895044 0.8588046459 0.9137603897 0.8829479458 0.9141141977 0.9356415594 0.9305812520 0.9190735159 0.9786684756 0.9299408322 0.9797481829 0.9875700123 0.9825887411 0.9846193578 1.0495269879 0.9813008244 1.0512847188 1.0443966672 1.0395715651 1.0559761915 1.1263830047 1.0376139463 1.1288383905 1.1063351794 1.1018197508 1.1331884750 1.2089594404 1.0991149080 1.2121829432 1.1733892308 1.1694179747 1.2159515540 1.2967380997 1.1658317428 1.3008514897 1.2454683831 1.2423746021 1.3037023631 1.3890454108 1.2377029595 1.3942309901 1.3225210618 1.3207698100 1.3957036272 1.4851577290 1.3147212447 1.4916660191 1.4047158798 1.4049561983 1.4911374170 1.5844133229 1.3971464734 1.5925465558 1.4926802710 1.4958163145 1.5891913044 1.6862606392 1.4858216089 1.6962767736 1.5877514076 1.5950040377 1.6890646758 1.7900580000 1.5825877699 1.8018723274 1.6920501902 1.7048880689 1.7897247075 1.8942427909 1.6906848208 1.9066953501 1.8078316840 1.8273985688 1.8889009101 1.9944964481 1.8162075741 2.0049470666 1.9327905549 0.0447750827 0.0166030881 0.3533818976 0.0903179794 0.2923621892 0.3482878290 0.3387426900 0.2927311387 0.4739590964 0.3633880523 0.4517080987 0.5150379899 0.5072210343 0.4550736069 0.5691651744 0.5214324506 0.5563649089 0.6180692427 0.6112802436 0.5609069819 0.6411949114 0.6191394167 0.6341870626 0.6894730734 0.6837282000 0.6388562547 0.7043121145 0.6879467814 0.7006618314 0.7477274302 0.7426889669 0.7051947608 0.7661786243 0.7447901875 0.7645243644 0.8024537699 0.7978331688 0.7689033677 0.8309784949 0.7986190447 0.8305980774 0.8586412522 0.8542714868 0.8348410457 0.9009373979 0.8541443503 0.9014635437 0.9188621158 0.9146847486 0.9055585917 0.9771299864 0.9138352577 0.9783836888 0.9843891045 0.9804309228 0.9822725016 1.0598880579 0.9789391622 1.0617879259 1.0557441397 1.0521018912 1.0653614526 1.1489974389 1.0499883701 1.1515131146 1.1329652470 1.1298000332 1.1546080155 1.2437915904 1.1270493985 1.2469211216 1.2157436462 1.2132826937 1.2493144186 1.3432037602 1.2098538320 1.3469622744 1.3035119142 1.3020550090 1.3483650984 1.4458114343 1.2978875236 1.4502210427 1.3955254639 1.3954524707 1.4502749945 1.5498850217 1.3904810076 1.5549537504 1.4909522387 1.4927241537 1.5532381797 1.6534279750 1.4869192741 1.6590985538 1.5889532438 1.5930881607 1.6551671621 1.7541617905 1.5865555997 1.7602009644 1.6886834036 1.6956644878 1.7536845975 1.8493704381 1.6888464886 1.8551669868 1.7890558851 1.7990912241 1.8460038230 1.9355033035 1.7931226480 1.9397665385 1.8880076994 1.9005906126 1.9284391853 2.0076045324 1.8996957053 2.0086447522 1.9791759505 0.0278006080 0.0125859789 0.3120136020 0.0637074333 0.2623458486 0.2980388046 0.2917926669 0.2615186906 0.4309403638 0.3117155028 0.4125817590 0.4570799468 0.4516961649 0.4142817119 0.5268981498 0.4636093910 0.5160410622 0.5619741881 0.5568715930 0.5191475485 0.6029387847 0.5636700939 0.5968618458 0.6393454582 0.6347701354 0.6004186264 0.6717961240 0.6384587677 0.6686313939 0.7053554035 0.7012339168 0.6722506857 0.7405057504 0.7030068840 0.7391581315 0.7688807741 0.7651000422 0.7426964313 0.8129740525 0.7656298265 0.8128262342 0.8347176932 0.8312062932 0.8162208560 0.8912657254 0.8308585306 0.8919770691 0.9053801702 0.9021254293 0.8951747800 0.9762996949 0.9010975733 0.9776789775 0.9820639248 0.9791086198 0.9806077709 1.0682003821 0.9775117234 1.0701308111 1.0651361598 1.0625723275 1.0726890726 1.1664614849 1.0604767885 1.1688582916 1.1543729916 1.1523374397 1.1709105464 1.2700163153 1.1497981267 1.2728028267 1.2490724854 1.2477434273 1.2741789579 1.3772714753 1.2448147620 1.3803639404 1.3481153097 1.3477072369 1.3808628382 1.4861380643 1.3444564168 1.4894315923 1.4500115207 1.4507632609 1.4888332366 1.5940787791 1.4472897675 1.5974269541 1.5529480617 1.5550954596 1.5955203655 1.6981754469 1.5515661884 1.7013560274 1.6548282907 1.6585474301 1.6979945904 1.7952093032 1.6552559862 1.7978717457 1.7532683668 1.7585693842 1.7930699303 1.8817430749 1.7560166989 1.8833486247 1.8454931037 1.8520494876 1.8774282505 1.9542135869 1.8510232969 1.9540005624 1.9280907337 1.9350966193 1.9476344294 2.0090895249 1.9384651788 2.0063841635 1.9952306228 0.0206386334 0.0119558515 0.2844396796 0.0508764140 0.2418823525 0.2660740855 0.2609147625 0.2413754248 0.4005819209 0.2775780600 0.3849826717 0.4161313764 0.4119379980 0.3861182006 0.4962335270 0.4219482284 0.4870070535 0.5201427691 0.5161662487 0.4892721991 0.5748258766 0.5219139953 0.5696621232 0.6008926692 0.5972826183 0.5723667922 0.6478058578 0.6003637833 0.6451779276 0.6724256853 0.6691691432 0.6479754584 0.7216108194 0.6705484634 0.7206113617 0.7427001672 0.7397543295 0.7233359430 0.7998407341 0.7399987332 0.7999369242 0.8161257434 0.8134638662 0.8025016353 0.8843675281 0.8129046159 0.8852429878 0.8950208016 0.8926482434 0.8875850713 0.9759349659 0.8914877098 0.9773884301 0.9804163511 0.9783720576 0.9794435833 1.0744586599 0.9767497870 1.0763419807 1.0724712830 1.0708242738 1.0780336883 1.1791617651 1.0688561570 1.1813432712 1.1706718228 1.1695160515 1.1825798471 1.2886305107 1.1673170242 1.2909738743 1.2739217199 1.2733691320 1.2916506432 1.4008439740 1.2710666309 1.4031960325 1.3805878955 1.3807575305 1.4032030624 1.5132153219 1.3785007631 1.5153984963 1.4885406390 1.4895402127 1.5146362382 1.6226711420 1.4875089244 1.6244776841 1.5952104651 1.5971057465 1.6228840524 1.7257878086 1.5955204954 1.7269752719 1.6976706327 1.7004378599 1.7245674263 1.8189978174 1.6995697925 1.8192897562 1.7927442876 1.7962043725 1.8162201015 1.8988757501 1.7963730109 1.8979805900 1.8771336700 1.8808804790 1.8945965702 1.9625110626 1.8824183998 1.9601722843 1.9475940272 1.9510243308 1.9569749026 2.0079047848 1.9557726141 2.0040470989 2.0000362789 0.0169779517 0.0121356639 0.2666409941 0.0439551047 0.2284010517 0.2454584048 0.2403477776 0.2287371717 0.3804155438 0.2549057945 0.3666329560 0.3878710050 0.3841579118 0.3677462385 0.4755629518 0.3927785545 0.4675343142 0.4902146084 0.4869468829 0.4693401437 0.5557476919 0.4918360620 0.5513223728 0.5728246651 0.5699669873 0.5533967482 0.6315095138 0.5725075511 0.6293462255 0.6481549229 0.6456572440 0.6314435331 0.7088260843 0.6466747104 0.7081332584 0.7233537973 0.7211774739 0.7101200085 0.7910410615 0.7211672966 0.7913430145 0.8024234813 0.8005479705 0.7931445153 0.8798562969 0.7998165922 0.8808538668 0.8874469135 0.8858731259 0.8824204070 0.9758629821 0.8846272271 0.9773470411 0.9792646363 0.9780132288 0.9786362921 1.0788040327 0.9764149302 1.0806027819 1.0778240123 1.0769309551 1.0815723846 1.1876905917 1.0751307300 1.1896386504 1.1823449729 1.1818555619 1.1902448386 1.3008509310 1.1800105212 1.3027728682 1.2913945096 1.2913555956 1.3029732463 1.4159652994 1.2896378482 1.4176693856 1.4029301060 1.4033794022 1.4174295994 1.5301266932 1.4019770997 1.5314067892 1.5143532159 1.5153041845 1.5307116939 1.6399594511 1.5144163040 1.6406045115 1.6226020679 1.6240232827 1.6394744218 1.7418208384 1.6238476917 1.7416329071 1.7243045369 1.7260942646 1.7401441353 1.8321019782 1.7268066818 1.8309250122 1.8160044325 1.8179655943 1.8292304063 1.9076301704 1.8196846240 1.9053929163 1.8944677441 1.8962971226 1.9037326428 1.9661483230 1.8990283826 1.9629146562 1.9570763047 1.9584527744 1.9615657621 2.0067182809 1.9634538800 2.0026735598 2.0012988109 0.0146384145 0.0125667338 0.2562145224 0.0397789614 0.2205050702 0.2325442612 0.2270144949 0.2218382907 0.3687645260 0.2403129161 0.3560635503 0.3694469764 0.3658150736 0.3574237943 0.4636314528 0.3735367053 0.4563647380 0.4702487580 0.4673947276 0.4579570555 0.5447564280 0.4716883497 0.5408270088 0.5538407020 0.5515454977 0.5424498317 0.6221612356 0.5536916501 0.6203206105 0.6316213489 0.6297594920 0.6218421471 0.7015505461 0.6305081898 0.7010705378 0.7101428135 0.7086442080 0.7024137483 0.7861076858 0.7084489822 0.7865459510 0.7930741850 0.7919002514 0.7876681372 0.8774235058 0.7910525365 0.8784911896 0.8822908205 0.8814233747 0.8793685328 0.9759884528 0.8801332056 0.9774713226 0.9784657416 0.9778990885 0.9780904872 1.0814335393 0.9763436656 1.0831450865 1.0813709868 1.0811050085 1.0835000332 1.1926368700 1.0794567801 1.1943918180 1.1900191458 1.1900527584 1.1944837914 1.3077711404 1.1884933956 1.3093732307 1.3027293303 1.3030539007 1.3092125925 1.4243454394 1.3017774206 1.4255865598 1.4171753418 1.4177676858 1.4251957708 1.5392828566 1.4169740477 1.5399524776 1.5304586741 1.5312734956 1.5393698129 1.6490679255 1.5311528967 1.6489727649 1.6392395093 1.6402018298 1.6482561860 1.7499900239 1.6409096002 1.7489838355 1.7399505480 1.7409500488 1.7482137528 1.8384958080 1.7425727255 1.8365178126 1.8291074089 1.8299988001 1.8357962508 1.9116405668 1.8325142115 1.9087575675 1.9037116147 1.9043280074 1.9082001879 1.9675894708 1.9075607831 1.9640257007 1.9617227876 1.9619645185 1.9637344681 2.0059676708 1.9669014503 2.0019811532 2.0016363558 0.0129316035 0.0132303236 0.2518760224 0.0371592634 0.2174561776 0.2255002151 0.2192960987 0.2198698083 0.3646571613 0.2319810475 0.3524384690 0.3591096369 0.3553062186 0.3542117094 0.4596544478 0.3625718699 0.4527372592 0.4588506183 0.4561937265 0.4542892468 0.5412317506 0.4601757233 0.5375306223 0.5428848829 0.5409913780 0.5388456123 0.6192625396 0.5429274806 0.6175676356 0.6220158274 0.6206717032 0.6186262070 0.6993838310 0.6212780573 0.6989942234 0.7024357299 0.7015218649 0.6997848438 0.7847379463 0.7012322756 0.7852261658 0.7875992249 0.7870457894 0.7857468575 0.8768841059 0.7861444706 0.8779661646 0.8792421284 0.8790043185 0.8782241414 0.9762802899 0.8777030369 0.9777400175 0.9779250217 0.9779681367 0.9777522017 1.0825192549 0.9764514971 1.0841641452 1.0833063831 1.0835957035 1.0839585353 1.1944334460 1.0820464778 1.1960704736 1.1942699112 1.1947635593 1.1956875993 1.3101435436 1.1933739682 1.3115692777 1.3089865999 1.3096307374 1.3110628766 1.4271041074 1.3086023354 1.4281066680 1.4249681239 1.4256944700 1.4275427389 1.5421883282 1.4252275138 1.5425604463 1.5391548149 1.5398809309 1.5420138562 1.6518463322 1.5401534387 1.6514093009 1.6480727211 1.6487058600 1.6509572361 1.7523627890 1.6498431069 1.7510002470 1.7480848346 1.7485303234 1.7507121975 1.8402246764 1.7505676326 1.8379225166 1.8357466189 1.8359214919 1.8378474376 1.9125837395 1.8387673673 1.9094674863 1.9082506026 1.9081022404 1.9096205121 1.9677560484 1.9115051137 1.9641077346 1.9639151063 1.9634921877 1.9644714427 2.0055401442 1.9683416703 2.0016101591 2.0017807755 0.0116002757 0.0142030359 0.2531237606 0.0356379134 0.2189839109 0.2234800765 0.2163811995 0.2226102811 0.3677577065 0.2290066122 0.3554789198 0.3559180842 0.3517415978 0.3578115751 0.4633691385 0.3589643162 0.4564031312 0.4551874590 0.4525559604 0.4580521000 0.5449698569 0.4565143972 0.5412208609 0.5392796807 0.5376554922 0.5423425197 0.6226517489 0.5395810559 0.6209112064 0.6187968523 0.6178701024 0.6215988804 0.7021993400 0.6184749622 0.7017653238 0.6998037176 0.6993969833 0.7020767325 0.7868423076 0.6991126989 0.7872867184 0.7856758971 0.7856819142 0.7872630227 0.8781944856 0.7847917219 0.8792336124 0.8780976062 0.8784428095 0.8789127610 0.9767546621 0.8771582588 0.9781735837 0.9775894389 0.9782114963 0.9775998012 1.0821543181 0.9767172916 1.0837626656 1.0837715870 1.0846052919 1.0829929125 1.1932688815 1.0830842433 1.1948765120 1.1954859221 1.1964547461 1.1939841358 1.3082686587 1.1950987045 1.3096755290 1.3108563980 1.3118687007 1.3087507835 1.4246634559 1.3108781104 1.4256611519 1.4273438347 1.4282937966 1.4248077985 1.5393827167 1.4278667600 1.5397668098 1.5418383987 1.5426123724 1.5390937611 1.6489251389 1.5429235078 1.6485181232 1.6508245369 1.6513135944 1.6481252761 1.7496034405 1.6524835606 1.7482873280 1.7506434378 1.7507621063 1.7482457821 1.8378965767 1.7528208428 1.8356518460 1.8378620806 1.8375711945 1.8359811292 1.9108982546 1.8404222434 1.9078411699 1.9097303305 1.9090583082 1.9084897654 1.9668127894 1.9124445490 1.9632158184 1.9646750798 1.9637738989 1.9640825337 2.0052847291 1.9685808191 2.0013560523 2.0019185650 0.0104906555 0.0156079997 0.2600955401 0.0350297601 0.2252546367 0.2262450675 0.2179841835 0.2303247740 0.3783552245 0.2311004180 0.3654576752 0.3595756253 0.3548303422 0.3685088118 0.4750600556 0.3624227159 0.4676393940 0.4589769214 0.4562276450 0.4694985679 0.5562168542 0.4604520842 0.5521406826 0.5427867619 0.5413292919 0.5531523478 0.6325336534 0.5434454895 0.6305552080 0.6217712676 0.6211879382 0.6309352997 0.7101659257 0.6219332526 0.7095524455 0.7020938582 0.7021419295 0.7094314283 0.7925562556 0.7019629805 0.7928626010 0.7871897652 0.7877224743 0.7923236294 0.8814534479 0.7869078503 0.8823910644 0.8787852367 0.8797021093 0.8814985203 0.9774644265 0.8784614033 0.9788224649 0.9774387572 0.9786544143 0.9776414892 1.0803313173 0.9771654357 1.0819294095 1.0828117221 1.0842366312 1.0805384074 1.1890575031 1.0826723822 1.1907188751 1.1937937265 1.1953231294 1.1892165769 1.3019631222 1.1938647770 1.3035017866 1.3085627498 1.3100721157 1.3020094288 1.4167253045 1.3089111089 1.4179441107 1.4246362761 1.4259832023 1.4166022576 1.5304440787 1.4253138599 1.5311422594 1.5389561726 1.5399897150 1.5301009760 1.6397660059 1.5399926732 1.6397559184 1.6480417203 1.6486205134 1.6391566497 1.7410900773 1.6494372883 1.7402231952 1.7482366331 1.7482563330 1.7401713456 1.8308708637 1.7499561652 1.8290725111 1.8360624484 1.8354901522 1.8296022983 1.9060188612 1.8380330119 1.9033287819 1.9086668754 1.9075739640 1.9043672205 1.9643739997 1.9107623301 1.9609855504 1.9643276548 1.9629480974 1.9623744483 2.0050673753 1.9677441288 2.0010934046 2.0021323313 0.0094558527 0.0177211021 0.2736717606 0.0353139803 0.2369672987 0.2340504010 0.2242700025 0.2438435322 0.3974361136 0.2385161001 0.3832609349 0.3703712421 0.3648549516 0.3872000917 0.4955775030 0.3732614801 0.4872652028 0.4704750133 0.4674961645 0.4894115291 0.5756560133 0.4722769343 0.5709759197 0.5536213225 0.5522661421 0.5719169840 0.6494544352 0.5547633967 0.6470591979 0.6311179892 0.6308389228 0.6471562702 0.7237217940 0.6318549382 0.7228064518 0.7094520977 0.7099337062 0.7222670797 0.8022192554 0.7099520659 0.8023004357 0.7922515528 0.7933084772 0.8012455307 0.8868896704 0.7926312678 0.8876670215 0.8813723035 0.8828825183 0.8861793914 0.9784973110 0.8817163654 0.9797661717 0.9774834313 0.9793462693 0.9779220822 1.0769524945 0.9778552422 1.0785503481 1.0803631112 1.0824735177 1.0764390762 1.1814614931 1.0808103467 1.1832364758 1.1890362485 1.1912695941 1.1809719268 1.2905909572 1.1895924649 1.2923847760 1.3018372082 1.3040417597 1.2901113233 1.4023047246 1.3025210730 1.4039452697 1.4164542060 1.4184506189 1.4018381506 1.5140122815 1.4172681672 1.5153132150 1.5299968294 1.5315858598 1.5135722050 1.6226564423 1.5309275400 1.6234225204 1.639