<?xml version="1.0"?>
<VTKFile type="UnstructuredGrid" version="0.1" byte_order="LittleEndian">
<UnstructuredGrid>
<Piece NumberOfPoints="69" NumberOfCells="124">
<Points>
<DataArray type="Float64" NumberOfComponents="3" format="ascii">
0 0 0 0 0.25 0 0 1 0 0.1249999999997554 0 0 0.084352422163911631 0.086451712656266194 0 0 0.12500000000034689 0 0.1008171452988615 0.18885703697250469 0 0.2403886547178353 0.24188814792673841 0 0.18402761812864499 0.1117324051466445 0 0.1249999999997599 0.31249999999987998 0 0.43749999999913258 0 0 0.4287911518546233 0.15455445427966699 0 0.31250000000020822 0.12500000000041631 0 0.33819444444448321 0.33819444444456342 0 0.37500000000027761 0.25000000000055511 0 0.49457493289300231 0.26251703776555491 0 0.43750000000006939 0.37500000000013878 0 0.37499999999973488 0.43749999999986738 0 0.14929124186975251 0.44582793568106382 0 0.24999999999960859 0.37499999999980432 0 0 0.43750000000034689 0 0.25 -0 0 0.13928587515912139 0.57339806105677438 0 0.13900789599611679 0.72618316107059999 0 0 0.62500000000069389 0 0 0.81250000000104083 0 0.1875000000005205 1 0 0.12710107136012311 0.87094806618203435 0 0.27987960212930818 0.83442741470570525 0 0.37500000000069389 1 0 0.44927105396715372 0.85565124085155886 0 0.38136204680495073 0.74038592213831234 0 0.27589467050686478 0.66058853156435704 0 0.26452443700674649 0.51563531581639865 0 0.4139414069912184 0.60563252640100373 0 0.5 0.5 -0 0.63236534182377013 0.50296756406332266 0 0.71259747807844409 0.63846691315701831 0 0.50145856933078625 0.73674663046504862 0 0.5625 0.625 0 0.56777512057187585 0.8470224641095303 0 0.56250000000086742 1 0 0.73857795170433571 0.77736788564284653 0 0.625 0.75 0 0.85787927391517405 0.753532520882502 0 0.80552984491000901 0.88711122872127413 0 0.90637953422180084 0.90208583328057301 0 0.875 1 0 1 0.83333333333356463 0 1 0.66666666666736052 0 0.6875 0.875 0 0.86127466977819722 0.57948076978797636 0 1 0.50000000000138767 0 0.75 1 0 1 0.33333333333448978 0 0.86087286690217635 0.25206523597959418 0 0.86569408477091048 0.40983673916766611 0 0.75338430262320943 0.49294443423175599 0 0.56986707178436635 0.37762093650871992 0 0.61108462585082757 0.25750599582343231 0 0.71826039492840632 0.34564020717216182 0 0.71508993406183785 0.15715956854777599 0 1 0 0 0.54475767668582953 0.1431838882066932 0 0.62499999999895905 0 0 0.81249999999947953 0 0 1 1 0 1 0.16666666666736049 0 0.87698901648812122 0.1160638338657984 0 
</DataArray>
</Points>
<Cells>
<DataArray type="UInt32" Name="connectivity" format="ascii">
1 9 0 3 4 0 4 5 5 4 6 5 6 1 6 4 8 9 6 7 8 7 6 12 7 8 21 8 3 21 12 8 3 8 4 21 10 12 10 63 11 12 10 11 63 15 11 14 11 15 12 14 7 12 11 14 9 19 19 7 13 14 13 7 14 15 16 14 16 13 16 17 13 16 35 17 17 33 19 17 19 13 19 33 18 19 18 9 19 9 7 1 9 20 9 1 6 20 9 18 20 18 22 20 22 24 12 21 14 12 19 17 33 32 22 33 22 18 28 23 32 32 23 22 25 24 23 24 22 23 25 23 27 26 2 27 2 25 27 26 27 28 28 27 23 16 14 35 16 17 35 30 28 31 29 28 30 29 26 28 29 30 41 30 31 38 39 38 34 34 38 31 34 31 32 28 32 31 34 32 33 17 34 33 17 35 34 39 34 35 39 35 36 39 35 43 39 39 36 37 57 37 36 39 37 43 43 37 42 39 43 38 43 40 38 30 38 40 41 30 40 50 41 40 50 53 41 50 45 53 50 42 45 50 40 43 50 43 42 45 42 44 50 43 53 50 45 44 46 47 53 45 47 45 46 66 47 46 66 46 48 48 44 49 48 46 44 49 44 51 44 37 51 44 42 37 51 37 57 49 51 52 54 52 56 51 56 52 67 54 55 54 56 55 56 60 55 61 55 60 51 57 56 57 60 56 58 60 36 57 36 60 16 58 35 35 58 36 16 15 58 58 15 59 61 60 59 58 59 60 61 59 63 63 59 15 10 64 63 64 61 63 65 61 64 65 68 61 61 68 55 67 55 68 65 62 68 67 68 62 
</DataArray>
<DataArray type="UInt32" Name="offsets" format="ascii">
2 5 8 11 14 17 20 23 26 29 32 35 38 41 44 47 50 53 56 58 61 64 67 70 73 76 79 82 85 88 91 94 97 100 103 106 108 110 112 115 118 121 124 127 130 133 136 139 142 145 147 149 151 154 157 160 163 166 169 172 175 178 181 184 187 190 193 195 197 200 203 206 209 212 215 218 221 224 227 230 233 236 239 242 244 246 249 252 255 258 261 264 267 270 273 276 279 282 285 288 291 294 297 300 303 306 309 312 315 318 321 324 327 330 333 336 339 342 345 348 351 354 357 360 
</DataArray>
<DataArray type="UInt32" Name="types" format="ascii">
3 5 5 5 5 5 5 5 5 5 5 5 5 5 5 5 5 5 5 3 5 5 5 5 5 5 5 5 5 5 5 5 5 5 5 5 3 3 3 5 5 5 5 5 5 5 5 5 5 5 3 3 3 5 5 5 5 5 5 5 5 5 5 5 5 5 5 3 3 5 5 5 5 5 5 5 5 5 5 5 5 5 5 5 3 3 5 5 5 5 5 5 5 5 5 5 5 5 5 5 5 5 5 5 5 5 5 5 5 5 5 5 5 5 5 5 5 5 5 5 5 5 5 5 
</DataArray>
</Cells>
<CellData Scalars="pressure_p0," Vectors="velocity_p0," Tensors="">
<DataArray type="Float64" Name="pressure_p0" format="ascii">
0.31270537868572951 0.088244437644321466 0.088531537150774317 0.15669890661589464 0.18692281940724054 0.18430646367497941 0.24858127692968551 0.22836002138574971 0.24931420943056154 0.18644183241507969 0.21983281800063367 0.15642565333403527 0.39486410105200925 0.59137734053440805 0.51362157373210393 0.7123603762850349 0.70515611240910903 0.29317205628277998 0.59981414853903292 0.43813782293600362 0.328314778394457 0.32833201067119494 0.79187944135076438 0.37737749311290703 0.40663910433881278 0.4585987554208294 0.75501062946748465 0.37736668539278095 0.68410394565493593 0.58296501416607305 0.29315298672182694 0.391837080446029 0.22001999747241985 0.50635135464211023 0.58864314279336549 0.59326041195489954 0.31274165370215312 0.43823952890793744 0.56358306408712278 0.80493909357742965 0.70213064498218303 0.96020714589232714 0.83198385609998382 0.76621817753065913 0.73234681506790711 0.88866264833183983 1.0606197457240616 0.93594205785607631 1.0950353445664709 0.98532920194333451 0.56371327088231959 0.68910481635270093 0.68903115965522299 1.1548825225988126 1.2504377291912081 1.2204674691716224 1.403188947872269 1.179577650448838 1.0783040189223443 1.0786450166661905 0.99623690261672504 1.0367172500174093 0.89530121300491716 0.85994096647505303 0.91589908390626573 0.99551399379038363 1.1706016577197909 0.87699197614866964 1.1269717856421935 1.2812849044710517 1.2878296450179145 1.3689205581663035 1.4706881905179177 1.1769756616727494 1.2705299169699475 1.2704172070097859 1.3980591635498691 1.4748401025257412 1.6002069326245199 1.7122861869319088 1.6381499744635675 1.3764204793884387 1.5476908403581491 1.6410668890029725 1.3764067123193402 1.6255099372985184 1.7245762256232648 1.7870032680344878 1.8044662579796387 1.8978085317743218 1.8834595105567504 1.7111192181832355 1.7627374421173023 1.5878908642539717 1.4984858196621194 1.5328388014553693 1.3793260688295479 1.5425448685464593 1.3746695061389713 1.4173804972958723 1.2077170415651741 1.2491757139248614 1.1685517345169072 1.0341144269805407 1.3437223534165716 1.2208377100283858 1.0913357843269671 1.1857945203311824 0.98144646021600757 1.0837860277544709 0.89388108505003316 0.90049061940290631 0.9598909156761275 0.99672654253732373 0.83292569361805202 0.80578857731377229 0.59204380598171313 0.74103096723638706 0.77483892540167321 0.8984041237606617 1.0023784076191002 1.0955875693264372 0.9365848606965278 1.0544585611031367 
</DataArray>
<DataArray type="Float64" Name="velocity_p0" NumberOfComponents="3" format="ascii">
-8.0267158734581923 -4.0133579367290979 0 -0.71026289506420193 -0.7138360410314708 0 -0.72022265545301667 -0.72404367136580738 0 -0.48539206872470408 -0.83135910703629756 0 0.024022350489207783 -0.50869875689975919 0 -0.42051630647360944 -0.4278525664687276 0 -0.38272898286410634 -0.4093946394435084 0 -0.4236539916177674 -0.42494436509349021 0 -0.40722565027423641 -0.38700604636116959 0 -0.51617636820128532 0.012370102382376791 0 -0.28765578258810914 -0.37465783160817612 0 -0.79952802952123103 -0.52398158560810637 0 -0.79119295410775625 -1.4245366637767629 0 -0.93713268181263465 -1.1780337181589415 0 -0.93112777143571313 -1.2846018464470568 0 -0.87478783520790204 -1.1841466563422711 0 -0.85314790164406329 -1.1486317756659787 0 -0.37567446066679605 -0.43814862460104187 0 -0.79588820801806215 -1.2502318068521596 0 -8.0283153441658488 -4.0141576720829235 0 -0.44291490606994943 -0.44241533334277844 0 -0.4426826346874066 -0.44218662299033062 0 -0.82206236609773653 -1.1453777590174719 0 -0.43366696556256051 -0.4637902074929755 0 -0.48175793743280776 -0.48161413413019066 0 -0.48171286118542955 -0.48165921037936799 0 -0.96130147672616406 -0.68397808297177831 0 -0.4639726630789901 -0.43362745049660367 0 -0.97529752310097861 -0.81949716719766885 0 -1.1257564011867747 -0.71368023590363283 0 -0.43808471302601049 -0.37551981319526939 0 -1.3407387707343548 -0.746595360117984 0 -0.35696014991160907 -0.2776428301814412 0 -1.1639607496260886 -0.92337338122405543 0 -1.0158938452706674 -0.91511374294516457 0 -1.0489371519666824 -0.9473533458929343 0 -4.0156652405649194 -8.0313304811298316 0 -4.0158673276773262 -8.0317346553546543 0 -8.0285383469858758 -4.0142691734929326 0 -0.88272588247905381 -0.91118417427733867 0 -1.021211592972137 -0.84731155631744193 0 -0.89002123265408006 -0.99152037768791368 0 -0.95774752537312779 -0.95906668671142792 0 -0.97143544390218484 -0.99114432841748479 0 -0.95770734359600218 -0.98115171199419948 0 -0.9545309690356456 -1.0016411482117091 0 -0.97512806757673021 -1.0221646796972541 0 -0.98261981296861045 -1.0145579442045021 0 -0.97972725349875311 -1.0319915731637779 0 -0.95147927759068085 -1.038744056499219 0 -4.0141406980082079 -8.028281396016423 0 -4.010637475027262 -8.021274950054524 0 -8.0290519179455195 -4.0145259589727633 0 -0.82273793750754698 -1.1081252039490148 0 -0.96398986647704243 -1.1258233011710763 0 -0.94541470114811488 -1.0934901926620082 0 -0.90502279268742081 -1.2404281637325614 0 -0.82125399794529308 -1.1056064398889829 0 -0.66864012209402268 -1.0490456667484105 0 -0.7086710000353571 -1.109018048803192 0 -0.75005937329267747 -0.93782917926797715 0 -0.89123905577681706 -1.0446467626749418 0 -0.88073531540116667 -0.88580746595377036 0 -0.77012944270859929 -0.81918705451781515 0 -0.71664190042367115 -0.58825046772768985 0 -0.37266863120032473 -1.0104600829740686 0 -0.85903891833351298 -1.0784364452670163 0 -8.0106501695394847 -16.021300339078969 0 -7.9894058365591487 -15.978811673118297 0 -0.85284697031411238 -1.0892518006388916 0 -0.83934886766819339 -1.0664556467761444 0 -0.79714017597693632 -1.0842537249151887 0 -0.80438581977853618 -1.0750282422063155 0 -0.56589971167427067 -1.2371293101219929 0 -0.75785905019241251 -1.2577224668919356 0 -0.75591138948444592 -1.2544837594275644 0 -0.90739593220006276 -1.2434535362717942 0 -0.90093204507363689 -1.4309050858718551 0 -0.78944281114658887 -1.5423943198058327 0 -0.57377518069471467 -0.95476689720400476 0 -0.75105135294174363 -0.97295748510614832 0 -0.68541798705923285 -1.380543353858132 0 -0.70960021495207115 -1.0521885840324932 0 -0.77490494783964747 -1.0120568013942546 0 -7.9755411566081946 -15.951082313216389 0 -7.9680920960154609 -15.936184192030922 0 -0.81763346470734921 -0.90302753059423579 0 -0.73237058088994633 -0.63235216891620416 0 -0.90711694524655662 -0.91631443058270579 0 -0.90301954506158522 -0.92909962751949693 0 -0.91710341387448169 -0.94382942263145919 0 -0.84542463806870694 -0.9936297839005872 0 -0.8476152176815277 -0.99485979473451336 0 -0.83163902177855209 -1.002055714221165 0 -0.83090879808913887 -1.0394877889961769 0 -0.79196973969366202 -1.008647404659498 0 -0.84890895311121295 -1.032346413023979 0 -0.85385360920072384 -1.0160171063125505 0 -0.88617636609772343 -1.0209118154593766 0 -0.86735914403153247 -1.0082792958979545 0 -0.92694521074995961 -1.0237834441120894 0 -0.90432815710350334 -1.0105721827520466 0 -0.90574660701857956 -1.0569901172675864 0 -0.91518415738566339 -1.050797681981227 0 -0.86636737551228094 -1.0463494045720643 0 -0.87190249277836629 -1.0422534938743555 0 -0.86769343031459645 -1.0802630268568683 0 -0.87693116719962094 -1.0633429752981918 0 -0.86210027852256432 -1.0869670633675237 0 -0.86687023216190706 -1.07861201936494 0 -0.85180395961470246 -1.0867631909257272 0 -0.87226291009488222 -1.1180400944530018 0 -0.91601772282985316 -1.1003522905997305 0 -0.88662629953160788 -1.0761827424265145 0 -0.90168020414289407 -1.1141854189344464 0 -0.90314596438229811 -1.1167118248801802 0 -0.9422510672390193 -1.1848665188436314 0 -0.97833696729131725 -1.1204750697278369 0 -0.9626408020062367 -1.0930935138352409 0 -0.9863909902672866 -1.0547754067266828 0 -0.93955586173672645 -1.0666638250388307 0 -0.94602499177223442 -1.0120719542984866 0 -0.97217285036312417 -1.0291863697471937 0 -0.97686548252731908 -1.0247587579648143 0 
</DataArray>
</CellData>
</Piece>
</UnstructuredGrid>
</VTKFile>
