<?xml version="1.0"?>
<VTKFile type="UnstructuredGrid" version="0.1" byte_order="LittleEndian">
<UnstructuredGrid>
<Piece NumberOfPoints="21" NumberOfCells="20">
<Points>
<DataArray type="Float64" NumberOfComponents="3" format="ascii">
0 0 0 0.0499999999999 0 0 0.099999999999815 0 0 0.1499999999997 0 0 0.19999999999956 0 0 0.24999999999941 0 0 0.29999999999927 0 0 0.34999999999912 0 0 0.49999999999869 0 0 0.44999999999883 0 0 0.39999999999897 0 0 0.94999999999987 0 0 1 0 0 0.89999999999974 0 0 0.84999999999961 0 0 0.79999999999947 0 0 0.69999999999921 0 0 0.74999999999934 0 0 0.64999999999908 0 0 0.59999999999895 0 0 0.54999999999882 0 0 
</DataArray>
</Points>
<Cells>
<DataArray type="UInt32" Name="connectivity" format="ascii">
0 1 2 3 1 2 3 4 4 5 5 6 6 7 7 10 9 8 10 9 11 12 13 11 15 14 14 13 17 15 16 17 18 16 20 19 19 18 8 20 
</DataArray>
<DataArray type="UInt32" Name="offsets" format="ascii">
2 4 6 8 10 12 14 16 18 20 22 24 26 28 30 32 34 36 38 40 
</DataArray>
<DataArray type="UInt32" Name="types" format="ascii">
3 3 3 3 3 3 3 3 3 3 3 3 3 3 3 3 3 3 3 3 
</DataArray>
</Cells>
<CellData Scalars="pressure_p0," Vectors="velocity_p0," Tensors="">
<DataArray type="Float64" Name="pressure_p0" format="ascii">
0.0050373364802337 0.027125472406424 0.015494984223526 0.04079127009816 0.057478650126872 0.078352890140702 0.10481863425375 0.1385860210435 0.23682734439962 0.18174230320594 2.4098741622006 1.9758043745852 1.2928907858409 1.6050264816928 1.0335010648189 0.82039794504047 0.6470838026777 0.39565495512689 0.50738219328731 0.30690941655272 
</DataArray>
<DataArray type="Float64" Name="velocity_p0" NumberOfComponents="3" format="ascii">
-0.020532320703799 0 0 -0.025296285874693 0 0 -0.022088135926233 0 0 -0.030353177720532 0 0 -0.037561620042652 0 0 -0.047339984127017 0 0 -0.060233130902977 0 0 -0.076923668952413 0 0 -0.1251671133469 0 0 -0.098241323356394 0 0 -0.93406978761423 0 0 -0.80484768050573 0 0 -0.57152541687239 0 0 -0.68291358874254 0 0 -0.47249284079919 0 0 -0.38641726214014 0 0 -0.31301575175233 0 0 -0.20047277673408 0 0 -0.25142884755014 0 0 -0.15882761072702 0 0 
</DataArray>
</CellData>
</Piece>
</UnstructuredGrid>
</VTKFile>
