<?xml version="1.0"?>
<VTKFile type="UnstructuredGrid" version="0.1" byte_order="LittleEndian">
<UnstructuredGrid>
<Piece NumberOfPoints="21" NumberOfCells="20">
<Points>
<DataArray type="Float64" NumberOfComponents="3" format="ascii">
0 0 0 0.0499999999999 0 0 0.099999999999815 0 0 0.1499999999997 0 0 0.19999999999956 0 0 0.24999999999941 0 0 0.29999999999927 0 0 0.34999999999912 0 0 0.49999999999869 0 0 0.44999999999883 0 0 0.39999999999897 0 0 0.94999999999987 0 0 1 0 0 0.89999999999974 0 0 0.84999999999961 0 0 0.79999999999947 0 0 0.69999999999921 0 0 0.74999999999934 0 0 0.64999999999908 0 0 0.59999999999895 0 0 0.54999999999882 0 0 
</DataArray>
</Points>
<Cells>
<DataArray type="UInt32" Name="connectivity" format="ascii">
0 1 2 3 1 2 3 4 4 5 5 6 6 7 7 10 9 8 10 9 11 12 13 11 15 14 14 13 17 15 16 17 18 16 20 19 19 18 8 20 
</DataArray>
<DataArray type="UInt32" Name="offsets" format="ascii">
2 4 6 8 10 12 14 16 18 20 22 24 26 28 30 32 34 36 38 40 
</DataArray>
<DataArray type="UInt32" Name="types" format="ascii">
3 3 3 3 3 3 3 3 3 3 3 3 3 3 3 3 3 3 3 3 
</DataArray>
</Cells>
<CellData Scalars="pressure_p0," Vectors="velocity_p0," Tensors="">
<DataArray type="Float64" Name="pressure_p0" format="ascii">
-0.15329486494469 -0.77664840305029 -0.46192376809297 -1.1014586020531 -1.4402285346606 -1.796661410981 -2.1742259350062 -2.5760833139081 -3.4632791172894 -3.0050045711441 -9.6425374901144 -8.9307188577316 -7.5403396266797 -8.2280873584963 -6.8725694611655 -6.2290974271515 -5.613355989806 -4.4740489649554 -5.0278302548887 -3.9526170016048 
</DataArray>
<DataArray type="Float64" Name="velocity_p0" NumberOfComponents="3" format="ascii">
6.1521863303885 0 0 6.3953483396159 0 0 6.2335353810679 0 0 6.6358013161215 0 0 6.952028089299 0 0 7.3399740034775 0 0 7.7942190292938 0 0 8.3077863614028 0 0 9.4761243046202 0 0 8.8719580338387 0 0 14.267436521502 0 0 14.144501316144 0 0 13.555178973272 0 0 13.903792310483 0 0 13.112421995247 0 0 12.592134713563 0 0 12.012671722597 0 0 10.752132532811 0 0 11.393070248475 0 0 10.107698476647 0 0 
</DataArray>
</CellData>
</Piece>
</UnstructuredGrid>
</VTKFile>
