<?xml version="1.0"?>
<VTKFile type="UnstructuredGrid" version="0.1" byte_order="LittleEndian">
<UnstructuredGrid>
<Piece NumberOfPoints="21" NumberOfCells="20">
<Points>
<DataArray type="Float64" NumberOfComponents="3" format="ascii">
0 0 0 1 0 0 0.0499999999999 0 0 0.099999999999815 0 0 0.1499999999997 0 0 0.19999999999956 0 0 0.24999999999941 0 0 0.29999999999927 0 0 0.34999999999912 0 0 0.39999999999897 0 0 0.44999999999883 0 0 0.49999999999869 0 0 0.54999999999882 0 0 0.59999999999895 0 0 0.64999999999908 0 0 0.69999999999921 0 0 0.74999999999934 0 0 0.79999999999947 0 0 0.84999999999961 0 0 0.89999999999974 0 0 0.94999999999987 0 0 
</DataArray>
</Points>
<Cells>
<DataArray type="UInt32" Name="connectivity" format="ascii">
0 2 2 3 3 4 4 5 5 6 6 7 7 8 8 9 9 10 10 11 11 12 12 13 13 14 14 15 15 16 16 17 17 18 18 19 19 20 20 1 
</DataArray>
<DataArray type="UInt32" Name="offsets" format="ascii">
2 4 6 8 10 12 14 16 18 20 22 24 26 28 30 32 34 36 38 40 
</DataArray>
<DataArray type="UInt32" Name="types" format="ascii">
3 3 3 3 3 3 3 3 3 3 3 3 3 3 3 3 3 3 3 3 
</DataArray>
</Cells>
<CellData Scalars="pressure_p0," Vectors="velocity_p0," Tensors="">
<DataArray type="Float64" Name="pressure_p0" format="ascii">
0.057298836614609 0.17354249470672 0.2947522313963 0.42433219547031 0.56582549728129 0.72296715835369 0.8997337845943 1.1003880789998 1.3295155539951 1.5920498542001 1.8932819814041 2.238847497459 2.6346846203991 3.0869552974797 3.6019212761147 4.1857685491582 4.8443771962311 5.5830406044744 6.4061492636234 7.3168700171359 
</DataArray>
<DataArray type="Float64" Name="velocity_p0" NumberOfComponents="3" format="ascii">
-0.23084133132177 0 0 -0.23745339478215 0 0 -0.25078970076417 0 0 -0.27107326588574 0 0 -0.29863496288425 0 0 -0.33390828731398 0 0 -0.37742092064724 0 0 -0.42978176940203 0 0 -0.4916617752017 0 0 -0.56376642740972 0 0 -0.64679764325788 0 0 -0.74140263899301 0 0 -0.84810780001854 0 0 -0.96723665571305 0 0 -1.0988132516756 0 0 -1.2424559201131 0 0 -1.3972720553125 0 0 -1.5617720673882 0 0 -1.7338294126569 0 0 -1.9107207535101 0 0 
</DataArray>
</CellData>
</Piece>
</UnstructuredGrid>
</VTKFile>
