<?xml version="1.0"?>
<VTKFile type="UnstructuredGrid" version="0.1" byte_order="LittleEndian">
<UnstructuredGrid>
<Piece NumberOfPoints="21" NumberOfCells="20">
<Points>
<DataArray type="Float64" NumberOfComponents="3" format="ascii">
0 0 0 0.0499999999999 0 0 0.099999999999815 0 0 0.1499999999997 0 0 0.19999999999956 0 0 0.24999999999941 0 0 0.29999999999927 0 0 0.34999999999912 0 0 0.49999999999869 0 0 0.44999999999883 0 0 0.39999999999897 0 0 0.94999999999987 0 0 1 0 0 0.89999999999974 0 0 0.84999999999961 0 0 0.79999999999947 0 0 0.69999999999921 0 0 0.74999999999934 0 0 0.64999999999908 0 0 0.59999999999895 0 0 0.54999999999882 0 0 
</DataArray>
</Points>
<Cells>
<DataArray type="UInt32" Name="connectivity" format="ascii">
0 1 2 3 1 2 3 4 4 5 5 6 6 7 7 10 9 8 10 9 11 12 13 11 15 14 14 13 17 15 16 17 18 16 20 19 19 18 8 20 
</DataArray>
<DataArray type="UInt32" Name="offsets" format="ascii">
2 4 6 8 10 12 14 16 18 20 22 24 26 28 30 32 34 36 38 40 
</DataArray>
<DataArray type="UInt32" Name="types" format="ascii">
3 3 3 3 3 3 3 3 3 3 3 3 3 3 3 3 3 3 3 3 
</DataArray>
</Cells>
<CellData Scalars="pressure_p0," Vectors="velocity_p0," Tensors="">
<DataArray type="Float64" Name="pressure_p0" format="ascii">
0.040096681000571 0.18490534655398 0.11720547183089 0.23641200387166 0.26419442633248 0.25972155205255 0.21326287125378 0.1137702242065 -0.29494798602719 -0.051123904979805 -9.2846768286958 -7.8764197884289 -5.2874442327957 -6.5325011778566 -4.1659498704649 -3.1824948989446 -2.3423017254291 -1.0768255714689 -1.6430480838266 -0.63202232414617 
</DataArray>
<DataArray type="Float64" Name="velocity_p0" NumberOfComponents="3" format="ascii">
-0.15730215283177 0 0 -0.11920653204103 0 0 -0.14480866555368 0 0 -0.079289079778707 0 0 -0.023309548180953 0 0 0.050931555078854 0 0 0.14595132784648 0 0 0.26438677623435 0 0 0.58089841916683 0 0 0.40871821023484 0 0 2.8389033828678 0 0 2.752175650832 0 0 2.3665513073855 0 0 2.5889755556264 0 0 2.1049493338455 0 0 1.8236481450309 0 0 1.539446815114 0 0 1.0110257596778 0 0 1.2654761539569 0 0 0.78187758544041 0 0 
</DataArray>
</CellData>
</Piece>
</UnstructuredGrid>
</VTKFile>
