<?xml version="1.0"?>
<VTKFile type="UnstructuredGrid" version="0.1" byte_order="LittleEndian">
<UnstructuredGrid>
<Piece NumberOfPoints="21" NumberOfCells="20">
<Points>
<DataArray type="Float64" NumberOfComponents="3" format="ascii">
0 0 0 1 0 0 0.0499999999999 0 0 0.099999999999815 0 0 0.1499999999997 0 0 0.19999999999956 0 0 0.24999999999941 0 0 0.29999999999927 0 0 0.34999999999912 0 0 0.39999999999897 0 0 0.44999999999883 0 0 0.49999999999869 0 0 0.54999999999882 0 0 0.59999999999895 0 0 0.64999999999908 0 0 0.69999999999921 0 0 0.74999999999934 0 0 0.79999999999947 0 0 0.84999999999961 0 0 0.89999999999974 0 0 0.94999999999987 0 0 
</DataArray>
</Points>
<Cells>
<DataArray type="UInt32" Name="connectivity" format="ascii">
0 2 2 3 3 4 4 5 5 6 6 7 7 8 8 9 9 10 10 11 11 12 12 13 13 14 14 15 15 16 16 17 17 18 18 19 19 20 20 1 
</DataArray>
<DataArray type="UInt32" Name="offsets" format="ascii">
2 4 6 8 10 12 14 16 18 20 22 24 26 28 30 32 34 36 38 40 
</DataArray>
<DataArray type="UInt32" Name="types" format="ascii">
3 3 3 3 3 3 3 3 3 3 3 3 3 3 3 3 3 3 3 3 
</DataArray>
</Cells>
<CellData Scalars="pressure_p0," Vectors="velocity_p0," Tensors="">
<DataArray type="Float64" Name="pressure_p0" format="ascii">
-0.2486925068756 -0.74610965143423 -1.2436224034563 -1.7412919034549 -2.2391754604087 -2.7373251480115 -3.2357865264085 -3.7345975205022 -4.2337874824135 -4.7333764615251 -5.2333747007612 -5.733782372464 -6.234589561529 -6.7357764974472 -7.2373140307309 -7.7391643430321 -8.2412818742419 -8.743614444172 -9.2461045412332 -9.7486907460157 
</DataArray>
<DataArray type="Float64" Name="velocity_p0" NumberOfComponents="3" format="ascii">
9.9480215831175 0 0 9.9492989658261 0 0 9.9518225202291 0 0 9.9555305695513 0 0 9.960332445595 0 0 9.9661106600273 0 0 9.9727237249364 0 0 9.9800095600789 0 0 9.9877894102576 0 0 9.9958721834916 0 0 10.004059109377 0 0 10.012148607652 0 0 10.019941249806 0 0 10.027244691993 0 0 10.033878455822 0 0 10.039678435083 0 0 10.044501011373 0 0 10.048226669886 0 0 10.05076301841 0 0 10.052047127485 0 0 
</DataArray>
</CellData>
</Piece>
</UnstructuredGrid>
</VTKFile>
