<?xml version="1.0"?>
<VTKFile type="UnstructuredGrid" version="0.1" byte_order="LittleEndian">
<UnstructuredGrid>
<Piece NumberOfPoints="21" NumberOfCells="20">
<Points>
<DataArray type="Float64" NumberOfComponents="3" format="ascii">
0 0 0 0.0499999999999 0 0 0.099999999999815 0 0 0.1499999999997 0 0 0.19999999999956 0 0 0.24999999999941 0 0 0.29999999999927 0 0 0.34999999999912 0 0 0.49999999999869 0 0 0.44999999999883 0 0 0.39999999999897 0 0 0.94999999999987 0 0 1 0 0 0.89999999999974 0 0 0.84999999999961 0 0 0.79999999999947 0 0 0.69999999999921 0 0 0.74999999999934 0 0 0.64999999999908 0 0 0.59999999999895 0 0 0.54999999999882 0 0 
</DataArray>
</Points>
<Cells>
<DataArray type="UInt32" Name="connectivity" format="ascii">
0 1 2 3 1 2 3 4 4 5 5 6 6 7 7 10 9 8 10 9 11 12 13 11 15 14 14 13 17 15 16 17 18 16 20 19 19 18 8 20 
</DataArray>
<DataArray type="UInt32" Name="offsets" format="ascii">
2 4 6 8 10 12 14 16 18 20 22 24 26 28 30 32 34 36 38 40 
</DataArray>
<DataArray type="UInt32" Name="types" format="ascii">
3 3 3 3 3 3 3 3 3 3 3 3 3 3 3 3 3 3 3 3 
</DataArray>
</Cells>
<CellData Scalars="pressure_p0," Vectors="velocity_p0," Tensors="">
<DataArray type="Float64" Name="pressure_p0" format="ascii">
-0.24612204228763 -1.2310825653137 -0.73846105435313 -1.7241673470193 -2.2178850084942 -2.7123898844667 -3.2078172706795 -3.7042800950915 -4.7006356516714 -4.2018661063933 -9.7461064911167 -9.2384159235295 -8.2240787766203 -8.7310122736875 -7.7177868303355 -7.2122917093365 -6.7077287082092 -5.7018209834985 -6.204209813266 -5.200620103529 
</DataArray>
<DataArray type="Float64" Name="velocity_p0" NumberOfComponents="3" format="ascii">
9.8458309664266 0 0 9.8570629266845 0 0 9.8496052302791 0 0 9.8680244318329 0 0 9.8822253745027 0 0 9.8993226218814 0 0 9.9189021062764 0 0 9.9404883571667 0 0 9.987539971372 0 0 9.9635555658275 0 0 10.154775853512 0 0 10.150942174265 0 0 10.132254433494 0 0 10.143371469065 0 0 10.117870672812 0 0 10.100581221236 0 0 10.080818960678 0 0 10.035897097344 0 0 10.059077247081 0 0 10.01185331826 0 0 
</DataArray>
</CellData>
</Piece>
</UnstructuredGrid>
</VTKFile>
