<?xml version="1.0"?>
<VTKFile type="UnstructuredGrid" version="0.1" byte_order="LittleEndian">
<UnstructuredGrid>
<Piece NumberOfPoints="21" NumberOfCells="20">
<Points>
<DataArray type="Float64" NumberOfComponents="3" format="ascii">
0.94999999999987 0 0 0 0 0 0.0499999999999 0 0 0.099999999999815 0 0 0.1499999999997 0 0 0.19999999999956 0 0 0.24999999999941 0 0 0.29999999999927 0 0 0.34999999999912 0 0 0.39999999999897 0 0 0.44999999999883 0 0 0.49999999999869 0 0 0.54999999999882 0 0 0.59999999999895 0 0 0.64999999999908 0 0 0.69999999999921 0 0 0.74999999999934 0 0 0.79999999999947 0 0 0.84999999999961 0 0 0.89999999999974 0 0 1 0 0 
</DataArray>
</Points>
<Cells>
<DataArray type="UInt32" Name="connectivity" format="ascii">
1 2 2 3 3 4 4 5 5 6 6 7 7 8 8 9 9 10 10 11 11 12 12 13 13 14 14 15 15 16 16 17 17 18 18 19 19 0 0 20 
</DataArray>
<DataArray type="UInt32" Name="offsets" format="ascii">
2 4 6 8 10 12 14 16 18 20 22 24 26 28 30 32 34 36 38 40 
</DataArray>
<DataArray type="UInt32" Name="types" format="ascii">
3 3 3 3 3 3 3 3 3 3 3 3 3 3 3 3 3 3 3 3 
</DataArray>
</Cells>
<CellData Scalars="pressure_p0," Vectors="velocity_p0," Tensors="">
<DataArray type="Float64" Name="pressure_p0" format="ascii">
0.071889693504365 0.21749293762433 0.36858998710895 0.52891675605752 0.70231659507937 0.89277782132587 1.1044653804438 1.3417443890427 1.6091929363968 1.911601156551 2.2539532894998 2.6413893359615 3.0791431122364 3.5724541999913 4.1264526505604 4.7460175229356 5.4356135170333 6.1991140512318 7.0396237662752 7.9593177941506 
</DataArray>
<DataArray type="Float64" Name="velocity_p0" NumberOfComponents="3" format="ascii">
-0.28938263112925 0 0 -0.29670029360516 0 0 -0.31142381843391 0 0 -0.33372660797133 0 0 -0.3638610652694 0 0 -0.40214878536557 0 0 -0.44896656771813 0 0 -0.50472755595451 0 0 -0.56985676750989 0 0 -0.64476035310374 0 0 -0.72978817940954 0 0 -0.82518982273455 0 0 -0.93106486402732 0 0 -1.0473095383212 0 0 -1.1735633229412 0 0 -1.3091608664695 0 0 -1.4530965282923 0 0 -1.6040102492377 0 0 -1.7602037429142 0 0 -1.919694027873 0 0 
</DataArray>
</CellData>
</Piece>
</UnstructuredGrid>
</VTKFile>
