<?xml version="1.0"?>
<VTKFile type="UnstructuredGrid" version="0.1" byte_order="LittleEndian">
<UnstructuredGrid>
<Piece NumberOfPoints="360" NumberOfCells="124">
<Points>
<DataArray type="Float64" NumberOfComponents="3" format="ascii">
7.500000000000000e-01 1.000000000000000e+00 0.000000000000000e+00 6.875000000000000e-01 8.750000000000000e-01 0.000000000000000e+00 6.875000000000000e-01 8.750000000000000e-01 0.000000000000000e+00 6.250000000000000e-01 7.500000000000000e-01 0.000000000000000e+00 6.250000000000000e-01 7.500000000000000e-01 0.000000000000000e+00 5.625000000000000e-01 6.250000000000000e-01 0.000000000000000e+00 5.625000000000000e-01 6.250000000000000e-01 0.000000000000000e+00 5.000000000000000e-01 5.000000000000000e-01 -0.000000000000000e+00 0.000000000000000e+00 2.500000000000000e-01 0.000000000000000e+00 1.249999999997599e-01 3.124999999998800e-01 0.000000000000000e+00 1.249999999997599e-01 3.124999999998800e-01 0.000000000000000e+00 2.499999999996086e-01 3.749999999998043e-01 0.000000000000000e+00 2.499999999996086e-01 3.749999999998043e-01 0.000000000000000e+00 3.749999999997349e-01 4.374999999998674e-01 0.000000000000000e+00 3.749999999997349e-01 4.374999999998674e-01 0.000000000000000e+00 5.000000000000000e-01 5.000000000000000e-01 -0.000000000000000e+00 5.000000000000000e-01 5.000000000000000e-01 -0.000000000000000e+00 4.375000000000694e-01 3.750000000001388e-01 0.000000000000000e+00 4.375000000000694e-01 3.750000000001388e-01 0.000000000000000e+00 3.750000000002776e-01 2.500000000005551e-01 0.000000000000000e+00 3.750000000002776e-01 2.500000000005551e-01 0.000000000000000e+00 3.125000000002082e-01 1.250000000004163e-01 0.000000000000000e+00 3.125000000002082e-01 1.250000000004163e-01 0.000000000000000e+00 2.500000000000000e-01 -0.000000000000000e+00 0.000000000000000e+00 3.749999999997349e-01 4.374999999998674e-01 0.000000000000000e+00 4.139414069912184e-01 6.056325264010037e-01 0.000000000000000e+00 2.645244370067465e-01 5.156353158163987e-01 0.000000000000000e+00 3.749999999997349e-01 4.374999999998674e-01 0.000000000000000e+00 5.000000000000000e-01 5.000000000000000e-01 -0.000000000000000e+00 4.139414069912184e-01 6.056325264010037e-01 0.000000000000000e+00 0.000000000000000e+00 2.500000000000000e-01 0.000000000000000e+00 1.249999999997599e-01 3.124999999998800e-01 0.000000000000000e+00 0.000000000000000e+00 4.375000000003469e-01 0.000000000000000e+00 6.875000000000000e-01 8.750000000000000e-01 0.000000000000000e+00 7.500000000000000e-01 1.000000000000000e+00 0.000000000000000e+00 5.625000000008674e-01 1.000000000000000e+00 0.000000000000000e+00 4.139414069912184e-01 6.056325264010037e-01 0.000000000000000e+00 2.758946705068648e-01 6.605885315643570e-01 0.000000000000000e+00 2.645244370067465e-01 5.156353158163987e-01 0.000000000000000e+00 2.798796021293082e-01 8.344274147057053e-01 0.000000000000000e+00 1.390078959961168e-01 7.261831610706000e-01 0.000000000000000e+00 2.758946705068648e-01 6.605885315643570e-01 0.000000000000000e+00 0.000000000000000e+00 4.375000000003469e-01 0.000000000000000e+00 1.492912418697525e-01 4.458279356810638e-01 0.000000000000000e+00 1.392858751591214e-01 5.733980610567744e-01 0.000000000000000e+00 3.750000000006939e-01 1.000000000000000e+00 0.000000000000000e+00 4.492710539671537e-01 8.556512408515589e-01 0.000000000000000e+00 5.625000000008674e-01 1.000000000000000e+00 0.000000000000000e+00 0.000000000000000e+00 4.375000000003469e-01 0.000000000000000e+00 1.392858751591214e-01 5.733980610567744e-01 0.000000000000000e+00 0.000000000000000e+00 6.250000000006939e-01 0.000000000000000e+00 3.750000000006939e-01 1.000000000000000e+00 0.000000000000000e+00 2.798796021293082e-01 8.344274147057053e-01 0.000000000000000e+00 4.492710539671537e-01 8.556512408515589e-01 0.000000000000000e+00 3.750000000006939e-01 1.000000000000000e+00 0.000000000000000e+00 1.875000000005205e-01 1.000000000000000e+00 0.000000000000000e+00 2.798796021293082e-01 8.344274147057053e-01 0.000000000000000e+00 2.798796021293082e-01 8.344274147057053e-01 0.000000000000000e+00 2.758946705068648e-01 6.605885315643570e-01 0.000000000000000e+00 3.813620468049507e-01 7.403859221383123e-01 0.000000000000000e+00 5.625000000008674e-01 1.000000000000000e+00 0.000000000000000e+00 4.492710539671537e-01 8.556512408515589e-01 0.000000000000000e+00 5.677751205718758e-01 8.470224641095303e-01 0.000000000000000e+00 6.875000000000000e-01 8.750000000000000e-01 0.000000000000000e+00 5.625000000008674e-01 1.000000000000000e+00 0.000000000000000e+00 5.677751205718758e-01 8.470224641095303e-01 0.000000000000000e+00 5.625000000000000e-01 6.250000000000000e-01 0.000000000000000e+00 4.139414069912184e-01 6.056325264010037e-01 0.000000000000000e+00 5.000000000000000e-01 5.000000000000000e-01 -0.000000000000000e+00 0.000000000000000e+00 4.375000000003469e-01 0.000000000000000e+00 1.249999999997599e-01 3.124999999998800e-01 0.000000000000000e+00 1.492912418697525e-01 4.458279356810638e-01 0.000000000000000e+00 0.000000000000000e+00 1.000000000000000e+00 0.000000000000000e+00 0.000000000000000e+00 8.125000000010408e-01 0.000000000000000e+00 1.271010713601231e-01 8.709480661820344e-01 0.000000000000000e+00 3.749999999997349e-01 4.374999999998674e-01 0.000000000000000e+00 2.645244370067465e-01 5.156353158163987e-01 0.000000000000000e+00 2.499999999996086e-01 3.749999999998043e-01 0.000000000000000e+00 1.875000000005205e-01 1.000000000000000e+00 0.000000000000000e+00 0.000000000000000e+00 1.000000000000000e+00 0.000000000000000e+00 1.271010713601231e-01 8.709480661820344e-01 0.000000000000000e+00 0.000000000000000e+00 8.125000000010408e-01 0.000000000000000e+00 0.000000000000000e+00 6.250000000006939e-01 0.000000000000000e+00 1.390078959961168e-01 7.261831610706000e-01 0.000000000000000e+00 2.499999999996086e-01 3.749999999998043e-01 0.000000000000000e+00 1.492912418697525e-01 4.458279356810638e-01 0.000000000000000e+00 1.249999999997599e-01 3.124999999998800e-01 0.000000000000000e+00 2.758946705068648e-01 6.605885315643570e-01 0.000000000000000e+00 1.390078959961168e-01 7.261831610706000e-01 0.000000000000000e+00 1.392858751591214e-01 5.733980610567744e-01 0.000000000000000e+00 4.492710539671537e-01 8.556512408515589e-01 0.000000000000000e+00 2.798796021293082e-01 8.344274147057053e-01 0.000000000000000e+00 3.813620468049507e-01 7.403859221383123e-01 0.000000000000000e+00 2.798796021293082e-01 8.344274147057053e-01 0.000000000000000e+00 1.271010713601231e-01 8.709480661820344e-01 0.000000000000000e+00 1.390078959961168e-01 7.261831610706000e-01 0.000000000000000e+00 5.625000000000000e-01 6.250000000000000e-01 0.000000000000000e+00 5.014585693307863e-01 7.367466304650486e-01 0.000000000000000e+00 4.139414069912184e-01 6.056325264010037e-01 0.000000000000000e+00 1.875000000005205e-01 1.000000000000000e+00 0.000000000000000e+00 1.271010713601231e-01 8.709480661820344e-01 0.000000000000000e+00 2.798796021293082e-01 8.344274147057053e-01 0.000000000000000e+00 2.499999999996086e-01 3.749999999998043e-01 0.000000000000000e+00 2.645244370067465e-01 5.156353158163987e-01 0.000000000000000e+00 1.492912418697525e-01 4.458279356810638e-01 0.000000000000000e+00 2.645244370067465e-01 5.156353158163987e-01 0.000000000000000e+00 2.758946705068648e-01 6.605885315643570e-01 0.000000000000000e+00 1.392858751591214e-01 5.733980610567744e-01 0.000000000000000e+00 5.625000000000000e-01 6.250000000000000e-01 0.000000000000000e+00 6.250000000000000e-01 7.500000000000000e-01 0.000000000000000e+00 5.014585693307863e-01 7.367466304650486e-01 0.000000000000000e+00 4.139414069912184e-01 6.056325264010037e-01 0.000000000000000e+00 5.014585693307863e-01 7.367466304650486e-01 0.000000000000000e+00 3.813620468049507e-01 7.403859221383123e-01 0.000000000000000e+00 6.875000000000000e-01 8.750000000000000e-01 0.000000000000000e+00 5.677751205718758e-01 8.470224641095303e-01 0.000000000000000e+00 6.250000000000000e-01 7.500000000000000e-01 0.000000000000000e+00 6.250000000000000e-01 7.500000000000000e-01 0.000000000000000e+00 5.677751205718758e-01 8.470224641095303e-01 0.000000000000000e+00 5.014585693307863e-01 7.367466304650486e-01 0.000000000000000e+00 0.000000000000000e+00 6.250000000006939e-01 0.000000000000000e+00 1.392858751591214e-01 5.733980610567744e-01 0.000000000000000e+00 1.390078959961168e-01 7.261831610706000e-01 0.000000000000000e+00 4.139414069912184e-01 6.056325264010037e-01 0.000000000000000e+00 3.813620468049507e-01 7.403859221383123e-01 0.000000000000000e+00 2.758946705068648e-01 6.605885315643570e-01 0.000000000000000e+00 0.000000000000000e+00 8.125000000010408e-01 0.000000000000000e+00 1.390078959961168e-01 7.261831610706000e-01 0.000000000000000e+00 1.271010713601231e-01 8.709480661820344e-01 0.000000000000000e+00 2.645244370067465e-01 5.156353158163987e-01 0.000000000000000e+00 1.392858751591214e-01 5.733980610567744e-01 0.000000000000000e+00 1.492912418697525e-01 4.458279356810638e-01 0.000000000000000e+00 4.492710539671537e-01 8.556512408515589e-01 0.000000000000000e+00 5.014585693307863e-01 7.367466304650486e-01 0.000000000000000e+00 5.677751205718758e-01 8.470224641095303e-01 0.000000000000000e+00 4.492710539671537e-01 8.556512408515589e-01 0.000000000000000e+00 3.813620468049507e-01 7.403859221383123e-01 0.000000000000000e+00 5.014585693307863e-01 7.367466304650486e-01 0.000000000000000e+00 5.698670717843664e-01 3.776209365087199e-01 0.000000000000000e+00 7.182603949284063e-01 3.456402071721618e-01 0.000000000000000e+00 6.323653418237701e-01 5.029675640633227e-01 0.000000000000000e+00 7.533843026232094e-01 4.929444342317560e-01 0.000000000000000e+00 6.323653418237701e-01 5.029675640633227e-01 0.000000000000000e+00 7.182603949284063e-01 3.456402071721618e-01 0.000000000000000e+00 8.578792739151740e-01 7.535325208825020e-01 0.000000000000000e+00 7.125974780784441e-01 6.384669131570183e-01 0.000000000000000e+00 8.612746697781972e-01 5.794807697879764e-01 0.000000000000000e+00 2.500000000000000e-01 -0.000000000000000e+00 0.0000000
[...]
<PointData Scalars="age_conc,U235_conc," Vectors="" Tensors="">
<DataArray type="Float64" Name="age_conc" format="ascii">
-1.048441622012945e+04 1.048641622012945e+04 -6.406172889134221e+03 6.408172889134217e+03 -3.439786719972748e+03 3.441786719972746e+03 -1.884179505294596e+03 1.886179505294588e+03 1.004377507810132e+02 -9.843775078101314e+01 2.204141442215114e+02 -2.184141442215188e+02 5.542413358750637e+02 -5.522413358750641e+02 1.458797876098797e+03 -1.456797876098797e+03 -1.519994575264267e+03 1.521994575264267e+03 -4.861084735927943e+02 4.881084735927946e+02 -2.002378321834767e+02 2.022378321834767e+02 -8.844833307593944e+01 9.044833307593944e+01 -1.763783128445139e+02 1.139121440272109e+03 -9.597431274275949e+02 -7.563419718166842e+02 -1.821505929574509e+03 2.580847901391207e+03 -1.610376496806566e+01 -6.132921826989328e+00 2.523668679506954e+01 4.429323095982835e+04 -2.865820075503817e+04 -1.563203020479020e+04 7.298975484959301e+02 -6.326044979291322e+02 -9.429305056678277e+01 5.925130900972508e+03 -1.002705396358817e+03 -4.919425504613686e+03 1.153254214995904e+02 -1.839190303296126e+02 7.159360883002229e+01 -3.034122108914032e+04 6.079798574712712e+04 -3.045376465798681e+04 6.179634505742433e+01 1.197002103339895e+03 -1.255798448397312e+03 -3.961332532841645e+04 -7.989407106602475e+02 4.041526603907668e+04 -3.038412900396788e+04 -2.385594365295361e+04 5.424307265692150e+04 3.249746402076584e+03 1.173517603080996e+03 -4.420264005157595e+03 -2.524695339639369e+04 1.299989826180702e+04 1.225005513458664e+04 2.393132307778361e+04 -3.219253490896512e+04 8.264211831181503e+03 -4.394710097848365e+03 4.262623813069336e+03 1.350862847790333e+02 4.162365068469080e+01 -2.628873150002644e+00 -3.599477753471002e+01 -3.838186846238817e+04 8.784274251375611e+03 2.960059421101257e+04 2.756113649945983e+02 -4.736583852878102e+02 2.010470202932046e+02 -2.800011222436828e+04 -2.240528186215078e+04 5.040839408651907e+04 9.872618048202959e+03 -4.631172042252364e+02 -9.406500843977708e+03 -7.590573506643705e+01 1.002346619045201e+02 -2.132892683809774e+01 -2.142070002567663e+03 1.115257204117924e+03 1.029812798449762e+03 1.986919158188991e+04 -5.401179155619481e+03 -1.446501242627041e+04 2.370234147510492e+04 -9.832770052221604e+03 -1.386657142288330e+04 -6.232460293899145e+03 5.752334726916813e+03 4.831255669823367e+02 -3.471489683581746e+04 -3.647391875933766e+03 3.836528871175127e+04 -3.370414117067412e+01 -1.486964929778551e+02 1.854006341485365e+02 6.049921301147624e+02 -8.152327209740541e+02 2.132405908592991e+02 6.072870999069855e+02 -1.237059588386783e+04 1.176630878396085e+04 4.093164970191065e+02 8.601510954961624e+02 -1.266467592515262e+03 2.282625361077000e+03 1.929586440151550e+04 -2.157548976259250e+04 -2.089546881197254e+04 1.743753616058270e+04 3.460932651389825e+03 -1.311646328753290e+03 2.545271913160613e+03 -1.230625584407324e+03 1.516840959614019e+03 -1.257399510764874e+03 -2.564414488491456e+02 1.045419369165546e+04 -1.553497448671366e+04 5.083780795058187e+03 2.070354270375756e+02 -1.262556557813076e+02 -7.777977125626056e+01 -6.578869645114901e+02 -3.453847405811890e+03 4.114734370323393e+03 1.343060298634817e+03 -1.129628973156302e+03 -2.104313254785235e+02 -1.008435328526612e+02 -2.494260247421553e+02 3.532695575948163e+02 -4.085360088314919e+02 6.457537509996176e+02 -2.342177421681264e+02 1.795858145733065e+04 -1.181803556546233e+04 -6.137545891868330e+03 -2.074536798746703e+01 4.201012869370608e+01 -1.826476070623175e+01 1.658380291337897e+03 -1.134199243130758e+03 -5.211810482071236e+02 3.647439909206947e+04 -1.156303754876991e+03 -3.531509533719250e+04 2.018886125438221e+03 2.794999245155188e+03 -4.810885370593410e+03 1.955001671697135e+04 -1.040402994490570e+04 -9.142986772065678e+03 -2.749257392275467e+01 -9.026382613977842e+02 9.331308353205241e+02 -1.146713542001756e+04 -8.175271618486987e+03 1.964540703850456e+04 -4.140580979877341e+04 3.521192019071458e+04 6.196889608058831e+03 -2.974595322791608e+04 5.263134874350101e+04 -2.288239551558490e+04 -2.366057592795114e+04 -2.917885283700112e+04 5.284242876495226e+04 -6.472973860530328e+02 -1.435724748344095e+03 2.086022134397135e+03 7.261897060754876e+03 -7.377649296927975e+03 1.187522361730874e+02 -3.426280895221357e+04 3.528587271279084e+04 -1.020063760577315e+03 -2.851311161008503e+04 5.702922322016888e+04 -2.851311161008389e+04 -1.600695490136161e+03 2.242878843753366e+03 -6.391833536172053e+02 -2.887830251976868e+04 5.367337888097431e+04 -2.479207636120564e+04 5.917527370472017e+02 -3.979745673396885e+03 3.390992936349670e+03 -2.225635375958518e+00 8.128127974272498e+01 -7.605564436677379e+01 -1.262632494836573e+04 -4.999380023316671e+03 1.762870497168241e+04 -2.563199927602104e+04 -2.928466148862947e+04 5.491966076465051e+04 2.636450584417616e+00 8.146892633409153e+01 -8.110537691850185e+01 1.706302496461059e+03 -2.889822560467500e+03 1.186520064006435e+03 6.323736696851847e+01 3.919137392270568e+02 -4.521511061955679e+02 1.457470507940376e+04 -1.225872557363117e+04 -2.312979505772571e+03 4.227825323696670e+03 3.151007334916597e+04 -3.573489867286264e+04 -2.798641561315216e+04 -2.133465891227468e+04 4.932407452542683e+04 -3.679275480458044e+04 3.683220103674171e+04 -3.644623216126138e+01 7.553106281539622e+03 4.724361319740359e+03 -1.227446760127998e+04 1.052904354286250e+04 -3.797500111192695e+04 2.744895756906444e+04 7.591890969496308e+01 1.712199934204909e+02 -2.441389031154613e+02 -1.240188747407665e+02 1.259969327234430e+02 1.021942017301562e+00 -2.751966471788046e+04 4.857137873209428e+04 -2.104871401421379e+04 8.419072031188189e+02 -2.080869784430758e+02 -6.308202246757498e+02 5.881193974415510e+01 5.583405402144861e+01 -1.116459937656182e+02 3.419018445646070e+02 6.273084233130805e+01 -4.016326868959149e+02 2.060382254733202e+03 -3.139051283223379e+03 1.081669028490192e+03 2.018126714101527e+00 -2.274808705871691e+01 2.372996034460812e+01 1.418550602589457e+02 1.339872209350003e+03 -1.478727269608971e+03 3.962948646658260e+02 -3.576385734434722e+01 -3.575310073214857e+02 -1.233240699700320e+03 -6.078651045715592e+02 1.844105804271880e+03 9.355256118605757e+01 -1.200640041839468e+04 1.191584785720863e+04 6.600934815432993e-01 -5.916009071610460e+00 8.255915590052611e+00 -2.905852987139872e+04 -2.898106823632701e+04 5.804259810772571e+04 -3.587730137087243e+04 3.643747598308312e+04 -5.571746122106741e+02 4.853904868673431e+03 3.289370987510403e+02 -5.179841967424497e+03 5.483726300466515e+00 -8.597534670043376e-01 -1.623972833476727e+00 8.673237590192002e-01 1.794541516224854e+00 3.381347247486701e-01 6.872225847182563e-01 3.839186577359212e+00 -1.526409162084746e+00 -1.160007059246709e+01 3.106003277112897e+00 1.149406731535418e+01 -4.147495655357659e+04 2.372487596990434e+03 3.910546895658616e+04 -4.014934678060672e+01 5.218136591636719e+01 -9.032019135767785e+00 2.063460373256610e+03 -4.035083072899709e+03 1.974622699643092e+03 -4.881343810143881e+02 -1.844880372665646e+02 6.756224182809601e+02 -1.860062977867128e+02 1.981792428131374e+02 -9.172945026417487e+00 5.555333727798279e+01 -3.311429214524396e+02 2.785895841744786e+02 -7.612135073527024e+02 -8.644578650044434e+02 1.628671372357131e+03 -8.254384372294298e+02 -6.811428045687719e+02 1.509581241798194e+03 -2.614380293061768e+02 5.377079442723989e+02 -2.732699149662366e+02 3.425360021334200e+01 -9.453188111211642e+02 9.140652109078145e+02 -1.001262026060409e+03 3.755771076830515e+01 9.667043152920816e+02 -1.517945289824762e+03 1.186257371127141e+03 3.346879186976074e+02 -1.601428806640943e+03 3.387973449828345e+02 1.265631461658100e+03 -3.529009098958995e+02 6.247270109218511e+01 2.934282088037143e+02 -4.726881074148914e+02 6.302450241953202e+02 -1.545569167804206e+02 2.896027008939855e+02 2.175219580252813e+02 -5.041246589192963e+02 -2.550059366590722e+01 -7.221453331750669e+01 1.007151269834212e+02 -2.117032981468219e+01 9.755677736096553e+01 -7.338644754628332e+01 5.763093150562781e+00 2.008350847403345e+02 -2.035981778908899e+02 5.620622713911871e+01 5.358363720974008e+01 -1.067898643488661e+02 6.979120568990766e+01 -9.446017191358261e+01 2.766896622366037e+01 -4.374868046589108e+01 8.060866906992298e+01 -3.385998860403927e+01 
</DataArray>
<DataArray type="Float64" Name="U235_conc" format="ascii">
9.699443043236374e-01 8.301939042386443e-01 8.168220654751055e-01 6.467683882601512e-01 6.417100798398020e-01 4.919210179151710e-01 4.895801830703552e-01 3.598481842718407e-01 6.088894136362490e-02 9.571264639598673e-02 9.204930607885478e-02 1.438122055160695e-01 1.391142466156987e-01 2.217045796676095e-01 2.168866148502737e-01 3.613693252545264e-01 3.546757019517885e-01 2.017564895004390e-01 2.073589783500339e-01 1.307832232078238e-01 1.349864633678787e-01 8.655638949103012e-02 8.993385031193232e-02 5.736520276251759e-02 -4.737220794406218e-03 -1.978407964455015e-02 2.452130043895636e-02 -1.283896487363037e-02 1.129419494627217e-01 -7.428607761984614e-02 2.028753824183828e-04 8.773470884541427e-05 -2.906100912637971e-04 2.385446749220713e-01 9.505499484919619e-01 8.088773364829543e-01 -4.810040510492357e-03 4.488061363425333e-03 3.219791470670206e-04 -1.682702549836806e-02 -1.304139763812389e-02 2.986842313649193e-02 -1.691223210064974e-03 1.248216053533536e-03 6.381421939970337e-04 9.311753216994585e-01 -1.338293605173980e-01 9.180211597064259e-01 -3.114166730259759e-03 -8.558608329844326e-03 1.167764737374697e-02 8.557141185754358e-01 3.406353063512215e-02 -9.391458525707737e-02 8.959788478170551e-01 8.755289351229096e-01 -1.850357374839315e-01 1.772124455491674e-02 -6.146691385976377e-03 1.256474250132075e-02 7.192389988705880e-01 5.152291767067591e-02 6.785995032172366e-02 2.297335413465179e-01 7.906895271254546e-01 1.394712654842176e-02 2.655440695533987e-01 -1.146014244820382e-01 1.340876239317277e-01 -4.318877145465582e-04 1.289431597919629e-04 3.029445547545955e-04 8.398620937433681e-01 -1.629216487802510e-01 -4.467900113105228e-02 -9.165092393496336e-03 1.231799053415889e-02 -1.292698989015353e-03 9.011205780008825e-01 8.961505664555565e-01 -6.298316629915594e-02 -7.167217867873253e-02 1.854493567249216e-02 5.746044874081391e-02 1.811669413128229e-03 -1.255612604017062e-03 -5.520454750249489e-05 2.015315405665091e-02 -1.352287480054119e-02 1.187136211463748e-03 -4.833982904483541e-02 3.735792038598717e-02 1.098190865884821e-02 -1.136684237127362e-01 1.395957214180722e-01 -1.991447990858404e-02 3.013664552326881e-01 -1.274103079848681e-01 -1.161862593941405e-01 8.297993259388680e-01 1.410777838605949e-01 -1.443703602025206e-01 2.110124230621392e-03 5.086584078953497e-03 -2.240159440254000e-03 -2.678399095246725e-03 8.691882052584584e-03 3.737570262736110e-03 3.561771661696133e-01 4.456129690343442e-01 -1.854368678486513e-01 1.464958374775050e-03 -3.324825428845359e-02 3.178329591367856e-02 3.975158318163966e-01 -2.016610702335321e-01 4.694050592854960e-01 4.361503615049354e-01 -1.631382633723354e-01 -1.347060229517902e-01 1.671529510073089e-02 -1.310909966646569e-02 6.331070715456623e-03 -6.377948635302019e-03 1.535277625970573e-02 4.038461041798719e-03 -8.915366004112484e-02 6.006138303161023e-02 5.559365022366331e-02 -1.501193942786252e-03 3.236245603576838e-03 -5.996475386053546e-04 1.021027107322888e-01 -8.329455694609564e-02 4.428185616427781e-02 8.055902510054155e-02 1.354581657901187e-02 -5.659745719561041e-02 4.739295490723118e-04 -4.128438783955816e-03 3.899671897307245e-03 -5.234109484152826e-03 8.276824276300375e-03 -3.042714792147557e-03 -4.870565537542736e-02 -3.804998362122401e-02 9.865493096694861e-02 1.761420650983712e-04 -3.867656315915549e-04 2.106235664931835e-04 -8.573182136396219e-03 6.539437737394040e-03 2.033744399002174e-03 -4.902381736098614e-02 1.238800511858445e-01 8.544949333393063e-01 -5.983067170344014e-03 3.732432341756135e-02 -2.649057069462322e-03 -3.226901583293131e-02 -6.022134857927301e-02 1.230230545075617e-01 -2.124181405589766e-03 8.601414958341566e-03 -5.443911115113411e-03 5.748440605639292e-02 -2.633407347903828e-02 7.198804235798327e-02 8.990925423528546e-01 9.260256619953849e-02 -7.052221092518410e-03 9.159190456383249e-01 -1.090950173672478e-01 9.009572165993480e-01 8.977072875935654e-01 9.097772907366288e-01 -9.513452412889931e-02 1.151241166519887e-02 9.361594442503595e-03 -7.977868713378054e-03 -4.582750014309394e-02 3.229509966317193e-02 1.353240047992199e-02 8.425528738654258e-01 -7.058313627305797e-02 1.074206767079319e-01 9.479284535576438e-01 9.317958620920769e-02 9.479284535576682e-01 -3.185148549208645e-02 -2.898644989424032e-03 9.370561787151402e-02 9.109066870166684e-01 -8.167588914419158e-02 9.089338758169621e-01 7.315406527685277e-02 -1.789696109923295e-02 8.009302342772560e-03 2.216297990856741e-04 -6.246514313923651e-04 6.968381974975015e-04 -4.249770307696341e-02 1.025838445184867e-01 -4.238026152067798e-02 9.142563312343863e-01 9.185705554123547e-01 -7.037404683404494e-02 -2.273793909422503e-05 8.231970014847480e-04 -4.670487961099278e-04 -3.057797593442743e-03 3.434618573629822e-03 3.372234464562553e-03 -2.944981400386476e-04 3.385981048159032e-03 -2.853643868353891e-03 -4.218317628653698e-03 -2.341693941111001e-02 5.540565267448075e-02 9.586956537049435e-02 4.630180615457913e-02 8.877551540159186e-01 9.316525609619328e-01 9.205109667602465e-01 3.470584828674245e-02 8.611757933439799e-01 -4.268669311730479e-02 8.793415602759801e-02 -5.629490257378018e-02 5.553703731293391e-02 2.533718830362138e-02 -1.841346023291248e-01 8.420355671707133e-01 -1.462421994309013e-02 -9.003988889858625e-04 -8.384178233310537e-04 1.738816712316916e-03 -8.279246699052127e-04 1.037987893073130e-03 1.133794502548070e-03 9.079286528936421e-01 -2.895709946678256e-02 8.957026674632148e-01 1.168284812730021e-03 -8.575907957212032e-04 5.368777801958742e-04 8.389179508095036e-04 1.298758212157976e-03 -2.137676162967478e-03 -2.405322952887761e-03 2.042136965565524e-03 4.407834598933113e-04 8.144475282926009e-03 -6.033179213695668e-03 6.761607752367124e-05 1.479477196255463e-04 -1.596255365168469e-04 3.520760566398782e-04 -3.513165527821062e-03 5.584040215881175e-03 -1.266879802947064e-03 6.437423320827258e-04 -1.167353239047731e-05 -5.053745786778757e-04 5.867255497223182e-02 -3.945450975343170e-05 -1.187632757397354e-02 8.542572265924686e-02 -4.839996907096655e-02 4.621181357927050e-02 -9.306114584563731e-06 -8.117618304392527e-05 1.256424028530615e-04 9.460702666748459e-01 9.446164232823313e-01 5.606179089308273e-02 8.614490809072519e-01 -6.956442150680688e-02 1.281036066414748e-01 6.854590894258369e-02 -5.433559717786719e-03 -2.078394650491033e-02 2.036878647633751e-05 -9.770017934536604e-05 3.269137413836383e-04 3.556292791235244e-06 -1.910771488790357e-05 1.555142209666832e-05 5.823630788429766e-05 9.458300083911640e-07 -5.918213789268879e-05 3.642372692045863e-04 -2.011702462093475e-04 -6.658845777225060e-05 9.155145538461047e-01 1.170942143149060e-01 5.975936546171984e-02 4.459136362207584e-04 6.939938236245751e-04 -3.957996021123339e-04 7.669417147676687e-02 3.257205562549362e-01 8.323280394983050e-02 5.982428895872655e-02 -5.171488421425214e-03 -3.180921919026876e-02 3.782213040124761e-02 -1.371765898065888e-02 -7.242607705269291e-03 4.376627637083862e-02 5.954514381195807e-02 -2.336495091371868e-02 1.446167736562356e-01 1.336497395313929e-01 -6.463575460689160e-02 1.267678527526438e-01 1.374805867055305e-01 -5.999728033752302e-02 7.786548277083498e-03 -1.637874046468330e-02 8.592192187599799e-03 6.774771502670110e-02 9.590634514579480e-02 -4.867568270431215e-02 1.016903101163373e-01 7.209270699398260e-02 -5.117291507463175e-02 1.019551239011674e-01 -3.625952883688564e-02 -4.359711200222525e-02 1.074107717280185e-01 -4.472013660341879e-02 -3.907888977715820e-02 6.492382135495978e-02 4.799205273774095e-02 -2.386345504349526e-02 5.630299405700066e-02 -3.071579946343215e-02 -7.774068029883406e-03 8.227787777215753e-02 8.678789148134866e-02 -1.670853383179748e-02 1.642309570761460e-03 3.073236321192502e-03 -3.812678781179177e-03 1.489608823811952e-03 -3.717782038214753e-03 3.042376394584120e-03 -9.782932320981355e-03 -1.372962717099949e-02 4.163545447356000e-02 -3.092846062244001e-03 -2.821272352014336e-03 5.914118414258341e-03 -3.693414308324208e-03 5.470140023661600e-03 -1.776725715337390e-03 9.359538291523003e-04 -3.392096364055422e-04 3.048724996208034e-04 
</DataArray>
</PointData>
</Piece>
</UnstructuredGrid>
</VTKFile>
