<?xml version="1.0"?>
<VTKFile type="UnstructuredGrid" version="0.1" byte_order="LittleEndian">
<UnstructuredGrid>
<Piece NumberOfPoints="8154" NumberOfCells="2718">
<Points>
<DataArray type="Float64" NumberOfComponents="3" format="ascii">
0 0 0 0.05842534974831818 0.058425349748568167 0 0 0.10000000000041601 0 0 0 0 0.05842534974831818 0.058425349748568167 0 0.099999999999814668 0 0 0.05842534974831818 0.058425349748568167 0 0 0.10000000000041601 0 0.072340659132099805 0.15787534671757081 0 0.05842534974831818 0.058425349748568167 0 0.11736878855947019 0.099262147589397345 0 0.072340659132099805 0.15787534671757081 0 0.05842534974831818 0.058425349748568167 0 0.11736878855947019 0.099262147589397345 0 0.099999999999814668 0 0 0 0.20000000000083221 0 0.076754417114036966 0.24517625929728579 0 0 0.30000000000124832 0 0 0.20000000000083221 0 0.072340659132099805 0.15787534671757081 0 0.076754417114036966 0.24517625929728579 0 0 0.10000000000041601 0 0 0.20000000000083221 0 0.072340659132099805 0.15787534671757081 0 0.11736878855947019 0.099262147589397345 0 0.072340659132099805 0.15787534671757081 0 0.15713224427556369 0.19462055031758391 0 0.072340659132099805 0.15787534671757081 0 0.076754417114036966 0.24517625929728579 0 0.15713224427556369 0.19462055031758391 0 0.076754417114036966 0.24517625929728579 0 0.15713224427556369 0.19462055031758391 0 0.13575432176650609 0.26177349842400482 0 0.15713224427556369 0.19462055031758391 0 0.1941589268096966 0.28301425698743637 0 0.13575432176650609 0.26177349842400482 0 0.11736878855947019 0.099262147589397345 0 0.15713224427556369 0.19462055031758391 0 0.2049592257883151 0.1136587120754589 0 0.15713224427556369 0.19462055031758391 0 0.23632615701395029 0.16695287371417161 0 0.2049592257883151 0.1136587120754589 0 0.23632615701395029 0.16695287371417161 0 0.2049592257883151 0.1136587120754589 0 0.28999131001604278 0.1096412864478291 0 0.15713224427556369 0.19462055031758391 0 0.23632615701395029 0.16695287371417161 0 0.2299760630703524 0.2225257972182236 0 0.15713224427556369 0.19462055031758391 0 0.2299760630703524 0.2225257972182236 0 0.1941589268096966 0.28301425698743637 0 0.099999999999814668 0 0 0.17145071998201811 0.060258457788043909 0 0.19999999999955789 0 0 0.11736878855947019 0.099262147589397345 0 0.099999999999814668 0 0 0.17145071998201811 0.060258457788043909 0 0.11736878855947019 0.099262147589397345 0 0.17145071998201811 0.060258457788043909 0 0.2049592257883151 0.1136587120754589 0 0.17145071998201811 0.060258457788043909 0 0.2049592257883151 0.1136587120754589 0 0.23947795756627041 0.055127514674138137 0 0.2049592257883151 0.1136587120754589 0 0.23947795756627041 0.055127514674138137 0 0.28999131001604278 0.1096412864478291 0 0.23947795756627041 0.055127514674138137 0 0.19999999999955789 0 0 0.29999999999926641 0 0 0.17145071998201811 0.060258457788043909 0 0.23947795756627041 0.055127514674138137 0 0.19999999999955789 0 0 0.23947795756627041 0.055127514674138137 0 0.29999999999926641 0 0 0.28999131001604278 0.1096412864478291 0 0.29999999999926641 0 0 0.35406483083248758 0.078537905902684224 0 0.3999999999989749 0 0 0.35406483083248758 0.078537905902684224 0 0.28999131001604278 0.1096412864478291 0 0.37053906278907522 0.16071991210652001 0 0.29999999999926641 0 0 0.35406483083248758 0.078537905902684224 0 0.28999131001604278 0.1096412864478291 0 0.23632615701395029 0.16695287371417161 0 0.28999131001604278 0.1096412864478291 0 0.29454411933247859 0.1942182557279433 0 0.29454411933247859 0.1942182557279433 0 0.31214747383698288 0.25112655154953339 0 0.26096379286661558 0.26049523993944562 0 0.23632615701395029 0.16695287371417161 0 0.2299760630703524 0.2225257972182236 0 0.29454411933247859 0.1942182557279433 0 0.2299760630703524 0.2225257972182236 0 0.29454411933247859 0.1942182557279433 0 0.26096379286661558 0.26049523993944562 0 0.34214461957799158 0.21523300106526999 0 0.37053906278907522 0.16071991210652001 0 0.3848394463845129 0.2263717102278168 0 0.29454411933247859 0.1942182557279433 0 0.34214461957799158 0.21523300106526999 0 0.37053906278907522 0.16071991210652001 0 0.29454411933247859 0.1942182557279433 0 0.34214461957799158 0.21523300106526999 0 0.31214747383698288 0.25112655154953339 0 0.34214461957799158 0.21523300106526999 0 0.35426299167392977 0.25566377588317091 0 0.31214747383698288 0.25112655154953339 0 0.34214461957799158 0.21523300106526999 0 0.3848394463845129 0.2263717102278168 0 0.35426299167392977 0.25566377588317091 0 0.3848394463845129 0.2263717102278168 0 0.38383376806569858 0.26564947200433758 0 0.35426299167392977 0.25566377588317091 0 0.28999131001604278 0.1096412864478291 0 0.29454411933247859 0.1942182557279433 0 0.37053906278907522 0.16071991210652001 0 0.37053906278907522 0.16071991210652001 0 0.41260066262683931 0.20084244419234801 0 0.44588396814009912 0.17331830423126529 0 0.37053906278907522 0.16071991210652001 0 0.44588396814009912 0.17331830423126529 0 0.41114656741565858 0.1169976912362575 0 0.37053906278907522 0.16071991210652001 0 0.3848394463845129 0.2263717102278168 0 0.41260066262683931 0.20084244419234801 0 0.41260066262683931 0.20084244419234801 0 0.44102434814492297 0.21276705521226619 0 0.44588396814009912 0.17331830423126529 0 0.41260066262683931 0.20084244419234801 0 0.42308142495795342 0.2341556686316493 0 0.44102434814492297 0.21276705521226619 0 0.3848394463845129 0.2263717102278168 0 0.41260066262683931 0.20084244419234801 0 0.42308142495795342 0.2341556686316493 0 0.3848394463845129 0.2263717102278168 0 0.42308142495795342 0.2341556686316493 0 0.41326197172237811 0.26477705272558139 0 0.42308142495795342 0.2341556686316493 0 0.45279136658191632 0.2454645808094798 0 0.43237610775568341 0.25442832268994081 0 0.45279136658191632 0.2454645808094798 0 0.44102434814492297 0.21276705521226619 0 0.47076431841780703 0.21005427819658859 0 0.42308142495795342 0.2341556686316493 0 0.45279136658191632 0.2454645808094798 0 0.44102434814492297 0.21276705521226619 0 0.45279136658191632 0.2454645808094798 0 0.47076431841780703 0.21005427819658859 0 0.4815757853575543 0.24579687230515479 0 0.45279136658191632 0.2454645808094798 0 0.4815757853575543 0.24579687230515479 0 0.46983414298779852 0.25850080530540981 0 0.44102434814492297 0.21276705521226619 0 0.47076431841780703 0.21005427819658859 0 0.44588396814009912 0.17331830423126529 0 0.47076431841780703 0.21005427819658859 0 0.44588396814009912 0.17331830423126529 0 0.50086900227669984 0.19286909959646639 0 0.47076431841780703 0.21005427819658859 0 0.50086900227669984 0.19286909959646639 0 0.50493807540744373 0.22547032939714651 0 0.47076431841780703 0.21005427819658859 0 0.4815757853575543 0.24579687230515479 0 0.50493807540744373 0.22547032939714651 0 0.4815757853575543 0.24579687230515479 0 0.50493807540744373 0.22547032939714651 0 0.5053074179542888 0.25558383997991369 0 0.44588396814009912 0.17331830423126529 0 0.4677358305654189 0.12029665150275309 0 0.41114656741565858 0.1169976912362575 0 0.44588396814009912 0.17331830423126529 0 0.50425007665466071 0.1543133975765052 0 0.50086900227669984 0.19286909959646639 0 0.44588396814009912 0.17331830423126529 0 0.4677358305654189 0.12029665150275309 0 0.50425007665466071 0.1543133975765052 0 0.4677358305654189 0.12029665150275309 0 0.51867624734975648 0.088315711926529455 0 0.50425007665466071 0.1543133975765052 0 0.4677358305654189 0.12029665150275309 0 0.45872229326691988 0.068538152543207831 0 0.41114656741565858 0.1169976912362575 0 0.4677358305654189 0.12029665150275309 0 0.45872229326691988 0.068538152543207831 0 0.51867624734975648 0.088315711926529455 0 0.45872229326691988 0.068538152543207831 0 0.49999999999869432 0 0 0.51867624734975648 0.088315711926529455 0 0.45872229326691988 0.068538152543207831 0 0.49999999999869432 0 0 0.3999999999989749 0 0 0.45872229326691988 0.068538152543207831 0 0.3999999999989749 0 0 0.41114656741565858 0.1169976912362575 0 0.35406483083248758 0.078537905902684224 0 0.3999999999989749 0 0 0.41114656741565858 0.1169976912362575 0 0.35406483083248758 0.078537905902684224 0 0.37053906278907522 0.16071991210652001 0 0.41114656741565858 0.1169976912362575 0 0.43249173470276692 0.43605546750222562 0 0.39881017495814691 0.37981101166726439 0 0.36836445410485769 0.42067733685348679 0 0.43249173470276692 0.43605546750222562 0 0.39881017495814691 0.37981101166726439 0 0.45522499340423078 0.37613645989242978 0 0.39881017495814691 0.37981101166726439 0 0.36836445410485769 0.42067733685348679 0 0.36154998589044901 0.38764479892760112 0 0.43249173470276692 0.43605546750222562 0 0.38189419247384238 0.4721560634170604 0 0.36836445410485769 0.42067733685348679 0 0.43249173470276692 0.43605546750222562 0 0.38189419247384238 0.4721560634170604 0 0.42909338950739018 0.52467798151510692 0 0.43249173470276692 0.43605546750222562 0 0.42909338950739018 0.52467798151510692 0 0.5 0.49999999999978328 0 0.43249173470276692 0.43605546750222562 0 0.5 0.40999999999999998 0 0.5 0.49999999999978328 0 0.43249173470276692 0.43605546750222562 0 0.45522499340423078 0.37613645989242978 0 0.5 0.40999999999999998 0 0.45522499340423078 0.37613645989242978 0 0.50132877827535338 0.35252027608574538 0 0.5 0.40999999999999998 0 0.45522499340423078 0.37613645989242978 0 0.46667455788352991 0.33788550640099418 0 0.50132877827535338 0.35252027608574538 0 0.48720285358562221 0.3239045130877074 0 0.46667455788352991 0.33788550640099418 0 0.50132877827535338 0.35252027608574538 0 0.48720285358562221 0.3239045130877074 0 0.48192289753786849 0.30643335198073812 0 0.5 0.31 0 0.48720285358562221 0.3239045130877074 0 0.5 0.31 0 0.51253325434506491 0.32271926641898069 0 0.48720285358562221 0.3239045130877074 0 0.46075763347191678 0.31386867763978632 0 0.48192289753786849 0.30643335198073812 0 0.48720285358562221 0.3239045130877074 0 0.46667455788352991 0.33788550640099418 0 0.46075763347191678 0.31386867763978632 0 0.46075763347191678 0.31386867763978632 0 0.43666021677150701 0.30666666666668119 0 0.43204471460558852 0.34054649
[...]
<PointData Scalars="temperature,region_id," Vectors="" Tensors="">
<DataArray type="Float64" Name="temperature" format="ascii">
272.99999999999375 273.00000000001035 273.0000000000116 273.00000000000017 272.99999999999994 273.00000000000136 273.00000000003581 273.00000000001882 272.99999999986994 273.00000000009538 272.99999999978905 272.99999999977894 272.99999999999892 272.99999999998704 273.00000000000324 272.99999999979144 273.0000000000889 273.00000000022231 272.99999999997891 273.00000000097367 272.9999999992217 272.99999999989251 273.00000000013716 273.00000000020481 272.99999999950808 272.99999999968946 273.00000000333398 273.00000000198526 272.9999999984102 272.99999999335824 273.0000000051935 272.99999997701468 273.00000000550074 272.99999995901618 273.00000012004131 273.00000001395694 272.99999999814293 273.00000000576443 272.99999999603142 273.00000001432261 273.00000001725647 272.99999998960487 273.00000000299434 272.99999999423733 273.00000008550478 273.00000002210777 273.00000007109912 272.99999980029918 272.99999991336767 273.00000002965152 273.0000001797714 273.00000000001097 272.99999999995862 273.00000000003843 272.99999999997993 273.0000000000075 272.99999999998329 272.99999999991383 273.00000000000159 273.00000000074147 272.99999999957765 273.00000000143143 272.99999999839645 273.0000000029043 272.9999999970434 273.00000000500148 272.99999999995242 273.00000000004042 272.99999999975404 272.99999999989683 272.99999999987864 273.00000000009061 273.00000000000341 272.99999999952945 273.00000000065126 272.99999999999375 272.9999999999643 273.00000000016507 273.00000001156883 272.99999999844397 272.99999998666033 272.999999999159 273.00000000218967 273.00000000103717 272.99999997402608 273.00000015210867 272.99999983411328 272.99999618082961 273.00001581325273 273.00000431154217 273.00000020084326 272.99999962775456 272.99999924461514 272.9999998450333 272.99999793619008 273.00000273345302 273.00000741772351 272.9999919345409 273.00003863934455 273.00000059864755 273.00000407590881 272.99999623021881 272.99999207965118 272.99997027492657 273.00001986099579 272.99992252441251 273.00022615845216 273.00006481167844 272.99985995198921 272.99957906726655 273.00031615708929 272.99907839885361 273.00300038913622 273.00077897773843 273.00000027794374 272.99999972707911 272.99999909203865 273.00000042299831 272.99999851591826 273.00001167643069 273.00000002521779 273.00000012924761 272.99999985812883 272.99997739941779 273.00005407605835 272.9999925441806 272.99998960739816 272.99994302098122 273.00002604328967 272.9998772397937 273.00032167514036 272.99992872026422 273.00014698927077 272.99995130426464 273.00027122682928 272.9972061621167 272.99895696862404 273.00892883050784 272.99845337215072 273.00114705235194 273.00693869631385 273.00143750414662 272.99975231760914 272.99959641816235 273.00050945770113 273.00130904173034 272.9998252329919 273.00187761592764 272.99931893669697 273.00193960693525 273.00202345073114 272.98740482407459 273.04628647755158 272.99991937506718 272.9999627786637 273.00004616455584 273.00002684728742 272.99998902536839 273.00001748767397 273.00004535443526 273.00002863480756 273.00002682937981 272.99864132418719 273.00357518789735 272.99846345466864 273.00687704365322 272.99631025175756 273.00796578061102 273.00000009049677 272.99999997080249 272.99999996874351 273.00000047778957 272.99999989587832 272.99999958373138 273.00000015670656 272.99999993420909 272.99999998483059 273.00000000028041 272.99999999734155 273.00000000181819 272.99999999907658 273.00000000124498 273.00000000007094 272.99999999861569 273.00000000195035 273.00000000032134 273.00000000338639 272.99999998554591 273.00000000633503 273.00000000013017 272.99999999284029 273.00000000073771 273.00000000042792 273.00000000017906 273.00000000009697 272.99999999982026 273.00000000036113 273.00000000003149 273.00000000876247 272.99999998345231 272.99999994615729 273.00010684778562 272.99986687576791 273.00001509638912 273.0001850888475 272.99977026941718 272.99999792646577 272.99989298026162 273.00001310132882 272.9999615003656 273.00003038571253 272.99998706550014 273.0000210044447 273.0000006466276 273.0000002472309 272.99999963393424 273.00000069793953 272.99999975264706 272.99999974852363 273.00000153692872 273.0000055152239 272.99999923320047 272.99987976281335 273.00034239238545 272.9997501080623 273.00088569483148 273.00219942754728 272.99932592956537 272.98232057074864 273.05096942543349 272.98598093068227 273.3323676296057 273.09918944994462 272.94730277933172 273.46809406018451 273.75820879966437 274.03892959027866 273.40815977055081 274.08870343017617 273.589688856988 273.49214700775116 273.2856519534904 273.71090942544242 273.40425520469421 273.08141097887631 273.3189538278537 273.23592838029236 273.12898088540351 273.01483178258752 273.10076665409878 273.26295941006578 272.98791128619604 272.98804497737052 273.04492879141196 273.02226179279035 272.97215968910797 273.06162643432543 273.14830583830917 272.96174188986004 273.13760174033285 273.16027460681954 272.97858545196419 273.12073408663957 273.00142751339246 273.17850036138526 273.17550762218218 273.64142327908525 273.14282336233634 273.70168612267889 273.34280090058144 273.20886767305075 273.46554691681666 273.18269569338349 273.04558061788185 273.18098990064385 273.19325269161601 273.18087453003562 273.50319389398663 273.64388460396083 273.4938897294158 273.74654311529531 273.42603150869593 273.46843660216018 273.43895682555893 273.19573999191402 273.47482117424619 273.75026880870291 273.78442206837315 273.73442609746604 274.03706797025808 274.09982731231622 273.68615179952894 274.11996614467387 273.88623847276295 274.00461779001608 274.16241889780008 274.12455045385491 273.99996811704784 273.9898026698807 274.15364077464426 273.75765648084013 274.01242103495326 273.78077821203857 273.99698633659438 273.77591204301257 273.99315735401785 274.01256203647517 273.71986725125026 274.10355505840829 273.76715109426897 273.98989958471071 273.7144298330673 274.00376499392894 274.11598787505636 274.14998009228998 273.99317777418793 274.1508405175864 274.15397790121943 273.30159440138635 273.66935558721468 273.43983024063658 273.75388828277511 273.71214136368206 273.42183644581968 273.31266219447934 273.19682806264592 273.41675127659943 273.29384489458874 273.20479938985051 273.10873159977285 273.17999861051146 273.08782618655482 273.06693780185691 273.19658557984451 273.40912070298236 273.21620650749895 273.19849828010183 273.20648957370696 273.07744869453614 272.9889287276165 273.13968584690014 273.08115064912522 272.99753803950779 273.07231740623405 273.00990089243328 272.97485851977621 273.05635518310754 273.15610088669501 272.99643873885481 273.01373069075925 273.01000280893334 273.06255355547898 273.01416199200406 273.0145404598141 273.07467485297286 273.00983062830119 273.06819520595991 273.01650871571047 273.06016369983945 273.02655743791519 273.18538104707812 273.06759169257469 273.11857890752844 273.07075291071754 273.10965634621647 273.04203701654575 273.06537605975302 273.02214555169496 273.04395508671627 273.0242040542845 273.0372549452473 273.00742877721382 273.02089368183209 273.00926102438109 273.00576823581343 273.02011019269617 273.00426456202092 273.00639165412497 272.99825786661097 273.00764890708246 273.00377077961656 273.01652761827171 273.02401313586364 273.00163172513805 272.99751000098991 273.01178234327506 273.00555524118596 272.99616571819178 272.99438288415837 273.01361823290745 273.11509796640786 273.02783277616589 273.04253090579095 273.02763157585991 273.03831633650748 273.00190940048327 273.00526408101746 273.00690128258282 272.99890776334308 273.0319055576573 273.00604359888615 273.00864581846611 272.99894287902225 273.00398536673072 273.00058248678516 272.99940095531895 273.00026734166585 272.99982744499653 273.00577805294591 272.99986011555592 273.00233799255773 273.00023340392295 273.00185983678887 273.00027326982251 273.00018940923019 273.0002250753077 272.99994119944091 273.00009619664075 273.00001568837251 272.99996634573034 273.00395458820566 272.99978066141642 273.00558687067547 273.00055809205008 273.00434711622881 273.00090626960355 273.00217956066945 273.00478154514281 273.00065917651256 273.00828827045507 273.0017277326063 273.00597443057234 273.00178282927703 273.00031600332159 273.00083934582051 273.00035633493138 273.00068671463578 273.0000528141714 273.00051867042384 273.00076533594319 272.9998859301017 273.00057646070024 273.00002380254978 273.00013871481571 273.00003743919132 273.00010608587331 272.99998429610429 273.00007675737197 273.00000497654224 273.00001687214268 273.00008390776003 273.00003280970481 273.00000666333102 273.00016892195708 272.99998230112698 273.00003201035753 273.00025876216023 273.00010354831335 273.00002409557203 273.00002119449954 273.00001121469842 272.99999912116101 272.99999281317002 273.0000210890737 272.99999306009261 273.00001447055172 272.99999712475693 273.00000026466557 273.00000036575483 272.99999797646097 272.99999945404579 272.9999997807659 273.00000010831428 272.99999992552711 272.99999935975893 272.9999985331707 273.0000016676135 272.99999971402173 273.00000118131595 273.00000012231794 273.00000331502196 273.0000013189391 272.99999684162265 273.00000485808829 272.99999542120122 272.99998034986834 272.99999782668277 273.00000580697048 273.00000232539946 273.00014419305592 272.99993300393299 272.99989979305093 272.99999578857933 273.00000565637106 272.99996964245804 272.99999415500184 273.00001215413238 272.99999886235702 272.99999830231008 272.99999874336254 273.00000073737766 272.99999921655734 273.00000040803093 273.00000028334517 272.99999947913102 273.00000002308815 273.00000011122114 273.00000009898702 273.00000029776538 272.99999975418126 273.00000019572678 272.99999985900104 273.00000004348146 272.99999994787078 272.99999999020366 273.00000000622231 272.9999999932964 272.99999999905003 273.00000000198855 272.99999999977342 273.00000000090671 273.00000000008026 273.0000000172621 272.99999999405952 273.00000000296092 273.00000003263693 272.99999996380842 272.99999998104505 273.00000009260947 273.00000005477801 272.99999995165706 272.99999941660974 272.99999990527908 272.99999978115318 272.99999990424323 273.00000002636523 272.99999982924004 272.99999997497304 272.99999999531121 273.00000001328823 272.99999999607576 272.9999999990373 273.00000000169837 272.99999999976347 273.00000000075465 273.00000000008083 272.9999999998721 273.00000000000722 273.0000000000249 273.00000007819403 273.00000273439656 273.00000025274426 273.00000589751011 272.99999787782968 273.00001217131256 273.00000090083529 273.00000859028967 273.00000132281593 273.00000085420601 273.00000107796296 272.99999985744557 272.99999995658311 272.99999993876639 273.00000003309617 273.00000055506734 273.00000000671508 272.99999992551813 273.00000000886712 273.00000000652051 272.99999998049543 273.0000002558304 272.99999997953802 273.0000000514388 272.99999999139152 272.99999999546651 273.00000002726529 273.00000000168438 273.00000000914832 272.99999999795961 273.0000000035555 272.99999998894612 273.00000000085731 272.99999999974682 272.99999999979042 273.00000000015729 273.00000000091285 272.99999999900859 273.00000000002473 273.00000000001006 273.00000000000995 272.99999999999449 272.99999999986824 273.00000000002018 273.00000000002387 273.00000000112988 273.00000000081997 272.99999999949966 273.0000000004743 272.99999999977962 272.99999999997192 272.99999999993844 272.99999999995816 273.00000000002626 273.000000000005 272.99999999999909 272.99999999999784 272.9999999999996 272.99999999999949 273.00000000000045 273.00000000000648 272.99999999999676 273.00000000001035 273.00000000000034 272.99999999999966 273.00000000000057 273.00000000000045 272.99999999999943 273.0000000000004 272.99999999999932 273.00000000000085 272.99999999999966 273.00000000000148 272.99999999999852 273 272.99999999999983 273.00000000000017 273.00000000000011 273.00000000000006 272.99999999999858 273.00000000000091 272.99999999999932 272.99999999999972 273.00000000000045 273.00000000000034 273.00000000000102 273.0000000000004 272.9999999999975 273.00000000000205 273.00000000000057 273.00000000000034 273.00000000000125 273 273.00000000000176 272.99999999999926 272.99999999999778 272.99999999999932 272.99999999999852 273.00000000000028 273.00000000000261 273 272.99999999999966 273.00000000000347 272.99999999999233 272.9999999999992 272.99999999999909 273.00000000000188 272.99999999999869 272.99999999999523 272.99999999999164 272.99999999999898 273.00000000000426 273.00000000001563 272.99999999999858 272.99999999998721 273.00000000000153 273.00000000002552 272.99999999997476 273.00000000004047 273.00000000005781 273.00000000008436 272.99999999965019 272.99999999868032 273.00000002316779 273.00000000016524 272.99999999658343 272.99999999998897 272.99999999976473 272.99999999999602 272.99999999999619 272.99999999999761 273.00000000000091 273.0000000000004 273.00000000000051 272.99999999999966 272.99999999999574 272.99999999999989 273.00000000000119 272.99999999999858 272.99999999999829 273.00000000000153 272.99999999999864 273.00000000000023 272.99999999999977 272.99999999999932 272.99999999999949 273.00000000000034 272.99999999999926 273.0000000000004 273.00000000000006 273.00000000000114 273.00000000000034 272.9999999999996 273.00000000000034 272.99999999999886 272.99999999999881 272.99999999999989 273.00000000000006 273.00000000000114 272.99999999999989 272.99999999999955 273.00000000000011 273.00000000000034 273 272.99999999999972 272.99999999999983 273.00000000000028 272.99999999999881 272.99999999999756 273.00000000000364 272.99999999999824 272.99999999999932 273.00000000000171 273.00000000000256 273.00000000000244 272.99999999999579 272.99999999999955 273.00000000000318 272.99999999999869 273.00000000000017 273.00000000000097 272.99999999999937 273.00000000000182 272.99999999999403 272.99999999999835 273.00000000000557 273.0000000000004 273.0000000000008 272.99999999999812 272.99999999999852 273.00000000000108 272.99999999999881 273.00000000000188 273.00000000000273 272.9999999999971 273.00000000000222 272.99999999999909 272.99999999999744 272.9999999999971 273.00000000000023 273.00000000000153 272.99999999997755 272.999999999978 273.00000000025568 272.99999999999238 272.99999999998704 273.00000000000767 273.00000000000375 272.99999999999392 273.00000000000489 272.99999999999761 272.99999999999591 273.00000000000347 273.00000000000597 273.00000000000045 272.9999999999593 273.00000000000085 272.99999999999784 272.99999999999193 272.99999999999767 273.00000000000074 272.99999999999142 273.00000000000091 273.0000000000054 273.00000000000318 272.99999999999756 272.9999999999938 273.00000000000335 273.00000000000432 273.00000000000688 272.99999999999943 272.99999999999704 273.00000000000426 273.00000000000193 272.99999999998408 273.0000000000133 272.99999999999375 273.00000000000688 273.00000000000352 272.99999999999784 272.99999999999767 273.00000000000381 273.0000000000054 273.00000000000898 272.999999999995 273.00000000000739 273.00000000000409 273.00000000000091 272.99999999999591 272.99999999999807 272.99999999999443 273.00000000001143 272.99999999999312 272.99999999999676 272.9999999999992 272.99999999999517 272.9999999999954 273.0000000000021 272.99999999999687 272.99999999999181 273.00000000000398 272.99999999999841 273.0000000000087 272.99999999997618 272.99999999999233 273.0000000000054 273.0000000000079 272.99999999999199 273.0000000000083 273.00000000001722 273.00000000002484 272.99999999997567 273.00000000001563 273.00000000001836 272.99999999996123 273.00000000002012 273.00000000002933 273.00000000003666 273.00000000003052 272.99999999989234 273.00000000037772 272.9999999998459 272.99999999999733 272.99999999998687 273.00000000000813 272.99999999797899 273.00000000209633 272.99999999893316 273.00000000000978 273.00000000020236 273.0000000000004 272.99999999902167 272.99999999972584 273.00000000084594 272.99999999999886 272.99999999997607 272.99999999998931 272.99999999992679 273.00000000000301 273.00000000046822 273.00000000001785 272.99999999992667 273.00000000049289 272.99999999967861 273.00000000081963 273.00000000084896 273.00000000146895 273.00000000156086 272.99999997420821 273.00000000100692 273.00000000082343 272.99999998993133 273.0000000065902 272.9999999790295 273.00000000528973 272.99999999982492 273.00000000063142 273.00000000052495 272.99999999988779 273.00000000007503 272.99999999996004 272.99999999978735 273.00000000086436 273.00000000016399 273.00000000000108 273.0000000000058 272.99999999998909 273.00000000001916 273.00000000024573 272.99999999986852 273.00000000000608 272.99999999997937 272.9999999999315 272.99999999939149 273.00000000127392 273.00000000260712 273.00000006134286 272.99999997546536 272.99999999667369 273.00000000208149 272.99999998931008 272.99999999380861 272.99999999641039 272.99999999461363 273.00000000245609 273.00000000067007 272.99999999303469 273.00000000205961 272.99999999569383 273.00000000149731 273.0000000003443 272.99999999861177 272.99999999926405 273.00000000039648 273.00000003380535 273.00000004427039 272.9999999879326 273.00000000001569 272.99999999948989 273.00000000021021 273.00000000004343 272.99999999998278 273.00000000000762 272.99999999999642 273.00000000000273 273.00000000000296 273.00000000000057 272.99999999999187 272.99999999999329 272.99999999998965 273.00000000001359 272.99999999999864 273.00000000001046 272.99999999998113 273.00000000000728 273.00000000000159 272.99999999999505 272.99999999999983 272.99999999999324 273.00000000001091 273.00000000000148 273.00000000000136 273.00000000000739 272.99999999999704 272.99999999999505 273.00000000000796 273.00000000000273 272.99999999999204 272.99999999999619 273.00000000001324 272.99999999998971 272.99999999999898 272.99999999998613 273.00000000000682 272.99999999998164 273.00000000000119 272.99999999999528 273.00000000000801 273.00000000001029 273.00000000000296 273.00000000000273 273.00000000001995 272.99999999999773 272.99999999999193 272.99999999999636 273.0000000000083 273.00000000001586 272.99999999999102 273.00000000001194 273.00000000001273 272.99999999998005 272.999999999968 273.00000000001211 273.00000000000171 273.00000000000068 273.00000000000654 273.000000000005 273.00000000000068 272.99999999998408 272.99999999999159 272.99999999998988 273.00000000000659 273.00000000000011 272.99999999998852 273.00000000001842 272.99999999998602 272.99999999999386 273.00000000002888 272.99999999999295 273.00000000000625 273.00000000000591 273.00000000001597 273.00000000007992 272.99999999991104 272.99999999988205 272.99999999998306 273.00000000003422 272.99999999993344 273.00000000001057 272.99999999997453 273.00000000000381 272.99999999998823 273.00000000000358 272.99999999999341 273.000000000005 273.00000000001688 272.99999999998795 273.00000000002467 273.00000000008498 273.00000000000733 273.00000000001245 273.00000000000705 272.99999999998653 273.00000000001296 272.99999999998693 272.99999999999409 272.99999999999875 272.99999999997868 273.00000000002808 272.99999999996771 273.00000000003411 273.00000000000006 272.99999999995646 273.00000000001307 273.00000000002171 273.000000000054 272.99999999996891 273.00000000000909 273.00000000000693 272.99999999996368 272.99999999997647 273.00000000001614 273.00000000003655 272.99999999995748 273.00000000000063 272.9999999999992 272.99999999999932 272.99999999992218 273.00000000001427 273.00000000000483 272.99999999999625 272.99999999997448 273.00000000000102 272.9999999999809 273.00000000001842 272.99999999999091 272.99999999999073 272.99999999997561 272.99999999997237 272.99999999999733 272.99999999996857 273.00000000001523 272.99999999998153 273.00000000003274 272.99999999998249 272.99999999999659 273.00000000004042 273.00000000000449 273.00000000003735 273.00000000003257 272.99999999999403 273.0000000000191 272.99999999996857 273 272.99999999998778 273.00000000002865 272.999999