<?xml version="1.0"?>
<VTKFile type="UnstructuredGrid" version="0.1" byte_order="LittleEndian">
<UnstructuredGrid>
<Piece NumberOfPoints="8154" NumberOfCells="2718">
<Points>
<DataArray type="Float64" NumberOfComponents="3" format="ascii">
0 0 0 0.05842534974831818 0.058425349748568167 0 0 0.10000000000041601 0 0 0 0 0.099999999999814668 0 0 0.05842534974831818 0.058425349748568167 0 0 0.10000000000041601 0 0.05842534974831818 0.058425349748568167 0 0.072340659132099805 0.15787534671757081 0 0.11736878855947019 0.099262147589397345 0 0.072340659132099805 0.15787534671757081 0 0.05842534974831818 0.058425349748568167 0 0.099999999999814668 0 0 0.11736878855947019 0.099262147589397345 0 0.05842534974831818 0.058425349748568167 0 0 0.30000000000124832 0 0 0.20000000000083221 0 0.076754417114036966 0.24517625929728579 0 0 0.20000000000083221 0 0.072340659132099805 0.15787534671757081 0 0.076754417114036966 0.24517625929728579 0 0 0.20000000000083221 0 0 0.10000000000041601 0 0.072340659132099805 0.15787534671757081 0 0.15713224427556369 0.19462055031758391 0 0.072340659132099805 0.15787534671757081 0 0.11736878855947019 0.099262147589397345 0 0.15713224427556369 0.19462055031758391 0 0.076754417114036966 0.24517625929728579 0 0.072340659132099805 0.15787534671757081 0 0.15713224427556369 0.19462055031758391 0 0.13575432176650609 0.26177349842400482 0 0.076754417114036966 0.24517625929728579 0 0.15713224427556369 0.19462055031758391 0 0.1941589268096966 0.28301425698743637 0 0.13575432176650609 0.26177349842400482 0 0.15713224427556369 0.19462055031758391 0 0.11736878855947019 0.099262147589397345 0 0.2049592257883151 0.1136587120754589 0 0.15713224427556369 0.19462055031758391 0 0.2049592257883151 0.1136587120754589 0 0.23632615701395029 0.16695287371417161 0 0.2049592257883151 0.1136587120754589 0 0.28999131001604278 0.1096412864478291 0 0.23632615701395029 0.16695287371417161 0 0.15713224427556369 0.19462055031758391 0 0.23632615701395029 0.16695287371417161 0 0.2299760630703524 0.2225257972182236 0 0.15713224427556369 0.19462055031758391 0 0.2299760630703524 0.2225257972182236 0 0.1941589268096966 0.28301425698743637 0 0.099999999999814668 0 0 0.19999999999955789 0 0 0.17145071998201811 0.060258457788043909 0 0.099999999999814668 0 0 0.17145071998201811 0.060258457788043909 0 0.11736878855947019 0.099262147589397345 0 0.2049592257883151 0.1136587120754589 0 0.11736878855947019 0.099262147589397345 0 0.17145071998201811 0.060258457788043909 0 0.2049592257883151 0.1136587120754589 0 0.17145071998201811 0.060258457788043909 0 0.23947795756627041 0.055127514674138137 0 0.2049592257883151 0.1136587120754589 0 0.23947795756627041 0.055127514674138137 0 0.28999131001604278 0.1096412864478291 0 0.19999999999955789 0 0 0.29999999999926641 0 0 0.23947795756627041 0.055127514674138137 0 0.19999999999955789 0 0 0.23947795756627041 0.055127514674138137 0 0.17145071998201811 0.060258457788043909 0 0.29999999999926641 0 0 0.28999131001604278 0.1096412864478291 0 0.23947795756627041 0.055127514674138137 0 0.29999999999926641 0 0 0.3999999999989749 0 0 0.35406483083248758 0.078537905902684224 0 0.35406483083248758 0.078537905902684224 0 0.37053906278907522 0.16071991210652001 0 0.28999131001604278 0.1096412864478291 0 0.29999999999926641 0 0 0.35406483083248758 0.078537905902684224 0 0.28999131001604278 0.1096412864478291 0 0.29454411933247859 0.1942182557279433 0 0.23632615701395029 0.16695287371417161 0 0.28999131001604278 0.1096412864478291 0 0.29454411933247859 0.1942182557279433 0 0.31214747383698288 0.25112655154953339 0 0.26096379286661558 0.26049523993944562 0 0.29454411933247859 0.1942182557279433 0 0.2299760630703524 0.2225257972182236 0 0.23632615701395029 0.16695287371417161 0 0.2299760630703524 0.2225257972182236 0 0.29454411933247859 0.1942182557279433 0 0.26096379286661558 0.26049523993944562 0 0.3848394463845129 0.2263717102278168 0 0.34214461957799158 0.21523300106526999 0 0.37053906278907522 0.16071991210652001 0 0.29454411933247859 0.1942182557279433 0 0.37053906278907522 0.16071991210652001 0 0.34214461957799158 0.21523300106526999 0 0.29454411933247859 0.1942182557279433 0 0.34214461957799158 0.21523300106526999 0 0.31214747383698288 0.25112655154953339 0 0.31214747383698288 0.25112655154953339 0 0.34214461957799158 0.21523300106526999 0 0.35426299167392977 0.25566377588317091 0 0.3848394463845129 0.2263717102278168 0 0.35426299167392977 0.25566377588317091 0 0.34214461957799158 0.21523300106526999 0 0.3848394463845129 0.2263717102278168 0 0.38383376806569858 0.26564947200433758 0 0.35426299167392977 0.25566377588317091 0 0.29454411933247859 0.1942182557279433 0 0.28999131001604278 0.1096412864478291 0 0.37053906278907522 0.16071991210652001 0 0.44588396814009912 0.17331830423126529 0 0.41260066262683931 0.20084244419234801 0 0.37053906278907522 0.16071991210652001 0 0.44588396814009912 0.17331830423126529 0 0.37053906278907522 0.16071991210652001 0 0.41114656741565858 0.1169976912362575 0 0.3848394463845129 0.2263717102278168 0 0.37053906278907522 0.16071991210652001 0 0.41260066262683931 0.20084244419234801 0 0.44588396814009912 0.17331830423126529 0 0.44102434814492297 0.21276705521226619 0 0.41260066262683931 0.20084244419234801 0 0.42308142495795342 0.2341556686316493 0 0.41260066262683931 0.20084244419234801 0 0.44102434814492297 0.21276705521226619 0 0.3848394463845129 0.2263717102278168 0 0.41260066262683931 0.20084244419234801 0 0.42308142495795342 0.2341556686316493 0 0.3848394463845129 0.2263717102278168 0 0.42308142495795342 0.2341556686316493 0 0.41326197172237811 0.26477705272558139 0 0.45279136658191632 0.2454645808094798 0 0.43237610775568341 0.25442832268994081 0 0.42308142495795342 0.2341556686316493 0 0.45279136658191632 0.2454645808094798 0 0.44102434814492297 0.21276705521226619 0 0.47076431841780703 0.21005427819658859 0 0.45279136658191632 0.2454645808094798 0 0.42308142495795342 0.2341556686316493 0 0.44102434814492297 0.21276705521226619 0 0.45279136658191632 0.2454645808094798 0 0.47076431841780703 0.21005427819658859 0 0.4815757853575543 0.24579687230515479 0 0.45279136658191632 0.2454645808094798 0 0.4815757853575543 0.24579687230515479 0 0.46983414298779852 0.25850080530540981 0 0.44588396814009912 0.17331830423126529 0 0.47076431841780703 0.21005427819658859 0 0.44102434814492297 0.21276705521226619 0 0.47076431841780703 0.21005427819658859 0 0.44588396814009912 0.17331830423126529 0 0.50086900227669984 0.19286909959646639 0 0.50493807540744373 0.22547032939714651 0 0.47076431841780703 0.21005427819658859 0 0.50086900227669984 0.19286909959646639 0 0.50493807540744373 0.22547032939714651 0 0.4815757853575543 0.24579687230515479 0 0.47076431841780703 0.21005427819658859 0 0.50493807540744373 0.22547032939714651 0 0.5053074179542888 0.25558383997991369 0 0.4815757853575543 0.24579687230515479 0 0.44588396814009912 0.17331830423126529 0 0.41114656741565858 0.1169976912362575 0 0.4677358305654189 0.12029665150275309 0 0.50086900227669984 0.19286909959646639 0 0.44588396814009912 0.17331830423126529 0 0.50425007665466071 0.1543133975765052 0 0.44588396814009912 0.17331830423126529 0 0.4677358305654189 0.12029665150275309 0 0.50425007665466071 0.1543133975765052 0 0.50425007665466071 0.1543133975765052 0 0.4677358305654189 0.12029665150275309 0 0.51867624734975648 0.088315711926529455 0 0.45872229326691988 0.068538152543207831 0 0.4677358305654189 0.12029665150275309 0 0.41114656741565858 0.1169976912362575 0 0.45872229326691988 0.068538152543207831 0 0.51867624734975648 0.088315711926529455 0 0.4677358305654189 0.12029665150275309 0 0.49999999999869432 0 0 0.51867624734975648 0.088315711926529455 0 0.45872229326691988 0.068538152543207831 0 0.3999999999989749 0 0 0.49999999999869432 0 0 0.45872229326691988 0.068538152543207831 0 0.45872229326691988 0.068538152543207831 0 0.41114656741565858 0.1169976912362575 0 0.3999999999989749 0 0 0.41114656741565858 0.1169976912362575 0 0.35406483083248758 0.078537905902684224 0 0.3999999999989749 0 0 0.35406483083248758 0.078537905902684224 0 0.41114656741565858 0.1169976912362575 0 0.37053906278907522 0.16071991210652001 0 0.39881017495814691 0.37981101166726439 0 0.43249173470276692 0.43605546750222562 0 0.36836445410485769 0.42067733685348679 0 0.39881017495814691 0.37981101166726439 0 0.45522499340423078 0.37613645989242978 0 0.43249173470276692 0.43605546750222562 0 0.39881017495814691 0.37981101166726439 0 0.36836445410485769 0.42067733685348679 0 0.36154998589044901 0.38764479892760112 0 0.38189419247384238 0.4721560634170604 0 0.36836445410485769 0.42067733685348679 0 0.43249173470276692 0.43605546750222562 0 0.38189419247384238 0.4721560634170604 0 0.43249173470276692 0.43605546750222562 0 0.42909338950739018 0.52467798151510692 0 0.5 0.49999999999978328 0 0.42909338950739018 0.52467798151510692 0 0.43249173470276692 0.43605546750222562 0 0.5 0.40999999999999998 0 0.5 0.49999999999978328 0 0.43249173470276692 0.43605546750222562 0 0.5 0.40999999999999998 0 0.43249173470276692 0.43605546750222562 0 0.45522499340423078 0.37613645989242978 0 0.5 0.40999999999999998 0 0.45522499340423078 0.37613645989242978 0 0.50132877827535338 0.35252027608574538 0 0.46667455788352991 0.33788550640099418 0 0.50132877827535338 0.35252027608574538 0 0.45522499340423078 0.37613645989242978 0 0.46667455788352991 0.33788550640099418 0 0.48720285358562221 0.3239045130877074 0 0.50132877827535338 0.35252027608574538 0 0.5 0.31 0 0.48720285358562221 0.3239045130877074 0 0.48192289753786849 0.30643335198073812 0 0.5 0.31 0 0.51253325434506491 0.32271926641898069 0 0.48720285358562221 0.3239045130877074 0 0.48192289753786849 0.30643335198073812 0 0.48720285358562221 0.3239045130877074 0 0.46075763347191678 0.31386867763978632 0 0.46667455788352991 0.33788550640099418 0 0.46075763347191678 0.31386867763978632 0 0.48720285358562221 0.3239045130877074 0 0.43666021677150701 0.30666666666668119 0 0.46075763347191678 0.31386867763978632 0 0.43204471460558852 0.34054649
[...]
<PointData Scalars="temperature,region_id," Vectors="" Tensors="">
<DataArray type="Float64" Name="temperature" format="ascii">
272.99999997359885 273.00000003506437 273.00000006347602 273.0000000022867 273.00000000914235 272.99999999484572 273.00000010155435 273.00000010496194 272.99999902961832 272.99999805629267 272.99999861612241 273.00000040821732 273.00000001635522 272.99999997912619 272.99999998650986 273.00000890075677 272.99999180919673 273.00000817013216 273.0000014485671 273.00002022701119 272.99997151826756 273.00000403544635 272.99999758259042 273.00000549810801 273.00002793075356 272.99999919647883 272.99999569214629 272.99981040738436 272.99995261445741 273.00003940806283 272.99946306863114 273.00034656310055 273.00010986245394 272.99909157861248 273.00345491134385 273.00059220004857 273.00004164042139 272.99998512793718 272.99998628485417 273.00007835661813 272.99996674707523 273.00006686053126 273.00002521310034 273.00019477765346 272.99997278161538 273.00012143997236 273.00030824619279 272.9984505102891 272.99814627647248 273.00103786890907 273.00466825723407 273.00000009416436 273.00000017195595 272.99999972145798 273.0000000038545 272.99999980662176 272.99999998262615 273.00000473260462 273.00000003925533 272.99999966668759 273.00000764198091 272.99999740395236 272.99999409014902 273.0000125726956 272.9999904428683 273.00001478139478 272.99999999465803 272.99999907839725 272.99999988236675 273.00000034959891 272.99999949116756 272.99999945410104 272.99999855306942 273.0000027346988 273.00000009675352 273.00000007254312 273.00000032787727 272.99999981263539 273.00003129339956 272.99994898396358 272.99999424127168 272.99999775710808 273.00000674249247 273.00000361848436 272.99954814092405 272.99990014210238 273.00029319095529 272.98172134836159 273.06852267096679 273.03545279069823 272.99588161925772 272.99758307361839 273.00091479465596 272.99914220340537 272.98959042632384 273.0260170212228 273.03647405946037 273.01630852863622 272.98699995977546 273.00188609171425 272.99249288025976 273.0110959456137 272.97261665646732 272.9773315289608 273.07360283013844 273.14367601237927 272.93081392396527 273.34896614331092 272.97170077879798 273.41408366755201 272.8762659631534 272.86597860869938 274.4496872228076 273.6048380398347 272.99942268400372 273.00042635642683 272.99786357606973 273.01258047545099 272.99360641639038 273.00410043665795 273.00009535603175 272.99999069166404 272.99980984263783 273.04210228848996 272.98191478406432 272.97546120608058 273.02296727099872 272.94477354290916 272.98304559955051 273.26086934364088 272.89308576318257 272.93722987321951 273.12824184304191 272.91916012893819 273.23445334399645 272.57357229584255 273.20814930589546 275.42832176364374 274.26984047752222 275.24211785549704 272.9769666841346 273.75113436685501 272.87611634657691 272.72215854537399 273.7230069068483 273.3707541484888 272.88101492842679 273.88071371564683 272.6376835219192 273.7465747935114 274.28192834451437 273.96681733597575 277.13964463166741 273.03480575870071 272.96327663618194 272.9321255045258 273.00799997788067 272.99705488516457 273.00467293803274 273.00848885728726 273.0147143333852 273.00334350799892 272.78278956655413 273.67949058451961 272.75817811726091 272.5594714948686 274.34761830506358 274.04008630393611 273.00004305911239 272.99998328539772 272.99998856274891 272.9997587840777 273.00016998289141 272.99994084256349 273.00006101302125 272.9999748156975 272.99998253222816 273.00000232532085 273.00000024807827 272.99999836523943 273.00000081954983 272.99999956747308 273.00000004586326 273.00000115853254 273.00000011848505 272.99999937172561 272.99999261347841 273.00000282090997 273.00000161900311 273.00000010942057 272.99999555837462 273.00000005030489 273.00000027128311 273.00000017528333 272.99999997873601 272.99999990855559 272.9999994903045 273.00000062674246 273.00001451762671 272.9999128483866 272.99994282604052 273.01492401502998 272.99381134655641 272.99881574740806 273.0239964233233 273.08282810703304 272.98547944713977 273.01529602396539 273.00117158669462 273.00471828633283 273.0010190652402 272.99946303207361 272.99891799769546 273.00008315835754 273.00056628779089 272.99984859361246 272.99965907897104 272.99971581202925 273.00074627670233 273.00398500218938 272.99926359500159 273.00136961809744 272.88441611441806 272.9489354845378 273.11048498658914 272.77113501906314 273.25180471212633 273.49489228631751 277.86852168499775 274.54374669364262 272.15359035825441 278.68412903027064 282.6770433298679 274.69868455589773 283.63946444377177 282.3021508226783 283.15238994370389 283.78803976044969 282.54886371447787 282.05032810390514 283.15979199693766 282.33758571267794 281.60894351151973 279.26711123866335 281.91920196192387 282.34968582037953 280.2757885574747 281.78887380230844 277.19331052460996 279.20826887575231 276.8751745314791 281.9764730879603 277.69735621587137 272.36852218881194 276.52856718092835 277.39155601804703 273.76477672504302 280.24304393913047 273.65101774786706 279.53533943691679 280.36716175444553 275.26234772870032 279.38988532137785 273.67744153892897 280.20028526411409 280.14614834865313 283.28623172773814 281.4390401904048 283.20788395867669 280.19974266050554 280.51016057726923 282.56840281229944 280.45427168884936 280.30596876788724 280.76113697268715 277.60070946177831 280.48303828797361 283.10346534500263 282.56649034267969 282.21790125984688 282.34736378513185 283.12804786514391 282.36442411109186 280.76509395560021 282.35702446497862 283.13432464860762 282.34096819594851 282.96634360099824 283.51800323415966 283.47934990250877 282.96441883118393 283.57310377426353 282.85666948744614 283.17755420189076 283.52006025162848 283.59731511804569 283.4204806116436 283.59843285716772 283.43173342387854 283.40960607968867 283.10848577832473 282.9793283246517 283.46887552154288 283.10779706992145 283.41571629227394 283.43639177787344 283.58163464139255 283.03891762753773 283.44727495556862 283.00506865881579 283.08351472843668 283.4526098490702 283.57428784732298 283.44646130303249 283.61007965491444 283.61346902420661 283.43715590093223 283.59650694636417 282.2851534337434 283.06557222197085 281.6705662388157 282.26120243551895 283.08535888976525 283.02401702903768 282.2922442419781 281.69918008578742 280.92809527404341 279.90174529763686 280.92743932133709 281.69841515072324 279.09860575912751 280.9232992688157 278.84826749747413 282.36814817749467 280.8693973109319 280.79612819551068 279.05442119405319 280.74272903755667 280.95572146394051 274.37785452639429 280.5529381708144 279.17980124768616 275.37665066595025 274.52651969654602 279.03950584847695 274.12888826998113 277.45054753594405 280.74555833283546 275.95720754102086 272.96672984806111 275.33580167167611 275.99866340695803 275.52065202563426 278.83207055628969 276.14757779166712 278.92867337582976 278.99931681305014 276.30627206268781 278.87050762079548 277.22330801203765 279.9564643180608 278.90752580270453 280.88889136335183 279.96735528616603 278.04705937736594 278.9390959579294 277.03445757523212 278.89359814940002 278.07385503516787 277.12046581754896 277.91770898666778 275.67686057546217 275.2490153065346 276.99706279828069 275.74826515171952 275.306496995266 274.85828853390825 276.99949672956274 272.70976024887591 275.28963498323157 274.59850558405179 276.2776015173734 277.17864623613497 274.70922285613796 272.63348936735377 274.94825245067739 275.74263912128328 272.51907562897253 275.86648939970257 272.74675513512256 280.18819277100965 277.29965184423389 277.93472418014085 275.20812208839004 277.93779399427007 277.23249156843036 275.09267007518787 273.29670202911524 275.51617808089605 275.33733214519702 275.62014428163229 277.76676984210491 272.86672222994787 273.52817293540551 274.6883163228988 272.95142497644508 272.88576536358056 273.40372831592833 275.36182339835057 273.4541608098607 274.42116322704197 273.44143648100618 274.30165946716164 273.53264585185883 273.42552867764488 273.42461562264612 272.98564470638331 272.94882879952559 273.06341576347467 273.23112745594943 275.26143530806598 273.4750778419542 274.73383287451298 275.05571415334339 273.88181874283498 273.62968902722832 275.11345058868557 274.39347876476131 273.81764162680429 275.27059323119181 275.66604992447867 274.34134430309973 273.48425092570722 273.86395450540294 274.28738632436131 273.5037452177163 273.2307224726116 273.78988349369007 273.05310659280008 273.58902064215039 273.81945299423825 273.13973333752512 273.71541973556094 273.29665487421187 273.1453407810211 273.25834982509781 273.00739148883775 273.08011258624845 273.04135166751865 273.21690916847706 273.05660097564567 273.23333803684119 273.12314894842137 273.36575177577896 273.03104005846154 273.11626562363199 273.43268751026949 273.11323490189233 273.26105183841315 273.06477318691174 273.09544519419376 273.00822563177513 272.99404309872881 273.09958687260593 273.03752895679202 273.00511769478749 273.00870977370641 273.08016910778451 273.0085125133279 272.99137991536469 272.99495902279801 273.00036891176092 273.00000343529905 273.00022524499525 273.00136333545112 273.00029603074819 273.000458436911 273.00011873743495 273.00037303379401 273.00035554007496 273.01432947373814 273.03158496993836 272.986531590227 272.9700467345603 272.98103521187704 273.03758452989706 273.00185205256213 273.00160566390809 272.99967167228124 272.90727148279495 273.28952212332683 272.94646716649419 273.00229275586861 273.00236291053488 273.003095429209 273.00045404679327 273.00022320989734 273.00016103005862 273.00015091243597 272.99991702639329 273.00012770838418 272.99997255193614 273.00006405399029 272.99995791543682 272.99998777244878 272.99999105329425 273.00003329922532 273.00017043204912 273.00014405441476 272.99992916859208 273.0001491012174 272.99994930539583 273.00005073799468 272.99998750261091 273.00001634470715 272.99997491580092 272.99998996410056 273.00000249501858 273.00001198229654 272.99999432368668 272.99999950369494 272.9999994182848 272.99974827387729 273.00019200546888 273.00011247065606 272.99953726061835 272.99976544363642 273.00033708211816 273.00027856456956 273.00007734946558 273.00006838887714 273.00665034245725 272.99646025554745 273.00719898313139 272.99787873154338 272.99858448944229 273.00505370960639 272.99959869866842 272.99970887846672 273.00085611033387 272.99982909039369 273.00005096125034 272.99995732542101 273.00000780151021 272.99998355472007 273.00002447248568 273.00000013879094 272.99999952731758 272.99999912603897 273.00154040294791 273.02502499582164 273.00710664950299 273.06555655657962 272.99731917592271 273.04107704897081 273.05418166394162 273.01696793134312 273.01059330097218 273.00050096800231 273.01040471954775 273.01435601111041 272.99921057356175 273.00140786245913 273.00414960602399 272.99950441993957 273.00779105900494 273.00154574675435 273.0002120536243 273.00085469717777 272.99993163741169 273.00099231608237 273.00029088165064 273.00455133162194 273.00070062441273 272.99985956194735 273.00033529130377 273.00037067585544 273.00000066402015 273.00006455029188 273.00014117426508 272.99998428994428 272.99998930406343 272.9999996149179 272.99999954801473 273.00000274747379 272.99999427462075 273.0000467857077 273.00000950827115 273.00000119128811 272.99999950726459 273.0000010143379 273.00000399795834 273.00000059906574 272.99998956819047 272.99999143592896 273.00000141832999 272.9999951691367 273.00000027836541 272.99999695073268 273.00000030101171 273.00000001640655 273.00000007235764 273.00000030238948 272.99999992155853 273.00000060311038 272.99999979120605 273.00000002918568 272.99999995255195 272.99999994920597 272.99999991391161 272.99999959045937 273.00000004892797 272.99999999922863 273.00000000055519 272.99999999897852 272.99999999993094 272.99999999919731 273.00000000054843 272.99999999995441 273.00000000005997 273.00000000015245 273.00000000000068 273.00000000000261 273.00000000000034 272.99999999999937 273.00000000000057 273.00000000000074 273.00000000000676 273.00000000000222 273.00000000000199 273.00000000000267 273.0000000000021 272.99999999999915 273.00000000000409 273.00000000001023 273.00000000002029 273.00000000001006 272.99999999999949 273.00000000000534 273.00000000000887 272.99999999999932 272.99999999999807 273.00000000000983 272.99999999999204 272.99999999999392 272.99999999998397 272.99999999999375 272.9999999999946 272.99999999997891 273.00000000000938 272.99999999999835 272.9999999999942 273.00000000000108 273.00000000006139 273.00000000005417 273.00000000004025 272.99999999999994 272.9999999986556 272.99999999965888 272.99999999995936 273.00000000025892 273.00000000406919 273.00000000265396 273.00000000551506 272.99999999799189 273.00000000063483 273.00000000604706 273.00000001092167 272.99999999731369 272.99999978967435 273.00000059062751 273.00000060103542 273.00000021360779 272.99999551516248 273.00000158336644 272.99999997410328 273.00000007165096 273.00000041299626 272.99999997672154 273.00000004216815 272.99999998304179 272.99999999615846 272.9999999985609 273.00000001922439 273.00000000109492 273.00000000107025 272.99999999948324 273.00000000064699 272.9999999997562 272.99999999976683 273.00000000000927 272.99999999999653 273.00000000000841 273.00000000000017 272.99999999999898 273.00000000000426 273.00000000000006 272.99999999999949 272.99999999999915 272.99999999999966 273.00000000000131 272.99999999999852 273.00000000000227 272.99999999999983 272.99999999999949 272.99999999999886 273.00000000000136 272.99999999999807 273.00000000000006 273.0000000000004 273.00000000000114 272.99999999999932 273.0000000000004 273.00000000000284 272.9999999999992 272.99999999999909 273.00000000000176 273.00000000000318 272.99999999999892 273.00000000000006 273.00000000000341 272.99999999999648 273.00000000000108 273.00000000000364 272.99999999999989 273.00000000000443 273.00000000000534 272.99999999999665 272.99999999999989 272.99999999999568 273.00000000007719 272.9999999999842 273.00000000000847 272.99999999999511 273.00000000000239 272.99999999999665 273.00000000001148 272.9999999999996 272.99999999999449 273.00000000000443 273.00000000001802 272.99999999978178 273.00000000008475 272.99999999992519 273.00000000088812 272.99999999960988 272.9999999998891 272.99999999990882 273.00000000001484 273.00000000001546 273.00000000239669 273.00000001082509 273.00000003311197 273.00000000759889 272.99999999649896 273.00000001943368 273.00000000302759 272.99999999897676 272.99999999908687 272.99999999751122 272.99999999987233 273.00000000022072 272.99999999408516 272.99999997904899 273.00000002250471 273.00000000200447 272.99999999915121 272.9999999996412 272.99999999300331 273.00000000264686 272.99999999160815 273.00000000044309 273.00000000172065 273.00000000006708 272.99999999541762 273.00000000159196 273.00000000138266 273.00000000027472 273.00000000014876 272.99999999994816 273.00000000015297 272.99999999997306 273.00000000004042 273.00000000015564 273.00000000001535 272.99999999998391 273.0000000002459 273.00000000000745 273.00000000042087 273.00000000022254 273.00000000053319 273.00000000143933 272.99999999991775 273.00000000161572 273.00000000263321 273.00000000948819 273.00000000321188 273.00000000159508 273.00000001153921 273.00000001984739 273.00000000215329 272.99999998336369 273.00000000326003 273.00000001570481 272.99999997035485 273.00000002806888 273.0000001230112 273.00000011265587 273.00000002291989 273.00000006368811 273.00000000909728 273.00000005384493 273.00000002606436 273.00000013059389 273.00000006447232 273.00000022053655 273.00000012017244 273.00000024176228 273.00000054693504 273.00000161726581 273.00000051478406 273.00000066902282 273.00000007039694 273.0000006065996 273.00000049705443 273.00000184496304 273.0000005265731 273.00000221274013 273.00000065746497 273.00000271083024 272.99999985541569 272.99999993929936 273.00000015215238 273.00000032497923 273.00000314904531 273.00000631208496 272.99999841079705 272.99999986392413 273.00000037567713 272.99999999987199 272.99999960157362 273.00000028190522 273.00000191874165 273.00000006465854 272.99999999841089 273.00000000141802 273.0000001559315 272.99999976643483 272.99999993581133 273.00000016620044 273.0000000363749 272.99999996917404 273.00000026088975 272.99999990134791 272.99999910245486 273.00000059260321 272.99999833261347 273.00001069315744 272.99999735161748 272.99999987863504 272.99999956683342 272.99999729184736 272.99999948065607 272.9999938264516 272.99999991201327 273.00000009706054 272.99999975570586 272.99999994625654 273.00000021046151 273.00000004730418 273.00000101981357 273.00000003893331 273.0000002538228 272.99999999994304 272.99999998793652 272.999999991761 273.00000004457593 273.0000002497481 272.99999984133279 272.99999996941932 272.99999998903394 272.99999989976988 273.00000131681981 273.0000028038242 272.99999972478423 273.00004232077288 272.99996032863817 272.99999878870454 272.99999955247392 272.9999879239611 272.9999792440081 272.99999677245927 272.99999187487583 273.00000080250061 272.99999859565673 273.00000190573695 272.99999014173062 272.999997416155 273.00000018201456 272.99999972914782 273.00000006886904 273.00000008065291 272.9999998043408 272.99999426477399 273.00000257902133 272.99999344066811 272.99999998880531 272.99999984140533 273.00000004233391 272.99999997711615 273.0000000026543 273.0000001674253 272.99999999158473 273.00000000005383 272.99999999575232 273.00000000030559 272.99999999624583 272.99999999947647 273.00000000001467 273.0000000000399 272.99999999998579 272.99999999999022 273.00000000007736 273.00000000025415 273.0000000005677 272.99999999987398 273.00000000010834 272.99999999791902 272.99999999448193 272.99999999942975 272.9999999999763 273.00000000003303 273.00000000001256 272.99999999995879 273.00000000000676 273.00000000003547 272.99999999997937 273.00000000008151 273.00000000001586 273.00000000028552 273.00000000006321 272.99999999999801 273.00000000040183 272.99999999992514 273.00000000029195 273.00000000008407 273.00000000025199 273.00000000003547 273.00000000206472 273.00000000241067 272.99999999995561 273.00000000215459 273.00000000025119 273.00000000084151 273.00000000903384 273.00000000181132 273.00000000277231 273.00000000023556 273.00000000240891 273.00000000180921 273.00000000049891 273.00000000027052 273.00000000191261 272.99999999982759 273.0000000037769 272.99999999903775 272.99999997427312 272.99999999424074 272.99999998405656 273.00000000048976 273.00000000018241 273.00000000244393 273.00000000007259 273.00000000071503 273.00000000026506 273.00000000284064 273.00000000057696 273.00000000449421 273.00000000013682 273.00000001667422 273.00000000323871 272.99999990317161 273.00000004748313 272.99999989883287 272.99999998939273 272.9999999185855 273.00000003113053 273.00000000343999 273.00000000474898 273.00000001236498 273.00000004006841 273.000000082138 273.00000001161914 273.00000002982023 273.00000001454299 273.0000000030102 272.99999995399253 273.0000000230238 273.00000001348053 273.00000001146913 273.000000001557 273.00000001019714 273.00000001066161 273.00000003112928 273.00000001233781 273.0000000022157 273.00000000708968 273.00000000280249 273.00000000205 273.00000000967083 273.00000000740266 273.00000001415862 273.00000001087102 273.0000000019013 273.00000003446604 273.00000001416157 273.00000007775901 273.00000003198062 273.00000001088301 273.00000001596806 273.00000003062331 273.00000003541356 273.00000000674044 273.0000000083395 273.00000003629975 273.00000006036748 273.0000000087993 273.00000000935893 273.00000003110796 273.00000003004061 273.00000011352978 273.00000003874732 273.00000007244921 273.00000003364494 273.00000011757714 273.00000031634158 273.00000024869479 273.00000012058513 273.00000070552312 273.00000024157379 273.00000033327746 273.00000006715601 273.00000013101987 273.0000002208601 273.00000030610369 273.00000012259659 273.00000018362124 273.00000032853916 273.00000017096346 273.00000043067888 273.00000001586596 273.00000014588829 273.0