<?xml version="1.0"?>
<VTKFile type="UnstructuredGrid" version="0.1" byte_order="LittleEndian">
<UnstructuredGrid>
<Piece NumberOfPoints="8154" NumberOfCells="2718">
<Points>
<DataArray type="Float64" NumberOfComponents="3" format="ascii">
0 0 0 0.05842534974831818 0.058425349748568167 0 0 0.10000000000041601 0 0 0 0 0.099999999999814668 0 0 0.05842534974831818 0.058425349748568167 0 0.099999999999814668 0 0 0.11736878855947019 0.099262147589397345 0 0.05842534974831818 0.058425349748568167 0 0.11736878855947019 0.099262147589397345 0 0.072340659132099805 0.15787534671757081 0 0.05842534974831818 0.058425349748568167 0 0 0.10000000000041601 0 0.05842534974831818 0.058425349748568167 0 0.072340659132099805 0.15787534671757081 0 0 0.20000000000083221 0 0 0.10000000000041601 0 0.072340659132099805 0.15787534671757081 0 0 0.20000000000083221 0 0.072340659132099805 0.15787534671757081 0 0.076754417114036966 0.24517625929728579 0 0 0.30000000000124832 0 0 0.20000000000083221 0 0.076754417114036966 0.24517625929728579 0 0.15713224427556369 0.19462055031758391 0 0.076754417114036966 0.24517625929728579 0 0.072340659132099805 0.15787534671757081 0 0.15713224427556369 0.19462055031758391 0 0.13575432176650609 0.26177349842400482 0 0.076754417114036966 0.24517625929728579 0 0.15713224427556369 0.19462055031758391 0 0.072340659132099805 0.15787534671757081 0 0.11736878855947019 0.099262147589397345 0 0.15713224427556369 0.19462055031758391 0 0.11736878855947019 0.099262147589397345 0 0.2049592257883151 0.1136587120754589 0 0.15713224427556369 0.19462055031758391 0 0.1941589268096966 0.28301425698743637 0 0.13575432176650609 0.26177349842400482 0 0.15713224427556369 0.19462055031758391 0 0.2299760630703524 0.2225257972182236 0 0.1941589268096966 0.28301425698743637 0 0.15713224427556369 0.19462055031758391 0 0.23632615701395029 0.16695287371417161 0 0.2299760630703524 0.2225257972182236 0 0.15713224427556369 0.19462055031758391 0 0.2049592257883151 0.1136587120754589 0 0.23632615701395029 0.16695287371417161 0 0.2049592257883151 0.1136587120754589 0 0.28999131001604278 0.1096412864478291 0 0.23632615701395029 0.16695287371417161 0 0.2049592257883151 0.1136587120754589 0 0.17145071998201811 0.060258457788043909 0 0.23947795756627041 0.055127514674138137 0 0.2049592257883151 0.1136587120754589 0 0.23947795756627041 0.055127514674138137 0 0.28999131001604278 0.1096412864478291 0 0.2049592257883151 0.1136587120754589 0 0.11736878855947019 0.099262147589397345 0 0.17145071998201811 0.060258457788043909 0 0.099999999999814668 0 0 0.19999999999955789 0 0 0.17145071998201811 0.060258457788043909 0 0.099999999999814668 0 0 0.17145071998201811 0.060258457788043909 0 0.11736878855947019 0.099262147589397345 0 0.19999999999955789 0 0 0.23947795756627041 0.055127514674138137 0 0.17145071998201811 0.060258457788043909 0 0.19999999999955789 0 0 0.29999999999926641 0 0 0.23947795756627041 0.055127514674138137 0 0.29999999999926641 0 0 0.28999131001604278 0.1096412864478291 0 0.23947795756627041 0.055127514674138137 0 0.35406483083248758 0.078537905902684224 0 0.37053906278907522 0.16071991210652001 0 0.28999131001604278 0.1096412864478291 0 0.29999999999926641 0 0 0.35406483083248758 0.078537905902684224 0 0.28999131001604278 0.1096412864478291 0 0.29999999999926641 0 0 0.3999999999989749 0 0 0.35406483083248758 0.078537905902684224 0 0.45872229326691988 0.068538152543207831 0 0.41114656741565858 0.1169976912362575 0 0.3999999999989749 0 0 0.49999999999869432 0 0 0.51867624734975648 0.088315711926529455 0 0.45872229326691988 0.068538152543207831 0 0.3999999999989749 0 0 0.49999999999869432 0 0 0.45872229326691988 0.068538152543207831 0 0.45872229326691988 0.068538152543207831 0 0.51867624734975648 0.088315711926529455 0 0.4677358305654189 0.12029665150275309 0 0.50425007665466071 0.1543133975765052 0 0.4677358305654189 0.12029665150275309 0 0.51867624734975648 0.088315711926529455 0 0.45872229326691988 0.068538152543207831 0 0.4677358305654189 0.12029665150275309 0 0.41114656741565858 0.1169976912362575 0 0.41114656741565858 0.1169976912362575 0 0.35406483083248758 0.078537905902684224 0 0.3999999999989749 0 0 0.35406483083248758 0.078537905902684224 0 0.41114656741565858 0.1169976912362575 0 0.37053906278907522 0.16071991210652001 0 0.44588396814009912 0.17331830423126529 0 0.41260066262683931 0.20084244419234801 0 0.37053906278907522 0.16071991210652001 0 0.44588396814009912 0.17331830423126529 0 0.37053906278907522 0.16071991210652001 0 0.41114656741565858 0.1169976912362575 0 0.44588396814009912 0.17331830423126529 0 0.41114656741565858 0.1169976912362575 0 0.4677358305654189 0.12029665150275309 0 0.44588396814009912 0.17331830423126529 0 0.4677358305654189 0.12029665150275309 0 0.50425007665466071 0.1543133975765052 0 0.50086900227669984 0.19286909959646639 0 0.44588396814009912 0.17331830423126529 0 0.50425007665466071 0.1543133975765052 0 0.44588396814009912 0.17331830423126529 0 0.47076431841780703 0.21005427819658859 0 0.44102434814492297 0.21276705521226619 0 0.47076431841780703 0.21005427819658859 0 0.44588396814009912 0.17331830423126529 0 0.50086900227669984 0.19286909959646639 0 0.50493807540744373 0.22547032939714651 0 0.47076431841780703 0.21005427819658859 0 0.50086900227669984 0.19286909959646639 0 0.50493807540744373 0.22547032939714651 0 0.4815757853575543 0.24579687230515479 0 0.47076431841780703 0.21005427819658859 0 0.50493807540744373 0.22547032939714651 0 0.5053074179542888 0.25558383997991369 0 0.4815757853575543 0.24579687230515479 0 0.45279136658191632 0.2454645808094798 0 0.4815757853575543 0.24579687230515479 0 0.46983414298779852 0.25850080530540981 0 0.45279136658191632 0.2454645808094798 0 0.44102434814492297 0.21276705521226619 0 0.47076431841780703 0.21005427819658859 0 0.45279136658191632 0.2454645808094798 0 0.47076431841780703 0.21005427819658859 0 0.4815757853575543 0.24579687230515479 0 0.45279136658191632 0.2454645808094798 0 0.42308142495795342 0.2341556686316493 0 0.44102434814492297 0.21276705521226619 0 0.45279136658191632 0.2454645808094798 0 0.43237610775568341 0.25442832268994081 0 0.42308142495795342 0.2341556686316493 0 0.3848394463845129 0.2263717102278168 0 0.42308142495795342 0.2341556686316493 0 0.41326197172237811 0.26477705272558139 0 0.3848394463845129 0.2263717102278168 0 0.41260066262683931 0.20084244419234801 0 0.42308142495795342 0.2341556686316493 0 0.42308142495795342 0.2341556686316493 0 0.41260066262683931 0.20084244419234801 0 0.44102434814492297 0.21276705521226619 0 0.44588396814009912 0.17331830423126529 0 0.44102434814492297 0.21276705521226619 0 0.41260066262683931 0.20084244419234801 0 0.3848394463845129 0.2263717102278168 0 0.37053906278907522 0.16071991210652001 0 0.41260066262683931 0.20084244419234801 0 0.3848394463845129 0.2263717102278168 0 0.38383376806569858 0.26564947200433758 0 0.35426299167392977 0.25566377588317091 0 0.3848394463845129 0.2263717102278168 0 0.35426299167392977 0.25566377588317091 0 0.34214461957799158 0.21523300106526999 0 0.31214747383698288 0.25112655154953339 0 0.34214461957799158 0.21523300106526999 0 0.35426299167392977 0.25566377588317091 0 0.29454411933247859 0.1942182557279433 0 0.34214461957799158 0.21523300106526999 0 0.31214747383698288 0.25112655154953339 0 0.29454411933247859 0.1942182557279433 0 0.37053906278907522 0.16071991210652001 0 0.34214461957799158 0.21523300106526999 0 0.3848394463845129 0.2263717102278168 0 0.34214461957799158 0.21523300106526999 0 0.37053906278907522 0.16071991210652001 0 0.29454411933247859 0.1942182557279433 0 0.28999131001604278 0.1096412864478291 0 0.37053906278907522 0.16071991210652001 0 0.29454411933247859 0.1942182557279433 0 0.23632615701395029 0.16695287371417161 0 0.28999131001604278 0.1096412864478291 0 0.29454411933247859 0.1942182557279433 0 0.2299760630703524 0.2225257972182236 0 0.23632615701395029 0.16695287371417161 0 0.29454411933247859 0.1942182557279433 0 0.31214747383698288 0.25112655154953339 0 0.26096379286661558 0.26049523993944562 0 0.2299760630703524 0.2225257972182236 0 0.29454411933247859 0.1942182557279433 0 0.26096379286661558 0.26049523993944562 0 0.31214747383698288 0.25112655154953339 0 0.33311531983516163 0.2900242391831786 0 0.29133531002072288 0.29497461088982602 0 0.31214747383698288 0.25112655154953339 0 0.29133531002072288 0.29497461088982602 0 0.26096379286661558 0.26049523993944562 0 0.24927312991543321 0.30440455294938212 0 0.26096379286661558 0.26049523993944562 0 0.29133531002072288 0.29497461088982602 0 0.24927312991543321 0.30440455294938212 0 0.29133531002072288 0.29497461088982602 0 0.2758036611798465 0.33390647906391752 0 0.24927312991543321 0.30440455294938212 0 0.2758036611798465 0.33390647906391752 0 0.22923034702400041 0.35053314200320362 0 0.26753744944632751 0.37054224588696222 0 0.22923034702400041 0.35053314200320362 0 0.2758036611798465 0.33390647906391752 0 0.26753744944632751 0.37054224588696222 0 0.2758036611798465 0.33390647906391752 0 0.29802987609523812 0.36401212783612041 0 0.31707099091965479 0.32634615672318712 0 0.29802987609523812 0.36401212783612041 0 0.2758036611798465 0.33390647906391752 0 0.31707099091965479 0.32634615672318712 0 0.2758036611798465 0.33390647906391752 0 0.29133531002072288 0.29497461088982602 0 0.31707099091965479 0.32634615672318712 0 0.3526372068749562 0.31622021338183232 0 0.35416638226653291 0.35362079862294732 0 0.32485893223225848 0.3964700485667062 0 0.29802987609523812 0.36401212783612041 0 0.35416638226653291 0.35362079862294732 0 0.31707099091965479 0.32634615672318712 0 0.35416638226653291 0.35362079862294732 0 0.29802987609523812 0.36401212783612041 0 0.39881017495814691 0.37981101166726439 0 0.36154998589044901 0.38764479892760112 0 0.35416638226653291 0.35362079862294732 0 0.38219790646865398 0.31801123808619858 0 0.35416638226653291 0.35362079862294732 0 0.3526372068749562 0.31622021338183232 0 0.37230232040674199 0.29154528135320651 0 0.38219790646865398 0.31801123808619858 0 0.352637206874956
[...]
<PointData Scalars="temperature,region_id," Vectors="" Tensors="">
<DataArray type="Float64" Name="temperature" format="ascii">
272.99999999989319 273.00000000017644 273.00000000020214 272.99999999999653 273.00000000002899 273.00000000000051 273.00000000005889 272.99999999982111 272.99999999998721 272.99999999599021 272.9999999961866 273.00000000160736 273.00000000031446 273.0000000005943 272.99999999769847 273.00000000300935 272.9999999977403 273.0000000044875 272.99999999986852 273.000000020252 272.99999998224695 273.00000000467799 272.99999999550471 273.00000000173924 272.99999985536243 272.99999996507267 273.00000004086684 272.99999951966345 273.00000013874728 273.00000010520239 273.00000005882612 272.99999999527154 272.99999999064613 273.00000009943756 272.99999996658045 272.99999994198248 272.99999915322559 273.00000263136673 273.00000032014862 272.99999820446425 273.0000007765135 273.00000387127437 273.00000036270472 273.00000114332818 272.99999659789967 273.00000023411155 272.99999984881777 273.00000027018018 272.99999996623308 273.00000098492796 273.00000001359308 273.00000001966828 272.99999999390388 272.99999997972316 273.00000003810135 272.9999999635948 273.00000006145001 273.00000001053104 272.99999999898102 272.99999999994469 273.00000000016473 273.00000000052819 272.99999999941707 273.00000000009283 272.99999999975444 272.99999999975074 273.00000000119809 272.99999999832812 272.99999999860984 273.00000000048163 272.99999999654256 272.99999999932737 272.99999999364422 273.00000000983999 272.99999999998778 273.00000014338741 272.99999979940674 272.99999998721137 272.99999998876751 273.00000002800863 273.00000001523625 273.00000000016843 273.0000000008489 272.99999999931799 272.99999999957015 273.00000000222639 272.99999999781483 273.00000004693004 272.9999999663915 272.99999998855753 272.99999999602448 273.00000001916993 272.99999999951257 272.99999999400313 272.99999998842418 273.00000000297331 273.00000001156769 273.00000000051932 272.99999999129921 272.9999999987167 272.99999999940525 273.00000000453826 273.0000000004855 272.99999999791817 273.0000000020234 273.00000012010713 272.99999930332382 272.9999997377588 273.00014615113491 272.99996975921943 273.00001185801574 273.00000132976311 273.00000022832506 272.99999822601859 273.00000070321732 272.99999975127645 272.9999997859403 273.00000115285286 272.99999952749073 272.99999977934954 272.99999673918973 273.00000349652953 272.99999894241915 273.00054561477754 272.99946108984511 272.99903244029309 273.00018509032725 272.99992541186538 273.00013102608767 273.00018069216281 273.00031710846611 273.00019020848549 272.99024156951612 273.02252630315809 272.99138732548602 272.97785931419935 273.04974305489071 273.0413432620548 273.02251196454216 272.96042236172605 273.2600447973067 273.01334039421079 272.99753970752903 272.99529304221164 273.01722288404233 272.99272634756306 273.01663618298653 273.01227380473046 273.00506453315097 272.99798638150446 273.02044075361391 273.05782590288874 272.98905729884115 272.98057491117498 272.99515187095415 273.06631253322985 273.0013994425106 272.99932440532615 273.00269122893997 273.00318828594249 272.99870158261956 272.99907430569885 273.0003176996176 272.99929381581603 272.9998525289945 273.00048164567477 272.9998005826393 272.99984947435422 272.99339854522799 273.02538368848212 273.00724040860865 272.99703523326696 273.00340884092287 272.99855931425998 273.00077241368581 272.99920598501996 273.00252919766285 272.9998907313315 272.99969698370745 273.00026816099518 273.00000672635423 272.99995914854446 273.00005089131423 273.00036059019283 273.00008846502379 272.99991505516084 272.99999688571575 273.00000295909643 272.99998978379409 272.99999799934125 272.99999967718583 273.000001689763 272.99998833403879 272.99999383060208 273.00000319593602 272.99994201695108 273.00022311587605 273.00007352679597 272.99999715827352 272.99996833336041 273.00004776767418 273.00042082918281 273.00607143111313 273.00163771708827 273.0005353941512 273.00128977116407 272.99984518035285 273.00023711898024 273.00008188188042 273.00096307599676 273.00011181785652 273.00105468472475 273.00044064475316 273.00016499241241 273.0002956588657 272.9999938131528 272.99997067025919 273.00000624618116 273.00021371071421 272.99991805801375 273.00030093533508 272.99996293419582 273.00204103283971 272.99985630887915 273.00042647524111 273.00288872820187 273.00034834881694 273.00127668989421 273.00300067923678 273.01720031673273 273.00338513920565 272.99960817346096 273.00021796216953 273.00122354668349 273.00264449316023 273.00255313073001 272.99940716429609 272.99560949880504 272.99829130079485 273.00304914559035 273.04769240190137 273.00067337711727 273.02091430698988 273.04842644648534 273.06478889286149 273.0168583594056 273.04010107114522 273.01987205218023 273.00715191446221 273.00382953148699 273.00081197594977 273.00713913385567 273.00346280692207 273.00853345808281 273.0166749701209 272.99913248971194 273.00543594246187 273.0078096939626 273.03692657569889 273.00907066844826 273.00591907944778 273.04584237977662 273.00021527768865 273.03320036877881 272.98755410471699 273.05808450673447 273.03096164134087 273.11533521946171 273.16254278465976 273.02101745882032 273.05103695100752 273.03612096410546 273.14058524979976 273.0472038234746 273.14509786040946 273.07103481533852 273.16339295938843 273.23628387143674 273.06112768563452 273.11589429450783 273.35638944028938 273.1758554328635 273.15345270197508 273.38017912786103 273.26927295429869 273.58466859249819 273.26084184375122 273.40345044187671 273.61863640105355 273.39101319101729 273.89146672351222 273.08426905898403 273.41700001373908 273.39313063227996 273.10117830760498 273.09642255192705 273.36182709509058 273.09689115025139 272.97957975572126 273.07294164838925 273.07435759455944 273.01007042522099 273.40625882262384 272.9725744141117 273.70556408123485 273.44525888292475 273.43832464666485 273.95008500417885 273.93639448844664 272.91399079325151 273.3089237169163 273.77011995757726 273.32697604915916 272.89754527800437 273.72464214313601 273.05181600055852 273.59028435299882 272.92354663905434 272.85769129148696 273.65922771395981 273.77023081440757 273.83499372045588 273.83731672697485 275.33880313933253 274.3921349205138 275.47513815789853 273.75540588800646 273.87586500842849 275.32524577374824 274.91488190056833 273.84307074762211 273.90520735867409 273.2763537451072 273.94831029464666 274.82044117927541 273.86263955302019 274.73855279126769 273.92468128271548 274.81167284733544 274.69224438659256 274.87395764756968 275.58070660050464 275.65717387807166 274.8342920764033 275.5492479400616 276.41305834170134 275.39928151304366 275.86634132110208 276.3585228741872 276.23076495693073 275.52045327582135 276.39913654453375 276.48764922006205 276.15434724260166 276.4745620360406 276.12643989218583 276.14154581625627 275.64073571991895 275.56606416948893 276.18414019509322 275.63333563909902 276.13850959821639 276.13495805242951 275.47863287945376 275.60698915173464 276.13741889319624 276.46750076531612 276.13577816086399 276.47252563344995 276.38840791432972 276.15693647439252 276.46420488996989 276.37310029111899 275.50459357454969 276.17325156664009 274.73240306282077 275.39512789556062 274.30279529013563 274.69401285985845 275.5833519157232 275.47779338578289 274.67448199654018 274.33244488951311 273.93348492258121 274.66043537369472 273.92720491291959 273.98199127141817 273.47446140936006 273.8737563689341 273.38669657446718 273.58580133000197 273.9562363880396 274.27919524012265 273.66286629173663 274.09531478953733 273.14174515664462 273.52869510344601 273.03961942078547 274.18950468495677 275.50166199630661 274.86994858839086 274.26097973061309 273.47311901540058 274.36493165192536 274.6253442501237 276.41090388464062 275.12065743796398 274.64386817519443 276.27874865126705 274.81556911110965 275.59630827176932 273.50201035812796 274.41875346748827 272.8531565149803 273.29412984842537 272.97943806532862 272.90237932645709 273.26491926567888 272.93175664758729 273.14624544043357 272.97409223237338 273.09508310795349 272.96704475516913 272.98215343319845 273.04434662271512 273.08458127922751 273.03038020120107 273.24141123007712 273.18716107557714 273.60866796051818 273.19184652192769 273.25969870060874 273.05161634050802 273.06630925440709 273.2086928655666 273.04417259004322 272.99389016277001 273.0554947700885 272.99226582530605 273.00570943570335 273.03309822034618 272.99929220895848 273.00010759724563 272.99970059003732 272.99914027730694 273.00067977177554 273.00009815029262 272.99860219309414 273.00038651668905 273.00109935165784 272.99506882829354 273.00634673606777 273.0139244992547 272.99803315630686 272.99907128424036 273.00254514957169 272.99999701960598 272.99999774585785 273.00000642566232 273.0000529497712 272.99999191312361 273.00001380841331 273.00000201865168 273.0000057380613 272.99999705935187 272.99991678814359 273.00014889959834 273.00020489616742 272.99998825500347 273.00000496379272 272.99999080274148 273.00000218008108 272.99999395283248 273.00000285580791 272.99996104539099 272.99999211037368 273.00009189516646 272.99923345530254 273.00176684411053 272.9990384049587 272.99996105126536 272.99975452531197 273.00005713600183 272.99998321980621 273.00005027039771 273.00001953071495 273.00000144747167 272.99999729074221 273.00001123186314 272.99998801220477 273.00001534771707 272.99999416932513 272.9997699860478 272.99993406018228 273.00008161428076 273.0000236170668 273.00005936577736 272.99995446447349 273.00000872233556 272.99997084806819 272.99999061825127 273.00000150031281 272.99999908677603 272.99999778479793 273.00000205610468 272.99999861890592 273.00000047669675 273.0000030069404 273.00000131672277 272.99999764595361 273.00000089320883 273.00000009874674 272.99999582172336 273.00000003356485 272.9999999279184 272.99999946442995 272.99999982286187 273.00000028384579 273.00000008319631 273.00000000359762 272.99999999303714 272.99999994636232 273.00000000134548 273.00000000168006 272.99999999603619 273.00000000004985 272.99999999755221 273.00000000042593 273.00000000236491 272.99999999379162 273.00000001801061 272.99999988640036 273.00000004008518 272.9999999766269 272.99999951135618 272.99999987069702 273.00000036128694 272.99999956869647 272.99999944659629 273.0000005298437 273.00000120541262 273.00000064792943 272.99999947802479 272.99999675270158 272.99999685076409 273.00000050319846 272.9999977000839 272.99999968642078 272.99999987866784 272.99999912441314 273.00000078062249 273.0000007164993 272.99999815739631 273.00001450475906 273.00001936596158 273.00012828634635 273.00002388837436 273.00001501980398 273.00017522837368 272.99997295727508 273.00009055500732 273.00000176094125 273.00004555386539 273.00000566890668 273.00000093019099 272.99999977250729 273.00000471375375 272.99999879636459 273.00000970070244 273.00000047095983 272.99999974799545 273.00000027107501 273.00000010957217 272.99999985425148 273.00000004628794 273.0000000097304 273.00000019679027 272.9999999672163 273.00000003420701 273.00000052680844 272.99999984353161 273.0000000001113 272.9999999995386 273.00000001987934 272.9999999847339 273.00000000248139 272.99999999637856 272.99999999577523 272.99999999966889 273.00000000648737 272.99999999703533 273.0000000145464 272.99999999347489 273.00000001086971 273.00000000030803 272.99999999984033 273.000000000304 273.00000000092189 273.00000000042655 272.99999999646809 273.00000000036073 272.99999999941423 272.99999999918066 272.99999999997516 273.00000000016132 272.9999999999406 273.00000000000784 272.99999999998761 272.99999999998653 272.99999999999903 273.00000000000045 273.00000000000097 273.00000000000364 273.0000000000004 273.00000000000131 273.00000000008021 273.00000000016405 272.99999999995208 273.00000000000966 273.00000000000222 272.99999999996749 273.00000000005144 272.99999999992622 272.99999999957845 272.99999999916264 273.00000000010516 273.00000000032378 273.00000000520447 273.00000017713091 272.99999998325137 272.99999999865952 273.00000000093723 272.99999999314031 272.99999999998562 273.00000000014592 273.0000000000436 273.0000000003277 273.00000000043542 272.99999999982964 273.00000000024113 272.99999999989734 272.99999999999682 273.00000000000205 272.99999999999318 273.00000000000199 273.00000000000313 273.00000000001154 272.9999999999925 273.00000000000409 272.99999999999744 273.00000000000034 273.00000000000404 273.00000000000114 272.99999999999881 273.00000000000517 273.00000000000279 272.99999999999648 272.99999999993435 272.99999999999909 272.99999999998556 272.99999999999613 273.0000000000025 273.0000000000062 272.99999999999534 273.00000000000335 272.99999999999568 272.99999999999818 272.99999999999898 273.00000000000165 273.00000000000506 273.00000000000296 273.00000000000034 272.99999999999898 273.00000000000108 273.00000000000637 273.00000000000171 273.00000000000045 272.99999999999926 273.00000000000222 272.99999999999733 273.00000000000142 273.00000000000023 273.00000000000063 273.00000000000074 273.00000000000023 273.00000000000045 272.99999999999756 272.99999999999994 272.99999999999989 272.99999999999983 272.99999999999915 273.00000000000057 273.00000000000011 272.99999999999926 273.00000000000034 273.00000000000131 273.0000000000004 273.00000000000011 273.00000000000119 273.00000000000563 272.9999999999954 273.0000000000004 272.99999999999977 273 272.99999999999915 273.00000000000108 272.9999999999967 273.0000000000029 272.99999999999983 272.99999999999955 272.99999999999972 273.00000000000068 272.99999999999915 273.00000000000011 272.99999999999949 272.99999999999943 273.00000000000176 273.00000000000296 272.99999999999187 273.00000000000392 272.9999999999979 272.99999999999932 273.0000000000021 272.99999999999926 273.00000000000136 272.99999999999909 273.00000000002029 272.99999999999579 273.00000000000324 272.9999999999971 273.00000000000216 272.99999999999875 272.99999999999966 272.99999999999574 272.99999999999653 272.99999999999966 273.0000000000029 273.00000000000034 273.00000000000307 273.00000000000017 272.99999999999631 273.00000000000261 272.99999999999847 273.00000000000063 273.00000000000136 272.99999999999744 273.00000000000085 273.00000000000341 272.99999999999756 273.00000000000529 273.00000000000267 273.00000000000404 272.99999999999449 273.00000000000495 272.99999999999875 273.00000000000637 273.00000000000449 272.99999999999051 272.99999999999596 273.00000000000932 272.99999999999221 272.99999999998647 273.00000000000887 272.99999999999443 273.00000000000335 273.00000000000489 273.00000000000512 272.99999999998948 273.0000000000029 273.00000000000108 272.99999999999949 272.99999999999613 273.00000000003547 273.00000000000836 273.0000000000241 272.99999999998033 273.00000000008475 273.00000000001381 272.99999999999108 272.99999999999255 272.99999999999488 272.99999999999233 273.00000000000597 272.99999999999625 272.99999999999511 272.99999999999449 273.00000000004758 272.99999999999324 272.9999999999788 272.99999999842146 273.00000000015655 273.00000000025744 273.00000000010056 272.99999999994645 273.00000000011096 272.99999999996339 273.00000000028086 273.0000000000353 272.99999999758256 272.99999999998272 273.00000000051074 272.99999999534577 273.00000000201203 272.99999999948648 272.99999999643063 273.00000000142052 272.99999999639573 273.000000044214 272.99999999419418 272.99999999409812 273.00000010382399 272.99999996309509 273.00000002328846 272.99999999036561 272.9999999995444 273.0000000299529 273.0000000003588 272.99999999025016 272.9999999987034 273.00000000003126 273.00000000004064 273.00000000075858 272.99999999955378 272.99999999995492 272.99999999963137 272.99999999986466 272.99999999994094 273.00000000017155 272.99999999994895 273.00000000005917 272.9999999999809 273.00000000002683 273.00000000000119 273.00000000000409 273.00000000001 273.00000000002609 272.99999999999204 273.00000000002365 272.99999999998721 273.00000000000171 273.00000000000978 272.99999999997772 273.00000000002115 273.00000000003399 273.00000000001796 272.99999999998062 273.00000000002717 272.99999999998482 273.00000000003689 273.00000000002359 273.00000000004513 273.0000000001267 273.00000000003354 273.00000000000119 273.00000000005093 272.99999999976819 272.99999999999926 273.00000000117234 273.00000000003121 273.0000000001271 273.00000000003428 273.00000000036562 273.00000000002996 273.00000000014774 273.00000000037932 273.00000000008987 273.00000000053831 273.00000000041427 273.00000000007714 273.00000000040751 273.00000000041757 273.00000000018747 273.00000000007958 273.00000000041138 273.0000000001466 273.00000000025 273.00000000037318 273.00000000012307 273.00000000019099 273.00000000018281 273.00000000013796 273.00000000015001 273.00000000012795 273.00000000006503 273.00000000014131 273.00000000016286 273.00000000006531 273.00000000005997 273.00000000008481 273.00000000004547 273.0000000000482 273.00000000003848 273.0000000000274 272.99999999999096 272.99999999995299 272.99999999999807 273.00000000001194 273.0000000000947 273.00000000002115 273.00000000001256 273.0000000001051 273.00000000001421 273.00000000005582 272.99999999999693 273.00000000001717 272.99999999999017 273.00000000001984 272.9999999999269 273.00000000006224 272.99999999995759 273.00000000007907 272.99999999990507 272.99999999994048 272.99999999946834 273.0000000000685 272.99999999997135 272.99999999999727 273.00000000004695 273.00000000000045 273.00000000003149 273.00000000005207 273.00000000007492 273.00000000005173 273.000000000005 273.00000000009663 273.00000000008833 273.00000000005826 273.00000000012227 273.00000000020054 273.00000000025034 273.00000000008561 273.00000000014347 273.00000000013495 273.00000000018315 273.00000000030599 273.00000000014336 273.00000000023692 273.0000000003443 273.00000000025528 272.99999999988273 272.99999999982208 273.00000000000318 273.00000000015331 272.99999999988171 272.9999999998422 272.9999999999514 273.00000000024733 272.99999999997272 273.00000000013199 272.9999999998646 272.99999999995191 273.00000000016786 273.00000000003854 272.99999999987432 273.00000000005173 272.99999999999221 272.9999999999003 273.0000000004552 273.00000000012767 272.99999999930395 273.00000000036562 272.99999999987295 273.00000000013557 272.99999999979161 272.99999999990081 272.99999999925473 273.00000000202198 272.99999999879884 273.00000000024301 273.00000000284598 273.0000000014291 272.9999999995066 273.00000000106189 273.00000000029752 273.00000000000142 273.00000000025108 273.00000000022362 272.99999999997692 273.00000000026012 272.99999999972943 273.00000000038676 272.99999999979843 272.99999999988194 272.99999999990825 273.00000000023061 272.99999999983015 272.9999999999223 273.00000000012932 272.99999999996601 273.00000000003689 273.00000000011869 273.00000000004962 273.00000000003962 272.99999999995345 272.99999999983436 273.00000000010226 272.9999999999684 273.00000000013267 272.9999999998019 273.00000000001074 273.00000000000466 272.99999999997721 273.00000000000182 273.0000000000112 273.0000000000162 272.99999999999869 273.00000000001609 273.00000000001103 273.00000000001955 272.99999999999272 273.00000000001995 273.0000000000108 272.99999999998676 273.00000000001529 273.00000000000284 273.00000000002365 272.99999999994077 272.99999999998755 272.99999999997885 273.00000000000051 273.00000000002501 273.00000000000836 273.00000000002507 273.0000000000021 273.00000000000239 272.99999999995606 272.99999999997772 272.99999999997038 273.00000000001353 272.99999999992912 273.00000000000563 272.99999999995657 273.00000000004189 273.00000000002041 272.99999999996459 272.9999999999668 273.00000000001546 273.0000000000112 272.99999999999585 272.99999999997561 273.00000000000904 272.99999999999466 273.00000000002251 272.99999999998448 273.00000000000193 272.9999999999942 273.00000000000801 273.00000000000779 273.00000000000938 272.99999999997374 273.00000000002115 273.00000000000847 272.99999999999892 273.00000