<?xml version="1.0"?>
<VTKFile type="UnstructuredGrid" version="0.1" byte_order="LittleEndian">
<UnstructuredGrid>
<Piece NumberOfPoints="8154" NumberOfCells="2718">
<Points>
<DataArray type="Float64" NumberOfComponents="3" format="ascii">
0 0 0 0.05842534974831818 0.058425349748568167 0 0 0.10000000000041601 0 0 0 0 0.05842534974831818 0.058425349748568167 0 0.099999999999814668 0 0 0.05842534974831818 0.058425349748568167 0 0 0.10000000000041601 0 0.072340659132099805 0.15787534671757081 0 0.05842534974831818 0.058425349748568167 0 0.11736878855947019 0.099262147589397345 0 0.072340659132099805 0.15787534671757081 0 0.05842534974831818 0.058425349748568167 0 0.11736878855947019 0.099262147589397345 0 0.099999999999814668 0 0 0 0.20000000000083221 0 0.076754417114036966 0.24517625929728579 0 0 0.30000000000124832 0 0 0.20000000000083221 0 0.072340659132099805 0.15787534671757081 0 0.076754417114036966 0.24517625929728579 0 0 0.10000000000041601 0 0 0.20000000000083221 0 0.072340659132099805 0.15787534671757081 0 0.11736878855947019 0.099262147589397345 0 0.072340659132099805 0.15787534671757081 0 0.15713224427556369 0.19462055031758391 0 0.072340659132099805 0.15787534671757081 0 0.076754417114036966 0.24517625929728579 0 0.15713224427556369 0.19462055031758391 0 0.076754417114036966 0.24517625929728579 0 0.15713224427556369 0.19462055031758391 0 0.13575432176650609 0.26177349842400482 0 0.15713224427556369 0.19462055031758391 0 0.1941589268096966 0.28301425698743637 0 0.13575432176650609 0.26177349842400482 0 0.11736878855947019 0.099262147589397345 0 0.15713224427556369 0.19462055031758391 0 0.2049592257883151 0.1136587120754589 0 0.15713224427556369 0.19462055031758391 0 0.23632615701395029 0.16695287371417161 0 0.2049592257883151 0.1136587120754589 0 0.23632615701395029 0.16695287371417161 0 0.2049592257883151 0.1136587120754589 0 0.28999131001604278 0.1096412864478291 0 0.15713224427556369 0.19462055031758391 0 0.23632615701395029 0.16695287371417161 0 0.2299760630703524 0.2225257972182236 0 0.15713224427556369 0.19462055031758391 0 0.2299760630703524 0.2225257972182236 0 0.1941589268096966 0.28301425698743637 0 0.099999999999814668 0 0 0.17145071998201811 0.060258457788043909 0 0.19999999999955789 0 0 0.11736878855947019 0.099262147589397345 0 0.099999999999814668 0 0 0.17145071998201811 0.060258457788043909 0 0.11736878855947019 0.099262147589397345 0 0.17145071998201811 0.060258457788043909 0 0.2049592257883151 0.1136587120754589 0 0.17145071998201811 0.060258457788043909 0 0.2049592257883151 0.1136587120754589 0 0.23947795756627041 0.055127514674138137 0 0.2049592257883151 0.1136587120754589 0 0.23947795756627041 0.055127514674138137 0 0.28999131001604278 0.1096412864478291 0 0.23947795756627041 0.055127514674138137 0 0.19999999999955789 0 0 0.29999999999926641 0 0 0.17145071998201811 0.060258457788043909 0 0.23947795756627041 0.055127514674138137 0 0.19999999999955789 0 0 0.23947795756627041 0.055127514674138137 0 0.29999999999926641 0 0 0.28999131001604278 0.1096412864478291 0 0.29999999999926641 0 0 0.35406483083248758 0.078537905902684224 0 0.3999999999989749 0 0 0.35406483083248758 0.078537905902684224 0 0.28999131001604278 0.1096412864478291 0 0.37053906278907522 0.16071991210652001 0 0.29999999999926641 0 0 0.35406483083248758 0.078537905902684224 0 0.28999131001604278 0.1096412864478291 0 0.23632615701395029 0.16695287371417161 0 0.28999131001604278 0.1096412864478291 0 0.29454411933247859 0.1942182557279433 0 0.29454411933247859 0.1942182557279433 0 0.31214747383698288 0.25112655154953339 0 0.26096379286661558 0.26049523993944562 0 0.23632615701395029 0.16695287371417161 0 0.2299760630703524 0.2225257972182236 0 0.29454411933247859 0.1942182557279433 0 0.2299760630703524 0.2225257972182236 0 0.29454411933247859 0.1942182557279433 0 0.26096379286661558 0.26049523993944562 0 0.34214461957799158 0.21523300106526999 0 0.37053906278907522 0.16071991210652001 0 0.3848394463845129 0.2263717102278168 0 0.29454411933247859 0.1942182557279433 0 0.34214461957799158 0.21523300106526999 0 0.37053906278907522 0.16071991210652001 0 0.29454411933247859 0.1942182557279433 0 0.34214461957799158 0.21523300106526999 0 0.31214747383698288 0.25112655154953339 0 0.34214461957799158 0.21523300106526999 0 0.35426299167392977 0.25566377588317091 0 0.31214747383698288 0.25112655154953339 0 0.34214461957799158 0.21523300106526999 0 0.3848394463845129 0.2263717102278168 0 0.35426299167392977 0.25566377588317091 0 0.3848394463845129 0.2263717102278168 0 0.38383376806569858 0.26564947200433758 0 0.35426299167392977 0.25566377588317091 0 0.28999131001604278 0.1096412864478291 0 0.29454411933247859 0.1942182557279433 0 0.37053906278907522 0.16071991210652001 0 0.37053906278907522 0.16071991210652001 0 0.41260066262683931 0.20084244419234801 0 0.44588396814009912 0.17331830423126529 0 0.37053906278907522 0.16071991210652001 0 0.44588396814009912 0.17331830423126529 0 0.41114656741565858 0.1169976912362575 0 0.37053906278907522 0.16071991210652001 0 0.3848394463845129 0.2263717102278168 0 0.41260066262683931 0.20084244419234801 0 0.41260066262683931 0.20084244419234801 0 0.44102434814492297 0.21276705521226619 0 0.44588396814009912 0.17331830423126529 0 0.41260066262683931 0.20084244419234801 0 0.42308142495795342 0.2341556686316493 0 0.44102434814492297 0.21276705521226619 0 0.3848394463845129 0.2263717102278168 0 0.41260066262683931 0.20084244419234801 0 0.42308142495795342 0.2341556686316493 0 0.3848394463845129 0.2263717102278168 0 0.42308142495795342 0.2341556686316493 0 0.41326197172237811 0.26477705272558139 0 0.42308142495795342 0.2341556686316493 0 0.45279136658191632 0.2454645808094798 0 0.43237610775568341 0.25442832268994081 0 0.45279136658191632 0.2454645808094798 0 0.44102434814492297 0.21276705521226619 0 0.47076431841780703 0.21005427819658859 0 0.42308142495795342 0.2341556686316493 0 0.45279136658191632 0.2454645808094798 0 0.44102434814492297 0.21276705521226619 0 0.45279136658191632 0.2454645808094798 0 0.47076431841780703 0.21005427819658859 0 0.4815757853575543 0.24579687230515479 0 0.45279136658191632 0.2454645808094798 0 0.4815757853575543 0.24579687230515479 0 0.46983414298779852 0.25850080530540981 0 0.44102434814492297 0.21276705521226619 0 0.47076431841780703 0.21005427819658859 0 0.44588396814009912 0.17331830423126529 0 0.47076431841780703 0.21005427819658859 0 0.44588396814009912 0.17331830423126529 0 0.50086900227669984 0.19286909959646639 0 0.47076431841780703 0.21005427819658859 0 0.50086900227669984 0.19286909959646639 0 0.50493807540744373 0.22547032939714651 0 0.47076431841780703 0.21005427819658859 0 0.4815757853575543 0.24579687230515479 0 0.50493807540744373 0.22547032939714651 0 0.4815757853575543 0.24579687230515479 0 0.50493807540744373 0.22547032939714651 0 0.5053074179542888 0.25558383997991369 0 0.44588396814009912 0.17331830423126529 0 0.4677358305654189 0.12029665150275309 0 0.41114656741565858 0.1169976912362575 0 0.44588396814009912 0.17331830423126529 0 0.50425007665466071 0.1543133975765052 0 0.50086900227669984 0.19286909959646639 0 0.44588396814009912 0.17331830423126529 0 0.4677358305654189 0.12029665150275309 0 0.50425007665466071 0.1543133975765052 0 0.4677358305654189 0.12029665150275309 0 0.51867624734975648 0.088315711926529455 0 0.50425007665466071 0.1543133975765052 0 0.4677358305654189 0.12029665150275309 0 0.45872229326691988 0.068538152543207831 0 0.41114656741565858 0.1169976912362575 0 0.4677358305654189 0.12029665150275309 0 0.45872229326691988 0.068538152543207831 0 0.51867624734975648 0.088315711926529455 0 0.45872229326691988 0.068538152543207831 0 0.49999999999869432 0 0 0.51867624734975648 0.088315711926529455 0 0.45872229326691988 0.068538152543207831 0 0.49999999999869432 0 0 0.3999999999989749 0 0 0.45872229326691988 0.068538152543207831 0 0.3999999999989749 0 0 0.41114656741565858 0.1169976912362575 0 0.35406483083248758 0.078537905902684224 0 0.3999999999989749 0 0 0.41114656741565858 0.1169976912362575 0 0.35406483083248758 0.078537905902684224 0 0.37053906278907522 0.16071991210652001 0 0.41114656741565858 0.1169976912362575 0 0.43249173470276692 0.43605546750222562 0 0.39881017495814691 0.37981101166726439 0 0.36836445410485769 0.42067733685348679 0 0.43249173470276692 0.43605546750222562 0 0.39881017495814691 0.37981101166726439 0 0.45522499340423078 0.37613645989242978 0 0.39881017495814691 0.37981101166726439 0 0.36836445410485769 0.42067733685348679 0 0.36154998589044901 0.38764479892760112 0 0.43249173470276692 0.43605546750222562 0 0.38189419247384238 0.4721560634170604 0 0.36836445410485769 0.42067733685348679 0 0.43249173470276692 0.43605546750222562 0 0.38189419247384238 0.4721560634170604 0 0.42909338950739018 0.52467798151510692 0 0.43249173470276692 0.43605546750222562 0 0.42909338950739018 0.52467798151510692 0 0.5 0.49999999999978328 0 0.43249173470276692 0.43605546750222562 0 0.5 0.40999999999999998 0 0.5 0.49999999999978328 0 0.43249173470276692 0.43605546750222562 0 0.45522499340423078 0.37613645989242978 0 0.5 0.40999999999999998 0 0.45522499340423078 0.37613645989242978 0 0.50132877827535338 0.35252027608574538 0 0.5 0.40999999999999998 0 0.45522499340423078 0.37613645989242978 0 0.46667455788352991 0.33788550640099418 0 0.50132877827535338 0.35252027608574538 0 0.48720285358562221 0.3239045130877074 0 0.46667455788352991 0.33788550640099418 0 0.50132877827535338 0.35252027608574538 0 0.48720285358562221 0.3239045130877074 0 0.48192289753786849 0.30643335198073812 0 0.5 0.31 0 0.48720285358562221 0.3239045130877074 0 0.5 0.31 0 0.51253325434506491 0.32271926641898069 0 0.48720285358562221 0.3239045130877074 0 0.46075763347191678 0.31386867763978632 0 0.48192289753786849 0.30643335198073812 0 0.48720285358562221 0.3239045130877074 0 0.46667455788352991 0.33788550640099418 0 0.46075763347191678 0.31386867763978632 0 0.46075763347191678 0.31386867763978632 0 0.43666021677150701 0.30666666666668119 0 0.43204471460558852 0.34054649
[...]
<PointData Scalars="temperature,region_id," Vectors="" Tensors="">
<DataArray type="Float64" Name="temperature" format="ascii">
273.00000054247147 272.9999987066779 272.99999875685268 273.00000001715051 272.99999997092226 272.99999947252121 272.99999626996737 272.99999893331994 273.00000651814236 272.99999465230468 273.00003822659249 273.00001043451527 273.00000021698293 273.00000125394217 272.99999905888365 272.99933469250698 273.00165040367381 273.00102074023761 273.0000535251915 273.00033579668991 272.99888640626676 272.9999588649153 273.00010608249465 273.00011965145671 273.00008996777058 272.9999835145652 273.00001010924785 273.00069239524896 272.99851708585697 272.99176323591524 273.00564849662618 272.97963911357328 273.02672935706016 272.96635292503015 273.15299030551603 273.03802948217754 273.00004140450636 272.99995051639166 273.00019021534359 272.99967074980555 272.99910864734085 273.00040788640882 272.9990161631506 273.00071400555817 273.00166380383268 273.00014368922524 272.99846670995504 272.98242705169588 272.93635013431742 273.04605023039119 273.18945582712149 273.00000228123935 272.99999353796358 273.00000270644472 273.00000184058621 272.99999895172562 272.99999133839788 273.00001509656937 272.99997869275717 273.00010466894486 272.99995184973841 273.0001403292851 272.99991740262885 273.00019543489128 272.9998826926514 273.00016213828559 273.00000012878013 272.9999974393512 272.99998727474974 272.9999896784268 272.99999314500042 273.00000474934831 273.0000035726618 272.99998248383258 273.00004036022432 273.00000060888073 272.99999761540141 273.00000338978225 273.00047057568145 272.99983779728518 272.99943698523253 272.99997540817185 273.00010956925843 273.00004728848597 272.99830015145233 273.00216680931868 272.99465544201939 272.76804811329589 273.96969637793785 273.67835494758219 273.00196776623523 272.97778326304245 272.94332832805122 273.02078718772776 272.86266387383927 273.55558860338448 273.18143217664965 272.86970155547624 273.31074874182241 273.03375759857641 273.14235680682117 272.91019785719703 272.71059989416244 272.98623538339638 273.97642132621894 272.73713476049426 275.72639359386176 274.49756881122937 272.5098224105929 273.50848117853127 275.95860227037838 273.33838622923133 279.25453558487203 276.53597992715493 273.00243948332735 272.99431092527726 272.97150840411535 273.03048154093585 272.9612574910937 273.05333080608096 272.99983310127135 273.00053747510628 272.998932970537 272.85578314599798 273.33211704248794 272.85456272642239 272.92338088022007 272.79694167323731 273.081150397984 272.48217591685358 274.49865714718419 272.82394381601131 273.87433213340586 272.54588861377425 274.42301261769586 272.86756648315713 274.78913573459744 280.8983654743846 274.26085104309459 277.53547662642245 280.01224121889254 276.22805948605065 272.66368494218568 272.03039527663691 274.90351128699263 276.18603370456299 272.65247238114893 276.5291609189087 271.84216387654641 275.94217744927454 277.6255487489837 277.25687267184634 281.98043496233146 272.76367739228499 272.88601135210843 273.11526225212975 273.04657564997439 272.98393159309944 273.0089968273557 273.08459893238944 272.99121223610433 273.0597958431369 272.23919065128297 275.66879785520842 272.56341876055586 276.55508897967951 272.07125716465629 277.48972654480548 273.00035815363435 272.99992694459166 272.99987005845719 273.00087595250625 273.00025047728639 272.99719221011298 273.00045855605737 272.99984365677193 273.00013910247588 273.00000201400093 272.99986535211616 273.00013214789402 272.999947465275 273.0000478352876 272.99997805026663 272.99992063953096 273.00008450197623 273.00002459605554 273.00003995557699 273.00007263268969 273.00037229868923 273.00003157209989 273.00007304622096 272.99999905418872 273.00002809289805 273.00000471188912 272.99999849684497 272.99999392780217 273.00000816425535 272.99999797926313 273.00006651153024 272.99951232637648 272.99945636432699 272.77664310427338 273.40181119092858 272.97613021267745 272.68992086529965 273.50831211394956 273.62625883196677 273.40192869498605 272.96912303571304 273.2532438622145 272.9253841345465 273.02755932500963 272.93418173226951 273.00540363776059 273.00025484592186 272.99952007627667 273.0071673093218 272.99744194351132 272.9987096543847 273.01065626656828 273.0167868401407 272.99727132576004 272.66957276089755 273.63130069460402 272.46112677485064 274.23077258579349 275.35133548154499 272.04653372042537 273.19093169415879 283.60372118214349 278.08755649271581 286.57370141070061 283.29097907753061 279.23262757045342 285.31202715006663 285.66378184109402 285.79822040700503 285.22987507363337 285.80858497281213 285.46426322921917 285.34370958802282 285.11445416145079 285.63163521116212 285.67781051290052 284.13162676069982 285.29931955780097 285.51113890652181 284.84006515856481 282.71314777617539 283.99151462763723 285.61734900402678 282.49964399611144 273.42934276289679 283.46108103705978 282.23693467718653 277.32089246207556 281.87322607457605 285.06346309446224 277.26761008029735 284.21824024569463 285.11506044468797 276.83816710932246 284.39207780155033 279.19603940366022 284.27801090790575 284.29462971517182 285.76052182732087 284.34442016539134 285.6829115466553 284.93666437499689 284.47293170382528 285.48718140613664 284.52403544402728 282.48648675501596 284.57751784878297 284.87356940839902 284.47285358202731 285.47407650985235 285.65384512715127 285.33371318950424 285.61626736080143 285.31620480178935 285.34973837925293 285.39586111765516 284.71324227165644 285.33246658820059 285.54338211510765 285.62042806155267 285.54433436062277 285.73972355877021 285.74379011156577 285.50494586317961 285.76405723026789 285.61423447318498 285.71880864191729 285.78579911627929 285.74381382086693 285.71403291242808 285.73829764682347 285.7865717422722 285.54912395078168 285.73668663425946 285.6144228696736 285.71709136169136 285.61370065729886 285.73861867761781 285.74827049328007 285.60677538395959 285.80623435102189 285.6057440095791 285.74484747431541 285.60047902029834 285.74352073988803 285.80816702139435 285.80815674201227 285.73964477890968 285.80928337755068 285.78659323415343 285.14002846176317 285.61401944081814 285.35138242174219 285.60607437336762 285.60703390436413 285.33294099550261 285.15183236908422 284.88053154613351 285.36253975385739 285.16899448495968 284.85271773555343 284.48606514814026 284.90974847390112 283.92143771646346 283.91292126625672 284.84929971538418 285.41595521796108 284.7167361731382 284.88748567883067 284.69724515249186 283.92143615597951 278.397162497311 285.44674253763128 284.52859079428453 278.3940092453438 284.57609425358208 279.83533820241763 278.18995526775092 282.12210841694554 285.54469127375881 274.55395241388243 281.49761846818279 279.92338354416586 284.47383203625435 281.21046571652892 279.97100433001754 284.01167169864277 281.75367300595076 284.15499081785873 281.80803834005826 284.16012697782753 282.95545620581765 284.86290758076461 283.96496282975232 284.51429667227131 283.96710503541334 284.61558182887222 283.58957004290454 283.99103603681408 282.77519127454246 283.59374348498625 282.87613414953375 283.6025989102659 281.54498391398653 282.90643665010822 281.55366880975822 280.89466689547902 283.10685807004648 279.93182976430415 280.98375181082736 273.06005318167081 280.74009704182731 279.48836756235573 281.73087028399476 283.11253386390302 279.87451681660662 273.22467086191062 281.43127594675656 280.12087126082707 273.0700766028624 273.82818222864347 281.56243003226177 284.87942113557784 282.70413236022785 283.44397566423436 282.6204435560075 283.64934512576514 280.65808124630786 280.33092011596551 281.59602744253669 276.28950581986601 283.68630237519682 280.66994399061849 281.35284089809926 273.58733925707634 279.77015214212884 276.27109403044705 273.70185686124006 275.95251352015873 272.80816573377422 281.47787595060765 276.48166232067109 279.57949639238097 276.61859848486461 279.43006977419412 276.5536340331289 276.20894218204302 276.56450264161771 273.60669323401828 275.18647710383772 273.88082884313542 272.73996399521235 279.68565469673234 276.66786725167202 281.20261641285913 276.87918785169944 281.03487645095771 278.17205175042426 279.42049302748597 280.88899883846278 278.04467303638495 281.53025934152538 279.38061799121459 280.94126002014303 279.32772585417018 276.76968216773366 278.15055694977127 276.82018279942082 278.02203707166905 275.58698867188832 276.73640816015222 278.11709920239207 274.37870871005629 277.85654438695553 274.67017531651959 275.89145914262008 274.70209891439634 275.71660337646216 273.5888032770294 275.49685811258382 273.81504442063084 274.30317124861824 275.58061938076293 274.67114622305343 274.09184318712119 276.33219133150538 273.80212464534503 274.56925188705787 276.59678826308829 275.70344633748789 274.62579452216835 274.45318704533571 274.16346435665656 273.34071064794398 273.80082748507994 274.47877839305607 273.18042304929367 274.31504183193181 273.27660603678095 273.31196818840374 273.24071014211404 272.90946344052065 272.90816400136237 273.02118650426866 273.00203603203539 273.01015760768865 273.03275031628061 273.05964123073119 272.97406984280479 273.02513984479856 272.9809002192909 272.99648639212296 273.60092370378294 273.32688787961808 272.85129853619185 273.65927740400627 272.79701475468431 272.87483550681401 273.06958602460702 272.98508605591923 272.96228703951527 275.45189038958955 272.53517655203899 273.05037959981314 273.11818289882234 272.99522628285803 273.22562427977545 273.01460433324422 272.95076178434448 273.00179087197449 273.00521617614447 273.00428966699263 272.9986107828849 273.00352780218645 272.99906950261914 272.99892425941869 273.00282296924712 273.00019779720242 272.99956932656994 272.99562839355133 272.99428103539168 273.00355994741733 272.99573627493902 273.00204872009363 272.99903437112795 273.00092250196832 272.99999414136187 273.00011682699432 273.00008438294384 273.00001511264117 273.00001474524373 273.00001614725255 272.99999831034131 272.99998063166117 273.00478096965873 272.99255205609279 273.00341397271626 273.00755916233294 272.99900042838783 272.9879699242922 273.00160777261323 272.99752170538869 273.00866491573009 273.23998019016614 272.91624796103235 273.27666518314879 272.95079617170319 272.95439144140806 273.2186246912247 272.99141589243578 272.98419210682317 273.05558832157857 272.99450116023712 272.99800586479267 273.00172531203202 272.999031537912 273.00090050290669 273.00048102147224 273.0000154115408 273.00000669846105 272.99996724120859 273.05658916539386 273.56689862591901 273.26815579457843 273.80963407614735 273.14555602616582 274.16769541379091 273.33729574908472 274.05017792771037 273.45927163370135 273.33094773133973 273.41631131371565 273.07493733454442 272.97894604988261 273.18812451428664 273.07862834125433 273.27501172157469 273.09338771223605 273.00991864751916 272.99292864112556 273.05820427208528 273.03116891325698 273.18664759013245 273.03120177289708 273.05399893061451 272.99617675780877 273.02951374464607 273.04372787827435 273.0063846179861 273.02892965477037 273.00343504799559 272.99840222450899 273.02271376809142 272.99978654080269 273.00137678381412 273.00059620040895 272.99975557069888 273.00522240493393 273.00330514090234 272.99957505360317 273.00007174358547 273.00009159245246 272.99996927726454 272.99931313079617 273.00000687820409 273.00028594612058 272.99921651671286 272.9997535659918 272.99997355358732 272.99979166827524 272.99994718321778 273.00000006115351 273.00000328884522 272.99998756381183 273.00001524944059 273.0000483541782 272.9999953452089 272.999985738161 272.99999623729548 272.99999617963675 273.00000203308332 272.99999739293776 272.99999922918181 272.99998095900781 273.00000008229779 272.99999994665808 273.00000019561037 273.00000002843643 272.99999997830679 273.00000000253311 272.99999999336575 273.0000000030895 273.00000000030866 273.00000000000006 272.99999999998278 272.99999999998329 272.99999999999551 272.99999999999721 273.00000000000341 273.00000000001751 272.9999999999954 273.00000000027393 272.9999999999954 272.99999999997772 273.00000000001614 272.99999999852815 273.00000000090989 273.00000000090898 272.99999999983982 272.99999999904054 273.00000000049977 272.99999999995924 273.00000000012284 273.00000000005571 272.99999999990069 273.00000000003951 273.00000000199316 272.99999999967633 273.00000000266488 273.00000000652182 272.9999999996586 273.00000000290578 273.00000000684582 273.00000000237304 272.99999998670381 273.00000001165427 272.99999999743284 273.00000000109179 272.99999998933203 272.99999999287462 272.99999994738619 272.99999999613436 272.99999999971698 273.00000030326709 273.00000003963612 272.99999991164452 273.00000001803539 273.00000037330801 272.99999984323892 273.00000045266546 273.00000070554279 273.00000666620468 272.99997723978839 272.99997435213101 272.9999791697964 272.99998932834484 272.99994304501109 273.00000238834872 272.99998258362751 272.99999704148831 273.00000133755287 272.99999849379356 273.00000083510656 272.99999989078543 272.99999886324383 273.00000072144314 272.99999998366252 272.99999999960789 273.0000000249978 272.99999999427018 272.99999998789065 273.00000001627291 272.99999999990871 272.99999999994344 272.9999999998621 272.99999999988609 272.99999999998437 272.99999999997408 272.99999999998749 273.00000000000847 272.99999999999056 272.9999999999979 272.99999999999443 273.00000000003035 273.00000000000603 273.00000000000341 272.99999999986153 272.99999999998033 273.0000000000577 272.99999999961454 273.00000000000625 273.00000000001091 272.99999999999324 273.0000000000029 273.00000000000034 273.00000000000881 273.00000000000222 272.99999999999295 272.99999999999716 273.00000000006378 273.00000000010027 272.99999999973409 272.99999999996919 273.00000000002956 273.0000000000494 273.00000000021117 273.0000000006176 272.99999999953752 273.00000000022186 272.99999999996771 273.00000000190948 272.99999999455753 273.0000000145684 273.00000000623277 273.00000000092052 272.99999999897523 273.00000000796587 273.00000000012011 272.99999999923313 273.00000000027762 272.99999999844971 273.00000000080223 273.00000000922211 272.9999999974998 273.00000001664324 273.00000001210157 273.00000002613569 273.00000001399764 272.99999969334391 272.99999999999909 272.99999999985079 273.00000000793847 272.99999784995941 272.99999921377213 273.00001023067171 273.00000002332644 272.99999893605991 273.00000066207326 273.00000016519056 272.99999943323968 273.00000032988072 273.00000003300573 272.99999945951555 273.00000001216091 273.00000348764445 272.99999943520913 272.99999184432033 272.99999997955018 273.00000208353049 273.00000018133142 272.99999817396099 273.00000101260946 272.99999745090224 273.00000032348242 273.00000017210516 273.00000141343793 272.99999887376146 273.00000055002812 273.00000040787558 273.00000026121506 272.99999998695523 273.00000016546295 272.99999998986129 273.0000000329656 273.00000012082074 272.99999999730625 273.00000001424695 273.00000010408655 273.00000001099573 273.00000018525856 273.000000289306 273.00000018254207 273.00000086065904 273.00000034500385 273.00000002496319 273.00000094283087 273.00000145142701 273.00000095448189 273.00000444355044 273.000001716268 273.00000522167562 273.00000133111809 273.000008533531 273.00000036695059 273.00000840640212 273.00000834657709 273.00000967766056 273.00003908483075 273.00000901895868 273.00000911175533 273.00002322373786 273.00003825074282 273.00000460244331 273.00001016147172 273.00002021137198 273.00002262798029 273.00006522750709 273.00004412988989 273.00006977433173 273.00014527685863 273.00004237116622 273.00017123225456 273.00014111469699 273.00037233802874 273.00015908480685 273.00013647553834 273.00003087101481 273.0001444385581 273.00044274674741 273.00040928777412 273.00013434115408 273.00020745591252 273.00055524756215 273.00010571095726 273.00004473336793 273.00000455142623 273.00026022304729 272.99990719019911 273.00037977031593 273.00012162175159 273.00016629971577 272.99998630220011 273.00018361309554 273.00003830131396 272.99997653821367 273.00000255159148 273.00001431760376 272.99999970653028 273.00002517754456 272.99999062552183 272.99998630309386 273.00000675994909 272.99998707822795 273.00005785837999 272.99995570065022 272.99994981317985 273.0000983814304 272.99990072753968 273.00016535381803 273.00150695890392 273.00001364684528 273.00003220675012 272.99996285618943 273.00008074457583 272.99983091719866 272.99967565843741 272.99999178867586 273.00000966817663 273.00002077789867 273.00000121204954 273.00000245708321 272.99999988864892 273.00000135786769 273.00000740016941 273.00000249322733 273.0000002692201 273.00000006450068 273.00000019710507 272.99999978377082 272.99999786652563 273.00000216355312 273.00000001433102 273.00000126839706 273.00000235549544 272.99999876479524 273.00000931413604 273.00001883039647 273.00026970945294 273.00005891513331 272.99960576263811 272.99997812726122 272.99989235224552 272.99980047551452 272.99991766602005 273.00000592715747 272.99996305049956 272.99997269718119 272.99990100352966 273.00000603083708 273.00000618104468 272.99996579238683 272.99999328183662 273.00000321973027 272.99999821684975 273.00000202700693 272.99999053091062 272.9998084576988 272.99994965632123 272.99999990190247 272.99999864335911 273.00000195933762 273.0000021919663 273.00000037551314 273.00000001032691 273.00000021233069 273.00000006992792 272.99999992617097 272.99999997270589 273.00000016526508 272.99999994129098 272.99999998095586 272.99999999640846 273.00000001677427 273.00000001109953 273.00000005461931 273.00000000778147 272.99999999755715 273.0000000738039 273.00000007391054 273.00000008201681 272.99999998945299 273.00000014113795 273.00000000234149 273.0000000316636 273.00000000871233 273.00000004393888 272.99999999690675 273.00000004027959 273.00000006286109 272.99999999641295 273.00000003724472 273.0000000500666 273.00000004484968 273.00000022599949 273.00000000948143 273.00000028120741 273.00000020146189 273.00000007788975 273.00000003602469 273.00000019851018 273.0000000799115 273.00000116571067 273.00000104275824 273.00000022482897 273.00000047728435 273.00000132210096 273.00000108301862 273.00000423284115 273.00000138604952 273.00000105149525 273.00000018188024 273.00000126226581 273.00000032614946 273.00000020116829 273.00000099569201 273.00000006894459 273.00000035535766 273.00000048281623 273.00000024268127 273.00000028198713 273.00000102303096 273.00000008011597 273.00000008593253 273.00000030723101 273.00000005358157 273.00000024610887 273.00000041015454 273.00000023909274 273.00000227974999 273.0000017230318 273.00000037315311 273.00000053214166 273.00000158193563 273.00000159144969 273.00000978305616 273.00000394404634 273.00000059872218 273.00000169765372 273.00000357565807 273.00000262482536 273.00000557758665 273.00000171431174 273.00001785813186 273.00000493138106 273.00002734234698 273.00000203294957 273.00001435619311 273.00000639273509 273.00000100615 273.0000148742019 273.00001086953893 273.00000517187027 273.00000089904648 273.00000415456742 273.00000557559707 273.00000424220644 273.00001134233793 273.00000133532376 273.00000304455153 273.00000109781644 273.00000313989739 273.0000010557406 273.00000384451965 273.0000056610549 273.00000115338946 273.0000041095692 273.00000606607051 273.00001087657466 273.00002300396892 273.00000626924287 273.00001038637106 273.00000408466508 273.0000104610304 273.00000299267811 273.00001242751836 273.00000449303877 273.00002139904581 273.00001282435187 273.00000370279713 273.00000376708903 273.00001117531878 273.00001024171274 273.00001346907294 273.00003404308819 273.00002484904803 273.00001195549157 273.00003559478967 273.0000703057575 273.00003603766942 273.00008251162745 273.00006938016219 273.00008565133066 273.00016708747984 273.00002389675706 273.00006404771995 273.00003861359176 273.00003694758743 273.00007960925996 273.00004793455554 273.0000842850319 273.00004500073806 273.00010287932577 273.00000677861016