<?xml version="1.0"?>
<VTKFile type="UnstructuredGrid" version="0.1" byte_order="LittleEndian">
<UnstructuredGrid>
<Piece NumberOfPoints="8154" NumberOfCells="2718">
<Points>
<DataArray type="Float64" NumberOfComponents="3" format="ascii">
0 0 0 0.05842534974831818 0.058425349748568167 0 0 0.10000000000041601 0 0 0 0 0.099999999999814668 0 0 0.05842534974831818 0.058425349748568167 0 0 0.10000000000041601 0 0.05842534974831818 0.058425349748568167 0 0.072340659132099805 0.15787534671757081 0 0.11736878855947019 0.099262147589397345 0 0.072340659132099805 0.15787534671757081 0 0.05842534974831818 0.058425349748568167 0 0.099999999999814668 0 0 0.11736878855947019 0.099262147589397345 0 0.05842534974831818 0.058425349748568167 0 0 0.30000000000124832 0 0 0.20000000000083221 0 0.076754417114036966 0.24517625929728579 0 0 0.20000000000083221 0 0.072340659132099805 0.15787534671757081 0 0.076754417114036966 0.24517625929728579 0 0 0.20000000000083221 0 0 0.10000000000041601 0 0.072340659132099805 0.15787534671757081 0 0.15713224427556369 0.19462055031758391 0 0.072340659132099805 0.15787534671757081 0 0.11736878855947019 0.099262147589397345 0 0.15713224427556369 0.19462055031758391 0 0.076754417114036966 0.24517625929728579 0 0.072340659132099805 0.15787534671757081 0 0.15713224427556369 0.19462055031758391 0 0.13575432176650609 0.26177349842400482 0 0.076754417114036966 0.24517625929728579 0 0.15713224427556369 0.19462055031758391 0 0.1941589268096966 0.28301425698743637 0 0.13575432176650609 0.26177349842400482 0 0.15713224427556369 0.19462055031758391 0 0.11736878855947019 0.099262147589397345 0 0.2049592257883151 0.1136587120754589 0 0.15713224427556369 0.19462055031758391 0 0.2049592257883151 0.1136587120754589 0 0.23632615701395029 0.16695287371417161 0 0.2049592257883151 0.1136587120754589 0 0.28999131001604278 0.1096412864478291 0 0.23632615701395029 0.16695287371417161 0 0.15713224427556369 0.19462055031758391 0 0.23632615701395029 0.16695287371417161 0 0.2299760630703524 0.2225257972182236 0 0.15713224427556369 0.19462055031758391 0 0.2299760630703524 0.2225257972182236 0 0.1941589268096966 0.28301425698743637 0 0.099999999999814668 0 0 0.19999999999955789 0 0 0.17145071998201811 0.060258457788043909 0 0.099999999999814668 0 0 0.17145071998201811 0.060258457788043909 0 0.11736878855947019 0.099262147589397345 0 0.2049592257883151 0.1136587120754589 0 0.11736878855947019 0.099262147589397345 0 0.17145071998201811 0.060258457788043909 0 0.2049592257883151 0.1136587120754589 0 0.17145071998201811 0.060258457788043909 0 0.23947795756627041 0.055127514674138137 0 0.2049592257883151 0.1136587120754589 0 0.23947795756627041 0.055127514674138137 0 0.28999131001604278 0.1096412864478291 0 0.19999999999955789 0 0 0.29999999999926641 0 0 0.23947795756627041 0.055127514674138137 0 0.19999999999955789 0 0 0.23947795756627041 0.055127514674138137 0 0.17145071998201811 0.060258457788043909 0 0.29999999999926641 0 0 0.28999131001604278 0.1096412864478291 0 0.23947795756627041 0.055127514674138137 0 0.29999999999926641 0 0 0.3999999999989749 0 0 0.35406483083248758 0.078537905902684224 0 0.35406483083248758 0.078537905902684224 0 0.37053906278907522 0.16071991210652001 0 0.28999131001604278 0.1096412864478291 0 0.29999999999926641 0 0 0.35406483083248758 0.078537905902684224 0 0.28999131001604278 0.1096412864478291 0 0.29454411933247859 0.1942182557279433 0 0.23632615701395029 0.16695287371417161 0 0.28999131001604278 0.1096412864478291 0 0.29454411933247859 0.1942182557279433 0 0.31214747383698288 0.25112655154953339 0 0.26096379286661558 0.26049523993944562 0 0.29454411933247859 0.1942182557279433 0 0.2299760630703524 0.2225257972182236 0 0.23632615701395029 0.16695287371417161 0 0.2299760630703524 0.2225257972182236 0 0.29454411933247859 0.1942182557279433 0 0.26096379286661558 0.26049523993944562 0 0.3848394463845129 0.2263717102278168 0 0.34214461957799158 0.21523300106526999 0 0.37053906278907522 0.16071991210652001 0 0.29454411933247859 0.1942182557279433 0 0.37053906278907522 0.16071991210652001 0 0.34214461957799158 0.21523300106526999 0 0.29454411933247859 0.1942182557279433 0 0.34214461957799158 0.21523300106526999 0 0.31214747383698288 0.25112655154953339 0 0.31214747383698288 0.25112655154953339 0 0.34214461957799158 0.21523300106526999 0 0.35426299167392977 0.25566377588317091 0 0.3848394463845129 0.2263717102278168 0 0.35426299167392977 0.25566377588317091 0 0.34214461957799158 0.21523300106526999 0 0.3848394463845129 0.2263717102278168 0 0.38383376806569858 0.26564947200433758 0 0.35426299167392977 0.25566377588317091 0 0.29454411933247859 0.1942182557279433 0 0.28999131001604278 0.1096412864478291 0 0.37053906278907522 0.16071991210652001 0 0.44588396814009912 0.17331830423126529 0 0.41260066262683931 0.20084244419234801 0 0.37053906278907522 0.16071991210652001 0 0.44588396814009912 0.17331830423126529 0 0.37053906278907522 0.16071991210652001 0 0.41114656741565858 0.1169976912362575 0 0.3848394463845129 0.2263717102278168 0 0.37053906278907522 0.16071991210652001 0 0.41260066262683931 0.20084244419234801 0 0.44588396814009912 0.17331830423126529 0 0.44102434814492297 0.21276705521226619 0 0.41260066262683931 0.20084244419234801 0 0.42308142495795342 0.2341556686316493 0 0.41260066262683931 0.20084244419234801 0 0.44102434814492297 0.21276705521226619 0 0.3848394463845129 0.2263717102278168 0 0.41260066262683931 0.20084244419234801 0 0.42308142495795342 0.2341556686316493 0 0.3848394463845129 0.2263717102278168 0 0.42308142495795342 0.2341556686316493 0 0.41326197172237811 0.26477705272558139 0 0.45279136658191632 0.2454645808094798 0 0.43237610775568341 0.25442832268994081 0 0.42308142495795342 0.2341556686316493 0 0.45279136658191632 0.2454645808094798 0 0.44102434814492297 0.21276705521226619 0 0.47076431841780703 0.21005427819658859 0 0.45279136658191632 0.2454645808094798 0 0.42308142495795342 0.2341556686316493 0 0.44102434814492297 0.21276705521226619 0 0.45279136658191632 0.2454645808094798 0 0.47076431841780703 0.21005427819658859 0 0.4815757853575543 0.24579687230515479 0 0.45279136658191632 0.2454645808094798 0 0.4815757853575543 0.24579687230515479 0 0.46983414298779852 0.25850080530540981 0 0.44588396814009912 0.17331830423126529 0 0.47076431841780703 0.21005427819658859 0 0.44102434814492297 0.21276705521226619 0 0.47076431841780703 0.21005427819658859 0 0.44588396814009912 0.17331830423126529 0 0.50086900227669984 0.19286909959646639 0 0.50493807540744373 0.22547032939714651 0 0.47076431841780703 0.21005427819658859 0 0.50086900227669984 0.19286909959646639 0 0.50493807540744373 0.22547032939714651 0 0.4815757853575543 0.24579687230515479 0 0.47076431841780703 0.21005427819658859 0 0.50493807540744373 0.22547032939714651 0 0.5053074179542888 0.25558383997991369 0 0.4815757853575543 0.24579687230515479 0 0.44588396814009912 0.17331830423126529 0 0.41114656741565858 0.1169976912362575 0 0.4677358305654189 0.12029665150275309 0 0.50086900227669984 0.19286909959646639 0 0.44588396814009912 0.17331830423126529 0 0.50425007665466071 0.1543133975765052 0 0.44588396814009912 0.17331830423126529 0 0.4677358305654189 0.12029665150275309 0 0.50425007665466071 0.1543133975765052 0 0.50425007665466071 0.1543133975765052 0 0.4677358305654189 0.12029665150275309 0 0.51867624734975648 0.088315711926529455 0 0.45872229326691988 0.068538152543207831 0 0.4677358305654189 0.12029665150275309 0 0.41114656741565858 0.1169976912362575 0 0.45872229326691988 0.068538152543207831 0 0.51867624734975648 0.088315711926529455 0 0.4677358305654189 0.12029665150275309 0 0.49999999999869432 0 0 0.51867624734975648 0.088315711926529455 0 0.45872229326691988 0.068538152543207831 0 0.3999999999989749 0 0 0.49999999999869432 0 0 0.45872229326691988 0.068538152543207831 0 0.45872229326691988 0.068538152543207831 0 0.41114656741565858 0.1169976912362575 0 0.3999999999989749 0 0 0.41114656741565858 0.1169976912362575 0 0.35406483083248758 0.078537905902684224 0 0.3999999999989749 0 0 0.35406483083248758 0.078537905902684224 0 0.41114656741565858 0.1169976912362575 0 0.37053906278907522 0.16071991210652001 0 0.39881017495814691 0.37981101166726439 0 0.43249173470276692 0.43605546750222562 0 0.36836445410485769 0.42067733685348679 0 0.39881017495814691 0.37981101166726439 0 0.45522499340423078 0.37613645989242978 0 0.43249173470276692 0.43605546750222562 0 0.39881017495814691 0.37981101166726439 0 0.36836445410485769 0.42067733685348679 0 0.36154998589044901 0.38764479892760112 0 0.38189419247384238 0.4721560634170604 0 0.36836445410485769 0.42067733685348679 0 0.43249173470276692 0.43605546750222562 0 0.38189419247384238 0.4721560634170604 0 0.43249173470276692 0.43605546750222562 0 0.42909338950739018 0.52467798151510692 0 0.5 0.49999999999978328 0 0.42909338950739018 0.52467798151510692 0 0.43249173470276692 0.43605546750222562 0 0.5 0.40999999999999998 0 0.5 0.49999999999978328 0 0.43249173470276692 0.43605546750222562 0 0.5 0.40999999999999998 0 0.43249173470276692 0.43605546750222562 0 0.45522499340423078 0.37613645989242978 0 0.5 0.40999999999999998 0 0.45522499340423078 0.37613645989242978 0 0.50132877827535338 0.35252027608574538 0 0.46667455788352991 0.33788550640099418 0 0.50132877827535338 0.35252027608574538 0 0.45522499340423078 0.37613645989242978 0 0.46667455788352991 0.33788550640099418 0 0.48720285358562221 0.3239045130877074 0 0.50132877827535338 0.35252027608574538 0 0.5 0.31 0 0.48720285358562221 0.3239045130877074 0 0.48192289753786849 0.30643335198073812 0 0.5 0.31 0 0.51253325434506491 0.32271926641898069 0 0.48720285358562221 0.3239045130877074 0 0.48192289753786849 0.30643335198073812 0 0.48720285358562221 0.3239045130877074 0 0.46075763347191678 0.31386867763978632 0 0.46667455788352991 0.33788550640099418 0 0.46075763347191678 0.31386867763978632 0 0.48720285358562221 0.3239045130877074 0 0.43666021677150701 0.30666666666668119 0 0.46075763347191678 0.31386867763978632 0 0.43204471460558852 0.34054649
[...]
<PointData Scalars="temperature,region_id," Vectors="" Tensors="">
<DataArray type="Float64" Name="temperature" format="ascii">
272.99999999999386 273.00000000000989 273.00000000001148 272.99999999999972 273.00000000000199 272.99999999999989 273.00000000001836 273.00000000003433 272.99999999986971 272.99999999979013 272.99999999977848 273.00000000009419 273.00000000000443 272.99999999998539 272.99999999999898 273.00000000022254 272.9999999997915 273.00000000008913 272.99999999997777 273.0000000009735 272.99999999922392 273.00000000013614 272.99999999989342 273.00000000020481 273.00000000333262 272.99999999969009 272.99999999950927 272.99999999335785 272.9999999984139 273.00000000198446 272.99999997701724 273.00000000549545 273.0000000051993 272.99999995901618 273.00000012004307 273.00000001395375 273.00000000576483 272.99999999814298 272.99999999603222 273.00000001432323 272.99999998960448 273.0000000172559 272.99999999423756 273.00000008550705 273.00000000299275 273.00000002210817 273.0000000711031 272.9999998002956 272.9999999133687 273.00000002964907 273.00000017977334 273.00000000001108 273.00000000004019 272.99999999995754 273.0000000000087 272.99999999998209 272.99999999997868 273.00000000074431 272.9999999999128 272.99999999999704 273.00000000142927 272.99999999957788 272.99999999839167 273.0000000029022 272.99999999703613 273.00000000501035 273.00000000004292 272.99999999975 272.99999999994975 273.00000000009408 272.99999999987574 272.99999999989404 272.99999999952229 273.00000000065802 272.99999999999847 272.99999999999523 273.00000000016263 272.99999999995742 273.00000001156752 272.99999998665834 272.99999999844425 272.999999999159 273.00000000218563 273.00000000103762 272.99999983411749 272.99999997402546 273.00000015210816 272.99999618083007 273.00001581325381 273.00000431154535 272.99999924461338 272.99999962775144 273.0000002008494 272.99999984502767 272.99999793618406 273.0000027334595 273.00003863934575 273.00000741772533 272.99999193454073 273.00000059864851 272.99999623020994 273.0000040759013 272.99999207965101 272.99997027493998 273.00001986099534 273.00006481168521 272.99992252441939 273.00022615844262 272.99957906726661 273.00031615706945 272.99985995200137 272.99907839884537 273.00300038916123 273.00077897770632 272.99999972708429 273.00000027794272 272.99999909203859 273.00001167643336 272.99999851592213 273.00000042299354 273.00000012924744 273.00000002520818 272.99999985813832 273.00005407605863 272.99997739941642 272.9999925441939 273.00002604329654 272.99994302099287 272.99998960740191 273.00032167514678 272.99987723979564 272.99992872025075 273.00014698926225 272.99995130428118 273.00027122687027 272.9972061621171 272.99895696862501 273.00892883050966 273.00114705235325 273.00693869629976 272.99845337215112 273.0014375041539 272.9997523175972 272.99959641814553 273.00130904176643 273.0005094577221 272.99982523296461 273.00187761594026 272.99931893667849 273.00193960692445 273.00202345077611 272.98740482407493 273.04628647752673 273.00004616456272 272.99996277863198 272.99991937508241 273.00002684727679 272.9999890253593 273.0000174877004 273.00002682937026 273.00004535444015 273.00002863481211 272.99846345465045 273.00357518788957 272.99864132416559 272.99631025172778 273.00796578064188 273.00687704365629 273.00000009050228 272.99999996875232 272.99999997079152 272.99999958374508 273.00000047779599 272.99999989587042 273.00000015670724 272.99999993420352 272.99999998484179 273.00000000181694 273.00000000029223 272.99999999732648 273.00000000124788 272.99999999907982 273.00000000005838 273.0000000019416 273.00000000032281 272.99999999863263 272.99999998554944 273.0000000063348 273.00000000337889 273.00000000073715 272.99999999284108 273.00000000012517 273.00000000042684 273.00000000010033 273.00000000017411 273.00000000004388 272.99999999981304 273.00000000035607 273.00000000876122 272.99999994616655 272.99999998344896 272.9998668757658 273.00010684778806 273.00001509638145 272.99977026941605 272.99999792647242 273.00018508885296 272.99989298026009 273.00001310132456 272.99996150035832 272.99998706549593 273.00002100444351 273.00003038571373 273.00000024723153 273.00000064662544 272.99999963393532 272.99999974853 272.99999975264694 273.00000069793583 273.00000551522015 272.99999923319695 273.00000153692901 272.99975010806338 272.99987976282279 273.0003423923921 272.99932592957128 273.00088569484183 273.00219942753006 273.05096942545686 272.98598093068279 272.98232057074455 273.09918944995559 273.33236762975656 272.94730277934121 274.03892959048926 273.46809406009612 273.75820880006387 274.08870343003383 273.58968885747464 273.40815977061698 273.71090942578786 273.49214700773649 273.28565195362648 273.08141097890473 273.3189538278807 273.40425520472485 273.12898088547706 273.23592838036421 273.01483178256785 273.10076665408769 272.98791128619672 273.26295941011301 273.04492879142964 272.98804497738251 273.02226179280768 273.06162643433964 272.97215968907443 273.14830583840472 272.96174188983309 273.13760174039095 273.16027460690083 273.00142751338842 273.1207340867079 272.9785854519418 273.17550762227586 273.1785003614379 273.64142327965203 273.34280090076589 273.7016861233015 273.14282336235743 273.20886767323947 273.4655469171754 273.18269569348911 273.18098990078073 273.19325269176568 273.0455806178669 273.18087453020667 273.64388460452972 273.50319389437453 273.42603150885606 273.49388972970166 273.74654311561108 273.43895682572639 273.19573999208575 273.46843660248567 273.7844220686743 273.4748211745561 273.75026880934956 274.09982731304456 274.03706797072971 273.73442609816266 274.11996614566601 273.68615180011199 273.8862384736093 274.12455045442942 274.16241889836044 274.00461779054712 274.15364077538982 273.98980267050655 273.99996811747241 273.78077821233632 273.75765648148592 274.01242103548344 273.77591204330355 273.99698633705725 273.99315735466814 274.10355505885099 273.7198672516044 274.01256203694703 273.71442983337511 273.76715109464482 273.98989958523106 274.11598787548382 274.00376499440324 274.14998009283357 274.15084051811453 273.99317777474397 274.15397790220618 273.43983024085776 273.66935558751948 273.30159440154637 273.42183644602972 273.75388828315027 273.71214136399226 273.41675127680224 273.31266219464993 273.19682806274932 273.10873159986022 273.20479938995817 273.29384489474745 273.08782618659313 273.17999861057712 273.06693780192546 273.40912070313874 273.19658557989254 273.21620650767068 273.07744869456621 273.20648957384003 273.19849828016311 272.98892872761326 273.13968584702639 273.08115064918513 273.00990089245869 272.99753803948482 273.07231740624775 272.97485851975676 273.0563551830561 273.15610088684434 273.01373069075464 272.99643873885515 273.01000280892146 273.01416199197365 273.01454045980205 273.06255355554214 273.00983062834138 273.07467485303044 273.06819520598481 273.01650871571621 273.06016369984411 273.02655743792246 273.11857890759609 273.06759169263904 273.18538104716998 273.10965634627144 273.04203701654603 273.07075291075455 273.02214555171895 273.06537605979565 273.04395508673542 273.02420405431144 273.03725494526509 273.00742877722251 273.00576823581076 273.0208936818575 273.00926102439422 273.0063916541439 273.00426456204377 273.02011019271782 272.99825786661916 273.0076489070758 273.00377077962446 273.0165276182862 273.02401313588149 273.00163172516454 272.99751000099383 273.00555524118721 273.01178234327392 272.99616571819229 273.0136182329054 272.99438288418054 273.11509796647664 273.02783277613582 273.04253090583245 273.00190940045945 273.03831633654136 273.02763157582183 273.00526408102735 272.99890776335945 273.00690128256463 273.0060435989015 273.00864581842893 273.03190555767594 272.99894287900037 273.00058248680051 273.00398536673339 272.9994009553003 272.99982744497964 273.00026734167602 273.00577805291834 272.99986011554802 273.00233799255471 273.00027326982394 273.00185983678944 273.00023340392141 273.00022507531162 273.00018940923451 272.99994119943722 272.99996634573557 273.00001568837513 273.0000961966465 273.00558687067786 272.99978066141506 273.00395458822999 273.0043471162333 273.0009062695969 273.00055809205298 273.00478154513917 273.00217956068411 273.00065917649829 273.00597443057978 273.00828827044802 273.00172773260499 273.0003160033059 273.00083934581733 273.0017828292743 273.00035633492632 273.00005281416657 273.00068671463788 272.99988593010448 273.00051867042413 273.00076533594256 273.00002380255671 273.00057646069524 273.0001387148011 273.00003743919132 273.00010608586001 272.99998429610889 273.00001687215115 273.00000497652906 273.00007675735424 273.00000666332625 273.00008390776361 273.00003280970378 273.00016892195413 272.99998230111913 273.00003201035651 273.00025876215335 273.00002409557686 273.0001035483163 273.00001121469285 273.000021194498 272.99999912115976 272.99999306008533 273.0000210890787 272.99999281317054 272.99999712474892 273.00000026466984 273.00001447055348 273.00000036575449 272.99999797646649 272.99999945404505 273.00000010830763 272.99999992553114 272.99999978077045 272.99999853316723 273.0000016676093 272.9999993597566 273.00000012231897 272.99999971402298 273.00000118131277 273.0000013189387 273.00000331501894 272.99999684162975 272.99998034986942 272.99999542119679 273.00000485809875 272.99999782667885 273.00000580697014 273.00000232539486 272.99993300393095 273.00014419306729 272.99989979303564 272.99999578857893 272.99996964245383 273.00000565637021 272.99999415500145 272.99999886235673 273.00001215412851 272.99999830230769 273.00000073738221 272.99999874335907 273.00000028334449 272.99999921655319 273.00000040803121 273.00000011122626 273.00000002308815 272.99999947913477 273.00000029777675 273.00000009899503 272.99999975417666 273.00000019573338 272.99999985899785 273.00000004347834 273.00000000621793 272.99999999020491 272.99999994787368 273.00000000198332 272.99999999905373 272.99999999329447 273.00000000090631 273.00000000008265 272.99999999977734 272.99999999406253 273.00000001726687 273.00000000296387 272.99999998104795 272.99999996379921 273.0000000326433 273.0000000926176 273.00000005478017 272.99999995165484 272.99999941660377 272.99999990527067 272.99999978115255 272.99999990423657 273.00000002635858 272.99999982924464 272.99999997496764 272.99999999531059 273.00000001328681 272.99999999607616 273.0000000016999 272.99999999903469 273.00000000007793 272.99999999976518 273.00000000075619 272.99999999999847 272.99999999987057 273.00000000003212 273.00000007819443 273.00000273439781 273.00000025274238 273.00001217132154 272.99999787782758 273.00000589749465 273.00000859028944 273.00000132281286 273.00000090083893 272.9999998574458 273.00000085420356 273.00000107795677 272.99999995657498 273.00000003309498 272.99999993877856 272.99999992551903 273.00000055506894 273.00000000671753 272.99999998049424 273.00000000652074 273.00000000886774 273.00000005144057 272.99999997953569 273.0000002558308 273.00000002726563 272.99999999138998 272.99999999546321 273.00000000914821 272.99999999795926 273.00000000168438 272.99999998894549 273.00000000355675 273.00000000085657 273.00000000015677 272.99999999979093 272.99999999974688 273.00000000002575 273.00000000091217 272.99999999900876 273.00000000000972 272.99999999999437 273.00000000001057 273.00000000002507 273.00000000002046 272.99999999987159 273.00000000113067 272.9999999994991 273.0000000008194 272.99999999997169 273.00000000047334 272.99999999977928 273.00000000002615 272.99999999995811 272.99999999993832 272.99999999999875 273.00000000000534 272.99999999999847 273.00000000000023 272.99999999999949 272.99999999999966 273.00000000000546 273.00000000001125 272.99999999999727 273.0000000000004 273.00000000000051 273.00000000000063 272.99999999999892 273.00000000000028 273.00000000000085 273 273.00000000000028 273.00000000000017 272.99999999999994 272.99999999999994 273 272.99999999999966 273.00000000000017 273.00000000000011 273.00000000000006 273 273.00000000000023 272.99999999999909 273.00000000000142 272.99999999999881 273.00000000000216 272.99999999999898 273.00000000000034 273.00000000000176 272.99999999999926 273.00000000000006 273.00000000000335 273.00000000000091 272.9999999999996 273.00000000000426 273 273.0000000000004 273.0000000000004 273.00000000000051 273.00000000000097 272.99999999999733 273.00000000000148 273.0000000000021 272.99999999999937 273.00000000000222 272.99999999999864 273.00000000000199 273 272.99999999999835 272.9999999999921 272.99999999999812 272.99999999999579 272.99999999999955 273.00000000001575 273.00000000000233 273.00000000002541 272.99999999998602 272.99999999999864 273.0000000000378 273.00000000005605 272.99999999997459 273.00000000008561 272.99999999964587 272.99999999867975 273.00000000015916 273.00000002317495 272.9999999965757 272.99999999999363 272.99999999999437 272.99999999976569 273.00000000001125 272.99999999999062 272.99999999999926 273.00000000000267 272.99999999999937 272.99999999999773 272.99999999999955 272.99999999999591 272.99999999999886 272.99999999999903 273.00000000000119 273.00000000000131 273.00000000000017 273.0000000000004 273 273.00000000000023 272.99999999999994 272.99999999999966 273.00000000000006 272.99999999999989 272.99999999999983 273.00000000000006 273.00000000000028 272.99999999999955 272.99999999999966 272.99999999999977 273.00000000000006 272.9999999999996 273.00000000000034 273.00000000000023 272.99999999999989 273.00000000000006 273.00000000000023 272.99999999999932 272.99999999999989 273.00000000000097 272.9999999999996 273 273.00000000000097 272.99999999999972 273.00000000000006 272.99999999999892 272.99999999999898 272.99999999999886 273.00000000000205 273.00000000000017 272.99999999999807 273.00000000000409 272.99999999999903 272.99999999999778 273.00000000000045 273.00000000000011 272.99999999999733 273.00000000000051 273.0000000000033 273.00000000000085 272.99999999999721 273.00000000000011 273.00000000000034 272.99999999999955 273.00000000000125 273.00000000000102 272.99999999999983 273.00000000000165 272.99999999999636 273.00000000000011 272.99999999999477 273.00000000000153 273.00000000000222 273.00000000000125 273.00000000000017 272.9999999999996 273.00000000025966 272.99999999997573 272.99999999998261 272.99999999999028 273.00000000000648 272.99999999999687 272.99999999999454 273.00000000000261 273.00000000000165 272.99999999999585 273.00000000000267 272.9999999999942 273.00000000000051 272.99999999996305 273.00000000000705 273.00000000000563 272.99999999999341 273.00000000000051 272.99999999998602 273.00000000001421 272.99999999998562 272.99999999999932 273.00000000000659 273.00000000000676 272.99999999999181 272.99999999999341 273.00000000001739 272.99999999999613 273.00000000000045 272.99999999999835 273 272.99999999999477 273.00000000000216 272.9999999999996 273.00000000000313 272.99999999999642 273.00000000000216 273.00000000000603 272.99999999999733 272.99999999999704 273.00000000000341 273.00000000000063 273.00000000000506 272.99999999999767 272.99999999999841 273.00000000001222 273.00000000000381 272.9999999999917 273.00000000001143 272.99999999998545 273.0000000000087 273.00000000000313 272.99999999999619 272.99999999999739 273.00000000000995 272.99999999999363 272.99999999999721 272.99999999999034 272.99999999999363 272.99999999998948 273.00000000000415 273.00000000000108 272.99999999999653 272.99999999999898 272.99999999996658 273.00000000002893 273.00000000001398 273.00000000001791 273.00000000001415 273.00000000004826 272.99999999997863 273.00000000003052 273.0000000000087 273.00000000002393 272.99999999998084 273.00000000003007 273.00000000002643 273.00000000005622 272.99999999988989 272.99999999986147 273.00000000037585 273.00000000001285 272.99999999999932 273.00000000000063 272.99999999798018 272.99999999893089 273.00000000208865 273.00000000000324 273.0000000000145 273.00000000020253 273.00000000085595 272.99999999969907 272.99999999901212 272.99999999997505 272.99999999999005 273.00000000000955 272.99999999991701 273.0000000004809 273.00000000000904 273.00000000049562 273.00000000001756 272.99999999993338 273.00000000086095 272.9999999996848 273.00000000080757 273.00000000156825 273.00000000147332 272.99999997421412 272.99999998993269 273.00000000081843 273.00000000100385 272.99999997903632 273.0000000065865 273.00000000528479 273.00000000053393 272.99999999982941 273.00000000062369 272.99999999996402 273.00000000007628 272.99999999989285 273.00000000086749 272.99999999979565 273.00000000015865 272.99999999999943 272.99999999998965 273.00000000000398 273.00000000001813 273.00000000024983 272.99999999987364 272.9999999999871 272.99999999997397 272.99999999991644 273.00000000128398 273.00000000260695 272.99999999940013 273.00000006134212 272.99999999665744 272.99999997546848 273.0000000020728 272.99999998932947 272.99999999380987 273.00000000244688 272.9999999964059 272.99999999462125 273.00000000065501 273.00000000206398 272.99999999303475 273.00000000149407 272.99999999570036 273.00000000033879 272.99999999860728 273.00000000039398 272.99999999925836 273.00000004427892 272.99999998792873 273.00000003380921 273.00000000001 272.99999999949864 273.00000000020765 273.00000000000801 272.99999999997738 273.00000000003712 273.00000000000512 273.00000000000443 272.99999999999324 272.99999999999881 272.99999999999244 272.99999999999682 272.99999999999841 272.99999999999852 273.00000000001086 273.00000000000432 273.00000000000597 272.99999999999375 273.00000000000085 272.99999999999915 272.99999999999886 273.00000000000455 272.9999999999892 273.00000000000188 272.99999999999392 273.00000000000574 273.00000000000404 272.99999999999113 272.99999999999937 273.00000000000165 272.99999999999682 272.99999999999841 272.99999999999301 272.99999999997704 273.0000000000087 272.99999999999557 272.99999999997925 272.99999999998136 272.99999999999511 272.99999999998471 273.00000000002285 273.00000000000568 272.99999999999471 273.00000000000722 272.99999999998511 273.00000000001916 273.00000000003013 272.99999999998556 272.9999999999938 272.99999999999272 273.00000000000989 273.0000000000137 272.9999999999792 273.00000000000159 272.99999999998795 272.99999999998153 272.99999999996919 272.99999999999022 273.00000000001205 272.99999999998676 272.99999999998766 273.00000000000608 272.99999999998477 273.00000000000045 273.00000000000045 273.00000000001262 272.99999999997789 272.99999999998175 273.00000000001938 273.00000000000148 273.00000000000369 272.99999999999955 272.9999999999871 273.00000000002444 273.00000000002024 272.99999999991167 273.00000000006594 272.9999999998895 272.99999999998818 272.9999999999352 273.00000000002905 272.99999999999915 273.00000000000335 273.00000000000938 273.000000000017 272.99999999997931 272.99999999999932 273.00000000001813 273.00000000000381 273.00000000000949 273.00000000002029 273.0000000001026 272.99999999999045 272.99999999999454 273.00000000000284 273.00000000002075 273.00000000001972 272.99999999999892 272.99999999999443 272.99999999999051 273.00000000000796 273.00000000001887 272.99999999999216 273.00000000000813 273.00000000000369 273.00000000000347 273.00000000000699 273.00000000000841 273.00000000002456 272.99999999998687 272.99999999997232 273.00000000001438 273.00000000000745 272.99999999999989 272.99999999999136 272.9999999999892 273.00000000000477 272.99999999998431 273.00000000000972 272.99999999997959 273.00000000003018 272.99999999999244 272.99999999999113 273.00000000000023 272.99999999996749 272.99999999996857 272.99999999997948 273.00000000000585 273.00000000001444 272.99999999997232 272.99999999999352 272.99999999997152 273.00000000002899 272.99999999999523 272.99999999997249 273.00000000000159 272.999999999995 272.99999999999523 272.9999999999751 272.99999999994532 273.00000000000927 272.99999999999142 272.99999999999994 272.99999999999375 273.00000000000506 273.00000000001756 272.99999999997652 273.00000000002404 272.99999999996805 273.00000000001125 273.00000000002007 273.00000000001381 272.9