<?xml version="1.0"?>
<VTKFile type="UnstructuredGrid" version="0.1" byte_order="LittleEndian">
<UnstructuredGrid>
<Piece NumberOfPoints="8154" NumberOfCells="2718">
<Points>
<DataArray type="Float64" NumberOfComponents="3" format="ascii">
0.5787652689 0.3254091753 0.0000000000 0.5873015873 0.3100000000 0.0000000000 0.5952380952 0.3100000000 0.0000000000 0.6753742723 0.6696911584 0.0000000000 0.6825396825 0.6900000000 0.0000000000 0.6746031746 0.6900000000 0.0000000000 0.5000000000 0.6900000000 0.0000000000 0.5000000000 0.6966666667 0.0000000000 0.4883470854 0.6948265107 0.0000000000 0.9365079365 0.3100000000 0.0000000000 0.9372303145 0.3210087551 0.0000000000 0.9285714286 0.3100000000 0.0000000000 0.9365079365 0.6900000000 0.0000000000 0.9285714286 0.6900000000 0.0000000000 0.9399834623 0.6782768144 0.0000000000 0.4883470854 0.6948265107 0.0000000000 0.5000000000 0.6966666667 0.0000000000 0.4938952939 0.7000971716 0.0000000000 0.8968253968 0.3100000000 0.0000000000 0.9047619048 0.3100000000 0.0000000000 0.8998390692 0.3291223722 0.0000000000 0.8968253968 0.6900000000 0.0000000000 0.8998390692 0.6708776278 0.0000000000 0.9047619048 0.6900000000 0.0000000000 0.4707643184 0.2100542782 0.0000000000 0.4458839681 0.1733183042 0.0000000000 0.5008690023 0.1928690996 0.0000000000 0.6058549608 0.3213323554 0.0000000000 0.5787652689 0.3254091753 0.0000000000 0.5952380952 0.3100000000 0.0000000000 0.2945441193 0.1942182557 0.0000000000 0.3121474738 0.2511265515 0.0000000000 0.2609637929 0.2604952399 0.0000000000 0.6622036067 0.6829322315 0.0000000000 0.6753742723 0.6696911584 0.0000000000 0.6746031746 0.6900000000 0.0000000000 0.4587222933 0.0685381525 0.0000000000 0.4111465674 0.1169976912 0.0000000000 0.4000000000 0.0000000000 0.0000000000 0.8785333177 0.7282266810 0.0000000000 0.8849371662 0.7177589937 0.0000000000 0.8915023598 0.7236450509 0.0000000000 0.8785333177 0.2717733190 0.0000000000 0.8915023598 0.2763549491 0.0000000000 0.8849371662 0.2822410063 0.0000000000 0.4111465674 0.1169976912 0.0000000000 0.3540648308 0.0785379059 0.0000000000 0.4000000000 0.0000000000 0.0000000000 0.2299760631 0.2225257972 0.0000000000 0.2945441193 0.1942182557 0.0000000000 0.2609637929 0.2604952399 0.0000000000 0.2463841680 0.4092123106 0.0000000000 0.1990592994 0.4036161580 0.0000000000 0.2292303470 0.3505331420 0.0000000000 0.3984523977 0.3411383417 0.0000000000 0.3541663823 0.3536207986 0.0000000000 0.3821979065 0.3180112381 0.0000000000 0.7790493472 0.6731028212 0.0000000000 0.7557898484 0.6769719364 0.0000000000 0.7456065760 0.6391772407 0.0000000000 0.7800236953 0.3269809563 0.0000000000 0.7534013605 0.3614929793 0.0000000000 0.7570425817 0.3231357775 0.0000000000 0.2539353615 0.7051611323 0.0000000000 0.2792949222 0.6477927011 0.0000000000 0.3100763125 0.6791275999 0.0000000000 0.1684031440 0.8479776616 0.0000000000 0.2369610118 0.7864593387 0.0000000000 0.2776806089 0.8456136400 0.0000000000 0.3818941925 0.4721560634 0.0000000000 0.4324917347 0.4360554675 0.0000000000 0.4290933895 0.5246779815 0.0000000000 0.2675374494 0.3705422459 0.0000000000 0.2463841680 0.4092123106 0.0000000000 0.2292303470 0.3505331420 0.0000000000 0.5357142857 0.7414970415 0.0000000000 0.5497543589 0.7576632693 0.0000000000 0.5212378204 0.7569666932 0.0000000000 0.0000000000 1.0000000000 0.0000000000 0.0000000000 0.9000000000 0.0000000000 0.0859890518 0.9139072011 0.0000000000 0.0000000000 1.0000000000 0.0000000000 0.0859890518 0.9139072011 0.0000000000 0.1000000000 1.0000000000 0.0000000000 0.5000000000 0.3100000000 0.0000000000 0.5125332543 0.3227192664 0.0000000000 0.4872028536 0.3239045131 0.0000000000 0.7758448524 0.7877268613 0.0000000000 0.7628848107 0.7605934586 0.0000000000 0.7904279966 0.7559720035 0.0000000000 0.7758448524 0.2122731387 0.0000000000 0.7904279966 0.2440279965 0.0000000000 0.7628848107 0.2394065414 0.0000000000 0.5000000000 0.2900000000 0.0000000000 0.4922201219 0.2812906356 0.0000000000 0.5039682540 0.2828161872 0.0000000000 0.4883470854 0.6948265107 0.0000000000 0.4938952939 0.7000971716 0.0000000000 0.4907825373 0.7066666667 0.0000000000 0.9682539683 0.6900000000 0.0000000000 0.9722222222 0.6769291060 0.0000000000 0.9761904762 0.6900000000 0.0000000000 0.9761904762 0.3100000000 0.0000000000 0.9722222222 0.3230708940 0.0000000000 0.9682539683 0.3100000000 0.0000000000 0.6021907333 0.0926574225 0.0000000000 0.6782976812 0.1148406052 0.0000000000 0.6388851509 0.1375415295 0.0000000000 0.5674603175 0.2247474582 0.0000000000 0.5357449978 0.2267259986 0.0000000000 0.5347057941 0.1912024382 0.0000000000 0.2539353615 0.7051611323 0.0000000000 0.2812942420 0.7514297802 0.0000000000 0.2369610118 0.7864593387 0.0000000000 0.7719268177 0.7428481231 0.0000000000 0.7904279966 0.7559720035 0.0000000000 0.7628848107 0.7605934586 0.0000000000 0.7719268177 0.2571518769 0.0000000000 0.7628848107 0.2394065414 0.0000000000 0.7904279966 0.2440279965 0.0000000000 0.9032790705 0.7288283732 0.0000000000 0.9087301587 0.7192359144 0.0000000000 0.9155031495 0.7257106082 0.0000000000 0.9032790705 0.2711716268 0.0000000000 0.9155031495 0.2742893918 0.0000000000 0.9087301587 0.2807640856 0.0000000000 0.6388851509 0.8624584705 0.0000000000 0.6782993498 0.8851718090 0.0000000000 0.6001536631 0.8994821006 0.0000000000 0.8000000000 1.0000000000 0.0000000000 0.8165635265 0.9153417488 0.0000000000 0.8808217602 0.9194682915 0.0000000000 0.8000000000 0.0000000000 0.0000000000 0.8808217602 0.0805317085 0.0000000000 0.8165635886 0.0846584408 0.0000000000 0.7378929042 0.8115717322 0.0000000000 0.7114241930 0.7774594263 0.0000000000 0.7414855741 0.7754847221 0.0000000000 0.7378929042 0.1884282678 0.0000000000 0.7414855741 0.2245152779 0.0000000000 0.7114241930 0.2225405737 0.0000000000 0.4717603562 0.6910504696 0.0000000000 0.4473861238 0.6871956618 0.0000000000 0.4689083487 0.6663981281 0.0000000000 0.3821979065 0.3180112381 0.0000000000 0.3541663823 0.3536207986 0.0000000000 0.3526372069 0.3162202134 0.0000000000 0.8650793651 0.7100000000 0.0000000000 0.8730158730 0.7100000000 0.0000000000 0.8690476190 0.7212912977 0.0000000000 0.8650793651 0.2900000000 0.0000000000 0.8690476190 0.2787087023 0.0000000000 0.8730158730 0.2900000000 0.0000000000 0.7758448524 0.7877268613 0.0000000000 0.7800234879 0.8252971513 0.0000000000 0.7378929042 0.8115717322 0.0000000000 0.7758448524 0.2122731387 0.0000000000 0.7378929042 0.1884282678 0.0000000000 0.7800234879 0.1747028487 0.0000000000 0.5972932026 0.7417423457 0.0000000000 0.5831749274 0.7293864911 0.0000000000 0.5984995888 0.7260885855 0.0000000000 0.5972932026 0.2582576543 0.0000000000 0.5984995888 0.2739114145 0.0000000000 0.5831749274 0.2706135089 0.0000000000 0.2979491613 0.5079308066 0.0000000000 0.2637269634 0.4819335741 0.0000000000 0.3159938297 0.4535214934 0.0000000000 0.2539353615 0.7051611323 0.0000000000 0.2369610118 0.7864593387 0.0000000000 0.1912528455 0.7371552909 0.0000000000 0.4337513221 0.6607932313 0.0000000000 0.4106398804 0.6863231001 0.0000000000 0.3896570907 0.6584859206 0.0000000000 0.5039682540 0.7733951496 0.0000000000 0.4789072453 0.7993031313 0.0000000000 0.4793241221 0.7574460945 0.0000000000 0.3940431725 0.7565850447 0.0000000000 0.4199289892 0.7290534135 0.0000000000 0.4307930036 0.7535681637 0.0000000000 0.3248589322 0.3964700486 0.0000000000 0.3159938297 0.4535214934 0.0000000000 0.2839017290 0.4041714418 0.0000000000 0.5000000000 0.2900000000 0.0000000000 0.4938811636 0.2933333333 0.0000000000 0.4922201219 0.2812906356 0.0000000000 0.9795676331 0.7287089067 0.0000000000 0.9645787997 0.7260973716 0.0000000000 0.9722222222 0.7194062969 0.0000000000 0.9795676331 0.2712910933 0.0000000000 0.9722222222 0.2805937031 0.0000000000 0.9645787997 0.2739026284 0.0000000000 0.5972932026 0.7417423457 0.0000000000 0.5984995888 0.7260885855 0.0000000000 0.6129103550 0.7293947115 0.0000000000 0.5972932026 0.2582576543 0.0000000000 0.6129103550 0.2706052885 0.0000000000 0.5984995888 0.2739114145 0.0000000000 0.7719268177 0.7428481231 0.0000000000 0.7604121568 0.7294176701 0.0000000000 0.7735579138 0.7261378615 0.0000000000 0.7719268177 0.2571518769 0.0000000000 0.7735579138 0.2738621385 0.0000000000 0.7604121568 0.2705823299 0.0000000000 0.8608177766 0.7486134619 0.0000000000 0.8712077471 0.7653917186 0.0000000000 0.8422205365 0.7563515445 0.0000000000 0.8608177766 0.2513865381 0.0000000000 0.8422205365 0.2436484555 0.0000000000 0.8712077471 0.2346082814 0.0000000000 0.3962088611 0.7222679320 0.0000000000 0.4199289892 0.7290534135 0.0000000000 0.3940431725 0.7565850447 0.0000000000 0.7758448524 0.7877268613 0.0000000000 0.7378929042 0.8115717322 0.0000000000 0.7414855741 0.7754847221 0.0000000000 0.7758448524 0.2122731387 0.0000000000 0.7414855741 0.2245152779 0.0000000000 0.7378929042 0.1884282678 0.0000000000 0.2255544275 0.5658304639 0.0000000000 0.1658327442 0.5185629059 0.0000000000 0.2203056429 0.5045175393 0.0000000000 0.7460317460 0.7100000000 0.0000000000 0.7539682540 0.7100000000 0.0000000000 0.7506950160 0.7200294935 0.0000000000 0.7460317460 0.2900000000 0.0000000000 0.7506950160 0.2799705065 0.0000000000 0.7539682540 0.2900000000 0.0000000000 0.1684031440 0.8479776616 0.0000000000 0.0579098568 0.8475991375 0.0000000000 0.0960089442 0.7895901564 0.0000000000 0.5008690023 0.1928690996 0.0000000000 0.4458839681 0.1733183042 0.0000000000 0.5042500767 0.1543133976 0.0000000000 0.3248589322 0.3964700486 0.0000000000 0.2980298761 0.3640121278 0.0000000000 0.3541663823 0.3536207986 0.0000000000 0.4678966828 0.2936187756 0.0000000000 0.4846599965 0.2931075700 0.0000000000 0.4819228975 0.3064333520 0.0000000000 0.6190476190 0.7100000000 0.0000000000 0.6269841270 0.7100000000 0.0000000000 0.6223463908 0.7200113160 0.0000000000 0.6190476190 0.2900000000 0.0000000000 0.6223463908 0.2799886840 0.0000000000 0.6269841270 0.2900000000 0.0000000000 0.9032790705 0.7288283732 0.0000000000 0.8999834280 0.7176820118 0.0000000000 0.9087301587 0.7192359144 0.0000000000 0.9032790705 0.2711716268 0.0000000000 0.90873015
[...]
<PointData Scalars="temperature,region_id," Vectors="" Tensors="">
<DataArray type="Float64" Name="temperature" format="ascii">
281.6072502538 286.5959534070 286.7370559359 273.1362930886 273.1220626948 273.0929977381 273.0002030523 273.0000369368 273.0001529365 287.9298713171 287.7695435432 287.8057380677 285.3804910131 285.1340578194 288.2924605004 273.0001410652 273.0000524305 273.0000309940 286.6548291135 287.0579886139 286.0197668428 283.6721690248 286.7431558173 284.2567479054 273.0554268604 272.9790771148 273.0063809881 282.0095986741 281.2981567099 286.9791526356 272.7552020726 274.0135336834 273.7155358947 273.0698041063 273.1329787960 273.0949855523 273.0000288431 273.0000001186 273.0000039849 284.6379027301 284.0778174732 285.4177770610 284.3069104262 285.6219411166 285.0518623664 273.0000002149 272.9999955697 273.0000059478 273.0219648962 272.8553205352 273.5855147126 272.9469518826 272.9509612392 273.2329779649 280.5533772078 276.4408144707 281.8515614920 275.1403198708 274.2909827811 273.9917797335 275.2170935530 273.4459431618 275.0530421921 273.0000000083 273.0000000105 273.0000000557 272.9999999990 273.0000000011 273.0000000059 273.0006692803 273.0070017059 272.9989286631 273.2521217658 272.9101121030 273.2949179235 273.0014310166 273.0022509468 273.0008093505 273.0000000000 273.0000000000 273.0000000000 273.0000000000 273.0000000000 272.9999999999 285.7747865013 285.4490749327 285.2004021155 275.4557403569 274.7964608866 276.2523169108 274.6339564761 275.2804405538 274.0939263068 285.7477200305 285.4985838567 285.6073412771 273.0000879718 273.0000500156 273.0000441384 287.0955830098 288.2683205833 287.3587767415 288.0000695312 287.9992855517 287.9989004820 272.9979057111 273.0336975857 273.0128146808 272.9974471432 273.0123278400 272.9972059074 273.0000000089 273.0000000318 273.0000000023 275.2105454773 276.2164919466 274.8103712525 274.4561109877 274.0748281933 275.1714316142 286.6095011395 286.1695681546 287.1291245094 286.6103147150 287.3294468761 286.8985102615 273.0402036647 273.1005490310 273.0005030328 277.4887313564 278.5475206715 284.8636101934 276.3458362693 283.7034138730 277.3680020945 273.9422927877 273.4528303724 274.0559734999 273.5025167573 273.5715595638 273.1969176036 273.0000832182 273.0000259233 273.0000806358 281.7343958504 276.6368561726 279.8267683576 280.0767971442 280.8194336798 283.2758861197 285.8854999450 282.3237418989 286.3024371159 275.3967589828 275.5578517738 273.8415918922 274.5850341554 273.4052450539 274.7095798855 273.0124706787 273.0061919557 273.0107243686 273.1168239423 276.9769705492 276.6440044369 272.9995524680 273.0002044008 273.0030569532 273.0000000070 273.0000000029 272.9999999997 273.0000141040 273.0000065628 273.0000019347 273.0003713104 273.0001413503 273.0001709528 273.0000044398 273.0000130094 273.0000214005 273.0706564867 272.9695231287 273.0403748673 285.7261438929 285.7222890182 285.5402658241 288.0216456317 287.9658022503 287.9334915829 288.0007261895 287.9996514387 287.9983870100 273.0126800158 273.0107200796 273.0181020299 273.2616239673 275.4168376580 276.9168480948 275.2288759472 274.5418733281 275.0879538804 274.1385118428 275.2995616418 274.7514859924 283.0912865924 284.2396142329 281.0975892081 282.4017228405 280.1342018758 283.7693688201 273.0000043411 273.0000114774 273.0000055655 275.2322015189 273.9525356026 274.0907514128 274.4278359232 273.5980515551 273.5103826320 273.0000020208 272.9999966074 272.9999807641 273.5979095846 273.7693543208 274.0752885430 285.5464925680 276.4730757171 285.5168279821 272.9999999999 273.0000000000 273.0000000000 272.9965738841 273.0012998564 273.0003024154 272.7263736487 273.9174558060 275.2622679999 285.3409420942 285.5954496790 285.5894162216 273.0107228598 273.0148507025 273.0208915127 286.0291182898 279.7002476707 285.9231713540 286.6875927627 285.3577305013 286.1458674013 286.6101258232 286.9039793340 286.2971167327 273.1528415063 273.0859096166 273.0969176425 274.3297755774 279.1263408927 276.5764007028 285.6874801790 286.0195698195 288.1908160814 287.9517674439 287.9490131296 287.9885960708 273.0000207814 273.0000174379 273.0001663593 273.0000000439 272.9999999267 273.0000002010 273.0044427619 273.0035168133 273.0063202490 274.0587171237 276.7199114264 279.0900564097 280.4273595272 281.1149780854 278.9504908624 279.4190885950 277.8452374628 280.1106977774 282.6973137176 285.3637209971 278.6699833702 281.6857418988 277.4431840646 284.5445195588 273.0539650744 272.9768373785 273.0015870082 272.9773571029 273.0839381413 273.2001383257 273.0000113734 273.0000062351 273.0000239392 273.0336872514 273.0123390336 273.0145578920 273.0076588244 273.0047185010 273.0017900678 273.0005731682 273.0000508585 272.9999325377 272.9907394128 272.9830086831 273.0593342196 273.4177162575 274.2426589150 273.9285301851 273.2026687341 273.4829342767 273.7290213824 273.9419487294 279.1687908108 279.1005906172 278.2229662187 278.9930891514 281.0230655242 277.1101683995 279.9789359609 277.8746425588 273.0043307707 273.0019729259 273.0035384900 273.0313629446 273.0038209743 273.0068468710 286.4356178705 287.7660471112 288.3337758726 287.9306895161 288.0105815481 287.8700015482 273.0005502189 273.0001813501 272.9998009294 273.0000798523 273.0000905012 273.0000268536 273.0000000172 272.9999999809 272.9999999959 272.9999603102 272.9998777825 272.9999999989 273.0354225357 273.0705405863 273.1063197890 273.0085628980 273.0332510719 273.0217192024 272.9999999948 273.0000000100 273.0000000134 273.5459604700 273.7366533871 273.4698570509 273.6751403307 273.1984662441 273.4749867163 276.9015615684 277.2551567033 277.8356614927 277.2776599417 276.3972754835 278.7433149340 273.0003179899 273.0001869276 273.0001859649 272.9999999962 273.0000000647 273.0000000386 272.9930198285 272.9946594503 273.0041152094 273.0000000000 273.0000000000 272.9999999996 272.9999850456 273.0001220471 273.0001635506 276.7497946213 276.3570082565 273.6438355388 272.9999645223 273.0001247893 273.0000722059 286.9097138297 287.0432012110 286.2587728844 284.2966807137 286.6331023110 286.7038989746 284.8945074918 285.5147557581 282.8835479475 272.9316644394 273.0485174992 273.2028280107 273.0000001208 272.9999999896 273.0000000331 286.9463581395 282.0014909143 282.4212808781 275.8009240205 273.9388091032 274.3170982751 274.9003595173 273.7903335361 273.4826516712 273.0000039177 273.0000450472 273.0001055439 273.0000009150 272.9999981350 273.0000010460 275.4316179948 276.3327859067 277.1558572871 274.6075270954 276.1122140423 275.3652209327 272.9999994365 273.0000001650 273.0000003458 272.9997859952 273.0003582661 272.9991962493 276.7068818151 276.3596592401 275.7622309511 275.8239798039 275.0590259085 275.2842650439 274.1161390332 273.4927735652 273.3611761574 272.9975365578 272.9967166906 273.0087774405 272.9954206504 273.0018109600 272.9691844436 286.2985036320 288.3705425907 286.5921617505 287.9976967220 287.9797275707 287.9805129607 286.3585069858 274.7547174961 278.4779352579 273.0015502755 273.0021916258 273.0020970692 285.9839582167 274.1658640890 279.4439097346 273.0813912154 272.9822259791 272.9570917120 273.0907177569 273.1215109919 273.1692132898 285.7693430113 277.7835016785 285.6832316387 278.7581805422 279.2350916164 281.8507106273 284.5864014594 279.6040984242 277.5023429070 272.9999999724 273.0000001517 272.9999999393 276.8109653767 276.7295172457 279.1201941448 284.6520602980 275.9322402064 277.6028200700 286.8430364730 277.9273499192 281.7101042947 287.9978677358 288.0016155396 287.9973196974 288.0000150462 287.9993540704 288.0002955604 284.7486637532 276.6129891337 274.4236130603 275.3607068525 275.3497894376 276.6832041531 286.6440081328 278.6029274429 277.5411594440 273.0000000239 273.0000003736 273.0000000429 285.5984182719 275.9981274206 274.3920136547 274.3702576751 274.2434995283 275.2673143267 285.1719500324 273.5760387997 276.5782188200 273.7368026984 273.7319863071 274.2177073283 273.3947569142 273.3526010450 273.6917032427 273.0118197462 273.0099884038 273.0202961103 273.0000070652 272.9999746398 272.9999724105 273.0268529665 273.0212011427 273.0490101695 279.7277451659 283.3048456417 285.3404975462 278.5804550513 285.5261525206 284.6512398500 273.0143254797 273.0124250605 273.0073066539 280.4269228467 281.8717743139 281.1246894810 279.4100294951 280.1467008936 280.9773157201 282.0147827422 284.5353030571 282.6972744961 287.1487465386 284.4594188545 286.7408003113 273.0046075917 273.0019169259 273.0019139308 275.6579220986 279.2902557320 282.4769417506 273.0000000536 273.0000018561 272.9999982955 276.0398005680 277.9865323172 273.7534841781 275.1350121220 273.2908948927 276.7467266570 280.5093880048 283.0532327417 281.2028012482 287.0223640961 282.5225444380 286.6361273569 273.0027582400 273.0045236356 273.0037603444 272.9999883183 272.9999047344 273.0000703659 272.0639122750 277.5236725302 276.5786338592 273.0533901050 273.0752673284 273.0703627871 273.0001520450 273.0001393774 272.9999999588 275.7979093237 282.5074580878 283.3740166517 273.0000382346 273.0000091554 273.0000231953 273.0003911459 272.9986089532 272.9810583074 273.0000005860 273.0000008824 272.9999997890 273.0014417665 273.0011282862 273.0020544157 273.0000308783 273.0001587352 273.0001368242 273.0001590302 273.0006442300 273.0010388333 273.4562357525 273.3461832011 273.1851845117 273.2018885076 273.0660233237 273.1465874130 273.0004706400 273.0003269119 273.0006562727 273.0000915157 272.9999693639 273.0000717159 273.0000058399 273.0000043040 273.0000011847 285.5104383287 288.1459858394 285.8468877207 287.9542474920 287.8306723796 287.8824191213 272.9838833837 273.0023141547 273.0128611165 275.3709186759 274.0175790528 274.8068553055 274.5488818087 274.1061616062 273.5296901785 277.2402002728 278.4859646123 277.8411671504 276.4827427694 277.8122924335 278.7025106270 287.9972573981 288.0087407941 288.0157480139 287.9976518855 288.0143944143 288.0067705426 287.7456536784 287.8318044831 287.5431300935 285.3095995603 287.2746071615 288.2073587018 288.0008836659 288.0004386580 287.9812243441 288.0006648239 287.9981638932 287.9990389806 273.0014027103 273.0006266530 273.0011370078 273.0063618081 273.0034234719 273.0038733366 276.7464404363 282.2058813311 279.5981443001 285.6273253639 287.2017299567 283.5554037641 285.3209523955 282.7643885357 287.0081521759 273.6058612342 276.3846274046 279.9482252688 275.3581215253 277.2124936858 277.7370397315 274.5256085908 276.6658210565 276.1888323043 273.0000584622 273.0000251772 273.0000304340 272.9956948404 273.0315268995 272.9772988250 273.0000045754 273.0000201531 273.0000102137 285.9427859947 284.5118193183 285.4746442797 285.6382172003 285.6279307411 284.3536140424 273.0004082879 273.0001444256 273.0004439611 273.0786669226 273.0429450050 273.0614104765 273.4004372333 276.5783811051 276.0733862136 273.0377916129 273.0497408384 273.0092487089 273.0096833442 273.0013602814 273.0144832366 288.0013830445 287.9986033216 288.0000145081 288.0015248129 287.9993703756 287.9986820691 273.0179867987 273.0103123759 273.0119317487 275.4054049163 280.3612394655 277.6345135975 273.0002585588 273.0003945705 272.9999158184 286.7103363954 285.3173298772 285.3717306085 286.6242577373 286.2934120055 285.6349788583 274.5823426081 274.5196951685 275.0325386360 274.4591019719 275.4123122092 277.4556321146 274.0604676402 274.1333809290 273.8129953148 277.0323123998 277.2246814397 273.4677065216 288.4887403594 285.2521732882 285.9478800155 288.4987425590 285.4151810737 284.5468245738 273.0066378002 273.0068251032 273.0101867389 276.7763294123 277.4540035585 281.2100077740 273.0000001036 273.0000000103 272.9999999987 272.1579498157 273.8031929375 277.5526476397 287.6867064986 286.9515270734 285.6666674867 287.7249985303 285.3774714280 286.7401171910 272.9999694211 273.0000168049 272.9998454286 273.0023772704 272.9992492572 272.9995141317 273.2811147641 273.1493112184 273.2316730635 273.0130513858 275.1663827181 274.9420664311 273.0200293284 273.0281975774 273.0329542493 279.2251521381 273.8667304901 279.2412857031 273.0000102273 273.0000276581 273.0000256561 279.3470771133 279.6325554953 283.3726100828 287.7335715196 287.2053375446 287.2500464074 287.7977375976 287.2873026982 287.2160957887 273.0000000000 273.0000000001 273.0000000000 273.0021474556 273.0021943180 273.0033622845 273.0000108143 273.0000042787 273.0000064894 273.0000011102 273.0000040038 273.0000032145 273.3430737733 273.4806685635 273.8778359313 273.1436241923 273.4549128854 273.2178936075 285.9132734688 284.9975346796 285.9373118392 285.6177542522 285.3206152458 285.1257659013 273.0004453119 273.0001731123 273.0003349735 286.4751954493 283.1047731660 284.6460060070 283.6802350846 287.0285798644 284.2275004384 287.6349195443 286.7010747267 287.3243248241 273.0000000003 273.0000000000 273.0000000000 284.5895260517 284.6745974990 283.2015096096 284.3318250586 282.6549178648 284.1496092259 273.0088543952 273.0064756672 273.0101695920 273.0340854784 273.0625891672 272.9921094550 278.7699753355 285.1891980674 278.6270637841 277.6594114226 277.4188846106 284.1387111616 273.0038558959 273.0000938469 273.0001223957 286.9741487696 277.3567791393 285.1349931502 276.0829840726 286.3406651992 284.2191109886 273.0001351638 273.0005546755 273.0002046548 276.7782972162 276.1067004214 276.9236622644 275.3561156617 277.1412579134 277.9725132616 276.7667841700 275.8499718964 276.1219994098 275.2623512189 278.0119294058 276.6493399921 273.0367410649 273.0391601482 272.9936710132 287.9229388947 287.9987431119 287.9069687274 287.9610985022 287.9354331554 288.0060688454 273.0004179855 273.0004642862 273.0008002179 283.6279343123 285.6630691362 284.7174410413 272.9995418094 273.0056162346 273.0036492641 286.9282079768 287.2346567550 288.2470383355 287.9989420291 287.9991624223 288.0000167033 284.7072746841 283.1538325296 284.0461804633 284.2441860685 285.1041262774 284.3766713003 282.7613199294 286.0364100724 285.2755599061 281.7538247750 284.5596162467 285.4862044626 273.0000000000 273.0000000000 273.0000000000 275.1690837074 275.7745372976 276.3312410014 274.4735389843 275.2469986561 275.0794836157 273.0405174000 273.0649978247 273.0267035160 273.0913352119 273.0212947159 273.0025239800 273.4411437946 273.8103991285 273.1026935123 273.0691507506 280.9537741475 279.6876106970 273.2170626145 273.0215488168 273.4048040189 279.6759368775 284.5311189331 282.5355750434 283.1097814178 281.1085719829 281.8826310293 282.3812613346 280.9916513523 280.1444610975 272.9999995587 273.0000038054 273.0000013328 272.9999860569 272.9999763043 272.9999404115 273.4118760410 272.7714838412 272.9772035115 272.9945600673 273.0017811325 272.9980124181 273.0820452183 273.3546083289 273.4468106290 272.9999755695 273.0000599444 273.0000050735 273.0006491703 273.0003310939 273.0004065487 273.1191265698 273.0884700896 272.9883197729 273.0020551477 273.0011008070 273.0012361677 287.2048402521 286.7008026717 287.2603951389 287.2167773814 287.3014453040 286.6665137186 273.0000000198 272.9999999861 272.9999999926 277.6041277933 279.7896914640 272.4295628239 285.0125751853 285.6042773917 285.5598207199 283.0608783584 282.8493276246 285.2984097686 274.2395903278 273.1564088849 273.8634447866 288.0008569713 287.9887849743 287.9953254378 288.2247070943 287.8007849719 287.9019781162 273.7603523305 273.8247144429 274.1182676628 275.1556376491 273.4819666020 277.1687484051 287.8186220467 287.9574437219 288.1626735536 287.7584520444 288.1949866156 287.9543889825 273.0004064080 273.0001700849 273.0001926536 282.5549747563 284.2027775383 285.6795793168 281.7403755582 285.3353710651 283.7477137585 283.6381480722 273.4208162627 282.4315834171 273.0000000000 273.0000000000 273.0000000000 273.0038632280 273.0047506932 272.9996862357 273.0003107279 273.0000925486 273.0000214188 273.0007763103 272.9995391788 273.0002602625 282.5303028977 285.7341697754 283.4969169063 281.7679380862 282.7170781079 285.4029917539 273.0511406636 272.8922729619 273.0165951248 273.0437116028 273.0330400854 273.0281493067 275.9126724372 279.1504033704 274.0552698066 272.9942142282 273.0434389205 273.0130600706 273.0039361173 273.0083166243 273.0128053979 272.9988575243 273.0037768260 272.9990493571 273.0005264985 272.9993427099 272.9998703905 273.0000702782 273.0000122856 273.0000625472 273.0000019206 273.0000005539 272.9999999879 273.9135162020 274.1536768149 274.5563265072 285.6257301771 276.7839687393 285.6088414173 273.4388548576 273.1892542583 273.2592339479 273.1771767660 273.1160657630 273.0601036029 272.9999999998 273.0000000001 273.0000000001 273.0006865615 273.0007033545 273.0010792206 272.9999953499 273.0000483852 272.9999857474 272.5605188329 275.6805169661 272.2385657985 273.0060435609 273.0084732788 273.0121011492 286.0916952424 280.7653027514 285.9783612221 273.0034257184 273.0048312535 273.0069062198 286.1158858744 281.6053419626 285.9854474573 273.2337767056 280.3102593794 281.6165654370 284.2467747006 284.7242936379 287.3305720606 287.6669893939 287.4500306566 287.8439759928 274.1350711028 274.7547771788 274.0616521613 273.6251706147 273.5684840144 274.0513041097 272.9895552195 272.9997999892 272.9995796269 283.1990255247 283.7824889070 286.4719003966 287.2834386215 286.5271261963 287.5923422565 273.0000000118 273.0000000024 272.9999999869 273.0454109459 273.0316898540 273.0419931345 275.6432897449 280.6708603385 280.9614588627 275.8683682864 275.8106368907 275.1777039225 276.5160961808 277.7374964233 274.4582752095 280.1133066950 281.9769627021 282.9106069126 285.0987572887 283.2190712879 280.6133390586 273.0051149203 273.0018253322 273.0021453790 275.1873978665 274.8255186094 274.5467866668 274.4387240443 273.9654566495 274.0890600068 287.9705604467 287.9844671097 287.9791081068 287.9621888624 287.9740773080 287.9850512375 285.3242181085 285.3416039768 285.6079694061 273.0004066456 273.0004234726 273.0006869885 279.3325089531 284.5253702252 276.9413878626 273.0000871931 273.0000817554 273.0001825102 287.9994080465 287.9914098090 287.9978671740 288.0114454178 287.9765172501 287.9176338052 273.0019360126 273.0027356953 273.0039025402 286.1046821095 282.6232992059 285.9843844233 273.0003270157 273.0001818093 273.0002221365 273.0000000031 272.9999999934 273.0000000005 277.1232658581 273.6327816326 278.1051595323 275.9703511286 276.8984590755 273.2036046582 273.0452942372 273.0530293408 273.0731526130 273.0000000005 272.9999999999 272.9999999991 286.0406897459 283.5974246719 285.9373036669 272.8675091482 274.8424885132 281.1221353456 283.7143347733 284.2211511196 286.7403576067 286.7490169427 285.8987262881 285.3433916763 273.0000541823 272.9923474857 273.0003151267 273.0010931067 273.0015468361 273.0022039802 285.7794942614 285.7162797448 285.7644148278 273.0119216131 273.0075228648 273.0065968271 273.2689811960 276.4102762184 273.3735127798 287.9827957886 287.9984684507 288.0014830168 287.9913395249 288.0011775979 287.9996424480 272.9999999999 273.0000000020 273.0000000001 285.7658736643 285.4339181333 285.7351829852 272.9998022804 272.9999471461 272.9999905674 273.0005244162 272.9991191290 272.9994731878 272.6978389645 272.9874642497 274.0193579015 287.9085088736 287.9601060254 287.5499859443 287.9459918583 287.6911122329 287.9851991610 278.3819548483 282.2538164697 285.6148230740 273.0002250119 273.0002991529 273.0004023063 280.8560796976 283.0544649360 283.1713072671 285.8975260243 282.9772677586 284.2739687699 285.9414731748 284.4539103354 285.8631388882 273.0384571288 273.1030865261 273.0548278920 273.0096803190 273.0166293753 273.0330334409 273.0009388602 273.0006703533 273.0014029275 287.9558110966 287.9474232050 288.0086478140 287.9613851601 288.0136065572 287.9565155325 273.0000466641 273.0000603072 273.0000588904 288.0216094352 287.9246001543 287.9507756953 287.9999139730 287.9999223651 287.9996605898 286.5457057564 287.1058044890 287.3255648733 286.6439414070 287.2996277579 287.2968221735 287.8075353963 285.6199955264 286.3387700660 287.8631841131 286.2045190364 285.2908352764 285.8233835224 285.0912791916 285.7830184784 273.0006211670 273.00087596