<?xml version="1.0"?>
<VTKFile type="UnstructuredGrid" version="0.1" byte_order="LittleEndian">
<UnstructuredGrid>
<Piece NumberOfPoints="2028" NumberOfCells="724">
<Points>
<DataArray type="Float64" NumberOfComponents="3" format="ascii">
0.6 0.7 0 0.949999999999237 1.27499999999875 0 0.949999999999237 1.27499999999875 0 1.29999999999838 1.84999999999734 0 1.29999999999838 1.84999999999734 0 1.64999999999907 2.42499999999847 0 1.64999999999907 2.42499999999847 0 2 3 0 5.75 0.7 0 5.50000000000083 1.19999999999835 0 5.50000000000083 1.19999999999835 0 5.25000000000071 1.69999999999859 0 5.25000000000071 1.69999999999859 0 5 2.2 0 5 2.2 0 4.40000000000013 2.35999999999996 0 4.40000000000013 2.35999999999996 0 3.8000000000002 2.51999999999995 0 3.8000000000002 2.51999999999995 0 3.20000000000014 2.67999999999996 0 3.20000000000014 2.67999999999996 0 2.60000000000008 2.83999999999998 0 2.60000000000008 2.83999999999998 0 2 3 0 2 3 0 2.08333333333292 3.59999999999702 0 2.08333333333292 3.59999999999702 0 2.16666666666627 4.19999999999716 0 2.16666666666627 4.19999999999716 0 2.25 4.8 0 2.25 4.8 0 1.75 5 0 2.25 4.8 0 2.83333333333312 5.09999999999989 0 2.83333333333312 5.09999999999989 0 3.41666666666727 5.40000000000031 0 3.41666666666727 5.40000000000031 0 4 5.7 0 4 5.7 0 3.62500000000722 5.99999999999422 0 3.62500000000722 5.99999999999422 0 3.25 6.3 0 4 5.7 0 4.49999999999954 5.99999999999973 0 4.49999999999954 5.99999999999973 0 5 6.3 0 6 3.8 0 6.37499999999994 3.89999999999998 0 6.37499999999994 3.89999999999998 0 6.75 4 0 6 3.8 0 5.62500000000006 3.89999999999998 0 5.62500000000006 3.89999999999998 0 5.25 4 0 4.25 4.8 0 4.75000000000034 4.39999999999973 0 4.75000000000034 4.39999999999973 0 5.25 4 0 4.75 4 0 5.25 4 0 3.5 4 0 3.08333333333459 4.26666666666586 0 3.08333333333459 4.26666666666586 0 2.66666666666806 4.53333333333244 0 2.66666666666806 4.53333333333244 0 2.25 4.8 0 3.5 4 0 3.87499999999237 3.75000000000508 0 3.87499999999237 3.75000000000508 0 4.25 3.5 0 1 6.2 0 1.59999999999711 6.10000000000048 0 1.59999999999711 6.10000000000048 0 2.19999999999569 6.00000000000072 0 2.19999999999569 6.00000000000072 0 2.79999999999713 5.90000000000048 0 2.79999999999713 5.90000000000048 0 3.39999999999856 5.80000000000024 0 3.39999999999856 5.80000000000024 0 4 5.7 0 4.75 7.2 0 4.5 6.7 0 4.5 6.7 0 4.25 6.2 0 4.25 6.2 0 4 5.7 0 2.75 4 0 3.12499999998898 4 0 3.12499999998898 4 0 3.5 4 0 5 2.2 0 4.75 2.8 0 5 2.2 0 5.24999999999962 2.49999999999954 0 5.24999999999962 2.49999999999954 0 5.5 2.8 0 5.5 2.8 0 5.25000000000033 3.19999999999948 0 5.25000000000033 3.19999999999948 0 5.0000000000003 3.59999999999952 0 5.0000000000003 3.59999999999952 0 4.75 4 0 5.5 2.8 0 5.9166666666663 3.19999999999965 0 5.9166666666663 3.19999999999965 0 6.333333333333 3.59999999999968 0 6.333333333333 3.59999999999968 0 6.75 4 0 5.5 2.8 0 5.75 2.5 0 5.75 2.5 0 6.37499999999998 2.35 0 6.37499999999998 2.35 0 7 2.2 0 7 2.2 0 7.49999999999998 2.34999999999999 0 7.49999999999998 2.34999999999999 0 8 2.5 0 7.5 2 0 7.75 2.25 0 7.75 2.25 0 8 2.5 0 8 2.5 0 8.16666666666618 1.90000000000174 0 8.16666666666618 1.90000000000174 0 8.33333333333291 1.30000000000152 0 8.33333333333291 1.30000000000152 0 8.5 0.7 0 8 2.5 0 8.49999999999995 2.59999999999999 0 8.49999999999995 2.59999999999999 0 9 2.7 0 9 2.7 0 9.46666666666447 2.56666666666729 0 9.46666666666447 2.56666666666729 0 9.93333333332953 2.43333333333442 0 9.93333333332953 2.43333333333442 0 10.4 2.3 0 10.4 2.3 0 10.7833333333323 1.90000000000107 0 10.7833333333323 1.90000000000107 0 11.166666666667 1.49999999999966 0 11.166666666667 1.49999999999966 0 11.55 1.1 0 8 2.5 0 8.4375 2.875 0 8.4375 2.875 0 8.875 3.25 0 8.875 3.25 0 9.3125 3.625 0 9.3125 3.625 0 9.75 4 0 9.75 4 0 9.25000000000007 3.90000000000002 0 9.25000000000007 3.90000000000002 0 8.74999999999996 3.79999999999999 0 8.74999999999996 3.79999999999999 0 8.25 3.7 0 7.5 3.7 0 7.74999999999975 3.10000000000059 0 7.74999999999975 3.10000000000059 0 8 2.5 0 6.75 4 0 7.24999999998975 4.3333333333265 0 7.24999999998975 4.3333333333265 0 7.74999999998975 4.66666666665984 0 7.74999999998975 4.66666666665984 0 8.25 5 0 7.5 4.8 0 7.87500000001364 4.90000000000364 0 7.87500000001364 4.90000000000364 0 8.25 5 0 8.25 5 0 8.75 5.16666666666667 0 8.75 5.16666666666667 0 9.25 5.33333333333333 0 9.25 5.33333333333333 0 9.75 5.5 0 8.25 5 0 8.625 5.25 0 8.625 5.25 0 9 5.5 0 7.75 5.5 0 8 5.25 0 8 5.25 0 8.25 5 0 9.75 4 0 9.25 4.33333333333333 0 9.25 4.33333333333333 0 8.75 4.66666666666667 0 8.75 4.66666666666667 0 8.25 5 0 9.75 4 0 10.25 4.1 0 10.25 4.1 0 10.7500000000001 4.20000000000003 0 10.7500000000001 4.20000000000003 0 11.25 4.3 0 11.25 4.3 0 10.875 4.55 0 10.875 4.55 0 10.5 4.8 0 11.25 4.3 0 11.7499999999997 4.39999999999995 0 11.7499999999997 4.39999999999995 0 12.2499999999998 4.49999999999996 0 12.2499999999998 4.49999999999996 0 12.75 4.6 0 11.25 4.3 0 11.4124999999997 4.97499999999896 0 11.4124999999997 4.97499999999896 0 11.5749999999991 5.64999999999639 0 11.5749999999991 5.64999999999639 0 11.7374999999994 6.32499999999759 0 11.7374999999994 6.32499999999759 0 11.9 7 0 10.4 2.3 0 10.6124999999999 2.79999999999987 0 10.6124999999999 2.79999999999987 0 10.8249999999996 3.29999999999912 0 10.8249999999996 3.29999999999912 0 11.0374999999996 3.79999999999912 0 11.0374999999996 3.79999999999912 0 11.25 4.3 0 12 3.7 0 11.6250000000003 3.99999999999973 0 11.6250000000003 3.99999999999973 0 11.25 4.3 0 4 5.7 0 4.41666666666686 5.46666666666656 0 4.41666666666686 5.46666666666656 0 4.83333333333373 5.23333333333311 0 4.83333333333373 5.23333333333311 0 5.25 5 0 5.25 5 0 5.74999999998975 4.6666666666735 0 5.74999999998975 4.6666666666735 0 6.24999999998975 4.33333333334016 0 6.24999999998975 4.33333333334016 0 6.75 4 0 5.25 5 0 4.75 4.7 0 3.5 5 0 3.74999999999926 5.34999999999897 0 3.74999999999926 5.34999999999897 0 4 5.7 0 5 6.3 0 5.5 6.35 0 5.5 6.35 0 6 6.4 0 6 6.4 0 6.62499999999985 6.20000000000005 0 6.62499999999985 6.20000000000005 0 7.25 6 0 7.25 6 0 7.6875 6.5 0 7.6875 6.5 0 8.125 7 0 8.125 7 0 8.5625 7.5 0 8.5625 7.5 0 9 8 0 7.25 6 0 6.87500000000078 5.65000000000073 0 6.87500000000078 5.65000000000073 0 6.5 5.3 0 5.25 5 0 5.75 5.25 0 5.75 5.25 0 6.25 5.5 0 6.25 5.5 0 6.75 5.75 0 6.75 5.75 0 7.25 6 0 7.65 6.2 0 7.25 6 0 5 2.2 0 4.6250000000005 1.85000000000047 0 4.6250000000005 1.85000000000047 0 4.25 1.5 0 0 3.7 0 0.562499999998241 3.97499999999914 0 0.562499999998241 3.97499999999914 0 1.12499999999642 4.24999999999825 0 1.12499999999642 4.24999999999825 0 1.68749999999941 4.52499999999971 0 1.68749999999941 4.52499999999971 0 2.25 4.8 0 0 0.7 0 0 1.63196399302199 0 0.6 0.7 0 0.6 0.7 0 0 1.63196399302199 0 0.949999999999237 1.27499999999875 0 2.16666666666627 4.19999999999716 0 1.68749999999941 4.52499999999971 0 2.25 4.8 0 1.01330161616962 3.61287417198111 0 0.562499999998241 3.97499999999914 0 1.12499999999642 4.24999999999825 0 0 3.11417863697563 0 0.709930085018308 2.90541813969645 0 0 2.43030394096465 0 0.681422922177531 2.10631319418203 0 1.29999999999838 1.84999999999734 0 0.949999999999237 1.27499999999875 0 0 1.63196399302199 0 0.681422922177531 2.10631319418203 0 0.949999999999237 1.27499999999875 0 1.59342895722992 3.88970357744513 0 1.68749999999941 4.52499999999971 0 2.16666666666627 4.19999999999716 0 2.08333333333292 3.59999999999702 0 1.59342895722992 3.88970357744513 0 2.16666666666627 4.19999999999716 0 1.59342895722992 3.88970357744513 0 1.12499999999642 4.24999999999825 0 1.68749999999941 4.52499999999971 0 1.59342895722992 3.88970357744513 0 1.01330161616962 3.61287417198111 0 1.12499999999642 4.24999999999825 0 0 2.43030394096465 0 0.681422922177531 2.10631319418203 0 0 1.63196399302199 0 0.681422922177531 2.10631319418203 0 0 2.43030394096465 0 0.709930085018308 2.90541813969645 0 0.709930085018308 2.90541813969645 0 1.18646728946124 2.48825915784634 0 0.681422922177531 2.10631319418203 0 1.45178778108394 3.11022608666643 0 1.01330161616962 3.61287417198111 0 1.59342895722992 3.88970357744513 0 1.45178778108394 3.11022608666643 0 2.08333333333292 3.59999999999702 0 2 3 0 1.59342895722992 3.88970357744513 0 2.08333333333292 3.59999999999702 0 1.45178778108394 3.11022608666643 0 1.29999999999838 1.84999999999734 0 1.18646728946124 2.48825915784634 0 1.64999999999907 2.42499999999847 0 1.29999999999838 1.84999999999734 0 0.681422922177531 2.10631319418203 0 1.18646728946124 2.48825915784634 0 1.64999999999907 2.42499999999847 0 1.45178778108394 3.11022608666643 0 2 3 0 1.64999999999907 2.42499999999847 0 1.18646728946124 2.48825915784634 0 1.45178778108394 3.11022608666643 0 1.01330161616962 3.61287417198111 0 1.45178778108394 3.11022608666643 0 0.709930085018308 2.90541813969645 0 1.18646728946124 2.48825915784634 0 0.709930085018308 2.90541813969645 0 1.45178778108394 3.11022608666643 0 0.457146340237234 3.46149418973047 0 0.562499999998241 3.97499999999914 0 1.01330161616962 3.61287417198111 0 0.709930085018308 2.90541813969645 0 0.457146340237234 3.46149418973047 0 1.01330161616962 3.61287417198111 0 0.457146340237234 3.46149418973047 0 0 3.7 0 0.562499999998241 3.97499999999914 0 0 3.7 0 0.457146340237234 3.46149418973047 0 0 3.11417863697563 0 0.457146340237234 3.46149418973047 0 0.709930085018308 2.90541813969645 0 0 3.11417863697563 0 5.10625000000121 0.7 0 5.50000000000083 1.19999999999835 0 5.75 0.7 0 1.24375000000139 0.7 0 0.6 0.7 0 0.949999999999237 1.27499999999875 0 5.25000000000071 1.69999999999859 0 4.6250000000005 1.85000000000047 0 5 2.2 0 4.6250000000005 1.85000000000047 0 4.40000000000013 2.35999999999996 0 5 2.2 0 0.949999999999237 1.27499999999875 0 1.62694975199716 1.39780443046149 0 1.24375000000139 0.7 0 1.62694975199716 1.39780443046149 0 1.88750000000329 0.7 0 1.24375000000139 0.7 0 1.29999999999838 1.84999999999734 0 1.62694975199716 1.39780443046149 0 0.949999999999237 1.27499999999875 0 3.81875000000451 0.7 0 4.21983179209416 1.10827359693862 0 4.4625000000026 0.7 0 5.25000000000071 1.
[...]
<PointData Scalars="A_conc,B_conc,region_id," Vectors="" Tensors="">
<DataArray type="Float64" Name="A_conc" format="ascii">
0.0828765349920654 0.438150179953112 0.396567738735548 0.538586476437671 0.536402301240519 0.639823258433815 0.630480515086887 0.656265383291717 0.00851707689238626 -0.0120028770392096 -0.024224864962051 0.0855573626599598 0.0784789643318558 0.196245480390089 0.660683644086097 0.658970573699047 0.658955812300334 0.657330489885835 0.657317119976444 0.655776580861618 0.655758095346131 0.65432033700166 0.654745960132628 0.65023632047749 0.685262644543666 0.373618502625534 0.231859111422047 0.196946221313984 0.312401535781803 0.553218387279876 0.550428079846683 0.53274847698607 0.531472490283047 0.54252829061402 0.542514405623835 0.561516059054762 0.562027070396707 0.570304695181165 0.570415543633068 0.563100703767903 0.566981635829909 0.543368125736731 0.271754423633972 0.286256489329598 0.292212289239525 0.31427555072647 0.829938621567443 0.834991895211768 0.834717725687573 0.837210037115419 0.830105292538469 0.822225710967625 0.822327154588774 0.805954570577166 0.787546288719621 0.802995262678073 0.800379277564502 0.805022880472417 0.679018024624663 0.315215554919216 0.56108850229691 0.573913635409338 0.575114409954737 0.579305861029812 0.582810508319787 0.569219673205014 0.560015305057334 0.566406187545129 0.580792802371635 0.650521705450892 0.559337991915255 0.563986625047622 0.563280717241576 0.56501308894786 0.564979580979092 0.56658983782119 0.566594924994165 0.568269537684313 0.568290014921959 0.57009606403747 -0.00285058998129415 0.0715179939136325 0.0504868273826834 0.168735069202102 0.189781013119651 0.560554294451403 0.320943932739183 0.418791940375803 0.403438536208636 0.550113003437913 0.714198580211931 0.467332851403547 0.721306823402091 0.727972993453447 0.726816679883368 0.729234507491441 0.729391636187108 0.717243218359908 0.719091988560947 0.688721871033454 0.695910717869199 0.633482060563312 0.409271063291484 0.463971194424733 0.473489625647971 0.554894409455183 0.551206741334258 0.714566063994478 0.792673967649391 0.803418803919982 0.802891397189743 0.805882424523391 0.805714644374092 0.807373247209993 0.807384844910761 0.808782219024101 0.808788362871888 0.810219798384921 0.712139584826997 0.80975370206845 0.790927853414371 0.811687940840027 0.259439791427562 -0.0915854895918131 -0.0364413294861525 0.0208996924755597 0.00850014159521712 0.0160099580546123 0.802284897937338 0.820553884516929 0.820357543331449 0.827415818086797 0.827119859225087 0.832495011280794 0.832390657840606 0.835311551758522 0.835280305576586 0.83799886091705 0.649363356036485 0.737775592295723 0.737371494513995 0.8203374617023 0.825152850884102 0.900433535173928 0.825431672436807 0.852744033566868 0.852811289835189 0.890767243525469 0.890839983641363 0.935725128243419 0.935600387148267 0.977849930144071 0.975494224292526 0.97090604213753 0.971974968025068 0.962973363524719 0.981716770117494 0.900230909434998 0.686907445982566 0.790491289454718 0.770503300295008 0.817604896087898 0.837210235664531 0.869288035517654 0.865748279407124 0.883366000850916 0.884186370484792 0.901188090539302 0.864815369646313 0.90052127095622 0.893469032305738 0.901098278502184 0.383164392168638 0.444690209712105 0.447003631701393 0.508724285980157 0.491669024597816 0.526736057813748 0.916262712067028 0.807483552519044 0.899415181582915 0.17931733605854 0.865715879353227 0.900816373119571 0.893875563756935 0.901127518777988 0.975441770578316 0.974159477564324 0.974456152083007 0.970691193228647 0.971366910590922 0.960108794711585 0.975247572201392 0.977990775867607 0.977616213627649 0.977925585126836 0.977926972785318 0.978243701000351 0.978775983657408 0.973026635634183 0.985925956184145 0.9323093868198 0.997303027223945 1.00019525210791 0.999728369048846 1.0000820242167 0.999995676469153 1.00000319939379 0.645850255540259 0.712609187765688 0.711430638402891 0.774730335582568 0.7731783956211 0.843828708325021 0.840573122992037 0.829013189560346 0.885430583230212 0.91537451483386 0.915181825585061 0.942248291996612 0.941196599395713 0.963009627891832 0.962889387926881 0.977297638974577 0.939566674631743 0.890829792045414 0.896206355658747 0.82105757189184 0.730397649698303 0.745519248839056 0.744611965162807 0.751679152607114 0.751731100545836 0.752869558035585 0.805573740043632 0.830272311963052 0.829348244518195 0.835589788386441 0.835041648894762 0.837365429068562 0.203891561287483 0.529934936026752 0.483786770090289 0.399418729030807 0.398314514457843 0.247699951510338 0.314814972782937 0.328495114794247 0.32861745938467 0.339901302400039 0.339908748117693 0.347427400444685 0.347408856089157 0.353470335949217 0.180444126640634 0.214008801312849 0.218091896683859 0.313576546044392 0.321775971707168 0.434603928718761 0.42083926130841 0.493574055254104 0.69432241960509 0.654305152527109 0.645403758047274 0.630788521582303 0.297134903747947 0.3411862776629 0.336343748774921 0.347035150698231 0.325258148916722 0.306103219169588 0.310900812019071 0.350979272976125 0.119234378692262 0.397583056253484 0.661177554100336 0.652004657076832 0.657423050996873 0.625320526660002 0.486992471320667 0.525902721553634 0.525511646028211 0.542221475981978 0.541399859964775 0.546822852715848 0.546259323148598 0.547600862352269 0.102636991064879 0.446965309959024 0.117050368058764 0.115183006601384 0.450783509031709 0.426611984925884 0.313011721964915 0.490997024583106 0.551893692241892 0.103659152488583 0.253649200887458 0.325232364756336 0.52741405790302 0.606138375462883 0.529905085241597 0.534972938380964 0.538416894503919 0.399569207479191 0.401186304302727 0.534265062077099 0.400364622243293 0.114038329418648 0.491776594456819 0.271062481121016 0.230905859908682 0.175770497110767 0.19710129224599 0.118792904761551 0.387419212335488 0.488765931348071 0.121255639254832 0.10118813624627 0.32706069287663 0.533763966566723 0.538063680918331 0.408657431246094 0.544122714536978 0.516675000831041 0.587688975975319 0.587735570773382 0.609619956120733 0.54341690257395 0.616861706668785 0.220704946245063 0.122864210137464 0.602188505527073 0.373763997463436 0.685625875403855 0.121007775649143 0.323305565847197 0.619548050251242 0.53736243757114 0.614826435150058 0.639637989748101 0.537741822122317 0.526805387646864 0.614821561792753 0.630368218273987 0.625993468815615 0.659872622826855 0.630781155770141 0.602915088016008 0.625787814397933 0.250057606049357 0.618983677745548 0.648963841589062 0.603393809388689 0.576752893391443 0.626225089460897 0.157109802268797 0.20675717694729 0.128179012344737 0.64679765417507 0.271417090934046 0.251422961459821 0.157669297652117 0.169030680699249 0.206104722166015 0.0844319110975959 0.217407302009602 0.432846731764107 0.273557693127625 0.645261349504798 0.460384692296909 0.00479870992732324 -0.00931752216474826 0.00694798561718316 -0.0556916407407677 -0.0538564016372481 0.131308196786289 -0.0861279595939658 0.632554787720395 0.366090587109322 0.628158259602078 0.620085574960722 0.662453810799949 0.141135336360339 0.222330845389567 -0.0606072705537353 0.230677731144382 -0.0700702056472548 -0.0721977312865895 0.214008700328959 0.248848524274059 0.170232092794953 0.00499794864510689 -0.011058970503323 0.00444155190393345 -0.0535345159593507 -0.144877831038118 0.540517568900603 0.491159376236802 0.660719530680414 0.649584732720019 -0.0744776472258941 0.180818599088458 0.00229733121832585 0.557365075040751 0.466329467580093 0.466295297381416 0.636393923536643 0.525748144313593 0.638271607734121 0.472633884234293 0.665010602007169 0.489015086221819 0.524263248116107 0.49962788319797 0.641624602600395 0.555792409351238 0.467356664488109 0.55398215511838 -0.0562866934767312 0.782140084312975 0.588601800193692 0.0161390425095336 0.772319162662848 -0.0504947925726251 0.419159715930451 0.438717972901778 0.351143583025383 0.472681233806295 0.438945546818144 0.41934876060665 0.629675485644769 0.554653355623244 0.621115925208985 0.606109828619636 0.690956778355307 0.469897466677549 0.763271103724558 0.025934519514135 0.326083938523591 0.572529093956758 0.653213982478101 0.63679422063481 0.55600486430864 0.571962469421181 0.638473608688874 0.478319053037226 0.666764588185298 0.663519126497949 0.358460117501313 0.509545632850997 0.429113488142507 -0.0679613739390777 0.170163137570044 -0.0692274369232493 0.474822075595957 0.516646289862556 0.605057718796277 0.0034448480506368 -0.00918527191307139 -0.00316905466195439 -0.0030120463820788 -0.00244907715263364 0.00515778152935204 0.437811461736186 0.258492335024782 0.568527898809841 0.116164088462454 0.165219884221842 -0.0602719469517808 0.261971915953988 0.369247801920293 0.5651843734612 0.418540707465012 0.323783425829408 0.37543324561531 -0.0529225401633506 0.108112521297038 -0.0562376595828922 -0.104140425454495 0.35917074505311 0.166428646743107 0.395777043683803 0.238617437177682 0.174206494497436 0.275925101570717 0.257225082950471 0.201592267950335 0.331154832405199 0.27969602124454 0.369581428909638 0.254806967819726 -0.0772527230730722 0.245274999743298 0.330104168641104 0.254366686259327 0.27937183385893 0.270972049186395 0.351269990874347 -0.0910792481868971 -0.084817102783421 0.255412635153222 -0.0834163308199152 0.669179317048642 0.452971196831418 0.651611125074459 0.453061249361032 0.671011755457611 0.476376203074238 0.320010851887956 0.415756333398531 0.435162628446289 0.319575631733607 0.248883452054117 0.414405878934888 0.45113322029513 0.413155540240444 0.655751654185613 0.238154880997682 0.399586847745081 0.42209604349715 0.00633008030477872 -0.00921416845692164 -0.00364910356624711 -0.0121091781795698 0.0202869258916678 0.0720198146230936 0.504271553145477 0.539688459331744 0.750852608123735 0.512520230897641 0.193524393220965 0.524866617149433 -0.00489207679370667 -0.00218537011659466 0.0155823838308603 0.0533484094740803 0.298013139296527 0.0598401351939289 0.419961787424901 0.33903361918109 0.0361142222180176 0.167652834139272 0.534306924716876 0.465413612419248 0.16036238696128 0.17229434349656 0.444265374895958 0.152973185599542 0.0263840154923962 0.157080748525942 0.0387950275847296 0.0481272239870322 -0.0118166292600136 0.0220911315056692 0.0731242643510244 -0.00805958573404806 -0.00106934790224158 0.0312357864195586 0.127736933526917 0.0236698539059784 0.05556459619365 0.0657316880913569 0.0693748992040454 0.0571449973432564 0.143562568980213 0.152643166604673 0.0515235365400584 0.102947702815972 0.949674650041464 0.95366932050921 0.986150630357493 0.928511516867464 0.80428793963561 0.95991326222804 0.813950702610741 0.82730731617619 0.983871814848707 0.963571129508874 0.836921710380568 0.961803279383011 0.355378979965331 0.729254289507088 0.436681114806182 0.962818284243256 0.816866966694836 0.981891044468471 0.830575256269356 0.806063294948118 0.990572891537363 0.843583340017765 0.471837968403063 0.808178336839606 0.841787361239546 0.472444133664495 0.513174804576301 0.839432013871158 0.815076562550148 0.476327542032861 0.458273976066907 0.189589390209839 0.503788095386481 0.26406678559455 0.185332388118055 0.447737784566527 0.481092638552308 0.830863824961933 0.585408412068836 0.575586806108226 0.260672445680431 0.474703256938654 0.25099596302228 0.0900882885690831 0.182002744087042 0.10362391264337 0.23622343418081 0.161206488204331 0.437694076578169 0.33253426493802 0.250352663059801 0.246585704361065 0.324237566130471 0.159593601311462 0.91016817484996 0.7272003307862 0.363357828700768 0.393144313310113 0.967000517496963 0.90048543837233 0.791104942813167 0.976408021822903 0.597213509100328 0.541715137199856 -0.123111932857514 0.264427252330235 0.235933503912191 0.332749698141534 0.140496581975398 -0.0404300908115212 0.735997923181061 0.831556910579474 -0.140590587889855 0.555712045320314 0.0108456041010804 0.0846061428594663 0.110352659763588 0.023282614534352 0.239259334655919 0.120804020693473 0.0892158952740696 0.296142485215559 0.0847316137268071 0.308864503042698 0.072696130492424 0.0259568922764014 0.00642715851515349 0.0915070811010582 0.0966093783148275 0.00328214794726425 0.110118621688842 0.340559829261697 0.330195479274553 0.313473217994185 0.12114054736893 0.0934929776778474 0.323594313103855 0.109764548904031 0.295221927625999 0.080599464773731 0.00867690203891452 0.008387030724073 -0.0515609769733898 0.833556854246735 0.485804184703862 0.0128174017586757 0.0255226498722102 0.0856746126195387 0.0935659877621498 0.0942716229884614 0.0077122571763911 0.09143373663702 0.276643808933749 0.116766391885307 0.499095393932201 0.463895649063588 0.530401587968813 0.524183877689496 0.524342719279843 0.549789145214982 0.494170917181793 0.494123456900413 0.522155782365643 0.532128394472975 0.531514626355169 0.571286875847795 0.502936160072606 0.535679903609771 0.544505810783193 0.198205024907794 0.113374867525436 0.263407986515216 0.572175361177427 0.491924535546781 0.554179226053957 0.507456944185469 0.555135349602563 0.563291327982839 0.514214033898661 0.47849619125837 0.53883963311048 0.27278979241035 0.074228164152947 0.28516961921986 0.266573407365019 0.15340018577847 0.0796649653660957 0.387232026332892 0.0418638613365283 0.443393018270189 0.0265909080606678 -0.00489570932249387 0.00837498862146747 0.315960957441554 0.468087547323945 0.346023935372121 0.475185206912891 0.305646311319372 0.485885075040651 0.458343941622805 0.580821044181083 0.561854405458213 0.488331692195861 0.294822957361464 0.420975913428133 0.305527743030089 0.483787664922248 0.473344609317398 0.534232539953614 0.465495587714125 0.453808961060349 0.495492205115821 0.417875792891507 0.494411169163964 0.380188013164824 0.549847265745976 0.520740772980908 0.534714209097237 0.53384390155784 0.454044696716386 0.52302132642585 0.527313543126112 0.466222198393334 0.285977554655703 -0.0615435066288774 0.260216162196143 0.538796746726967 0.53274616502022 0.469073176349176 0.533252706208254 0.453212965769564 0.468829816997757 0.524661653141062 0.386454323390221 0.51814425797274 0.531582479863332 0.378970898470527 0.532719716112264 0.552670352250489 0.377788057179626 0.431741360221708 0.378559028810151 0.479117017967136 0.349909843311237 0.34992179716964 0.479328512842652 0.42639179493081 0.498811002985585 0.577386876000196 0.570396120146266 0.498378949874627 0.505027968998821 0.578170506472447 0.404947878318667 0.346999364259472 0.466626661069768 0.217280425130917 0.564883409435718 0.601350284165779 -0.00014853344886459 -0.000780136912161149 -0.00104900921416713 0.00111918310084635 0.0587216915651842 -0.0124216392336965 0.00802359556326681 0.262417106505159 0.19839207857912 -0.0301038864057602 0.245461875150043 -0.0513337033451435 0.0595100717534552 0.0297986633667551 0.172534726898259 0.0344041241638568 0.0490581448315596 0.00395167264404096 0.428094910900006 0.496308577321531 0.506086104580524 0.58872585743524 0.38870344184162 0.541619358242529 -0.00413034605987631 0.00426990960025974 -0.00304371246708327 0.392114235408261 0.42550789219338 0.509452723668588 0.475341384314076 0.545928808962183 0.471205669056139 -0.0111655714752721 0.00196843780630868 0.00109762057990086 0.223483913515112 0.280677753847662 -0.0435013899633981 0.191571402084835 0.166710726887287 0.0219009184649266 0.643965151136048 0.528341992573523 0.0362110688354434 0.0337239817686033 0.478390809284182 -0.0963316002245255 0.00759978051654871 0.0813728138583613 0.0349059440826984 0.0851446093665004 -0.0088004754695458 0.0613342728812037 0.102816051179089 0.254533960611137 0.0197169241438376 0.12418657262188 0.22051589697382 0.594610731255459 0.167435725316664 -0.0599712065387029 -0.0602898555306175 -0.0861226350887335 0.198249526122451 0.313974703007588 0.632376625076969 0.218589449039166 0.581102976918432 0.648767206295192 0.024537815502134 0.19466566974635 0.0882135428212985 0.0548241649714876 0.161582680449555 0.0542695530587857 0.0785009710555976 -0.00811966321039389 0.0725175001908792 0.0306649509345095 -0.0024919903253239 0.400616791278916 0.31121599549142 0.096313970298308 0.0707444860061521 0.335369773064237 0.101971817029947 -0.0199293831481274 -0.0100555611257288 0.000495535978529017 0.128304369684262 0.43951264557239 0.449111603032926 -0.0826468498537275 0.45966536057559 0.0460799005774183 -0.00472387955509516 0.0124342039784074 0.00527501990712567 0.0136559812347973 -0.00609893253547986 -0.00121902938386949 -6.0903028910426e-05 -0.00112344119887623 0.000236547942656942 0.593162058817547 0.44917537211604 0.57459329675298 -0.00214346997943593 0.0433688743054221 0.0904801776530056 0.0492650809167912 0.272281394979263 0.0948916278635769 0.0371698627195711 0.280482376533512 0.289716246265346 -0.000110714807179534 0.00450952218367635 -0.00117043309428954 0.00608087726747014 -0.000626228601810167 0.0210101128129743 0.00644386221238075 0.00616738785514105 0.0284477087815243 0.293741796441271 -0.082050337523535 0.24226784142146 -0.0597169990373164 0.26702621870034 0.0509960862533277 -0.0704834332437026 -0.0376297905323939 0.222513703400023 0.00565203889579048 0.00543841409773288 9.28286432668934e-05 6.46906655479094e-05 0.0043484178567105 0.00186289007844639 0.619876851159401 0.28201721195193 0.446397264962406 0.442057681692164 0.223574198295034 0.134507931558199 -0.0665481826437436 0.0429742915517368 0.180063074870587 0.00194703444090435 -0.00220999397932029 -0.0164117438390199 -0.00155005619194961 0.00143955563262823 7.68621130162036e-05 -0.000381530328133354 -0.0011402508483023 -0.000552661522087229 0.000186659587466079 0.00142122642485124 -0.000274250907450303 0.622393777956858 0.332242103618605 0.280234909073762 0.610977616997942 0.568426965275464 0.373640617667079 0.579196118087629 0.504613687487078 0.498174470429559 0.0139164652191845 0.00291080571350618 0.00857883309585604 -0.234321147638665 0.801045627355142 0.428757055317223 0.72661027022507 0.767446949790675 0.793331892148355 0.705236873863094 0.740698041009219 0.776542849826174 0.768907245112647 0.769653258209205 0.814549041443848 0.821348899819593 0.564928331813372 0.792812654709177 0.00438683553773895 -0.00475044991860446 0.00581524723118725 0.386442543187521 0.0163384220348423 0.250480918158048 0.802733174328814 0.403292555464783 0.810970221786863 -0.00558617824088101 -0.010445062617999 0.00632242784741788 0.0199393198156284 -0.045292244552985 -0.0279709661278597 0.0179561797714431 0.0168336040795533 -0.041403306470534 0.40407740801326 0.0129515037549927 -0.00712378972423917 0.00935500694404821 -0.0259450450237453 -0.036189223507929 0.726728651257911 0.672332230812901 0.72091799108103 0.793453051216862 0.489129649736596 0.417807084005007 0.427944916793124 -0.00111696454166395 0.433156471541938 0.758487576999431 0.499423059331193 0.778858350201082 -0.043092061434177 0.700729887479839 0.902464735760461 -0.124178403535313 0.660144531110236 -0.0315953363741523 -0.0394039547831354 0.0232853528866714 -0.0446423249357078 -0.106235267957866 0.935430799048411 0.801251062816282 -0.0917590164058121 -0.0609520210482298 0.911239949923858 0.00223812823540969 0.00476424300910274 0.00827771599580747 -0.0393853856480874 0.0138115508199181 -0.025881622216123 0.0163699274252739 -0.0408816135448608 0.0210860604938114 6.20528382441086e-05 0.00449683116721567 0.00208228711952911 0.00716013918222678 -0.0110235346149625 0.00827988618111609 0.41672239134545 -0.120740107430915 -0.0252141644396598 -0.0645324372308078 -0.138058871193472 0.442939721051063 0.669761662277997 0.552443203647651 0.729691080218761 0.5352962937836 0.64550736345995 -0.0944882172347345 0.214907369553175 0.525276524853019 0.393454899292501 0.528870322048035 0.81644544657987 0.398913869183084 0.527301373043561 0.697953665635225 0.821381926209475 0.52447548840941 0.217191508589712 0.475690393473505 0.697119133853229 0.529020285429306 0.472362038941106 0.967422649660877 0.954354432627863 0.849083525790626 1.00553481581344 1.00553481581344 0.984019861517348 0.921922289473874 0.944248628126628 0.818078707593382 1.00219527594607 1.00219527594607 0.994130118128176 0.01022207687971 -0.00446911324257619 0.0