<?xml version="1.0"?>
<VTKFile type="UnstructuredGrid" version="0.1" byte_order="LittleEndian">
<UnstructuredGrid>
<Piece NumberOfPoints="2028" NumberOfCells="724">
<Points>
<DataArray type="Float64" NumberOfComponents="3" format="ascii">
0.6 0.7 0 0.949999999999237 1.27499999999875 0 0.949999999999237 1.27499999999875 0 1.29999999999838 1.84999999999734 0 1.29999999999838 1.84999999999734 0 1.64999999999907 2.42499999999847 0 1.64999999999907 2.42499999999847 0 2 3 0 5.75 0.7 0 5.50000000000083 1.19999999999835 0 5.50000000000083 1.19999999999835 0 5.25000000000071 1.69999999999859 0 5.25000000000071 1.69999999999859 0 5 2.2 0 5 2.2 0 4.40000000000013 2.35999999999996 0 4.40000000000013 2.35999999999996 0 3.8000000000002 2.51999999999995 0 3.8000000000002 2.51999999999995 0 3.20000000000014 2.67999999999996 0 3.20000000000014 2.67999999999996 0 2.60000000000008 2.83999999999998 0 2.60000000000008 2.83999999999998 0 2 3 0 2 3 0 2.08333333333292 3.59999999999702 0 2.08333333333292 3.59999999999702 0 2.16666666666627 4.19999999999716 0 2.16666666666627 4.19999999999716 0 2.25 4.8 0 2.25 4.8 0 1.75 5 0 2.25 4.8 0 2.83333333333312 5.09999999999989 0 2.83333333333312 5.09999999999989 0 3.41666666666727 5.40000000000031 0 3.41666666666727 5.40000000000031 0 4 5.7 0 4 5.7 0 3.62500000000722 5.99999999999422 0 3.62500000000722 5.99999999999422 0 3.25 6.3 0 4 5.7 0 4.49999999999954 5.99999999999973 0 4.49999999999954 5.99999999999973 0 5 6.3 0 6 3.8 0 6.37499999999994 3.89999999999998 0 6.37499999999994 3.89999999999998 0 6.75 4 0 6 3.8 0 5.62500000000006 3.89999999999998 0 5.62500000000006 3.89999999999998 0 5.25 4 0 4.25 4.8 0 4.75000000000034 4.39999999999973 0 4.75000000000034 4.39999999999973 0 5.25 4 0 4.75 4 0 5.25 4 0 3.5 4 0 3.08333333333459 4.26666666666586 0 3.08333333333459 4.26666666666586 0 2.66666666666806 4.53333333333244 0 2.66666666666806 4.53333333333244 0 2.25 4.8 0 3.5 4 0 3.87499999999237 3.75000000000508 0 3.87499999999237 3.75000000000508 0 4.25 3.5 0 1 6.2 0 1.59999999999711 6.10000000000048 0 1.59999999999711 6.10000000000048 0 2.19999999999569 6.00000000000072 0 2.19999999999569 6.00000000000072 0 2.79999999999713 5.90000000000048 0 2.79999999999713 5.90000000000048 0 3.39999999999856 5.80000000000024 0 3.39999999999856 5.80000000000024 0 4 5.7 0 4.75 7.2 0 4.5 6.7 0 4.5 6.7 0 4.25 6.2 0 4.25 6.2 0 4 5.7 0 2.75 4 0 3.12499999998898 4 0 3.12499999998898 4 0 3.5 4 0 5 2.2 0 4.75 2.8 0 5 2.2 0 5.24999999999962 2.49999999999954 0 5.24999999999962 2.49999999999954 0 5.5 2.8 0 5.5 2.8 0 5.25000000000033 3.19999999999948 0 5.25000000000033 3.19999999999948 0 5.0000000000003 3.59999999999952 0 5.0000000000003 3.59999999999952 0 4.75 4 0 5.5 2.8 0 5.9166666666663 3.19999999999965 0 5.9166666666663 3.19999999999965 0 6.333333333333 3.59999999999968 0 6.333333333333 3.59999999999968 0 6.75 4 0 5.5 2.8 0 5.75 2.5 0 5.75 2.5 0 6.37499999999998 2.35 0 6.37499999999998 2.35 0 7 2.2 0 7 2.2 0 7.49999999999998 2.34999999999999 0 7.49999999999998 2.34999999999999 0 8 2.5 0 7.5 2 0 7.75 2.25 0 7.75 2.25 0 8 2.5 0 8 2.5 0 8.16666666666618 1.90000000000174 0 8.16666666666618 1.90000000000174 0 8.33333333333291 1.30000000000152 0 8.33333333333291 1.30000000000152 0 8.5 0.7 0 8 2.5 0 8.49999999999995 2.59999999999999 0 8.49999999999995 2.59999999999999 0 9 2.7 0 9 2.7 0 9.46666666666447 2.56666666666729 0 9.46666666666447 2.56666666666729 0 9.93333333332953 2.43333333333442 0 9.93333333332953 2.43333333333442 0 10.4 2.3 0 10.4 2.3 0 10.7833333333323 1.90000000000107 0 10.7833333333323 1.90000000000107 0 11.166666666667 1.49999999999966 0 11.166666666667 1.49999999999966 0 11.55 1.1 0 8 2.5 0 8.4375 2.875 0 8.4375 2.875 0 8.875 3.25 0 8.875 3.25 0 9.3125 3.625 0 9.3125 3.625 0 9.75 4 0 9.75 4 0 9.25000000000007 3.90000000000002 0 9.25000000000007 3.90000000000002 0 8.74999999999996 3.79999999999999 0 8.74999999999996 3.79999999999999 0 8.25 3.7 0 7.5 3.7 0 7.74999999999975 3.10000000000059 0 7.74999999999975 3.10000000000059 0 8 2.5 0 6.75 4 0 7.24999999998975 4.3333333333265 0 7.24999999998975 4.3333333333265 0 7.74999999998975 4.66666666665984 0 7.74999999998975 4.66666666665984 0 8.25 5 0 7.5 4.8 0 7.87500000001364 4.90000000000364 0 7.87500000001364 4.90000000000364 0 8.25 5 0 8.25 5 0 8.75 5.16666666666667 0 8.75 5.16666666666667 0 9.25 5.33333333333333 0 9.25 5.33333333333333 0 9.75 5.5 0 8.25 5 0 8.625 5.25 0 8.625 5.25 0 9 5.5 0 7.75 5.5 0 8 5.25 0 8 5.25 0 8.25 5 0 9.75 4 0 9.25 4.33333333333333 0 9.25 4.33333333333333 0 8.75 4.66666666666667 0 8.75 4.66666666666667 0 8.25 5 0 9.75 4 0 10.25 4.1 0 10.25 4.1 0 10.7500000000001 4.20000000000003 0 10.7500000000001 4.20000000000003 0 11.25 4.3 0 11.25 4.3 0 10.875 4.55 0 10.875 4.55 0 10.5 4.8 0 11.25 4.3 0 11.7499999999997 4.39999999999995 0 11.7499999999997 4.39999999999995 0 12.2499999999998 4.49999999999996 0 12.2499999999998 4.49999999999996 0 12.75 4.6 0 11.25 4.3 0 11.4124999999997 4.97499999999896 0 11.4124999999997 4.97499999999896 0 11.5749999999991 5.64999999999639 0 11.5749999999991 5.64999999999639 0 11.7374999999994 6.32499999999759 0 11.7374999999994 6.32499999999759 0 11.9 7 0 10.4 2.3 0 10.6124999999999 2.79999999999987 0 10.6124999999999 2.79999999999987 0 10.8249999999996 3.29999999999912 0 10.8249999999996 3.29999999999912 0 11.0374999999996 3.79999999999912 0 11.0374999999996 3.79999999999912 0 11.25 4.3 0 12 3.7 0 11.6250000000003 3.99999999999973 0 11.6250000000003 3.99999999999973 0 11.25 4.3 0 4 5.7 0 4.41666666666686 5.46666666666656 0 4.41666666666686 5.46666666666656 0 4.83333333333373 5.23333333333311 0 4.83333333333373 5.23333333333311 0 5.25 5 0 5.25 5 0 5.74999999998975 4.6666666666735 0 5.74999999998975 4.6666666666735 0 6.24999999998975 4.33333333334016 0 6.24999999998975 4.33333333334016 0 6.75 4 0 5.25 5 0 4.75 4.7 0 3.5 5 0 3.74999999999926 5.34999999999897 0 3.74999999999926 5.34999999999897 0 4 5.7 0 5 6.3 0 5.5 6.35 0 5.5 6.35 0 6 6.4 0 6 6.4 0 6.62499999999985 6.20000000000005 0 6.62499999999985 6.20000000000005 0 7.25 6 0 7.25 6 0 7.6875 6.5 0 7.6875 6.5 0 8.125 7 0 8.125 7 0 8.5625 7.5 0 8.5625 7.5 0 9 8 0 7.25 6 0 6.87500000000078 5.65000000000073 0 6.87500000000078 5.65000000000073 0 6.5 5.3 0 5.25 5 0 5.75 5.25 0 5.75 5.25 0 6.25 5.5 0 6.25 5.5 0 6.75 5.75 0 6.75 5.75 0 7.25 6 0 7.65 6.2 0 7.25 6 0 5 2.2 0 4.6250000000005 1.85000000000047 0 4.6250000000005 1.85000000000047 0 4.25 1.5 0 0 3.7 0 0.562499999998241 3.97499999999914 0 0.562499999998241 3.97499999999914 0 1.12499999999642 4.24999999999825 0 1.12499999999642 4.24999999999825 0 1.68749999999941 4.52499999999971 0 1.68749999999941 4.52499999999971 0 2.25 4.8 0 0 0.7 0 0 1.63196399302199 0 0.6 0.7 0 0.6 0.7 0 0 1.63196399302199 0 0.949999999999237 1.27499999999875 0 2.16666666666627 4.19999999999716 0 1.68749999999941 4.52499999999971 0 2.25 4.8 0 1.01330161616962 3.61287417198111 0 0.562499999998241 3.97499999999914 0 1.12499999999642 4.24999999999825 0 0 3.11417863697563 0 0.709930085018308 2.90541813969645 0 0 2.43030394096465 0 0.681422922177531 2.10631319418203 0 1.29999999999838 1.84999999999734 0 0.949999999999237 1.27499999999875 0 0 1.63196399302199 0 0.681422922177531 2.10631319418203 0 0.949999999999237 1.27499999999875 0 1.59342895722992 3.88970357744513 0 1.68749999999941 4.52499999999971 0 2.16666666666627 4.19999999999716 0 2.08333333333292 3.59999999999702 0 1.59342895722992 3.88970357744513 0 2.16666666666627 4.19999999999716 0 1.59342895722992 3.88970357744513 0 1.12499999999642 4.24999999999825 0 1.68749999999941 4.52499999999971 0 1.59342895722992 3.88970357744513 0 1.01330161616962 3.61287417198111 0 1.12499999999642 4.24999999999825 0 0 2.43030394096465 0 0.681422922177531 2.10631319418203 0 0 1.63196399302199 0 0.681422922177531 2.10631319418203 0 0 2.43030394096465 0 0.709930085018308 2.90541813969645 0 0.709930085018308 2.90541813969645 0 1.18646728946124 2.48825915784634 0 0.681422922177531 2.10631319418203 0 1.45178778108394 3.11022608666643 0 1.01330161616962 3.61287417198111 0 1.59342895722992 3.88970357744513 0 1.45178778108394 3.11022608666643 0 2.08333333333292 3.59999999999702 0 2 3 0 1.59342895722992 3.88970357744513 0 2.08333333333292 3.59999999999702 0 1.45178778108394 3.11022608666643 0 1.29999999999838 1.84999999999734 0 1.18646728946124 2.48825915784634 0 1.64999999999907 2.42499999999847 0 1.29999999999838 1.84999999999734 0 0.681422922177531 2.10631319418203 0 1.18646728946124 2.48825915784634 0 1.64999999999907 2.42499999999847 0 1.45178778108394 3.11022608666643 0 2 3 0 1.64999999999907 2.42499999999847 0 1.18646728946124 2.48825915784634 0 1.45178778108394 3.11022608666643 0 1.01330161616962 3.61287417198111 0 1.45178778108394 3.11022608666643 0 0.709930085018308 2.90541813969645 0 1.18646728946124 2.48825915784634 0 0.709930085018308 2.90541813969645 0 1.45178778108394 3.11022608666643 0 0.457146340237234 3.46149418973047 0 0.562499999998241 3.97499999999914 0 1.01330161616962 3.61287417198111 0 0.709930085018308 2.90541813969645 0 0.457146340237234 3.46149418973047 0 1.01330161616962 3.61287417198111 0 0.457146340237234 3.46149418973047 0 0 3.7 0 0.562499999998241 3.97499999999914 0 0 3.7 0 0.457146340237234 3.46149418973047 0 0 3.11417863697563 0 0.457146340237234 3.46149418973047 0 0.709930085018308 2.90541813969645 0 0 3.11417863697563 0 5.10625000000121 0.7 0 5.50000000000083 1.19999999999835 0 5.75 0.7 0 1.24375000000139 0.7 0 0.6 0.7 0 0.949999999999237 1.27499999999875 0 5.25000000000071 1.69999999999859 0 4.6250000000005 1.85000000000047 0 5 2.2 0 4.6250000000005 1.85000000000047 0 4.40000000000013 2.35999999999996 0 5 2.2 0 0.949999999999237 1.27499999999875 0 1.62694975199716 1.39780443046149 0 1.24375000000139 0.7 0 1.62694975199716 1.39780443046149 0 1.88750000000329 0.7 0 1.24375000000139 0.7 0 1.29999999999838 1.84999999999734 0 1.62694975199716 1.39780443046149 0 0.949999999999237 1.27499999999875 0 3.81875000000451 0.7 0 4.21983179209416 1.10827359693862 0 4.4625000000026 0.7 0 5.25000000000071 1.
[...]
<PointData Scalars="A_conc,B_conc,region_id," Vectors="" Tensors="">
<DataArray type="Float64" Name="A_conc" format="ascii">
0.110785846009875 0.558149556940343 0.498714025951236 0.634048921758562 0.630151748220061 0.722930793849451 0.71333489235039 0.734678689141177 0.012115297977418 -0.0167083980657532 -0.0368200044832271 0.147692307963911 0.149421114501712 0.294029806224943 0.73865926969245 0.737145701999202 0.737132342337187 0.735698242270973 0.735686131273364 0.7343287929058 0.734312214049324 0.733047315012525 0.733440918233051 0.729655861153728 0.764811995131069 0.477388749867981 0.33493227873697 0.291051526869189 0.412785493118044 0.650921663659406 0.645518472318369 0.63049974320224 0.619781242497491 0.626056814080473 0.626154245989321 0.642477547722939 0.643172369673982 0.650861625638266 0.650938783150945 0.643888728997901 0.647541449014906 0.625094081267175 0.372948206122464 0.390357848197092 0.397162805663152 0.424272323611302 0.882384390567863 0.886729607234767 0.886469714911853 0.888620292513425 0.882618687232021 0.875219339484839 0.875420906684642 0.858926993008717 0.843590065266183 0.856093799414202 0.854035672667643 0.857975959868961 0.751227120630767 0.376102481757698 0.656934082225594 0.670565828241943 0.671128884978372 0.678988925423721 0.682403794372742 0.674346678251014 0.65629479743956 0.660114562587389 0.674173745863502 0.738179725223148 0.640270378338664 0.644739562787104 0.644061814872373 0.645730508189296 0.645698451792535 0.647250726490549 0.647255794501701 0.648871033574379 0.64889091627334 0.650633615442159 0.00617880470699895 0.134123746497773 0.112860931290205 0.253941630770425 0.272267985349797 0.644638252156527 0.446168591791688 0.540192482357801 0.524861038852594 0.651303643169784 0.785248560630818 0.574569431412937 0.796696050638628 0.801640686385418 0.800633209639048 0.802351015552681 0.802786811376587 0.791447812147051 0.793546995538722 0.762370324847079 0.769806643087636 0.705168303280763 0.531909631670293 0.580671509368774 0.589142921074277 0.652458376928988 0.64614143851761 0.770799223277681 0.856088952939507 0.864934746585125 0.864378893499457 0.866725399828143 0.866583970266076 0.86793617089611 0.867946125457188 0.869087522839819 0.869092824409832 0.870263597384476 0.797623986827197 0.867719884768662 0.854731997209291 0.871337429944682 0.315479426626248 -0.108057787386932 -0.0473965799332549 0.037191714849991 0.0236321899337791 0.0440353233875713 0.87677605653671 0.894777301100119 0.894365102893372 0.900425556492871 0.900071214832372 0.904617003458731 0.90447879212276 0.906760101630931 0.906729259090173 0.90884185606053 0.811768635172913 0.877852262158661 0.875789365980866 0.927084587247926 0.9283033086675 0.967498763863512 0.857801142591597 0.884456683939429 0.884355389488647 0.919854328922133 0.919587824897738 0.959226185044402 0.958502981860635 0.990884491223764 0.988046974361942 0.985251205954789 0.98568344091848 0.980986509396245 0.989495477121758 0.952690450508647 0.773987299955245 0.84915021687604 0.835199766365595 0.877367090189022 0.888620946693662 0.915382667973773 0.911170038807094 0.921878551616346 0.922565434036036 0.934784554186071 0.908622875745462 0.932746993473766 0.928390139401514 0.93457310245085 0.556595817488036 0.61815786466659 0.618970042253014 0.667343211270728 0.648789732081003 0.669394682833387 0.946484804116796 0.853293353985691 0.94533502724257 0.293378659523501 0.90918371308791 0.933031941114213 0.928715681855803 0.934603372264448 0.988035803547697 0.987323016895908 0.98756949850437 0.985171649303886 0.985873574459413 0.977631968278344 0.987923512899228 0.989603741162076 0.989301642450985 0.989490585539888 0.989491316281848 0.989683965523615 0.989967744479387 0.986528691639292 0.992091500717862 0.967803860300672 0.998992626459364 1.00019126720082 0.999936160808444 1.0000279086697 0.999999540984066 1.00000050174995 0.80973206050717 0.857578475006527 0.856357070449248 0.896974258684864 0.89533626029338 0.932509487345691 0.928957566159182 0.922763763322759 0.933251840708403 0.952854555069719 0.952512081673181 0.969174215565114 0.968186821773408 0.980918945290061 0.980750423951844 0.98891821326943 0.982842131837027 0.961386163403806 0.966934569221065 0.923998711360174 0.799796794488563 0.813580308890082 0.812565817215082 0.818764700522643 0.818807258700081 0.819849800466658 0.86344442962162 0.883597366233014 0.882531707316838 0.887265322578382 0.886828189446501 0.888721016114144 0.350700684768417 0.667305335112374 0.607126816361886 0.509705777253591 0.513120626589332 0.365173546203281 0.425017571446909 0.441742028286474 0.441869972883593 0.455256673760605 0.455195765074834 0.463096768511616 0.463021825769587 0.469013232957056 0.30435149883643 0.352732500366579 0.358089154631174 0.491523564188775 0.499951287472373 0.636595957838509 0.615723042285031 0.690975943518773 0.80489039455575 0.777367865595796 0.77103352669274 0.766555706517661 0.444703319851607 0.486736732417768 0.480167787978437 0.474668554566629 0.451485615357626 0.422522566072755 0.426214787976866 0.465561401762921 0.217420620075692 0.493812364895159 0.739084335784026 0.73101418718737 0.735578546709733 0.70808508967639 0.58268647098443 0.622670415870122 0.622135808027761 0.63863984903971 0.637745537304912 0.642555970958797 0.641975140047933 0.643111672395851 0.140896491784783 0.568166425847911 0.156562937652948 0.154792329972036 0.571790391761283 0.541566571126765 0.41132660876593 0.596834088000977 0.65087687478963 0.183516080823308 0.348815802884621 0.427404266566965 0.633909767815832 0.700900163336152 0.629589297460609 0.630377329998901 0.633476000376932 0.501405608406539 0.502355653356966 0.63071602903561 0.501251912020584 0.198904807732322 0.600614016550165 0.367323477767041 0.334033045046068 0.264812316115553 0.291205638600613 0.200881629605326 0.494985530770311 0.599454407762696 0.206107740235115 0.182424640207165 0.428254808421265 0.634438381054875 0.63357495278523 0.509268803522561 0.637786019252661 0.617702808856011 0.679636186725529 0.679296780744334 0.695949925917166 0.637608455231157 0.71364812274793 0.312398643428912 0.216139100441241 0.690154270448768 0.476186193899032 0.765796333328715 0.216081037279228 0.4255206692293 0.713906932881459 0.630813233855867 0.701361700621071 0.722765634283454 0.630716590791295 0.622332843069056 0.701767920388492 0.712412983080116 0.710374602305501 0.738306443801352 0.712578063389828 0.68913530698438 0.710349208844088 0.343971017280726 0.712899574371365 0.746033247902912 0.689309929912779 0.669588580799042 0.710665803916791 0.238276692285395 0.297733923768288 0.209685787550936 0.745774994846801 0.366075858504347 0.344170336879459 0.238591241255797 0.252882710216646 0.297314016653459 0.160421222347568 0.30427729877052 0.536376661711974 0.366555118179182 0.74564468067086 0.5634170714885 0.00787046182773633 -0.0139264490212474 0.0105779913333669 -0.0858559712532064 -0.0848896523919133 0.217371905314409 -0.0160999720582149 0.721073160805687 0.456796471567288 0.710619229317086 0.703971125071717 0.739631588917682 0.22955837263168 0.34405184561878 -0.0918811298992463 0.353318522810421 -0.101559476385093 -0.105445508925041 0.342592400670715 0.374426868771632 0.274417901244834 -0.00348879297155343 0.00971842562766068 -0.00451102950883836 0.00858527989448601 -0.123543860902562 0.64341479788196 0.59967277774243 0.737323926798962 0.728343525225694 -0.0965591034141683 0.250486900988145 0.029386012105879 0.653895527396571 0.579968847861783 0.580302022949849 0.717331665899728 0.627258413561863 0.719321356885601 0.58422993079908 0.740682556766019 0.598170607907101 0.62649680247032 0.607050894078975 0.72153667730257 0.652029891471362 0.581264564574945 0.650452175470882 -0.0146504069875078 0.88633474486072 0.681629986996526 0.0615511308013856 0.880595729131588 -0.0113708631664053 0.540188694911365 0.558015705444783 0.479564132586635 0.585965373214879 0.557491431468305 0.539915289411361 0.711495471348172 0.650808056783647 0.70457729225219 0.703064844136203 0.78412929353412 0.571506725607797 0.875222473891627 0.0675420795874714 0.408598638255122 0.665051285838108 0.731417830729595 0.717353441569021 0.651989623874725 0.664713846845264 0.718368458617413 0.588384198366374 0.742641771943365 0.739798032920001 0.490911518736964 0.63505964439392 0.552793320284563 -0.091295823830936 0.239463493933398 -0.091172351538951 0.57573723786264 0.631338139917745 0.702423449826615 -0.00650942758447069 0.0136227321461768 0.00948278268166725 -0.0071104729989951 -0.00621589220204582 0.0139313464116773 0.534904050588235 0.34867490898552 0.694522578404872 0.171156286959207 0.234356821693283 -0.0831242166595734 0.350915667123185 0.48514858532482 0.692802141972192 0.54373958798317 0.449289295544454 0.509142141575148 -0.0761646156657449 0.16225487310983 -0.0787378237415988 -0.134219894116002 0.487094539168506 0.233833793214301 0.522159101836365 0.36762397111651 0.296137060462563 0.410209197093842 0.382763074711182 0.326088443190821 0.457497415083625 0.413896036232423 0.504209967587651 0.369583044124466 -0.109564581940784 0.369605892607623 0.45765731476673 0.37900660633314 0.413154890907291 0.384849757390419 0.479842921637129 -0.121556662256818 -0.11689198528144 0.368956953884475 -0.113753365292915 0.745013182676628 0.567051100596231 0.731269711719713 0.567308428897199 0.74633032868662 0.586823787276081 0.451661098417904 0.534927182987201 0.5542020777933 0.451108752286862 0.379657061586239 0.535915163900949 0.565369336208831 0.53338776498487 0.735702634912826 0.368126696138717 0.522253786871767 0.54351131571447 0.0165823270466763 -0.0147709840697301 -0.00848785315169851 -0.0198325843378727 0.0444999182020419 0.130330187027725 0.59750289576469 0.642891018192667 0.803649347429312 0.609387054199853 0.325118263692696 0.64174231226064 -0.00168300196417879 -0.00421152929088895 0.0360670309877671 0.117318572934497 0.422838721961987 0.112175938053004 0.550442878750293 0.459660895388542 0.103726584849583 0.281960311714442 0.639751075426762 0.579082662406785 0.253405399042158 0.281697062638732 0.568829270066563 0.247837956749899 0.0784094013035045 0.267041451539259 0.0946047015260771 0.0969224301449894 -0.0130613707290885 0.0474559381410824 0.142377574107048 -0.0051295658356546 0.0139293511986366 0.08043897622401 0.219846862696979 0.060567892210292 0.122962740186518 0.14072606653491 0.145984857920572 0.125598763256895 0.267633363093235 0.278306832790844 0.118995196611819 0.209283091386899 0.973386995946221 0.978222996168642 0.992665765218143 0.958196904252653 0.886385171715062 0.979120506679765 0.905763734163013 0.916242072428233 1.000172985283 0.980545363104415 0.918752778950468 0.983829466639322 0.527238745590669 0.84407452461944 0.583482984302946 0.97796947157335 0.904653889091187 0.991557982412478 0.90542631022122 0.898164960184893 0.995535267687948 0.924543880665989 0.661290194844863 0.908570588033231 0.948172165216171 0.65846131675104 0.68418292963218 0.933888911436127 0.915598283622931 0.667832091444965 0.652613434383088 0.356765430724381 0.684263436171771 0.428227147720036 0.338399970330294 0.644240805655707 0.659946877694672 0.927270271398278 0.736675022987159 0.739919702079651 0.43201897011953 0.65627278497317 0.417624121551184 0.189993861171604 0.333634338328059 0.211453217236415 0.402272836329215 0.286918293697525 0.615140941067112 0.485042732209528 0.41720145139314 0.411523184359269 0.481852808695851 0.281726454313999 0.969684562728946 0.831345289071714 0.538977948091417 0.572294599704279 1.00645638578301 0.95264564527096 0.883062484689915 0.996785342356623 0.743726770689006 0.65627634351401 -0.0919370445213998 0.350267503418137 0.344688269865583 0.454855263833533 0.230533061760631 0.0613182826893388 0.824774219189722 0.904862346517923 -0.10181298587092 0.664296273797852 0.10275082906993 0.158348559352295 0.191232341067347 0.0558035620481636 0.356063028556941 0.202332140903405 0.165165768761534 0.41732033367283 0.170184240549944 0.440136814186082 0.141720829087086 0.0591164708818014 0.0215973540487155 0.178937719150004 0.178939114186773 0.0183565177433615 0.202776015620876 0.490659404512278 0.462444419574071 0.468761051082474 0.212643732049319 0.180653128142884 0.475728541548991 0.209658310429725 0.44802104617137 0.162649943183197 0.0263877613807066 0.0255018549925698 0.0632296202191088 0.902516654406624 0.601430273845742 0.0353370703373923 0.0608723936459926 0.173946269113588 0.185707403392502 0.183267781632056 0.0275492232100453 0.179400624298167 0.432226550602484 0.215505077318227 0.594894318917441 0.572347657373028 0.626939314466592 0.623186769165411 0.623332858710928 0.645018122217072 0.581698516069099 0.581057318767604 0.605798740976812 0.614964681101332 0.614383603016001 0.651165563373073 0.588220847502764 0.618752133622488 0.626340150316289 0.292495855410845 0.19629019864156 0.375414242917437 0.651612930040537 0.578527041697166 0.635021508654323 0.592526648770802 0.635722737162671 0.643716259878625 0.598766465468193 0.567735977030782 0.620366312965484 0.38280545980053 0.149058847528069 0.403930443876708 0.378494894572667 0.241700361601298 0.152786402999486 0.59037495238589 0.142995363374018 0.656966671859578 0.0717740533251678 -0.0098905153359903 0.0269371195607162 0.425839306523108 0.555750734880561 0.45604712471889 0.562612584279836 0.41552691417793 0.572194426042857 0.549506559367812 0.658864074980698 0.642356061785997 0.597189122112686 0.408148808795957 0.529871452728531 0.41919945061002 0.592614417893694 0.584130896679374 0.632344434853264 0.572428486922077 0.561850596558172 0.582318610530744 0.514434643660495 0.581609023696502 0.481166025859008 0.631606659228794 0.605473351321235 0.632700366881939 0.631852115613221 0.562140422620009 0.622008848230762 0.626516628904667 0.572202669663475 0.411894153444477 -0.057676170348165 0.377287328426773 0.636034555674373 0.628925202399023 0.576361270599378 0.629492247360206 0.561707352126711 0.576121634528633 0.610810141568229 0.485009229804177 0.603044900963353 0.628052897550476 0.474457377451292 0.620923297588802 0.633598708340552 0.479602611396072 0.526889769354747 0.476571086963871 0.576923091904367 0.450947613402208 0.450924967459117 0.577237615799301 0.529865595357845 0.585250734585887 0.656270147557648 0.650053778556111 0.585021222298474 0.590483938722139 0.656641879676267 0.500681878256153 0.45694988291793 0.553962648829693 0.300144977044691 0.647487161375211 0.686615282060412 -0.00219443694037121 0.00454606605573122 0.00196212069509101 0.0113736263832742 0.115327023548649 -0.0180008718415025 0.0560193002342933 0.438409330889701 0.339219928798397 0.00257438383321923 0.362153352828494 -0.0498481086295577 0.123968659077791 0.0820816517860366 0.308645900822039 0.0858597912713342 0.109048535008247 0.019706578888917 0.527727119484744 0.581828351073813 0.590969476830015 0.665571426595663 0.487399023542174 0.623415056165914 -0.00976392324965325 0.0115066481029885 -0.00768537390267414 0.492582139082018 0.526529936804456 0.593251887341689 0.570292895950561 0.62742926977112 0.558795219106551 0.00436949838052071 -0.00493733463282084 -0.00613810234708083 0.343076295885556 0.394203128224119 -0.00592322641469469 0.328634955716877 0.289965875789587 0.0699872501119361 0.743840067329012 0.636904184425812 0.093366529090862 0.0789527712308401 0.600136244552631 -0.0924123196864447 0.0262373934667434 0.177695668300192 0.0893122006007222 0.180069403108116 -0.000562032828827789 0.149125771784463 0.215181243048185 0.433422037728282 0.0634520154689655 0.204327285193361 0.301066718292555 0.684646838651691 0.254107252711111 -0.0877427070741386 -0.0869082188217529 -0.110621693862889 0.292315520055084 0.442665536474969 0.717206960364439 0.304875691446024 0.667010636187986 0.746220894942098 0.0867816372454132 0.276743254143657 0.14899027007138 0.114835737159284 0.248002985527734 0.11117399349783 0.145084053346036 -0.0044077653247241 0.136853898841363 0.0642440788899283 0.00352698767721541 0.611597626223243 0.493065150302215 0.215804425575884 0.167266210814661 0.542355063556127 0.203570303049309 -0.0147137171798884 0.0076524399710369 -0.00781551106553677 0.192586787515994 0.55466222212391 0.572261689107268 -0.0812489957797187 0.585100099236497 0.0819933858325927 -0.0110144755938426 0.0304741833350375 0.0137393019485706 0.0329561953791908 -0.0138756148026749 0.00227248742032851 -0.00166358390427698 0.00105294596398849 -0.000965844598653103 0.670230253811141 0.540773564830542 0.65359857030607 0.0102625588761173 0.0886682692543142 0.16318860008575 0.0991520508060599 0.396393444825494 0.165079807079703 0.0875796082631168 0.404524490313161 0.412082163581365 0.00135994355481003 0.0151704104322288 -0.00328721549204848 0.0194790355169996 0.000261053028592158 0.0590004795538983 0.024179834238966 0.0188994301504528 0.0739651295302036 0.424438033508975 -0.0994310375575908 0.356942566615015 -0.0750162887607274 0.396115387318795 0.0918420168300248 -0.0946834146149356 -0.032672528196852 0.337857448926108 0.0178894688071215 0.0212858912500801 0.00291440927252012 0.000369142084033498 0.0145380439362583 0.00746660593944049 0.693989441433317 0.393753287133212 0.547587634384913 0.567405377779447 0.318039382863709 0.197475146457785 -0.0938242144472164 0.0756981621948931 0.268152601988529 0.01390764608171 -0.00745531734440446 -0.0184381090531183 -0.00568590950026531 0.0126619415645051 0.00762155193178645 -0.00333661578680655 -0.0045176643024007 0.00543627178610373 0.000798847889403971 0.00588301176341182 -0.00104675990996896 0.696776675145631 0.435749077792792 0.391848871772141 0.686153895518344 0.648133212203078 0.472741100725981 0.657108018991714 0.590264759603304 0.584139268993068 0.0392305594982152 0.0103666659943791 0.0239744615252381 -0.248214228970161 0.886087491583253 0.484823715351038 0.807970833707604 0.836997399630793 0.8554726019088 0.792607084192558 0.819381716551747 0.843603055857992 0.838063906222693 0.839116511063332 0.872502232551899 0.880154761544799 0.69762772439101 0.853321080785935 0.00810354140932171 -0.00655858819038945 0.0110515022736555 0.587171546274091 0.0346792613148337 0.419794882007421 0.866061950293664 0.56047923411088 0.873170027404711 -0.0076957399909648 -0.0138496804648317 0.0118262909312677 0.0276780121422786 -0.0605094350223842 -0.0377868059024753 0.0257292522286502 0.0240410809598128 -0.0567515127594971 0.603212360435988 0.026459056521648 0.00966847382670431 0.0128909437323667 -0.0356628582112092 -0.0496385787128632 0.817728688523937 0.795273571385149 0.794037415720431 0.856231002034372 0.651148094895233 0.576760449458135 0.587093737506956 0.0120950860733264 0.631191040390134 0.827159944565206 0.659597758574826 0.840091131612994 -0.0357072669004316 0.82935618019788 1.02252928984282 -0.13357858630538 0.797926340823018 -0.0285166175005016 -0.0491161324754264 0.0351740929687355 -0.0541544552968027 -0.10602520138995 1.04424388059404 0.877626607035338 -0.096024822888109 -0.0479673683852 1.02798624367061 0.0099314908394826 0.0104302220067592 0.022335771241476 -0.0483484983853458 0.0203245838055082 -0.0339215377681067 0.0230422937569652 -0.0498326809261928 0.0322055321969136 0.00271655774045916 0.010231080456674 0.00922733341974739 0.0129499348173887 -0.0145436162710892 0.0142289814007604 0.56947688078833 -0.161321760843609 -0.0243315466490027 -0.0779163584191443 -0.177669866639179 0.593512175467306 0.793970702682047 0.706292878146675 0.801801932326158 0.697434292692277 0.788084477841577 -0.109720444075301 0.382861507230844 0.651329889287115 0.555657184839781 0.652724686185234 0.880510013354403 0.554500302087389 0.64770247260751 0.798386821965306 0.886553636026937 0.652571773692479 0.379425327170571 0.605406107958636 0.800903802963933 0.647725410118505 0.606399285782375 0.995815170864857 0.990084989827525 0.943889792490305 1.00146506163034 1.00146506163034 0.996896730044714 0.977674565038882 0.98765861662827 0.927718585222623 1.00043559759124 1.00043559759124 0.999173976500216 0.029881124203292 -0.00847015223023885 0.0337382127313809 0.654653992913566 0.914657404132799 0.624541521996361 0.20820846614312 0.505554023282713 0.198789491129068 0.691620014