<?xml version="1.0"?>
<VTKFile type="UnstructuredGrid" version="0.1" byte_order="LittleEndian">
<UnstructuredGrid>
<Piece NumberOfPoints="1896" NumberOfCells="677">
<Points>
<DataArray type="Float64" NumberOfComponents="3" format="ascii">
0.000000000000000e+00 3.750000000000000e+00 0.000000000000000e+00 5.624999999964863e-01 3.999999999998438e+00 0.000000000000000e+00 5.624999999964863e-01 3.999999999998438e+00 0.000000000000000e+00 1.124999999995812e+00 4.249999999998138e+00 0.000000000000000e+00 1.124999999995812e+00 4.249999999998138e+00 0.000000000000000e+00 1.687499999998485e+00 4.499999999999327e+00 0.000000000000000e+00 1.687499999998485e+00 4.499999999999327e+00 0.000000000000000e+00 2.250000000000000e+00 4.750000000000000e+00 0.000000000000000e+00 2.250000000000000e+00 4.750000000000000e+00 0.000000000000000e+00 1.750000000000000e+00 5.000000000000000e+00 0.000000000000000e+00 2.250000000000000e+00 4.750000000000000e+00 0.000000000000000e+00 2.875000000000000e+00 4.375000000000000e+00 0.000000000000000e+00 2.875000000000000e+00 4.375000000000000e+00 0.000000000000000e+00 3.500000000000000e+00 4.000000000000000e+00 0.000000000000000e+00 3.500000000000000e+00 4.000000000000000e+00 0.000000000000000e+00 2.750000000000000e+00 4.000000000000000e+00 0.000000000000000e+00 2.250000000000000e+00 4.750000000000000e+00 0.000000000000000e+00 2.687500000002093e+00 5.000000000001196e+00 0.000000000000000e+00 2.687500000002093e+00 5.000000000001196e+00 0.000000000000000e+00 3.125000000002093e+00 5.250000000001196e+00 0.000000000000000e+00 3.125000000002093e+00 5.250000000001196e+00 0.000000000000000e+00 3.562500000002093e+00 5.500000000001196e+00 0.000000000000000e+00 3.562500000002093e+00 5.500000000001196e+00 0.000000000000000e+00 4.000000000000000e+00 5.750000000000000e+00 0.000000000000000e+00 4.000000000000000e+00 5.750000000000000e+00 0.000000000000000e+00 3.500000000000000e+00 5.000000000000000e+00 0.000000000000000e+00 4.000000000000000e+00 5.750000000000000e+00 0.000000000000000e+00 3.250000000000000e+00 6.250000000000000e+00 0.000000000000000e+00 4.000000000000000e+00 5.750000000000000e+00 0.000000000000000e+00 4.500000000000000e+00 6.000000000000000e+00 0.000000000000000e+00 4.500000000000000e+00 6.000000000000000e+00 0.000000000000000e+00 5.000000000000000e+00 6.250000000000000e+00 0.000000000000000e+00 4.750000000000000e+00 7.250000000000000e+00 0.000000000000000e+00 4.500000000005181e+00 6.750000000010362e+00 0.000000000000000e+00 4.500000000005181e+00 6.750000000010362e+00 0.000000000000000e+00 4.250000000005181e+00 6.250000000010362e+00 0.000000000000000e+00 4.250000000005181e+00 6.250000000010362e+00 0.000000000000000e+00 4.000000000000000e+00 5.750000000000000e+00 0.000000000000000e+00 4.000000000000000e+00 5.750000000000000e+00 0.000000000000000e+00 4.625000000000000e+00 5.375000000000000e+00 0.000000000000000e+00 4.625000000000000e+00 5.375000000000000e+00 0.000000000000000e+00 5.250000000000000e+00 5.000000000000000e+00 0.000000000000000e+00 5.250000000000000e+00 5.000000000000000e+00 0.000000000000000e+00 4.750000000000000e+00 4.750000000000000e+00 0.000000000000000e+00 3.500000000000000e+00 4.000000000000000e+00 0.000000000000000e+00 4.250000000000000e+00 3.500000000000000e+00 0.000000000000000e+00 4.250000000000000e+00 4.750000000000000e+00 0.000000000000000e+00 4.750000000000000e+00 4.375000000000000e+00 0.000000000000000e+00 4.750000000000000e+00 4.375000000000000e+00 0.000000000000000e+00 5.250000000000000e+00 4.000000000000000e+00 0.000000000000000e+00 4.250000000000000e+00 1.500000000000000e+00 0.000000000000000e+00 4.624999999997918e+00 1.874999999997918e+00 0.000000000000000e+00 4.624999999997918e+00 1.874999999997918e+00 0.000000000000000e+00 5.000000000000000e+00 2.250000000000000e+00 0.000000000000000e+00 5.000000000000000e+00 2.250000000000000e+00 0.000000000000000e+00 5.250000000000000e+00 1.750000000000000e+00 0.000000000000000e+00 5.250000000000000e+00 1.750000000000000e+00 0.000000000000000e+00 5.500000000000000e+00 1.250000000000000e+00 0.000000000000000e+00 5.500000000000000e+00 1.250000000000000e+00 0.000000000000000e+00 5.750000000000000e+00 7.500000000000000e-01 0.000000000000000e+00 5.000000000000000e+00 2.250000000000000e+00 0.000000000000000e+00 4.750000000000000e+00 2.750000000000000e+00 0.000000000000000e+00 5.000000000000000e+00 2.250000000000000e+00 0.000000000000000e+00 5.500000000000000e+00 2.750000000000000e+00 0.000000000000000e+00 5.500000000000000e+00 2.750000000000000e+00 0.000000000000000e+00 5.750000000000000e+00 2.500000000000000e+00 0.000000000000000e+00 3.500000000000000e+00 4.000000000000000e+00 0.000000000000000e+00 4.125000000008327e+00 4.000000000000000e+00 0.000000000000000e+00 4.125000000008327e+00 4.000000000000000e+00 0.000000000000000e+00 4.750000000000000e+00 4.000000000000000e+00 0.000000000000000e+00 4.750000000000000e+00 4.000000000000000e+00 0.000000000000000e+00 5.250000000000000e+00 4.000000000000000e+00 0.000000000000000e+00 5.500000000000000e+00 2.750000000000000e+00 0.000000000000000e+00 5.125000000000000e+00 3.375000000000000e+00 0.000000000000000e+00 5.125000000000000e+00 3.375000000000000e+00 0.000000000000000e+00 4.750000000000000e+00 4.000000000000000e+00 0.000000000000000e+00 6.000000000000000e+00 3.750000000000000e+00 0.000000000000000e+00 6.750000000000000e+00 4.000000000000000e+00 0.000000000000000e+00 5.250000000000000e+00 5.000000000000000e+00 0.000000000000000e+00 5.749999999991033e+00 4.666666666672645e+00 0.000000000000000e+00 5.749999999991033e+00 4.666666666672645e+00 0.000000000000000e+00 6.249999999991033e+00 4.333333333339311e+00 0.000000000000000e+00 6.249999999991033e+00 4.333333333339311e+00 0.000000000000000e+00 6.750000000000000e+00 4.000000000000000e+00 0.000000000000000e+00 5.500000000000000e+00 2.750000000000000e+00 0.000000000000000e+00 5.916666666666667e+00 3.166666666666667e+00 0.000000000000000e+00 5.916666666666667e+00 3.166666666666667e+00 0.000000000000000e+00 6.333333333333333e+00 3.583333333333333e+00 0.000000000000000e+00 6.333333333333333e+00 3.583333333333333e+00 0.000000000000000e+00 6.750000000000000e+00 4.000000000000000e+00 0.000000000000000e+00 5.250000000000000e+00 5.000000000000000e+00 0.000000000000000e+00 5.750000000000000e+00 5.250000000000000e+00 0.000000000000000e+00 5.750000000000000e+00 5.250000000000000e+00 0.000000000000000e+00 6.250000000000000e+00 5.500000000000000e+00 0.000000000000000e+00 6.250000000000000e+00 5.500000000000000e+00 0.000000000000000e+00 6.750000000000000e+00 5.750000000000000e+00 0.000000000000000e+00 6.750000000000000e+00 5.750000000000000e+00 0.000000000000000e+00 7.250000000000000e+00 6.000000000000000e+00 0.000000000000000e+00 7.250000000000000e+00 6.000000000000000e+00 0.000000000000000e+00 6.875000000000000e+00 5.625000000000000e+00 0.000000000000000e+00 6.875000000000000e+00 5.625000000000000e+00 0.000000000000000e+00 6.500000000000000e+00 5.250000000000000e+00 0.000000000000000e+00 7.250000000000000e+00 6.000000000000000e+00 0.000000000000000e+00 7.600000000000000e+00 6.400000000000000e+00 0.000000000000000e+00 7.600000000000000e+00 6.400000000000000e+00 0.000000000000000e+00 7.950000000000000e+00 6.800000000000000e+00 0.000000000000000e+00 7.950000000000000e+00 6.800000000000000e+00 0.000000000000000e+00 8.300000000000001e+00 7.200000000000000e+00 0.000000000000000e+00 8.300000000000001e+00 7.200000000000000e+00 0.000000000000000e+00 8.650000000000000e+00 7.600000000000000e+00 0.000000000000000e+00 8.650000000000000e+00 7.600000000000000e+00 0.000000000000000e+00 9.000000000000000e+00 8.000000000000000e+00 0.000000000000000e+00 7.250000000000000e+00 6.000000000000000e+00 0.000000000000000e+00 7.750000000000000e+00 6.250000000000000e+00 0.000000000000000e+00 6.750000000000000e+00 4.000000000000000e+00 0.000000000000000e+00 7.249999999991033e+00 4.333333333327355e+00 0.000000000000000e+00 7.249999999991033e+00 4.333333333327355e+00 0.000000000000000e+00 7.749999999991033e+00 4.666666666660689e+00 0.000000000000000e+00 7.749999999991033e+00 4.666666666660689e+00 0.000000000000000e+00 8.250000000000000e+00 5.000000000000000e+00 0.000000000000000e+00 8.250000000000000e+00 5.000000000000000e+00 0.000000000000000e+00 7.500000000000000e+00 4.750000000000000e+00 0.000000000000000e+00 7.750000000000000e+00 5.500000000000000e+00 0.000000000000000e+00 8.250000000000000e+00 5.000000000000000e+00 0.000000000000000e+00 8.250000000000000e+00 5.000000000000000e+00 0.000000000000000e+00 9.000000000000000e+00 5.500000000000000e+00 0.000000000000000e+00 8.250000000000000e+00 5.000000000000000e+00 0.000000000000000e+00 8.750000000000000e+00 5.166666666666667e+00 0.000000000000000e+00 8.750000000000000e+00 5.166666666666667e+00 0.000000000000000e+00 9.250000000000000e+00 5.333333333333333e+00 0.000000000000000e+00 9.250000000000000e+00 5.333333333333333e+00 0.000000000000000e+00 9.750000000000000e+00 5.500000000000000e+00 0.000000000000000e+00 8.250000000000000e+00 5.000000000000000e+00 0.000000000000000e+00 8.750000000000000e+00 4.666666666666667e+00 0.000000000000000e+00 8.750000000000000e+00 4.666666666666667e+00 0.000000000000000e+00 9.250000000000000e+00 4.333333333333333e+00 0.000000000000000e+00 9.250000000000000e+00 4.333333333333333e+00 0.000000000000000e+00 9.750000000000000e+00 4.000000000000000e+00 0.000000000000000e+00 8.250000000000000e+00 3.750000000000000e+00 0.000000000000000e+00 8.750000000000000e+00 3.833333333333334e+00 0.000000000000000e+00 8.750000000000000e+00 3.833333333333334e+00 0.000000000000000e+00 9.250000000000000e+00 3.916666666666667e+00 0.000000000000000e+00 9.250000000000000e+00 3.916666666666667e+00 0.000000000000000e+00 9.750000000000000e+00 4.000000000000000e+00 0.000000000000000e+00 9.750000000000000e+00 4.000000000000000e+00 0.000000000000000e+00 1.025000000000000e+01 4.083333333333333e+00 0.000000000000000e+00 1.025000000000000e+01 4.083333333333333e+00 0.000000000000000e+00 1.075000000000000e+01 4.166666666666667e+00 0.0000000000000
[...]
<PointData Scalars="A_conc,B_conc,region_id," Vectors="" Tensors="">
<DataArray type="Float64" Name="A_conc" format="ascii">
2.207316248739498e-01 2.392099981942550e-01 2.390123033574387e-01 2.482150197790002e-01 2.479778804217515e-01 2.528792791192537e-01 2.527466424089177e-01 2.554146885093024e-01 2.601104407531321e-01 2.290727167256012e-01 3.078203161916070e-01 3.293171324863558e-01 3.296708214890477e-01 3.443434364862902e-01 3.572176942550844e-01 2.643321685193430e-01 1.724043354037997e-01 1.937574174925763e-01 1.941074843696603e-01 2.161720632773521e-01 2.171070851144388e-01 2.342378447136788e-01 2.344928156672511e-01 2.455413141216090e-01 8.738341107423241e-03 3.622050575841930e-02 2.563945105439537e-01 1.763251840389180e-01 2.039330327935507e-02 2.242850263293351e-02 2.322890091863867e-02 2.554828464327776e-02 1.064038417161967e-03 -2.211138835853744e-03 -7.116052447544663e-03 5.054507724906609e-02 6.667311698702653e-02 2.345955991899092e-01 3.834057654790320e-01 4.100180681953350e-01 4.103616740045375e-01 4.215607615355519e-01 2.691201514127970e-01 -8.461344869867368e-02 9.310684336047811e-02 -3.024134892356018e-03 2.943186585620746e-01 4.464440975541050e-01 4.257005195198763e-01 4.913609025304218e-01 1.950026740503592e-01 2.822013809418874e-01 2.699319080377481e-01 3.030708918218829e-01 4.746336198032125e-03 -2.400293543505999e-03 -1.862203926796991e-05 3.923610129060816e-04 -3.121413687282622e-05 -2.057339340333671e-04 3.250323139699591e-01 5.862276427486495e-02 3.468594589665498e-01 3.703586502182409e-01 4.189222339673604e-01 4.302377195067702e-01 3.668594491896418e-01 3.739288079249324e-01 3.740679419731603e-01 3.819500538222815e-01 4.523839510238407e-01 4.903294264404009e-01 3.691047961824358e-01 3.493860116540312e-01 3.492433901143626e-01 3.189392349254525e-01 5.269224199128321e-01 5.581334584040614e-01 4.838252653055309e-01 5.127483021425998e-01 5.132779995612963e-01 5.352564931513866e-01 5.355334182716460e-01 5.587149707211945e-01 9.912445891074499e-02 1.356812882510096e-01 1.407076443669301e-01 2.200322449104841e-01 2.305600429515499e-01 4.663313729174134e-01 1.159733867221578e-02 1.600121722202672e-02 1.608167632553860e-02 2.172234289703163e-02 2.050234198225886e-02 2.406986075080501e-02 2.522522824346253e-02 3.252001044808850e-02 9.045205211477531e-02 7.471808486588770e-02 7.196891937552016e-02 6.049212387642586e-02 6.165833344150834e-03 7.058415793821360e-03 7.083665583632001e-03 9.771687904330213e-03 1.006017337780498e-02 1.482306838838715e-02 1.512617064724209e-02 2.067841587590734e-02 2.067848101330101e-02 2.419656636267219e-02 3.132796098083030e-02 -4.147643778049878e-02 5.584165398794804e-01 6.006235368502686e-01 6.013749729718664e-01 6.418817609373927e-01 6.423355934019965e-01 6.778854438378755e-01 7.227215103182292e-01 3.333682150838506e-01 3.397652518748523e-01 7.232759522618856e-01 6.341677935310730e-01 -6.764233870598038e-02 1.574356795035531e-02 2.050964406810897e-02 2.088387342758328e-02 2.854103659586386e-02 2.734616752826628e-02 2.796324461365155e-02 7.555136883594790e-01 7.856940338225954e-01 7.860202183550969e-01 8.106313628370869e-01 8.108709750617407e-01 8.348481763024059e-01 2.406006655418463e-01 5.726402993944771e-01 5.359726277879424e-01 6.956327520256569e-01 6.913530849960665e-01 8.343545433669761e-01 8.348846988132180e-01 8.521683761276659e-01 8.521828228859027e-01 8.653184011696711e-01 8.654260184957527e-01 8.791822414762900e-01 9.390315905101523e-01 3.158910886597351e-01 1.328397358130695e-01 2.296797394044169e-01 9.446206305402819e-01 9.685738742268591e-01 9.685102188957982e-01 9.860936248362737e-01 9.859450215871698e-01 1.000011413291222e+00 5.525942288518373e-01 5.976984309679317e-01 5.986908452077648e-01 6.584869839876005e-01 6.599716939615827e-01 7.362586932061876e-01 7.385650006367737e-01 8.322297379234307e-01 1.532009461375625e-01 3.635801776427013e-01 3.399569488823515e-01 4.698506657724555e-01 4.492410924316102e-01 4.570782741332154e-01 4.571447376102812e-01 4.653753720359764e-01 4.973435898691274e-01 1.728219273627627e-01 4.193907446149676e-01 4.389651925308604e-01 4.392599790234858e-01 4.545372984850802e-01 1.349166686713656e-03 -2.240292654028976e-03 -4.968477658459242e-04 2.617793878770195e-04 1.123793518800165e-04 1.570389346893449e-04 4.911821528608070e-01 5.260400716595054e-01 2.519030278758645e-01 1.619614446173879e-01 1.763415342593985e-01 7.375571388752841e-02 -1.517073162050827e-02 1.951116138393058e-01 2.532206816377414e-01 2.675843037326199e-01 2.677620980595167e-01 2.777801442105359e-01 2.778583462873235e-01 2.850968874128439e-01 2.851470144629970e-01 2.906110601805041e-01 2.906649948083990e-01 2.962323041157225e-01 2.962909970381418e-01 3.018995075043963e-01 2.554624350674571e-01 2.389339321866701e-01 2.401454642085328e-01 2.022697780787160e-01 2.022279877781624e-01 1.523451954437313e-01 1.526632620587703e-01 9.700747712272348e-02 1.033720946048300e-01 2.232052129720539e-02 2.457395463677921e-01 2.405228802602803e-01 2.404610772417869e-01 2.363760883156329e-01 2.363377430114446e-01 2.325358540788577e-01 2.325290097120264e-01 2.288383088651682e-01 2.289395809844279e-01 2.248583783391716e-01 2.265327309019730e-01 2.154314738551332e-01 4.546851970521686e-01 4.761668738902197e-01 4.765071013848295e-01 4.968893300869823e-01 6.009450777883643e-01 6.635442734341089e-01 6.650901413799010e-01 7.352647302658287e-01 7.366914707775043e-01 8.087029846902850e-01 8.103232393457223e-01 8.783403972511059e-01 5.200116846074544e-02 7.150066878896130e-02 7.303484441299041e-02 9.904793715336113e-02 1.000234653054381e-01 1.345009902456359e-01 1.675885394915675e-01 1.370524535854714e-01 1.466599326341519e-01 1.077898055168447e-01 1.056427217045367e-01 8.806638390118848e-02 8.820260776645768e-02 7.174868388392772e-02 7.257099866625850e-02 5.900814121806786e-02 2.560812022526518e-02 2.740845606458686e-02 2.743883778594530e-02 2.914203991016105e-02 2.916729616257314e-02 3.086223624189043e-02 3.089333089403050e-02 3.265279518572544e-02 4.302534026151047e-01 4.399862282323588e-01 4.400615435178171e-01 4.491275662139337e-01 2.181555778961886e-01 2.302211926344455e-01 1.263572592253422e-01 2.117750309354892e-01 2.566137993601729e-01 2.146695865698292e-01 9.249814840586738e-03 1.643582084445939e-02 -5.260069137925066e-04 1.490275475935869e-01 2.092339702311234e-01 6.065383031417229e-02 2.005863549244111e-02 2.159382334128550e-02 -9.544500316906670e-05 2.125773690284336e-03 1.252679089899387e-02 7.942571116893068e-04 -6.566701149247004e-05 2.874749323320217e-05 2.487231165564593e-05 1.653420174673559e-02 1.857857817435201e-02 -2.757407259084278e-03 1.880478499067920e-04 7.092836514388184e-05 -4.077331103113102e-05 -9.031850882830291e-04 3.845375420250173e-04 3.407023697604878e-04 1.541552884805207e-01 1.825509556461476e-01 -1.991216631916965e-02 5.726807516377969e-02 1.218118676779796e-01 1.185902920404224e-01 2.206230634312973e-01 1.353536332959731e-01 1.157632452255344e-01 7.508912733629218e-02 2.474683096687518e-01 1.533811622890719e-02 2.540360893928676e-02 2.359703445016348e-01 1.097048793190375e-01 -1.391819109870727e-03 -1.275911112411212e-03 3.232666748555516e-03 -7.230430118176485e-04 -7.537128671238254e-03 1.965792715210777e-02 2.131368830362851e-01 1.562228753219638e-01 2.104496423526535e-01 2.237668628253014e-01 1.336408530550975e-01 2.255812602857731e-01 2.287667944504693e-01 1.091711303296988e-01 2.338487721799275e-01 2.286172962591681e-01 1.123016452831104e-01 1.266227819665457e-01 -2.087550566763823e-03 1.449236058223180e-01 -1.472564075576122e-02 2.442589416554658e-02 8.489340807395107e-02 1.192532521947348e-02 1.906228626490426e-02 4.950498828936986e-02 1.278797591726083e-01 1.389145718767238e-01 1.527412278627891e-02 1.329717736107374e-01 -7.843098761839860e-03 3.951273513707629e-02 2.093078564510676e-01 -1.871164553902516e-03 -1.649423047582010e-03 3.728978500070109e-03 -2.169782331195582e-03 4.292093167305100e-03 3.464142500347211e-03 -1.166531271772598e-03 1.074077895828663e-02 -3.230307851002621e-03 -7.076556200776284e-04 5.040797559732162e-04 -1.130463449185163e-03 -2.064109647353210e-04 3.864709717617426e-05 -8.429531027489262e-05 -1.153350283603045e-06 -1.024429680994257e-06 2.941828336999929e-06 4.982878235176861e-06 -2.568988694127956e-06 -1.925224912356434e-06 2.994105435553021e-04 -6.002766709781799e-04 -3.370763026553333e-04 1.121942484551544e-04 -2.524180189868226e-04 1.219188380532352e-04 9.768210619814864e-02 1.516978712852751e-01 5.824992525485622e-02 8.935796387657491e-02 2.389567057339461e-01 2.058056635397723e-01 -1.948057837363086e-02 2.263322855463094e-01 7.560610179389740e-02 2.824417030501735e-02 1.017276863937012e-01 6.996188588450901e-02 9.313924160381515e-02 5.902708353821105e-02 3.986441731502156e-02 8.298756218755861e-06 1.544425144866531e-06 -1.894656201150673e-06 -1.850498775766795e-06 4.272293864390894e-06 9.254147407534880e-06 4.798464686896205e-04 4.594421702573052e-04 -1.307616415164701e-03 -1.971010823505455e-03 -1.409086001950387e-03 2.602114841585842e-03 1.325994702879996e-04 9.166495537879611e-07 1.150798042887122e-05 5.302981343598628e-06 -3.793220762410989e-06 7.142853442332952e-06 7.817065047031989e-05 5.076921470299422e-05 -1.295283777807280e-04 2.963851709268244e-02 1.671212985253530e-01 3.790731287796142e-02 -6.569655738663339e-03 2.232252558971978e-02 1.695880539182259e-02 -1.559440624130163e-03 6.147986603903600e-04 -1.572951428392523e-03 1.195635612319501e-02 6.645874465170485e-03 4.175845464788093e-02 3.986366950440325e-04 1.794157214704305e-04 -3.700410386603553e-04 -1.602859202992692e-03 -4.706493350352119e-03 1.312316997280856e-02 4.992387443868051e-03 5.524319585631522e-03 -7.317786483113670e-04 2.022165891153964e-02 1.455593800269278e-02 -8.068645394464899e-03 1.501841864839658e-05 -2.374474312325012e-05 -5.636287363270561e-05 8.276427392066867e-06 -1.784416789035509e-05 1.154671041954889e-05 -4.154139433168762e-03 9.358156441926254e-03 4.115313476330506e-02 -7.911746303863054e-04 1.934491060589777e-02 -4.686898129771098e-03 -6.968101559859117e-03 4.484175095352966e-02 3.445420316368707e-02 2.153139158828351e-02 2.255398959502733e-02 -1.909936972948577e-03 -3.429107520542720e-03 9.845821891226235e-03 -4.276064001425126e-03 1.407078877224616e-02 1.302427796892760e-02 -6.584466002630863e-03 -4.053880633423742e-03 1.101373296537743e-02 -3.572529349391219e-03 3.821493068843759e-04 -1.012285509346107e-03 1.628639044331989e-02 9.330079907602122e-04 -2.213598388993323e-04 1.717490931960369e-05 3.323173357347254e-04 -3.628618966271243e-04 5.152894503328099e-04 8.836961989343922e-04 4.428792563158175e-03 1.862044436964644e-04 2.047671595550869e-01 1.410562585245383e-01 5.168498527740362e-02 4.507472686542691e-02 3.548296439384314e-02 1.070516193730378e-02 5.120241391518135e-02 9.659355435954141e-02 3.214727807678630e-02 -6.684734238472640e-05 1.054585125353238e-04 -1.745627349543940e-04 2.498311549824251e-05 3.247996458005338e-05 1.837880242622323e-08 -2.618961774015082e-03 2.283022419206464e-02 2.300775711145198e-02 -2.249252672347665e-03 -1.881089137760451e-03 7.613485000069188e-03 1.254549956532749e-03 5.666583669405350e-03 -4.377043640220979e-04 5.810336271005035e-03 1.916217045495654e-04 7.194844551703623e-04 5.823141491546092e-03 7.380229412010860e-03 -9.404734480879766e-04 1.940450291200518e-04 -1.072470220935629e-04 5.058268825719399e-04 6.561804671044492e-04 2.233795531087290e-04 -2.706422391656418e-05 2.816033684956356e-05 3.111622618470635e-04 3.974797518411889e-05 8.266462133796162e-03 1.070676259198841e-02 -1.265623892074208e-03 1.796917980382925e-03 -2.938431514841934e-04 9.523055230439680e-03 1.703229401707229e-03 2.210639020010922e-04 -4.549490110121082e-04 6.979142909642290e-05 2.606440636706237e-04 1.378842817928960e-03 1.714438939679780e-02 5.197558094614614e-04 1.349888594741631e-02 4.198526986628784e-05 2.511894931159565e-03 1.235000443973190e-02 2.492112238549796e-01 1.502310888566599e-01 1.781478607987428e-01 1.594233440765795e-01 1.245677661086257e-01 1.506189305042437e-01 1.237122114039778e-01 7.964231040824887e-02 1.469105723846093e-01 1.749136717594095e-01 2.226192906583543e-01 3.785111199841907e-02 2.129131864817712e-01 1.435538239809408e-01 4.861961302641422e-02 2.292380611560034e-01 2.261699198512275e-01 1.464470032825840e-01 2.256299254708831e-01 2.030166975607071e-01 1.536948452013638e-01 2.285409137621126e-01 2.245938230037462e-01 1.972880891845096e-01 2.260993406951047e-01 2.178376012609038e-01 2.084664567238442e-01 1.845411151210015e-01 -6.656925417752780e-03 7.219600235296537e-02 2.190688107240660e-01 1.839284568703463e-01 3.028537962645074e-02 4.226070433741572e-02 -1.071311190462254e-02 -4.139785497509345e-03 4.220109401939682e-02 1.998569572546302e-02 -3.387524763470644e-03 -1.916240061691305e-03 -8.334151968429063e-04 7.310609360406734e-04 1.938321536714900e-01 2.000657695084617e-01 1.250084411430955e-01 1.448921883046116e-01 1.432368349472774e-01 1.110191077666793e-01 1.774853776768823e-01 2.373101888898724e-01 1.625225190536419e-01 8.198277398833996e-02 2.269716535229541e-01 2.462040979617003e-01 1.046493000458839e-02 -2.871863050476280e-02 1.875220289982577e-01 1.485123905930205e-01 1.830004281940529e-01 -1.519610140731619e-02 1.168982448551982e-02 2.257724443266900e-01 1.920342705376364e-01 1.919991655743574e-01 7.637055169806178e-02 1.772904595790225e-01 2.898220520007531e-02 1.639723529155222e-01 7.853830933644991e-02 2.315070027812859e-01 3.590548093865099e-02 1.936759895013324e-01 1.685491260346072e-01 4.053898039796979e-02 -4.714421353581566e-03 1.978703237291384e-01 1.905922293403785e-01 6.151587326391164e-02 6.788682859539283e-02 1.390927395665317e-01 1.102369886903364e-01 3.262743622924150e-02 1.310321627552396e-01 1.436671283465722e-01 1.285204500609027e-01 8.013277335763571e-03 3.831221012420984e-02 1.236075063251600e-01 2.140511322455730e-02 -3.507422788919362e-02 1.265083099513623e-02 3.805802443560513e-03 2.414896226090160e-02 7.120930461803995e-04 7.026317127766775e-05 2.382949411798060e-03 -2.738800327058255e-03 1.862844631848381e-02 1.652433147761306e-02 3.276085188947607e-03 1.051703040510058e-02 4.813787133963046e-04 5.162033256117229e-04 -4.111774812327026e-05 1.189399945934875e-04 -1.994542067944610e-04 1.655775543254610e-04 5.251349878980820e-04 -1.416739576582379e-04 -7.731449667856220e-06 1.101957930505830e-04 1.369506677535585e-01 2.504465480595865e-01 -1.095458590481257e-01 -3.128326778961962e-04 5.267306214689990e-04 1.161018951586636e-03 8.441723552417407e-04 8.585505150302739e-03 1.369690976587936e-03 1.137705723061620e-02 -7.233924551993846e-04 8.717989598888802e-04 -6.502405359029249e-04 1.756090985129278e-02 1.523861976407298e-02 1.000510246875199e-02 -6.309120663160065e-04 1.274857886521746e-02 1.119698507142629e-04 -1.229706065388271e-04 8.886456006923991e-04 1.531377290099967e-01 -5.942892716868314e-02 -6.041325030717817e-02 2.912742243950029e-01 -7.313373622300649e-02 -6.710614872196976e-03 2.402330312738065e-01 -3.288912616351272e-02 -4.583998279020216e-02 1.922820752619023e-01 4.620600399181615e-02 7.674111975370185e-04 -2.840839645909422e-02 4.840423298835762e-02 1.977701506264452e-01 1.860197123331094e-01 2.304381544753692e-01 2.719746722096231e-01 1.136818120986809e-01 3.037458776647669e-01 3.364584249817139e-01 1.440648713220710e-01 1.052459763979944e-01 2.314532604858323e-01 2.468031926834737e-01 3.344479768510590e-01 4.627596686563699e-01 1.140254335715050e-01 7.474722252541667e-02 2.083925799442622e-01 1.069528701165167e-01 4.332127763227214e-02 7.479738523112028e-02 4.398170516062524e-02 2.747838540597365e-02 7.006250793504222e-02 4.159232123215809e-02 1.664896422167500e-02 2.765815252825025e-02 2.781958057065516e-02 7.104521989405322e-03 5.811378062136928e-03 5.689902657489027e-02 3.676447084815606e-02 1.531228125869046e-02 3.426300793354762e-03 9.976081875625761e-03 3.219264455450092e-02 2.792972610797852e-01 4.781331333394650e-01 1.882988781992848e-01 1.727030349030824e-01 2.066168599053616e-01 8.980811524468946e-02 1.665704633269295e-01 3.226857091239047e-02 7.981146458365276e-02 3.086405907321539e-01 -1.500725380118708e-02 3.872920571511529e-01 1.127275776340428e-02 2.740074030247198e-02 2.567941891741249e-03 -4.184372466419564e-02 1.166127237909545e-01 1.044303806832000e-01 6.873048031741819e-02 3.363985045400068e-02 1.014206754126578e-02 8.467330296963204e-03 3.925720182453084e-03 2.987903642805343e-04 9.169183144407400e-02 -2.932585374891901e-02 -2.895461235435329e-02 -2.094433680600624e-03 1.311372903085062e-03 -6.765393313459740e-03 1.364216713039120e-02 1.583338867671235e-01 2.483364303945409e-01 1.745722460494288e-02 1.509096623593257e-02 1.504965199191993e-01 3.411996846191200e-01 2.619320003047992e-01 1.668456685990433e-01 2.509846691793597e-01 1.280763856094871e-01 1.690360718689163e-01 8.537914504120953e-02 1.191695758079211e-01 1.778637991103549e-01 1.549702478772840e-01 1.652014229795679e-01 2.445103658955808e-01 4.726298365962922e-02 1.030965823283772e-01 1.051423211747543e-01 3.680274146812982e-02 7.028093647730985e-02 1.010568973531581e-01 1.383297485652846e-01 1.987909083234810e-01 1.536294856856910e-01 1.003264835768785e-01 1.356686211102497e-01 8.750436699333707e-02 1.406498955621314e-01 9.273613391397660e-02 1.150269512194057e-01 8.458330581071362e-02 3.409926263244558e-02 1.036856268072743e-01 1.149319382345819e-01 1.741171729622440e-01 1.427467369646678e-01 3.796462154544102e-02 3.798169477402077e-02 6.967471229505265e-02 1.182210483600063e-02 1.624099020564558e-01 9.535255279557760e-02 9.138827800084083e-02 -8.403506403644784e-03 1.884076434140827e-01 1.705300108727809e-01 7.745128515559772e-02 9.291646593936702e-02 7.170123107328559e-02 3.177057540938315e-02 3.695054360296210e-02 2.662688179697367e-01 1.235030398236471e-01 2.348714922943601e-01 2.606832419775013e-01 1.644497494607135e-01 1.276409228371667e-01 5.584151863546325e-03 8.905558327448032e-02 1.682089382972642e-01 1.010397806537936e-01 1.525376034124660e-01 9.497894227175870e-02 1.562990584311000e-01 1.576833015829095e-01 9.278464921181440e-02 2.442719665768521e-01 2.031070522129553e-01 1.814252683342098e-01 2.001918508371098e-01 1.334556174027943e-01 1.805024793751451e-01 1.512710348655261e-01 1.033732369130200e-01 1.387029631102746e-01 1.036759474170809e-01 8.342932180542410e-02 1.366532692675472e-01 9.804757036725542e-02 1.015183742672637e-01 1.507757814217540e-01 1.006130577577366e-01 2.349777794514817e-02 1.557282346095438e-02 2.748711548822493e-02 6.849890311063590e-02 3.732927917023548e-02 8.789425504101149e-02 5.279618555501524e-03 1.514148138175748e-02 6.711699577267644e-02 2.868741945595788e-02 4.384815872968293e-02 3.837479290525622e-02 7.689525272664853e-03 8.512625259330583e-02 1.956014081228030e-02 1.899544357831867e-02 3.671850699520431e-02 2.102701001303240e-02 1.039617469153988e-01 9.852365167644948e-02 2.594084051515222e-02 9.273233021865898e-02 1.022727422786120e-01 2.947428322430648e-01 6.462351094936587e-02 1.935839903823748e-01 1.112051865122400e-02 -1.104413284776147e-02 3.863675876279215e-03 3.606677337012822e-02 1.607927549921340e-02 1.516722734725250e-02 -4.204721939354281e-02 2.697512525958214e-01 -1.600172473482365e-02 -1.285742674745123e-02 1.255958732283995e-02 -2.058970851709733e-03 2.004265125592339e-01 2.990034381416426e-01 -5.858583612549538e-02 1.494007320467388e-02 3.823784789826078e-03 1.423253481910667e-02 6.772790342119504e-03 5.423944731393279e-03 1.052490229747231e-02 1.594183716237500e-02 6.643880538887809e-03 1.099977577645631e-02 9.605449525638843e-03 2.057204569547386e-02 1.746454134195409e-02 1.991271934269132e-02 4.586188971957967e-02 5.328860594709634e-02 5.583723272106163e-02 4.701884587649668e-02 9.233699981385687e-02 4.951949171379747e-02 1.776052862451366e-02 2.144875370117513e-02 9.740773177038872e-02 5.669105226205844e-02 5.412165674872800e-02 -1.167889775118208e-03 2.197702452220193e-03 -1.359051924614647e-03 -4.739263184467429e-05 -2.617974760663023e-05 -1.454678868924453e-04 -4.15679