<?xml version="1.0"?>
<VTKFile type="UnstructuredGrid" version="0.1" byte_order="LittleEndian">
<UnstructuredGrid>
<Piece NumberOfPoints="1896" NumberOfCells="677">
<Points>
<DataArray type="Float64" NumberOfComponents="3" format="ascii">
0.000000000000000e+00 3.750000000000000e+00 0.000000000000000e+00 5.624999999964863e-01 3.999999999998438e+00 0.000000000000000e+00 5.624999999964863e-01 3.999999999998438e+00 0.000000000000000e+00 1.124999999995812e+00 4.249999999998138e+00 0.000000000000000e+00 1.124999999995812e+00 4.249999999998138e+00 0.000000000000000e+00 1.687499999998485e+00 4.499999999999327e+00 0.000000000000000e+00 1.687499999998485e+00 4.499999999999327e+00 0.000000000000000e+00 2.250000000000000e+00 4.750000000000000e+00 0.000000000000000e+00 2.250000000000000e+00 4.750000000000000e+00 0.000000000000000e+00 1.750000000000000e+00 5.000000000000000e+00 0.000000000000000e+00 2.250000000000000e+00 4.750000000000000e+00 0.000000000000000e+00 2.875000000000000e+00 4.375000000000000e+00 0.000000000000000e+00 2.875000000000000e+00 4.375000000000000e+00 0.000000000000000e+00 3.500000000000000e+00 4.000000000000000e+00 0.000000000000000e+00 3.500000000000000e+00 4.000000000000000e+00 0.000000000000000e+00 2.750000000000000e+00 4.000000000000000e+00 0.000000000000000e+00 2.250000000000000e+00 4.750000000000000e+00 0.000000000000000e+00 2.687500000002093e+00 5.000000000001196e+00 0.000000000000000e+00 2.687500000002093e+00 5.000000000001196e+00 0.000000000000000e+00 3.125000000002093e+00 5.250000000001196e+00 0.000000000000000e+00 3.125000000002093e+00 5.250000000001196e+00 0.000000000000000e+00 3.562500000002093e+00 5.500000000001196e+00 0.000000000000000e+00 3.562500000002093e+00 5.500000000001196e+00 0.000000000000000e+00 4.000000000000000e+00 5.750000000000000e+00 0.000000000000000e+00 4.000000000000000e+00 5.750000000000000e+00 0.000000000000000e+00 3.500000000000000e+00 5.000000000000000e+00 0.000000000000000e+00 4.000000000000000e+00 5.750000000000000e+00 0.000000000000000e+00 3.250000000000000e+00 6.250000000000000e+00 0.000000000000000e+00 4.000000000000000e+00 5.750000000000000e+00 0.000000000000000e+00 4.500000000000000e+00 6.000000000000000e+00 0.000000000000000e+00 4.500000000000000e+00 6.000000000000000e+00 0.000000000000000e+00 5.000000000000000e+00 6.250000000000000e+00 0.000000000000000e+00 4.750000000000000e+00 7.250000000000000e+00 0.000000000000000e+00 4.500000000005181e+00 6.750000000010362e+00 0.000000000000000e+00 4.500000000005181e+00 6.750000000010362e+00 0.000000000000000e+00 4.250000000005181e+00 6.250000000010362e+00 0.000000000000000e+00 4.250000000005181e+00 6.250000000010362e+00 0.000000000000000e+00 4.000000000000000e+00 5.750000000000000e+00 0.000000000000000e+00 4.000000000000000e+00 5.750000000000000e+00 0.000000000000000e+00 4.625000000000000e+00 5.375000000000000e+00 0.000000000000000e+00 4.625000000000000e+00 5.375000000000000e+00 0.000000000000000e+00 5.250000000000000e+00 5.000000000000000e+00 0.000000000000000e+00 5.250000000000000e+00 5.000000000000000e+00 0.000000000000000e+00 4.750000000000000e+00 4.750000000000000e+00 0.000000000000000e+00 3.500000000000000e+00 4.000000000000000e+00 0.000000000000000e+00 4.250000000000000e+00 3.500000000000000e+00 0.000000000000000e+00 4.250000000000000e+00 4.750000000000000e+00 0.000000000000000e+00 4.750000000000000e+00 4.375000000000000e+00 0.000000000000000e+00 4.750000000000000e+00 4.375000000000000e+00 0.000000000000000e+00 5.250000000000000e+00 4.000000000000000e+00 0.000000000000000e+00 4.250000000000000e+00 1.500000000000000e+00 0.000000000000000e+00 4.624999999997918e+00 1.874999999997918e+00 0.000000000000000e+00 4.624999999997918e+00 1.874999999997918e+00 0.000000000000000e+00 5.000000000000000e+00 2.250000000000000e+00 0.000000000000000e+00 5.000000000000000e+00 2.250000000000000e+00 0.000000000000000e+00 5.250000000000000e+00 1.750000000000000e+00 0.000000000000000e+00 5.250000000000000e+00 1.750000000000000e+00 0.000000000000000e+00 5.500000000000000e+00 1.250000000000000e+00 0.000000000000000e+00 5.500000000000000e+00 1.250000000000000e+00 0.000000000000000e+00 5.750000000000000e+00 7.500000000000000e-01 0.000000000000000e+00 5.000000000000000e+00 2.250000000000000e+00 0.000000000000000e+00 4.750000000000000e+00 2.750000000000000e+00 0.000000000000000e+00 5.000000000000000e+00 2.250000000000000e+00 0.000000000000000e+00 5.500000000000000e+00 2.750000000000000e+00 0.000000000000000e+00 5.500000000000000e+00 2.750000000000000e+00 0.000000000000000e+00 5.750000000000000e+00 2.500000000000000e+00 0.000000000000000e+00 3.500000000000000e+00 4.000000000000000e+00 0.000000000000000e+00 4.125000000008327e+00 4.000000000000000e+00 0.000000000000000e+00 4.125000000008327e+00 4.000000000000000e+00 0.000000000000000e+00 4.750000000000000e+00 4.000000000000000e+00 0.000000000000000e+00 4.750000000000000e+00 4.000000000000000e+00 0.000000000000000e+00 5.250000000000000e+00 4.000000000000000e+00 0.000000000000000e+00 5.500000000000000e+00 2.750000000000000e+00 0.000000000000000e+00 5.125000000000000e+00 3.375000000000000e+00 0.000000000000000e+00 5.125000000000000e+00 3.375000000000000e+00 0.000000000000000e+00 4.750000000000000e+00 4.000000000000000e+00 0.000000000000000e+00 6.000000000000000e+00 3.750000000000000e+00 0.000000000000000e+00 6.750000000000000e+00 4.000000000000000e+00 0.000000000000000e+00 5.250000000000000e+00 5.000000000000000e+00 0.000000000000000e+00 5.749999999991033e+00 4.666666666672645e+00 0.000000000000000e+00 5.749999999991033e+00 4.666666666672645e+00 0.000000000000000e+00 6.249999999991033e+00 4.333333333339311e+00 0.000000000000000e+00 6.249999999991033e+00 4.333333333339311e+00 0.000000000000000e+00 6.750000000000000e+00 4.000000000000000e+00 0.000000000000000e+00 5.500000000000000e+00 2.750000000000000e+00 0.000000000000000e+00 5.916666666666667e+00 3.166666666666667e+00 0.000000000000000e+00 5.916666666666667e+00 3.166666666666667e+00 0.000000000000000e+00 6.333333333333333e+00 3.583333333333333e+00 0.000000000000000e+00 6.333333333333333e+00 3.583333333333333e+00 0.000000000000000e+00 6.750000000000000e+00 4.000000000000000e+00 0.000000000000000e+00 5.250000000000000e+00 5.000000000000000e+00 0.000000000000000e+00 5.750000000000000e+00 5.250000000000000e+00 0.000000000000000e+00 5.750000000000000e+00 5.250000000000000e+00 0.000000000000000e+00 6.250000000000000e+00 5.500000000000000e+00 0.000000000000000e+00 6.250000000000000e+00 5.500000000000000e+00 0.000000000000000e+00 6.750000000000000e+00 5.750000000000000e+00 0.000000000000000e+00 6.750000000000000e+00 5.750000000000000e+00 0.000000000000000e+00 7.250000000000000e+00 6.000000000000000e+00 0.000000000000000e+00 7.250000000000000e+00 6.000000000000000e+00 0.000000000000000e+00 6.875000000000000e+00 5.625000000000000e+00 0.000000000000000e+00 6.875000000000000e+00 5.625000000000000e+00 0.000000000000000e+00 6.500000000000000e+00 5.250000000000000e+00 0.000000000000000e+00 7.250000000000000e+00 6.000000000000000e+00 0.000000000000000e+00 7.600000000000000e+00 6.400000000000000e+00 0.000000000000000e+00 7.600000000000000e+00 6.400000000000000e+00 0.000000000000000e+00 7.950000000000000e+00 6.800000000000000e+00 0.000000000000000e+00 7.950000000000000e+00 6.800000000000000e+00 0.000000000000000e+00 8.300000000000001e+00 7.200000000000000e+00 0.000000000000000e+00 8.300000000000001e+00 7.200000000000000e+00 0.000000000000000e+00 8.650000000000000e+00 7.600000000000000e+00 0.000000000000000e+00 8.650000000000000e+00 7.600000000000000e+00 0.000000000000000e+00 9.000000000000000e+00 8.000000000000000e+00 0.000000000000000e+00 7.250000000000000e+00 6.000000000000000e+00 0.000000000000000e+00 7.750000000000000e+00 6.250000000000000e+00 0.000000000000000e+00 6.750000000000000e+00 4.000000000000000e+00 0.000000000000000e+00 7.249999999991033e+00 4.333333333327355e+00 0.000000000000000e+00 7.249999999991033e+00 4.333333333327355e+00 0.000000000000000e+00 7.749999999991033e+00 4.666666666660689e+00 0.000000000000000e+00 7.749999999991033e+00 4.666666666660689e+00 0.000000000000000e+00 8.250000000000000e+00 5.000000000000000e+00 0.000000000000000e+00 8.250000000000000e+00 5.000000000000000e+00 0.000000000000000e+00 7.500000000000000e+00 4.750000000000000e+00 0.000000000000000e+00 7.750000000000000e+00 5.500000000000000e+00 0.000000000000000e+00 8.250000000000000e+00 5.000000000000000e+00 0.000000000000000e+00 8.250000000000000e+00 5.000000000000000e+00 0.000000000000000e+00 9.000000000000000e+00 5.500000000000000e+00 0.000000000000000e+00 8.250000000000000e+00 5.000000000000000e+00 0.000000000000000e+00 8.750000000000000e+00 5.166666666666667e+00 0.000000000000000e+00 8.750000000000000e+00 5.166666666666667e+00 0.000000000000000e+00 9.250000000000000e+00 5.333333333333333e+00 0.000000000000000e+00 9.250000000000000e+00 5.333333333333333e+00 0.000000000000000e+00 9.750000000000000e+00 5.500000000000000e+00 0.000000000000000e+00 8.250000000000000e+00 5.000000000000000e+00 0.000000000000000e+00 8.750000000000000e+00 4.666666666666667e+00 0.000000000000000e+00 8.750000000000000e+00 4.666666666666667e+00 0.000000000000000e+00 9.250000000000000e+00 4.333333333333333e+00 0.000000000000000e+00 9.250000000000000e+00 4.333333333333333e+00 0.000000000000000e+00 9.750000000000000e+00 4.000000000000000e+00 0.000000000000000e+00 8.250000000000000e+00 3.750000000000000e+00 0.000000000000000e+00 8.750000000000000e+00 3.833333333333334e+00 0.000000000000000e+00 8.750000000000000e+00 3.833333333333334e+00 0.000000000000000e+00 9.250000000000000e+00 3.916666666666667e+00 0.000000000000000e+00 9.250000000000000e+00 3.916666666666667e+00 0.000000000000000e+00 9.750000000000000e+00 4.000000000000000e+00 0.000000000000000e+00 9.750000000000000e+00 4.000000000000000e+00 0.000000000000000e+00 1.025000000000000e+01 4.083333333333333e+00 0.000000000000000e+00 1.025000000000000e+01 4.083333333333333e+00 0.000000000000000e+00 1.075000000000000e+01 4.166666666666667e+00 0.0000000000000
[...]
<PointData Scalars="A_conc,B_conc,region_id," Vectors="" Tensors="">
<DataArray type="Float64" Name="A_conc" format="ascii">
5.358182396610750e-01 5.275536959682338e-01 5.268305160195734e-01 5.204191731223307e-01 5.203093639494404e-01 5.173145161135547e-01 5.173491524448924e-01 5.154125326431518e-01 5.121719836788490e-01 5.341121378556306e-01 5.279153059578042e-01 5.179515878938992e-01 5.169567817271959e-01 5.066906719599815e-01 4.963590768667338e-01 5.715855949604985e-01 4.954693795055277e-01 4.779910649163470e-01 4.760417912829932e-01 4.511786372215988e-01 4.529371301232774e-01 4.506111794832601e-01 4.515352257391680e-01 4.495983089278219e-01 3.528450744500479e-01 6.872992999690435e-01 4.434067678174701e-01 4.940015190527139e-01 4.436364291366098e-01 4.637848732788379e-01 4.690427978939797e-01 4.968364149490975e-01 1.328271987639318e-02 1.526243730918006e-01 1.724700622116708e-01 3.887432814861084e-01 3.924243016556030e-01 4.692272025074455e-01 4.562709692618365e-01 4.528175818011036e-01 4.513524124297609e-01 4.416420416342656e-01 5.413172547909731e-01 2.307982168270490e-01 6.475199610451895e-01 6.815888512434786e-01 5.978048799854642e-01 4.653756478066249e-01 4.828024257450100e-01 4.232387327634183e-01 5.802550211387291e-01 5.185210285284739e-01 5.265220370402020e-01 5.007119451113921e-01 3.333355795109062e-01 1.900268282853859e-01 1.798911406740388e-01 -4.928497409436212e-02 -2.603992936958766e-02 1.605816419617951e-02 5.021234295278829e-01 6.579026883597578e-01 5.268368898332105e-01 5.115391304233624e-01 4.960139279580528e-01 4.895109082658333e-01 4.937113957082808e-01 4.876224219223097e-01 4.874986085176540e-01 4.806826482895099e-01 4.315871991620382e-01 4.249279838451854e-01 5.112731737175079e-01 5.237800740016789e-01 5.253029387921144e-01 5.245563663982380e-01 3.986939015601439e-01 3.707380899118923e-01 4.283549779658539e-01 4.121887195838637e-01 4.103725101206508e-01 3.917300406337397e-01 3.912075033482670e-01 3.701122243368423e-01 5.897709740130166e-01 5.881196386699880e-01 5.897048962466402e-01 5.638772910402259e-01 5.527379815436890e-01 3.966626636299616e-01 5.279965089722561e-01 5.536540168064548e-01 5.479919472398163e-01 5.380012696090929e-01 5.244695265815380e-01 5.089095910967084e-01 5.120278038928201e-01 5.394576791047259e-01 7.880071559769672e-01 7.654568531853040e-01 7.722156367118194e-01 7.844603892699843e-01 4.888621012499825e-01 5.212972837472768e-01 5.213365124576497e-01 6.203281099519516e-01 6.262023835403924e-01 7.420016942872306e-01 7.340371277723015e-01 7.927457333107770e-01 7.853098281666477e-01 7.976550470196654e-01 3.768932075567556e-01 1.691317347925265e-01 3.702110113846236e-01 3.485330170507820e-01 3.454487841736498e-01 3.105269994356575e-01 3.081612842033217e-01 2.802575743182372e-01 2.389269567049973e-01 6.046810895963678e-01 5.988336322011975e-01 2.382786560644380e-01 3.976254775684503e-01 5.831848464268683e-01 6.638514918703862e-01 6.906707881102475e-01 6.879210540318671e-01 6.966464188650007e-01 6.813411998049248e-01 6.388549611284998e-01 2.342615347911616e-01 2.088998640578472e-01 2.080430272958936e-01 1.847016590760504e-01 1.842974491035043e-01 1.607115992252563e-01 7.397837435295056e-01 4.230046553539352e-01 4.562592471207892e-01 2.988285245012031e-01 3.029088465054638e-01 1.612139574071679e-01 1.606183609780388e-01 1.440676714687093e-01 1.438858175744732e-01 1.308340964066340e-01 1.307267391937500e-01 1.170556666144295e-01 6.027107155901763e-02 6.702778989778826e-01 8.441216348476450e-01 7.702857962623098e-01 5.513750710687790e-02 3.150060677281371e-02 3.148144596740427e-02 1.391198830714867e-02 1.405509151881952e-02 -1.137089433257814e-05 3.488276352209650e-01 3.259288142794776e-01 3.245680241460443e-01 2.926499506319065e-01 2.904643201793652e-01 2.435753682521954e-01 2.405078645805353e-01 1.657682611139808e-01 6.800272877462945e-01 5.227168126053018e-01 5.366515528115541e-01 4.624919844793361e-01 4.722735046290192e-01 4.651688430328670e-01 4.651056428721037e-01 4.576256660955023e-01 4.369583042148029e-01 7.012389524416494e-01 5.166140378000359e-01 5.123089906753572e-01 5.112108213437052e-01 5.001397980344463e-01 1.671763484741067e-01 -7.453520247420341e-02 -3.059058212446810e-02 6.408376135260752e-02 6.276246904787462e-02 1.577499504616439e-01 4.232342437478756e-01 4.006257723478105e-01 5.173495109945500e-01 6.020718753661359e-01 6.533600738149635e-01 5.701288655319706e-01 4.471240478612326e-01 4.322058431862723e-01 5.146008444913415e-01 5.193314131558450e-01 5.186996572809230e-01 5.178518301086894e-01 5.174679875654751e-01 5.144124426543260e-01 5.142071765926803e-01 5.103414910441113e-01 5.102610900950034e-01 5.060128499425671e-01 5.059454576056092e-01 5.014897023447563e-01 5.137237993253013e-01 5.242361149245933e-01 5.284318968691529e-01 5.348590266442282e-01 5.377819836963594e-01 5.117798192631334e-01 5.219697860773755e-01 4.568710772337010e-01 5.209890406356875e-01 1.235095974068534e-01 4.494270200217727e-01 4.530108410218274e-01 4.530574146880723e-01 4.558710290229483e-01 4.559007261375251e-01 4.584976501348565e-01 4.585055700963134e-01 4.610058897410889e-01 4.609415611469040e-01 4.636821302678626e-01 4.625891953251882e-01 4.699174903838563e-01 4.996303898549810e-01 4.825734071709670e-01 4.818899708361474e-01 4.633212674875379e-01 3.701555724422175e-01 3.170945366597970e-01 3.153087622138075e-01 2.530758377499466e-01 2.508654828376619e-01 1.837011191611805e-01 1.823821123112975e-01 1.183535347769234e-01 8.615172518253990e-01 8.782598182720426e-01 8.750436671661725e-01 8.708927133558975e-01 8.674222670386241e-01 8.501149639780016e-01 8.161048877934540e-01 8.394206172631004e-01 8.283897692719009e-01 8.579481457567086e-01 8.599390834647617e-01 8.666766767748244e-01 8.676632306999106e-01 8.684162304709137e-01 8.685740120406438e-01 8.648797459427076e-01 4.976769126496978e-01 5.159650148783474e-01 5.160939423705233e-01 5.299022949097466e-01 5.297400990733421e-01 5.358379638974029e-01 5.357378772415657e-01 5.403300675147240e-01 4.891187171301112e-01 4.807243397753848e-01 4.805756000419851e-01 4.723802792321356e-01 5.422252621756165e-01 5.372057239340460e-01 5.928917052043690e-01 5.455240389089633e-01 5.153767386815393e-01 5.438301826334718e-01 3.516562153802740e-01 4.679415331218509e-01 2.561887473854954e-01 5.515220455238095e-01 5.339303088747640e-01 4.881759591969879e-01 4.717476409022510e-01 4.979352259203265e-01 2.946557580361687e-01 2.690545437458213e-01 4.873642691634621e-01 1.879279516733774e-01 3.641804670757568e-03 -2.101359581215978e-04 -7.480211199359274e-04 7.861095298442531e-01 8.034265295612687e-01 3.528576748440054e-01 2.312797483626368e-01 9.890764415848426e-02 -9.856188083142739e-03 -1.792960185239704e-02 6.183963466170460e-03 6.375408947342852e-03 5.811229847699905e-01 5.656705029833731e-01 4.471149844406967e-01 5.684149277148215e-01 6.153081036773286e-01 6.212546495029904e-01 5.413195264615410e-01 5.915309367570215e-01 5.980240882002726e-01 4.997200295199863e-01 4.919914061445098e-01 4.859020746653071e-01 4.747132983958646e-01 5.045849876562067e-01 5.100543962868533e-01 -9.546825106332903e-02 -9.543956909385580e-02 2.638846881371353e-01 3.351761003778305e-01 -1.024964109352978e-01 5.460893563124424e-01 5.454648467838827e-01 5.796216183843049e-01 5.469363755071023e-01 5.384270645605923e-01 5.933385599082182e-01 5.359998224933027e-01 5.359838895838213e-01 6.022671631015996e-01 5.332391108799720e-01 5.388874326696679e-01 5.989046997111820e-01 5.900991983349403e-01 4.419819807384189e-01 5.915304192853825e-01 4.413431798585776e-01 4.623785439987964e-01 4.934923974046242e-01 4.697804652356335e-01 4.454572834341335e-01 5.272966219733747e-01 6.405833207691601e-01 5.950481278233352e-01 4.498908784185614e-01 6.346153920084934e-01 4.442218574803141e-01 4.703210037312558e-01 5.338644868979916e-01 -1.005637052651663e-01 -1.009834597967701e-01 2.750572934528263e-01 -1.057193744762154e-01 2.855591154438724e-01 2.288739288389803e-01 1.048762984300711e-02 3.358946197041261e-01 -5.976588799015891e-02 -1.356939352483546e-02 6.003867412297223e-03 -1.761527423447212e-02 -6.704409104807858e-03 -6.565534250821887e-04 4.681703920750123e-03 2.466572139983044e-03 -3.231207967832396e-03 1.966692359362997e-02 8.215752068385596e-03 -4.431274520953192e-04 -1.871838447351685e-03 2.317664794005566e-02 -2.278545815806448e-02 5.044780628865896e-03 6.708358318099364e-03 -6.361726237303997e-03 1.481709076494764e-02 5.421941087451574e-01 5.356536460380993e-01 5.020622160673252e-01 5.258201635104648e-01 4.649999165506213e-01 4.817810206697924e-01 4.573418917970785e-01 5.147970380263879e-01 5.318604120023179e-01 5.179460204049885e-01 5.227719203467600e-01 5.407589778458587e-01 5.474049551311413e-01 5.012347722606176e-01 5.077383361659068e-01 6.256082746370345e-02 1.797340774757467e-02 -7.204861496180268e-03 1.392825692420266e-03 2.380581962256287e-02 5.493253952959339e-02 -9.047599348468978e-03 -7.801277249858706e-03 9.958795945528051e-03 4.738609228463622e-02 -8.294685964592943e-02 2.110535266112712e-01 2.010400293309352e-01 1.644302945043837e-02 7.461346734444846e-02 1.781284082521613e-02 -1.102689583935124e-03 1.002380183464640e-02 2.195837570491250e-02 9.080688820854266e-03 1.643725147357660e-02 4.838084651857800e-01 5.417904731118449e-01 4.743320371302842e-01 -1.874581672548700e-02 4.832464770732592e-01 3.713790101495435e-01 -1.704152740511330e-02 -1.064471725664342e-02 1.311192405511673e-02 3.928305744318721e-01 3.723759160451102e-01 5.496665268742315e-01 1.713519215499072e-02 -1.492853396527106e-02 7.325669420735138e-02 7.979982737063290e-02 -6.864643855624454e-02 3.499044457771770e-01 4.783112749844285e-01 5.071042072243481e-01 1.762867541279911e-01 5.014759108837274e-01 4.971994431211645e-01 1.200401879892335e-01 -1.584637515179011e-04 8.377243845212771e-04 3.051585888372977e-03 -5.376052314122073e-05 4.806469369085688e-04 9.349452292656456e-06 1.307372392324351e-01 3.100947653786464e-01 5.839011617761414e-01 8.474687494315172e-02 4.757912026268864e-01 -1.351946441404366e-02 1.295696181573036e-01 5.842616810759864e-01 4.861949540972996e-01 5.074715861760164e-01 5.223190370334463e-01 2.777037291429845e-01 -8.672941045102252e-02 4.283203900502162e-01 -3.682852263937498e-02 4.605647064316968e-01 4.358682428772769e-01 -4.681812046334399e-02 -2.387413808939517e-02 4.192734592509715e-01 1.435341353849182e-01 2.757449155108749e-01 1.814954671732029e-01 5.023054776716420e-01 1.914623176750345e-01 -8.542011098478876e-03 3.811654592655307e-02 2.299225050152161e-02 1.589431907246938e-01 2.075878436425590e-01 2.393071900494339e-01 4.954726432920839e-01 2.311402646532206e-01 4.897915002240121e-01 5.121623532757741e-01 5.298441879138037e-01 5.464733501056455e-01 5.441362266099300e-01 3.937176364247935e-01 5.100987270919555e-01 5.286983664761455e-01 5.135092649704381e-01 6.391133194812451e-02 2.282159992189194e-02 1.737222913324609e-02 7.455165741888468e-02 6.751506043609951e-02 1.353948648172088e-02 2.656660772705287e-01 5.271125295577360e-01 5.244048668804936e-01 -7.301495617406234e-02 -6.106488242155681e-02 4.004020752734687e-01 2.123094852514437e-01 3.725943389656846e-01 -2.352680821367014e-02 5.996295223557239e-01 2.741283281426216e-01 2.471243957241321e-01 5.153570735783756e-01 6.028581149463954e-01 2.115536462493549e-01 2.523117908203812e-01 4.826673970092519e-02 2.336721962260328e-01 2.270709180631145e-01 2.172434407383709e-01 5.713928444323541e-02 8.079917148051044e-02 2.088027012552354e-01 7.237344074692956e-02 6.299227410827252e-01 7.252801573838527e-01 2.629152131368971e-01 4.495678061347098e-01 2.371011378299940e-01 7.168323886522051e-01 3.981117097963813e-01 3.398014770742977e-01 6.985998819487985e-02 9.832498414141236e-02 2.656268027390555e-01 4.005363568505695e-01 7.976769877101361e-01 4.566992985221073e-01 7.355957909117713e-01 3.582924492825285e-01 4.218917061894967e-01 7.755469666878383e-01 4.508197286174218e-01 5.086261047694920e-01 4.921169578428884e-01 5.037436081037128e-01 5.147886208648617e-01 5.081608848144736e-01 5.156910747903283e-01 5.283019483716016e-01 5.121161195950094e-01 4.904598100921637e-01 4.698294756380036e-01 5.445700388726716e-01 4.800695706177365e-01 5.099482135782343e-01 5.331382144472784e-01 4.619095734584370e-01 4.637806499049309e-01 5.113077001591890e-01 4.643451633438015e-01 4.784668798525428e-01 5.065867606932868e-01 4.613517782399384e-01 4.639543843399392e-01 4.816125839220172e-01 4.629344709580732e-01 4.683608656838031e-01 4.744140325376008e-01 5.206727015994875e-01 3.958066178780553e-01 3.862264327956117e-01 4.828527286995222e-01 5.238462190709132e-01 4.822493809305712e-01 3.937645794605204e-01 8.389531995894045e-02 1.671377533331766e-01 3.943114767822584e-01 3.917898356647296e-01 8.559078103362107e-02 1.459686910145447e-01 8.583023634219401e-02 2.058332979984517e-02 4.675215752839316e-01 4.737721170000802e-01 5.226114056592476e-01 4.953796182768015e-01 5.125269076464392e-01 5.181114591301763e-01 4.872397922202676e-01 4.581300993142950e-01 5.011971091368895e-01 5.092189768445398e-01 4.742406855055051e-01 4.694499438064275e-01 4.896036295070830e-01 4.574880143029635e-01 5.596366067238522e-01 5.032922647788477e-01 4.944435464067374e-01 5.013175253172943e-01 4.952405840398736e-01 5.548319609266241e-01 5.164439060238716e-01 4.820811843902657e-01 5.122670473351272e-01 4.979993635838955e-01 5.037151344505932e-01 5.110604616437325e-01 5.107059736736463e-01 4.834361645857539e-01 5.068535442551784e-01 4.908509408588407e-01 5.104207285348503e-01 4.846308650587242e-01 4.898442697613166e-01 4.778613817264960e-01 4.707718307062940e-01 5.186836520365284e-01 5.150457106670954e-01 5.015739708434163e-01 5.189924273407607e-01 5.249820760710100e-01 5.110197070688013e-01 4.979846764744557e-01 5.105006116747802e-01 4.956495678451187e-01 5.211026224951314e-01 6.291938101829704e-01 3.359334606279210e-01 -3.044031805245296e-02 4.279621029319972e-01 3.181966645172414e-01 5.410593333765154e-01 2.024543020199611e-01 8.822947469404868e-02 2.714457383154766e-01 2.294743262057340e-01 5.094700412294070e-01 5.208457243042496e-01 2.855905222602110e-01 4.407878733373715e-01 2.077102410879961e-01 1.838778020562368e-01 3.228522789204166e-02 9.025294816855138e-02 1.754241245728917e-01 3.032282253226760e-02 2.130686312412985e-01 1.594552325308556e-01 4.007474815801288e-02 3.871019800249983e-02 5.082029711705243e-01 5.888803253566393e-01 2.209044760680899e-01 2.730757498972834e-02 1.786021669961793e-01 2.648407144538206e-01 1.908944440833240e-01 5.292502337568968e-01 2.809584811122340e-01 5.481997627078008e-01 1.696287886273488e-01 2.608041011717254e-01 2.576818217996058e-01 5.334194106242180e-01 5.628535733617340e-01 5.230097530280596e-01 2.620491254454648e-01 5.521020203597196e-01 8.277047711978337e-02 4.113608524890744e-02 2.443911332476681e-01 6.064088877920343e-01 -1.174885010942668e-02 1.943837478878228e-01 6.778038531863136e-01 2.886568513746140e-01 3.241787944924557e-01 7.374651353655418e-01 2.795978866222854e-01 2.553889886426413e-01 7.944470132426064e-01 7.063050126597863e-01 2.453841370308970e-01 1.704419510525454e-01 5.628749440892944e-01 6.153193497784202e-01 6.324215869839070e-01 6.608818613421431e-01 5.964262944152745e-01 7.059441385157759e-01 6.019481315514181e-01 5.678067583295878e-01 6.797312622365488e-01 6.779113293559089e-01 6.640387378576543e-01 6.221797860885840e-01 5.682732747070267e-01 4.533237230741935e-01 6.663983287740545e-01 7.547995290832288e-01 6.997140188960069e-01 6.760982244571431e-01 6.634423113449028e-01 7.559337331068910e-01 6.623451768786275e-01 6.810850366400656e-01 7.643993959717514e-01 6.671242925556147e-01 6.022345600438536e-01 6.807069161607426e-01 6.905174898207691e-01 4.714302588403408e-01 3.532134677809993e-01 7.582605341640577e-01 7.279636756509380e-01 5.921398032422696e-01 3.499614963874583e-01 3.549104083481465e-01 6.880148988460193e-01 6.120309448296120e-01 4.576786843825462e-01 6.820040434455830e-01 6.992177344890679e-01 6.765578708034149e-01 6.891526556311649e-01 7.329565546258450e-01 7.031094045816769e-01 6.187211344338994e-01 5.111817742903022e-01 4.160538315645237e-01 6.700014825909915e-01 5.296952169955523e-01 7.129353317110204e-01 4.357199889644605e-01 4.934612358037034e-01 5.247347721972582e-01 6.304221745828104e-01 6.330246826146935e-01 7.038359673149801e-01 5.313634931909590e-01 5.255900604446664e-01 4.322218562857328e-01 2.845093585420201e-01 5.592021832345310e-01 4.740183815114606e-01 3.181074722668821e-01 3.140443569919137e-01 3.666551663458698e-01 3.848062443023446e-01 4.270004280116773e-01 7.484800956886265e-01 6.892811075944343e-01 4.214545969873829e-01 4.425800073875370e-01 7.593672624812864e-01 5.133371174829231e-01 5.738219432642103e-01 6.430288369393750e-01 5.858266155786976e-01 6.621265354878030e-01 6.407570069328086e-01 6.865835522659292e-01 6.406789951798597e-01 6.402149887623465e-01 6.041774825945307e-01 5.688492340331235e-01 5.254912132784841e-01 4.610334450301187e-01 5.438009066583349e-01 6.261053242989258e-01 5.591686594615684e-01 6.307376837844548e-01 6.485991320926568e-01 5.751864366210006e-01 5.414703406035615e-01 5.105875205493356e-01 6.166612095300693e-01 5.881757677136662e-01 5.271815002812082e-01 5.993577929698929e-01 5.955176377801950e-01 5.626563267581192e-01 6.551753019377140e-01 5.624535527284426e-01 6.453295966475002e-01 5.625196616375557e-01 5.798827018919309e-01 5.972062306717525e-01 3.744768497293136e-01 5.016454243893457e-01 6.376516577945861e-01 4.063398901974122e-01 5.490527168868579e-01 5.155984508091475e-01 4.388967403958461e-01 4.392174621887244e-01 4.398326928383748e-01 6.603862340986839e-01 5.655941587226853e-01 6.376744504354498e-01 6.350385963347286e-01 4.952788318615163e-01 3.759592851906229e-01 5.597284611245781e-01 4.607258483746479e-01 4.940352656458046e-01 5.660722520580570e-01 5.608105265207383e-01 4.557944261683812e-01 4.139671361545852e-01 4.208233021443892e-01 5.422065135359652e-01 5.933225772678137e-01 5.728660714948643e-01 6.639050460030836e-01 5.685917588556109e-01 6.243907608957178e-01 6.663508310453461e-01 5.423847313680352e-01 5.337598749460586e-01 5.841580730892341e-01 5.367112461219405e-01 5.748133166961511e-01 5.855411839310684e-01 5.164579293865763e-01 5.019574013195833e-01 5.751994579986037e-01 5.012846942955893e-01 5.254900639490674e-01 5.778914562815131e-01 4.556853289315084e-01 4.975193768148296e-01 5.240447341322053e-01 5.208868870734598e-01 1.237615995288112e-01 1.217798191205758e-01 5.461731711957167e-01 6.329252062649557e-01 5.586133725880447e-01 5.014052564817559e-01 4.144473100927105e-01 4.143359552817422e-01 6.347124105021485e-01 5.446990456256090e-01 5.948614515910168e-01 4.489643944726365e-01 4.113132337494751e-01 5.048721614881133e-01 4.846331083882852e-01 3.912853335475657e-01 6.082226551121204e-01 1.695895712618946e-01 5.640410264156979e-01 5.014695793540750e-01 1.925881558358577e-01 5.873178405997691e-01 5.538842476953960e-01 5.308534215624905e-01 6.464885450510180e-01 5.878785917621356e-01 4.081060218487115e-01 3.804219603936655e-01 3.311709727644417e-01 7.275291501700594e-01 5.648169390980301e-01 5.665211589813790e-01 4.224406308136892e-01 6.775770372859001e-01 4.325343417881781e-01 3.832675723313173e-01 4.066208463745888e-01 4.627277399210467e-01 5.376536942043230e-01 6.394239070492744e-01 4.447628478330529e-01 5.655164314339856e-01 4.268780435781069e-01 5.682809113408808e-01 4.734162579053851e-01 4.045146784038936e-01 4.806907823598606e-01 5.766689557930709e-01 4.746774853676867e-01 4.796756288480604e-01 4.617789118060292e-01 5.372919865403898e-01 5.780654702787682e-01 5.375273498920162e-01 5.906665027493357e-01 7.155563333769426e-01 7.115809451831040e-01 5.888706810091348e-01 6.147347394791851e-01 7.215824083433485e-01 5.783108765492283e-01 5.355162190122086e-01 6.080810361173697e-01 6.721468535809775e-01 7.134520198799567e-01 -1.217499944041049e-01 2.514701990077469e-01 -1.258871877475209e-01 9.693012423199199e-03 -7.506750533057638e-03 1.316575358385638e-02 8.910156273909469e-03 6.418731452047641e-03 -6.220893182214699e-03 -1.893486761746698e-02 