<?xml version="1.0"?>
<VTKFile type="UnstructuredGrid" version="0.1" byte_order="LittleEndian">
<UnstructuredGrid>
<Piece NumberOfPoints="714" NumberOfCells="1306">
<Points>
<DataArray type="Float64" NumberOfComponents="3" format="ascii">
0.000000000000000e+00 0.000000000000000e+00 0.000000000000000e+00 5.000000000000000e+00 0.000000000000000e+00 0.000000000000000e+00 5.000000000000000e+00 1.000000000000000e+00 0.000000000000000e+00 0.000000000000000e+00 1.000000000000000e+00 0.000000000000000e+00 9.999999999992801e-02 0.000000000000000e+00 0.000000000000000e+00 1.999999999998339e-01 0.000000000000000e+00 0.000000000000000e+00 2.999999999997341e-01 0.000000000000000e+00 0.000000000000000e+00 3.999999999996643e-01 0.000000000000000e+00 0.000000000000000e+00 4.999999999995944e-01 0.000000000000000e+00 0.000000000000000e+00 5.999999999995166e-01 0.000000000000000e+00 0.000000000000000e+00 6.999999999992880e-01 0.000000000000000e+00 0.000000000000000e+00 7.999999999989961e-01 0.000000000000000e+00 0.000000000000000e+00 8.999999999987042e-01 0.000000000000000e+00 0.000000000000000e+00 9.999999999984124e-01 0.000000000000000e+00 0.000000000000000e+00 1.099999999998120e+00 0.000000000000000e+00 0.000000000000000e+00 1.199999999997829e+00 0.000000000000000e+00 0.000000000000000e+00 1.299999999997537e+00 0.000000000000000e+00 0.000000000000000e+00 1.399999999997245e+00 0.000000000000000e+00 0.000000000000000e+00 1.499999999996953e+00 0.000000000000000e+00 0.000000000000000e+00 1.599999999996661e+00 0.000000000000000e+00 0.000000000000000e+00 1.699999999996369e+00 0.000000000000000e+00 0.000000000000000e+00 1.799999999996077e+00 0.000000000000000e+00 0.000000000000000e+00 1.899999999995785e+00 0.000000000000000e+00 0.000000000000000e+00 1.999999999995511e+00 0.000000000000000e+00 0.000000000000000e+00 2.099999999995593e+00 0.000000000000000e+00 0.000000000000000e+00 2.199999999995745e+00 0.000000000000000e+00 0.000000000000000e+00 2.299999999995897e+00 0.000000000000000e+00 0.000000000000000e+00 2.399999999996049e+00 0.000000000000000e+00 0.000000000000000e+00 2.499999999996201e+00 0.000000000000000e+00 0.000000000000000e+00 2.599999999996353e+00 0.000000000000000e+00 0.000000000000000e+00 2.699999999996505e+00 0.000000000000000e+00 0.000000000000000e+00 2.799999999996657e+00 0.000000000000000e+00 0.000000000000000e+00 2.899999999996809e+00 0.000000000000000e+00 0.000000000000000e+00 2.999999999996961e+00 0.000000000000000e+00 0.000000000000000e+00 3.099999999997114e+00 0.000000000000000e+00 0.000000000000000e+00 3.199999999997265e+00 0.000000000000000e+00 0.000000000000000e+00 3.299999999997417e+00 0.000000000000000e+00 0.000000000000000e+00 3.399999999997569e+00 0.000000000000000e+00 0.000000000000000e+00 3.499999999997721e+00 0.000000000000000e+00 0.000000000000000e+00 3.599999999997873e+00 0.000000000000000e+00 0.000000000000000e+00 3.699999999998025e+00 0.000000000000000e+00 0.000000000000000e+00 3.799999999998176e+00 0.000000000000000e+00 0.000000000000000e+00 3.899999999998329e+00 0.000000000000000e+00 0.000000000000000e+00 3.999999999998481e+00 0.000000000000000e+00 0.000000000000000e+00 4.099999999998633e+00 0.000000000000000e+00 0.000000000000000e+00 4.199999999998784e+00 0.000000000000000e+00 0.000000000000000e+00 4.299999999998937e+00 0.000000000000000e+00 0.000000000000000e+00 4.399999999999088e+00 0.000000000000000e+00 0.000000000000000e+00 4.499999999999240e+00 0.000000000000000e+00 0.000000000000000e+00 4.599999999999393e+00 0.000000000000000e+00 0.000000000000000e+00 4.699999999999545e+00 0.000000000000000e+00 0.000000000000000e+00 4.799999999999696e+00 0.000000000000000e+00 0.000000000000000e+00 4.899999999999848e+00 0.000000000000000e+00 0.000000000000000e+00 5.000000000000000e+00 9.999999999981467e-02 0.000000000000000e+00 5.000000000000000e+00 1.999999999995579e-01 0.000000000000000e+00 5.000000000000000e+00 2.999999999992664e-01 0.000000000000000e+00 5.000000000000000e+00 3.999999999989749e-01 0.000000000000000e+00 5.000000000000000e+00 4.999999999986943e-01 0.000000000000000e+00 5.000000000000000e+00 5.999999999989468e-01 0.000000000000000e+00 5.000000000000000e+00 6.999999999992100e-01 0.000000000000000e+00 5.000000000000000e+00 7.999999999994734e-01 0.000000000000000e+00 5.000000000000000e+00 8.999999999997368e-01 0.000000000000000e+00 4.899999999999999e+00 1.000000000000000e+00 0.000000000000000e+00 4.800000000000000e+00 1.000000000000000e+00 0.000000000000000e+00 4.699999999999999e+00 1.000000000000000e+00 0.000000000000000e+00 4.600000000000000e+00 1.000000000000000e+00 0.000000000000000e+00 4.499999999999999e+00 1.000000000000000e+00 0.000000000000000e+00 4.399999999999999e+00 1.000000000000000e+00 0.000000000000000e+00 4.299999999999999e+00 1.000000000000000e+00 0.000000000000000e+00 4.199999999999998e+00 1.000000000000000e+00 0.000000000000000e+00 4.099999999999999e+00 1.000000000000000e+00 0.000000000000000e+00 3.999999999999999e+00 1.000000000000000e+00 0.000000000000000e+00 3.899999999999999e+00 1.000000000000000e+00 0.000000000000000e+00 3.799999999999999e+00 1.000000000000000e+00 0.000000000000000e+00 3.699999999999998e+00 1.000000000000000e+00 0.000000000000000e+00 3.599999999999999e+00 1.000000000000000e+00 0.000000000000000e+00 3.499999999999999e+00 1.000000000000000e+00 0.000000000000000e+00 3.399999999999999e+00 1.000000000000000e+00 0.000000000000000e+00 3.299999999999999e+00 1.000000000000000e+00 0.000000000000000e+00 3.199999999999998e+00 1.000000000000000e+00 0.000000000000000e+00 3.099999999999999e+00 1.000000000000000e+00 0.000000000000000e+00 2.999999999999999e+00 1.000000000000000e+00 0.000000000000000e+00 2.899999999999999e+00 1.000000000000000e+00 0.000000000000000e+00 2.799999999999999e+00 1.000000000000000e+00 0.000000000000000e+00 2.699999999999999e+00 1.000000000000000e+00 0.000000000000000e+00 2.599999999999999e+00 1.000000000000000e+00 0.000000000000000e+00 2.500000000000000e+00 1.000000000000000e+00 0.000000000000000e+00 2.399999999999999e+00 1.000000000000000e+00 0.000000000000000e+00 2.299999999999999e+00 1.000000000000000e+00 0.000000000000000e+00 2.199999999999999e+00 1.000000000000000e+00 0.000000000000000e+00 2.100000000000000e+00 1.000000000000000e+00 0.000000000000000e+00 2.000000000000000e+00 1.000000000000000e+00 0.000000000000000e+00 1.899999999999999e+00 1.000000000000000e+00 0.000000000000000e+00 1.799999999999999e+00 1.000000000000000e+00 0.000000000000000e+00 1.699999999999999e+00 1.000000000000000e+00 0.000000000000000e+00 1.599999999999999e+00 1.000000000000000e+00 0.000000000000000e+00 1.500000000000000e+00 1.000000000000000e+00 0.000000000000000e+00 1.399999999999999e+00 1.000000000000000e+00 0.000000000000000e+00 1.299999999999999e+00 1.000000000000000e+00 0.000000000000000e+00 1.199999999999999e+00 1.000000000000000e+00 0.000000000000000e+00 1.100000000000000e+00 1.000000000000000e+00 0.000000000000000e+00 9.999999999999991e-01 1.000000000000000e+00 0.000000000000000e+00 8.999999999999995e-01 1.000000000000000e+00 0.000000000000000e+00 7.999999999999998e-01 1.000000000000000e+00 0.000000000000000e+00 7.000000000000002e-01 1.000000000000000e+00 0.000000000000000e+00 5.999999999999996e-01 1.000000000000000e+00 0.000000000000000e+00 4.999999999999991e-01 1.000000000000000e+00 0.000000000000000e+00 3.999999999999995e-01 1.000000000000000e+00 0.000000000000000e+00 3.000000000000007e-01 1.000000000000000e+00 0.000000000000000e+00 1.999999999999993e-01 1.000000000000000e+00 0.000000000000000e+00 9.999999999999964e-02 1.000000000000000e+00 0.000000000000000e+00 0.000000000000000e+00 8.999999999995836e-01 0.000000000000000e+00 0.000000000000000e+00 7.999999999999998e-01 0.000000000000000e+00 0.000000000000000e+00 7.000000000006934e-01 0.000000000000000e+00 0.000000000000000e+00 6.000000000013869e-01 0.000000000000000e+00 0.000000000000000e+00 5.000000000020587e-01 0.000000000000000e+00 0.000000000000000e+00 4.000000000016644e-01 0.000000000000000e+00 0.000000000000000e+00 3.000000000012483e-01 0.000000000000000e+00 0.000000000000000e+00 2.000000000008322e-01 0.000000000000000e+00 0.000000000000000e+00 1.000000000004160e-01 0.000000000000000e+00 7.477570327540725e-01 4.905967956478702e-01 0.000000000000000e+00 1.346210646643281e+00 4.806066422083806e-01 0.000000000000000e+00 1.949496869330408e+00 5.032480558805372e-01 0.000000000000000e+00 4.449999999999997e+00 5.000000000000384e-01 0.000000000000000e+00 3.859142349610828e+00 5.103468031113156e-01 0.000000000000000e+00 3.246530027037640e+00 5.183101712757180e-01 0.000000000000000e+00 2.657531292711257e+00 5.037429884868682e-01 0.000000000000000e+00 3.824015840967434e-01 6.064457502813875e-01 0.000000000000000e+00 2.306343155343502e+00 6.315316747431162e-01 0.000000000000000e+00 1.049999999998266e+00 3.374999999994497e-01 0.000000000000000e+00 1.641930697057102e+00 3.436055112169133e-01 0.000000000000000e+00 4.150000000000006e+00 6.625000000000185e-01 0.000000000000000e+00 3.552784161359181e+00 6.642488388863971e-01 0.000000000000000e+00 2.940292465243163e+00 6.575992780735344e-01 0.000000000000000e+00 1.641237689750194e+00 6.703960699373966e-01 0.000000000000000e+00 1.050000000000000e+00 6.706367924525535e-01 0.000000000000000e+00 2.960517759676693e+00 3.261740577967960e-01 0.000000000000000e+00 3.551899302943298e+00 3.210887133285832e-01 0.000000000000000e+00 4.150779393876139e+00 3.209867287821391e-01 0.000000000000000e+00 2.213980362532827e+00 3.194901812685164e-01 0.000000000000000e+00 4.927283029162088e-01 3.252862896001115e-01 0.000000000000000e+00 4.696684455724628e+00 3.145438084075651e-01 0.000000000000000e+00 4.690990908683984e+00 6.962960281446974e-01 0.000000000000000e+00 2.487221901830106e+00 2.763334294511438e-01 0.000000000000000e+00 6.215262983536076e-01 7.328515730233995e-01 0.000000000000000e+00 2.065768881873406e+00 7.342557316219342e-01 0.000000000000000e+00 2.543072460766750e+00 7.257064952909391e-01 0.000000000000000e+00 8.105176211436336e-01 2.535517621144286e-01 0.0000000000000
[...]
<CellData Scalars="A_conc,As-lin_conc,Bs-lang_conc,Cs-freund_conc," Vectors="" Tensors="">
<DataArray type="Float64" Name="A_conc" format="ascii">
1.020457759147152e-07 3.993287088641627e-02 0.000000000000000e+00 1.322483971132148e-07 1.081069707861851e-03 4.351879700567922e-26 1.051594529750703e-24 1.381185252560361e-07 2.133813188644728e-02 1.605855322083885e-07 0.000000000000000e+00 5.173777584896743e-09 2.648122857327194e-10 0.000000000000000e+00 1.155239151538301e-07 1.255539871987350e-07 2.377818434062615e-07 2.932931131864580e-07 5.616960147733938e-31 1.792532100814388e-07 7.424548769198893e-15 5.983993564415801e-11 4.274709200626788e-09 4.628032554201225e-09 1.989622047957807e-08 1.733048249479633e-09 6.595250001736131e-08 1.703532232510987e-04 3.427260001723829e-08 1.069046793955374e-07 3.034095420996619e-11 5.037447582274705e-08 5.359531212422347e-12 0.000000000000000e+00 2.601857403900243e-29 8.841972026776690e-03 1.314578176105095e-09 1.622670772775961e-14 2.078519097094699e-09 1.728557217375226e-03 0.000000000000000e+00 5.546074515277939e-10 0.000000000000000e+00 8.788293824641264e-20 1.516137849726295e-16 8.711031823849984e-27 3.777881980988811e-07 8.886695304096418e-15 1.507342669893728e-32 2.398192279943519e-28 2.070283859283787e-02 3.675104080170416e-09 2.798747525295527e-08 4.884474320842746e-03 1.577198707684354e-02 5.689577540154168e-02 4.906770664651941e-14 4.008711248087055e-08 3.967075501543573e-05 1.481885796270515e-07 0.000000000000000e+00 6.646607155645297e-08 1.252508443389852e-19 7.017471367773740e-17 3.478501439248398e-17 9.058514901056781e-24 9.478773712794827e-16 4.135767773864940e-13 3.193978386588698e-02 1.300896408909746e-05 1.276969771391966e-15 0.000000000000000e+00 9.212737994213870e-10 3.253012566019849e-07 8.897330622451976e-14 1.201689484674984e-30 1.192368422216335e-09 2.645474943069773e-27 8.552974819993353e-12 1.159516924257712e-16 8.908471093173767e-08 1.749876873288001e-29 5.801119545959182e-10 0.000000000000000e+00 1.151973211704014e-17 2.240937556580844e-09 6.228012242801987e-29 1.105589738475555e-12 9.084123720418993e-09 9.951761165374513e-14 2.241894770362787e-35 4.347166135435534e-17 2.773623140348000e-06 6.644616002229533e-19 7.040306908018162e-28 1.482863167932361e-07 5.910492332925634e-19 2.829215271038724e-07 0.000000000000000e+00 5.765383238561029e-05 6.097742066304835e-18 1.045630744958022e-08 1.505424755996096e-08 9.995767136955423e-19 8.452144285252059e-10 7.577407590758205e-13 1.278311916536292e-07 2.668463696025762e-04 4.221915138065902e-10 5.607295070256646e-12 4.380227043483385e-16 3.296154741350526e-09 2.152704391087508e-09 1.949482210336128e-11 1.521118844615068e-08 5.548909217864407e-07 1.044295820606740e-07 5.358672283316779e-14 1.780419175727375e-17 1.828065550007153e-04 7.691043256072915e-17 1.246951406174044e-08 2.308966513612448e-14 1.046182067081229e-08 8.334485249335636e-05 3.265559530376719e-14 0.000000000000000e+00 1.228373703599126e-09 2.247112639842248e-06 6.017361213556646e-10 1.435208686151516e-29 1.735446182457414e-13 4.800654816637328e-12 3.724440120260526e-09 4.526402696443000e-22 1.324447347984312e-17 1.525522825069674e-07 4.917290252602999e-02 6.676063818666928e-15 7.543733019946507e-23 3.750661394208149e-13 5.514987981125017e-05 3.673350987538822e-08 5.546426281818328e-17 5.058339133646343e-42 0.000000000000000e+00 2.664599120368882e-14 9.178077800965604e-12 1.174290606100757e-26 2.426518894938535e-13 4.950915316193449e-12 5.394593816668174e-28 2.605323445755131e-22 1.644888571044890e-16 6.953434080611889e-18 0.000000000000000e+00 1.422244402865200e-11 2.313147287809567e-06 1.338531446725627e-09 0.000000000000000e+00 3.976089476978413e-07 2.086776359666002e-10 1.203772048950199e-14 0.000000000000000e+00 2.418748655627235e-17 8.122262949760179e-09 4.417798902058959e-09 4.104735750980551e-14 2.494442012653645e-14 0.000000000000000e+00 1.410971867169091e-08 9.828952313242375e-11 0.000000000000000e+00 0.000000000000000e+00 6.703776934996928e-15 1.552309017158889e-20 3.806610551306387e-08 0.000000000000000e+00 1.299924768189080e-14 8.005776245154608e-16 2.569964502729271e-19 1.749864638410981e-07 2.858121313719945e-03 6.058099934695747e-14 4.660772743048332e-15 7.517595212601551e-11 1.261997518805601e-09 1.488238532916955e-13 0.000000000000000e+00 4.044632521976980e-15 1.498384140783064e-09 1.712778794402830e-10 2.497058361872078e-07 2.545164563431769e-08 5.588250180538863e-09 1.931408695742790e-14 2.635764540312223e-08 6.879476107960306e-09 0.000000000000000e+00 0.000000000000000e+00 2.988838251825043e-09 4.799574273419425e-17 8.504891244235904e-02 1.675080589775886e-12 8.984841834619545e-21 1.810429809832780e-08 7.794052830851711e-17 3.527958633251187e-11 2.874205276571525e-07 7.072953817239077e-03 1.658447449972803e-15 0.000000000000000e+00 2.444951954104921e-23 9.240831855884886e-08 1.969901089679085e-07 3.846379129207475e-15 7.396232383496114e-09 3.311186478519795e-16 4.164519048074409e-08 3.810516512765035e-31 6.570403371497072e-33 5.204408784973750e-04 6.638893281944845e-15 1.089876918640205e-11 8.401186872544365e-11 7.045656404536496e-02 1.194346182015954e-08 6.048143185450116e-09 0.000000000000000e+00 1.006267813208728e-13 3.189558771069279e-13 3.447839869898277e-09 1.799498263207162e-08 7.191975151607715e-09 9.903473595797890e-21 4.312043321712749e-16 6.880009620400443e-14 4.355347814479548e-24 5.354710484956968e-09 0.000000000000000e+00 1.028740642983248e-13 5.216320154519290e-11 1.163261931285853e-26 1.084816085085116e-18 5.019666631480865e-38 2.912945222183382e-18 5.337656011240441e-07 0.000000000000000e+00 3.689937178082702e-07 0.000000000000000e+00 1.492971171284114e-17 1.746377042943590e-16 0.000000000000000e+00 2.033900628612747e-18 3.126235687331356e-07 4.678027137359815e-07 4.100434303999314e-08 0.000000000000000e+00 3.056947100027911e-07 0.000000000000000e+00 3.079603171348116e-14 9.711771865572727e-11 5.965082258182673e-16 5.972274478042795e-17 1.580929981501202e-11 3.271056081719512e-07 2.840663370498901e-08 4.713738195907369e-08 5.828228451835346e-11 0.000000000000000e+00 1.076136630540429e-19 4.552763378466288e-13 8.900689015066049e-13 5.743633471411868e-28 2.369898752072562e-08 3.034583106861299e-07 4.436040169316875e-08 7.836208465046192e-08 2.571070431133310e-10 4.540692569699395e-10 5.755529851749271e-15 6.569466023757784e-11 4.242388963060758e-15 2.432153162474093e-07 1.877595467240324e-04 4.083972985187331e-11 2.416457192970758e-10 1.440057013826739e-12 1.408325062868691e-22 1.129434341470348e-16 2.724319069564715e-12 1.621436529340264e-20 4.686389582713668e-12 9.244818889727653e-12 9.208634969892456e-33 8.044350113761777e-19 9.415830049153576e-13 1.379333533867238e-07 0.000000000000000e+00 6.497697332323372e-14 2.388506226630534e-37 1.694781206746507e-13 3.862804882708075e-17 2.160683088283871e-06 3.371878332211076e-09 1.420882644126068e-07 1.341240312062489e-07 6.251941384683832e-05 1.116037339938434e-16 7.166632150940484e-37 1.006727438896392e-15 1.597060826453961e-34 0.000000000000000e+00 5.732810378375658e-14 0.000000000000000e+00 1.988864908073152e-08 9.395328141556824e-16 2.188250310102844e-15 2.158468851767046e-02 2.834465257338268e-08 6.550447198695161e-09 2.851765850150827e-13 7.794938685189955e-13 1.919277364095917e-09 3.585810898565354e-16 7.635035747644000e-19 4.869375765602632e-20 7.034128280136325e-10 2.584855319532746e-38 1.060404452207200e-07 5.090569244695752e-02 4.442242358293638e-02 4.566641751515142e-02 5.020647876530260e-02 2.598756535670390e-05 2.518959354805666e-07 2.288274032486632e-08 2.119693167945750e-15 1.640803692658716e-21 7.770938118546390e-13 1.943615554030865e-16 8.174272775859278e-09 0.000000000000000e+00 3.683430051868316e-03 0.000000000000000e+00 5.645118350224665e-08 1.225410872318239e-11 0.000000000000000e+00 1.904038677634916e-09 1.380859455463991e-10 7.517447369472267e-02 0.000000000000000e+00 2.899110758042347e-10 1.055871078803119e-18 4.233652462161404e-07 1.783385398289179e-07 7.994798872654964e-16 4.822627680967705e-15 4.910257150704853e-08 6.433797271384122e-14 2.250969860831582e-07 1.006779420037937e-17 3.199503242428378e-07 1.318275308275583e-09 8.737703746065807e-08 4.453594192802747e-09 6.951464618221008e-12 8.420444142859596e-18 2.800467081749459e-21 2.913951118979434e-02 8.606626597039785e-02 8.606627318838389e-02 5.258492208627547e-04 5.851889921147501e-04 0.000000000000000e+00 2.337872536171010e-15 8.766829607937508e-07 1.722205687048199e-15 1.595494254095063e-08 6.333840643406725e-16 2.727162277860309e-02 2.680918313585290e-07 2.077041968364314e-08 1.521460783318318e-15 1.495713239093117e-34 9.379545838821252e-12 1.442308345154835e-14 0.000000000000000e+00 2.404199475148131e-16 4.717855509034088e-04 2.561460018494668e-02 1.285233621306857e-15 4.496922516794207e-10 5.851757757135656e-11 4.121216774445669e-11 2.675699534825909e-07 7.562898136143481e-08 3.790822518352378e-11 4.883034513514892e-12 5.557712756030178e-12 5.798099047495002e-42 1.481925711221638e-02 4.388113412076570e-11 2.215049821637886e-08 3.989997474354849e-08 1.854068051992354e-08 1.228114421353212e-11 3.136841576748359e-26 5.323962130499486e-03 1.314477033213128e-11 0.000000000000000e+00 8.532979099985512e-02 0.000000000000000e+00 1.930057444078779e-09 7.764142961857084e-09 1.872199931235253e-02 1.307671525344895e-10 5.636491091303068e-10 2.256518571661218e-20 2.436230964727876e-17 1.746469737810145e-11 9.564944812354503e-28 2.870831992219192e-12 6.886588659430832e-05 5.360265953919962e-12 7.105891968465477e-09 1.198854249907831e-13 1.020088516136713e-14 2.216977109719577e-31 5.120387451461167e-15 3.317409227476210e-05 1.199441753789396e-07 3.449216534183435e-14 2.773549607425351e-33 6.161234084214414e-16 1.160899799821457e-05 6.961810038714078e-08 3.802962807303934e-17 1.343793147761156e-17 5.064133212606705e-21 0.000000000000000e+00 1.707749057995570e-19 4.378491110003291e-17 2.880553223145027e-10 2.609120207766996e-24 2.083630333636474e-08 8.919466695370566e-21 0.000000000000000e+00 2.801216673821068e-07 6.361991574117529e-02 0.000000000000000e+00 1.424566642700623e-11 8.950779250966984e-25 5.266043391569030e-02 4.180570229624164e-11 8.521596901219274e-26 0.000000000000000e+00 4.037397741626874e-09 0.000000000000000e+00 2.028750369739236e-16 3.127069925651578e-03 1.980167825671680e-02 2.646162845757743e-07 0.000000000000000e+00 2.959462619109472e-09 9.745123541204625e-08 5.423672247976790e-02 4.518085183443451e-02 1.167721856810653e-09 3.464584541901662e-08 0.000000000000000e+00 0.000000000000000e+00 0.000000000000000e+00 1.627592345546471e-02 9.163576772963119e-03 1.459587968829245e-02 5.598543989101890e-10 7.799181906663813e-09 1.729289557191038e-13 0.000000000000000e+00 3.092491740841568e-05 1.264715773189709e-10 7.235000120836846e-04 2.411502747516160e-20 2.867423899504672e-15 5.469665426338800e-18 7.980466493807539e-07 4.240405677937873e-18 2.880283345164654e-19 2.278492748278075e-08 3.539757261135659e-11 4.416167294656491e-02 1.489217134047996e-03 3.642226213540664e-09 1.233877124956538e-07 1.984132336705839e-19 0.000000000000000e+00 2.044757075643870e-04 9.111104932038829e-36 1.486748078575566e-03 5.434073990250710e-14 2.369727411893489e-08 4.702695469676576e-08 4.917330366264351e-12 4.748285942703428e-28 4.781631069766498e-15 5.586285670076364e-22 1.546410918930562e-09 2.823057544737946e-17 0.000000000000000e+00 1.901478574870407e-04 4.076674079089015e-07 0.000000000000000e+00 1.202940261284376e-07 3.860134922594530e-10 7.802899056865760e-09 1.132948895696877e-09 2.181139581519766e-05 2.226701739740751e-03 2.691282979110570e-03 7.220635681026854e-08 2.847386938411053e-07 4.892528696682673e-12 3.401005064224610e-18 6.201121649091488e-03 4.418097401779978e-04 6.190407926071610e-10 1.299298674263599e-07 0.000000000000000e+00 9.408112182185926e-03 0.000000000000000e+00 4.762890750834801e-09 8.825692792560828e-04 1.957144889388700e-06 0.000000000000000e+00 6.512868601120708e-27 0.000000000000000e+00 4.909149380753494e-08 9.972282007023542e-08 2.535241532951671e-04 1.183770531946628e-27 1.676108443820255e-06 1.532823480059100e-18 3.996012415983087e-17 4.190382603107215e-37 1.499469053887588e-17 1.917657301439801e-16 1.504285065940760e-03 0.000000000000000e+00 2.080601472324256e-07 3.984566300896489e-07 7.250688079005689e-09 5.819396111774381e-12 2.179092854457007e-11 3.471094595478578e-26 2.114229549923638e-07 7.518252750114078e-05 1.140078222692654e-02 9.312101898030137e-08 5.993418661356667e-08 7.964954350952670e-16 1.531320394884566e-08 2.533038135150134e-10 6.280100621083630e-33 6.268846381003532e-15 2.990531111775539e-11 1.301568783675398e-09 5.449268910155544e-07 3.304377158315001e-02 3.071323483604143e-07 2.189097323098867e-10 3.255515867398401e-03 2.151519374651063e-03 7.599465624089268e-15 9.806089657259678e-05 1.563994395646338e-04 2.618079419368450e-11 0.000000000000000e+00 1.026401985261769e-17 4.841219792073364e-08 0.000000000000000e+00 2.987734838072868e-02 2.158004238095017e-02 1.326788005037097e-08 4.284836443817628e-12 3.237610629859455e-20 0.000000000000000e+00 0.000000000000000e+00 1.196778245508553e-12 6.957489222222022e-06 1.973455181265204e-13 5.214797071317070e-13 1.046816337607569e-11 2.213979502563673e-13 5.485762721687572e-11 5.311592707562864e-02 4.241897902752119e-02 4.453858406804354e-09 1.004571237990261e-27 2.663117772410054e-07 1.949133991658339e-17 3.627200172042764e-13 7.968547937129864e-13 4.878531256140315e-07 7.098263788792309e-29 2.759008138075989e-02 3.201459890861508e-16 3.017596739289329e-11 5.824777115446258e-16 0.000000000000000e+00 3.578339621672674e-11 3.419659295749689e-07 1.007618777325248e-16 2.477570879170177e-10 2.132058466243362e-04 5.732337103574508e-11 3.597902087055236e-13 0.000000000000000e+00 2.923142334689745e-37 6.531002796986824e-15 4.649807169795151e-09 0.000000000000000e+00 1.779320144968392e-11 2.787170583583198e-07 7.494731423466395e-06 2.437954376372201e-15 0.000000000000000e+00 4.712809635397745e-12 3.187439496322876e-07 6.359101966234769e-08 4.191710575428309e-08 2.415425740606729e-08 9.916992341977979e-15 0.000000000000000e+00 4.696944362529235e-12 6.365068191421716e-09 8.103603531963496e-16 6.379529007248402e-20 1.418343203672258e-10 3.820756821604646e-31 4.508441647884477e-14 1.153085173802765e-12 3.256024727727869e-12 1.145868426546097e-12 5.244557304580870e-13 2.114274091583764e-25 1.569445018615439e-13 0.000000000000000e+00 4.740621574146657e-15 3.424776894361160e-12 1.591323512425292e-08 1.116322736062503e-03 5.362625746895926e-07 1.545809083745944e-10 6.578101873078260e-12 3.222781749584531e-27 1.782828474096292e-08 1.061889704515632e-05 3.279983510140018e-06 9.095057690541871e-10 7.411494942105140e-11 1.409632340103618e-07 6.840617059910367e-08 4.364906478571919e-11 1.162433155153157e-13 2.233008114074899e-16 0.000000000000000e+00 0.000000000000000e+00 0.000000000000000e+00 1.882690125935666e-10 1.036803850044799e-08 2.609953668395570e-07 7.599875989051154e-08 0.000000000000000e+00 1.682402529080847e-14 5.304050311137565e-14 1.519463051950889e-15 5.526992490790417e-08 4.896258186068536e-35 1.243726862144579e-14 1.970430440846045e-15 1.720918524365223e-18 1.787622753804136e-16 3.556600052338962e-07 0.000000000000000e+00 6.195636473386701e-03 2.464768474986002e-07 7.696767405106780e-02 7.533644333963598e-02 2.205205839100928e-13 2.730105025717154e-07 2.388505641678387e-20 1.525456960672666e-21 0.000000000000000e+00 1.771504816320514e-09 1.342673414536152e-09 2.624417627617123e-29 4.255684093737123e-11 4.366729696277444e-13 0.000000000000000e+00 2.122614149967538e-05 1.213913999276761e-12 6.431395508672093e-02 7.618455629756621e-02 7.651760223906703e-02 6.465092812451327e-02 6.047535003020506e-02 6.209737029251949e-02 2.753842035100473e-09 2.096876597601333e-13 1.154145630195494e-39 1.304789476405169e-39 4.099866757277609e-13 1.383875121273127e-13 6.322321292103103e-08 2.391340981135352e-12 2.857938195981637e-03 2.341810383674892e-13 1.068340368409455e-08 1.082912027508641e-08 1.592903106297129e-08 5.688770161657748e-14 2.491674292976852e-23 4.723862683367407e-07 6.085021526904582e-08 3.710719192078729e-09 0.000000000000000e+00 2.130381424111911e-16 1.253824711494048e-08 7.721366925845094e-16 4.341287804835854e-18 5.203931324512735e-33 7.128634304931355e-10 1.025950427675923e-12 2.076506001296180e-23 1.895155687291171e-07 5.089430498852739e-12 5.921582664910659e-18 1.483706740685596e-10 3.025813154973819e-07 6.820399852393512e-16 6.226185617994722e-10 9.782330012071754e-10 7.423013263291733e-33 6.418918151874524e-35 2.011665480423993e-14 4.152890648937482e-10 2.705351477352340e-10 6.750436946094458e-08 0.000000000000000e+00 8.933953692926309e-02 8.933953956758649e-02 1.067876949295579e-13 2.657807361669130e-05 5.402621207660924e-32 1.085749987644888e-07 7.462310142282264e-09 1.254704218825887e-12 3.319518357486562e-11 2.782124658862396e-28 3.512858313417762e-07 5.910976009600410e-22 7.542261349907459e-02 7.542262133471875e-02 3.027220029696220e-14 3.175798198462932e-03 1.559264192595899e-03 1.673239192718964e-04 3.839100738356519e-08 7.307002862619283e-16 9.613282152323295e-03 5.544881831642522e-03 9.167729585907978e-10 4.154422051573694e-17 5.397014138487792e-08 7.255110562995275e-17 1.892809770281190e-18 2.459214641822773e-03 2.486019793187239e-36 6.245666215094239e-02 6.266842504803100e-02 1.367618392191005e-10 5.424377941953380e-10 2.092268212618861e-09 8.989449413228558e-11 6.454095216358320e-23 9.752072457242043e-13 2.153202039044806e-08 5.126247217500878e-07 3.478867652898721e-06 4.183213060188798e-07 4.172151905587072e-07 9.100824434644766e-13 1.555074274815119e-12 0.000000000000000e+00 2.385909453846784e-12 2.393902857961484e-05 5.036193477034747e-25 1.901289561739942e-26 1.958857128917074e-10 3.321667443439711e-11 7.291779929921757e-35 2.506878895497920e-07 1.355417761441894e-22 5.492592817703000e-10 1.716151783651029e-15 4.768949452328023e-10 8.289894438190509e-43 3.409639925839474e-18 6.894892102922589e-07 8.106402986707984e-09 9.152925608684839e-22 2.996891891536654e-37 7.530542641215647e-24 5.796792602059205e-11 1.662189708326076e-15 2.230540051179784e-07 9.672897293296767e-18 1.002892379202709e-07 3.286433731544143e-08 1.375826809502924e-07 2.192566397317458e-37 1.506541787901872e-02 4.024196515318748e-18 5.217835197254871e-06 4.330432415145479e-30 1.019691774068934e-10 1.446219811190111e-14 3.047793226596929e-25 2.268748626271211e-06 0.000000000000000e+00 0.000000000000000e+00 1.790537834433610e-07 2.443821579507703e-07 3.378162776747828e-12 0.000000000000000e+00 2.492464671687396e-02 3.202832754832236e-02 1.425568425377612e-07 8.227290489203196e-17 7.300240993016654e-37 1.558370799599523e-02 2.165863471920734e-16 6.058537080167370e-08 9.534428541753404e-08 4.619801280860893e-03 8.304908282000706e-03 7.335874635865932e-11 2.766139929134177e-15 1.192939838541433e-29 4.809602785932192e-14 1.603894135668266e-09 9.732496323621777e-10 4.684838616172571e-19 2.675413133098682e-14 5.875687072728409e-15 9.267342478658751e-09 0.000000000000000e+00 9.214131050336886e-03 1.899180880413220e-21 0.000000000000000e+00 2.700161302715286e-07 3.232679522477631e-02 6.321260190175665e-02 7.578579488877195e-02 5.178622630934674e-13 1.429242496178091e-15 0.000000000000000e+00 0.000000000000000e+00 5.575149363890180e-16 6.931547386777831e-08 4.060061951523332e-20 6.199208264947803e-08 4.954191182623389e-07 1.079183084070280e-31 1.069638486414210e-33 1.200284426910698e-07 1.411265383963376e-09 6.777642941992453e-08 4.363274507551160e-17 1.055554985660346e-20 4.281631499200672e-14 0.000000000000000e+00 2.081956141531097e-10 3.216089556017909e-24 4.227981285318116e-10 1.425406333937593e-14 6.474972686473451e-14 3.754804707961188e-11 6.272080558689866e-07 0.000000000000000e+00 6.684852573646856e-13 0.000000000000000e+00 1.522281210689561e-16 4.736237077567841e-16 1.062696069417732e-16 2.487629762235586e-02 0.000000000000000e+00 0.000000000000000e+00 5.962713158495273e-07 1.899199576426210e-03 2.305755243118807e-02 1.2357310