<?xml version="1.0"?>
<VTKFile type="UnstructuredGrid" version="0.1" byte_order="LittleEndian">
<UnstructuredGrid>
<Piece NumberOfPoints="714" NumberOfCells="1306">
<Points>
<DataArray type="Float64" NumberOfComponents="3" format="ascii">
0.000000000000000e+00 0.000000000000000e+00 0.000000000000000e+00 5.000000000000000e+00 0.000000000000000e+00 0.000000000000000e+00 5.000000000000000e+00 1.000000000000000e+00 0.000000000000000e+00 0.000000000000000e+00 1.000000000000000e+00 0.000000000000000e+00 9.999999999992801e-02 0.000000000000000e+00 0.000000000000000e+00 1.999999999998339e-01 0.000000000000000e+00 0.000000000000000e+00 2.999999999997341e-01 0.000000000000000e+00 0.000000000000000e+00 3.999999999996643e-01 0.000000000000000e+00 0.000000000000000e+00 4.999999999995944e-01 0.000000000000000e+00 0.000000000000000e+00 5.999999999995166e-01 0.000000000000000e+00 0.000000000000000e+00 6.999999999992880e-01 0.000000000000000e+00 0.000000000000000e+00 7.999999999989961e-01 0.000000000000000e+00 0.000000000000000e+00 8.999999999987042e-01 0.000000000000000e+00 0.000000000000000e+00 9.999999999984124e-01 0.000000000000000e+00 0.000000000000000e+00 1.099999999998120e+00 0.000000000000000e+00 0.000000000000000e+00 1.199999999997829e+00 0.000000000000000e+00 0.000000000000000e+00 1.299999999997537e+00 0.000000000000000e+00 0.000000000000000e+00 1.399999999997245e+00 0.000000000000000e+00 0.000000000000000e+00 1.499999999996953e+00 0.000000000000000e+00 0.000000000000000e+00 1.599999999996661e+00 0.000000000000000e+00 0.000000000000000e+00 1.699999999996369e+00 0.000000000000000e+00 0.000000000000000e+00 1.799999999996077e+00 0.000000000000000e+00 0.000000000000000e+00 1.899999999995785e+00 0.000000000000000e+00 0.000000000000000e+00 1.999999999995511e+00 0.000000000000000e+00 0.000000000000000e+00 2.099999999995593e+00 0.000000000000000e+00 0.000000000000000e+00 2.199999999995745e+00 0.000000000000000e+00 0.000000000000000e+00 2.299999999995897e+00 0.000000000000000e+00 0.000000000000000e+00 2.399999999996049e+00 0.000000000000000e+00 0.000000000000000e+00 2.499999999996201e+00 0.000000000000000e+00 0.000000000000000e+00 2.599999999996353e+00 0.000000000000000e+00 0.000000000000000e+00 2.699999999996505e+00 0.000000000000000e+00 0.000000000000000e+00 2.799999999996657e+00 0.000000000000000e+00 0.000000000000000e+00 2.899999999996809e+00 0.000000000000000e+00 0.000000000000000e+00 2.999999999996961e+00 0.000000000000000e+00 0.000000000000000e+00 3.099999999997114e+00 0.000000000000000e+00 0.000000000000000e+00 3.199999999997265e+00 0.000000000000000e+00 0.000000000000000e+00 3.299999999997417e+00 0.000000000000000e+00 0.000000000000000e+00 3.399999999997569e+00 0.000000000000000e+00 0.000000000000000e+00 3.499999999997721e+00 0.000000000000000e+00 0.000000000000000e+00 3.599999999997873e+00 0.000000000000000e+00 0.000000000000000e+00 3.699999999998025e+00 0.000000000000000e+00 0.000000000000000e+00 3.799999999998176e+00 0.000000000000000e+00 0.000000000000000e+00 3.899999999998329e+00 0.000000000000000e+00 0.000000000000000e+00 3.999999999998481e+00 0.000000000000000e+00 0.000000000000000e+00 4.099999999998633e+00 0.000000000000000e+00 0.000000000000000e+00 4.199999999998784e+00 0.000000000000000e+00 0.000000000000000e+00 4.299999999998937e+00 0.000000000000000e+00 0.000000000000000e+00 4.399999999999088e+00 0.000000000000000e+00 0.000000000000000e+00 4.499999999999240e+00 0.000000000000000e+00 0.000000000000000e+00 4.599999999999393e+00 0.000000000000000e+00 0.000000000000000e+00 4.699999999999545e+00 0.000000000000000e+00 0.000000000000000e+00 4.799999999999696e+00 0.000000000000000e+00 0.000000000000000e+00 4.899999999999848e+00 0.000000000000000e+00 0.000000000000000e+00 5.000000000000000e+00 9.999999999981467e-02 0.000000000000000e+00 5.000000000000000e+00 1.999999999995579e-01 0.000000000000000e+00 5.000000000000000e+00 2.999999999992664e-01 0.000000000000000e+00 5.000000000000000e+00 3.999999999989749e-01 0.000000000000000e+00 5.000000000000000e+00 4.999999999986943e-01 0.000000000000000e+00 5.000000000000000e+00 5.999999999989468e-01 0.000000000000000e+00 5.000000000000000e+00 6.999999999992100e-01 0.000000000000000e+00 5.000000000000000e+00 7.999999999994734e-01 0.000000000000000e+00 5.000000000000000e+00 8.999999999997368e-01 0.000000000000000e+00 4.899999999999999e+00 1.000000000000000e+00 0.000000000000000e+00 4.800000000000000e+00 1.000000000000000e+00 0.000000000000000e+00 4.699999999999999e+00 1.000000000000000e+00 0.000000000000000e+00 4.600000000000000e+00 1.000000000000000e+00 0.000000000000000e+00 4.499999999999999e+00 1.000000000000000e+00 0.000000000000000e+00 4.399999999999999e+00 1.000000000000000e+00 0.000000000000000e+00 4.299999999999999e+00 1.000000000000000e+00 0.000000000000000e+00 4.199999999999998e+00 1.000000000000000e+00 0.000000000000000e+00 4.099999999999999e+00 1.000000000000000e+00 0.000000000000000e+00 3.999999999999999e+00 1.000000000000000e+00 0.000000000000000e+00 3.899999999999999e+00 1.000000000000000e+00 0.000000000000000e+00 3.799999999999999e+00 1.000000000000000e+00 0.000000000000000e+00 3.699999999999998e+00 1.000000000000000e+00 0.000000000000000e+00 3.599999999999999e+00 1.000000000000000e+00 0.000000000000000e+00 3.499999999999999e+00 1.000000000000000e+00 0.000000000000000e+00 3.399999999999999e+00 1.000000000000000e+00 0.000000000000000e+00 3.299999999999999e+00 1.000000000000000e+00 0.000000000000000e+00 3.199999999999998e+00 1.000000000000000e+00 0.000000000000000e+00 3.099999999999999e+00 1.000000000000000e+00 0.000000000000000e+00 2.999999999999999e+00 1.000000000000000e+00 0.000000000000000e+00 2.899999999999999e+00 1.000000000000000e+00 0.000000000000000e+00 2.799999999999999e+00 1.000000000000000e+00 0.000000000000000e+00 2.699999999999999e+00 1.000000000000000e+00 0.000000000000000e+00 2.599999999999999e+00 1.000000000000000e+00 0.000000000000000e+00 2.500000000000000e+00 1.000000000000000e+00 0.000000000000000e+00 2.399999999999999e+00 1.000000000000000e+00 0.000000000000000e+00 2.299999999999999e+00 1.000000000000000e+00 0.000000000000000e+00 2.199999999999999e+00 1.000000000000000e+00 0.000000000000000e+00 2.100000000000000e+00 1.000000000000000e+00 0.000000000000000e+00 2.000000000000000e+00 1.000000000000000e+00 0.000000000000000e+00 1.899999999999999e+00 1.000000000000000e+00 0.000000000000000e+00 1.799999999999999e+00 1.000000000000000e+00 0.000000000000000e+00 1.699999999999999e+00 1.000000000000000e+00 0.000000000000000e+00 1.599999999999999e+00 1.000000000000000e+00 0.000000000000000e+00 1.500000000000000e+00 1.000000000000000e+00 0.000000000000000e+00 1.399999999999999e+00 1.000000000000000e+00 0.000000000000000e+00 1.299999999999999e+00 1.000000000000000e+00 0.000000000000000e+00 1.199999999999999e+00 1.000000000000000e+00 0.000000000000000e+00 1.100000000000000e+00 1.000000000000000e+00 0.000000000000000e+00 9.999999999999991e-01 1.000000000000000e+00 0.000000000000000e+00 8.999999999999995e-01 1.000000000000000e+00 0.000000000000000e+00 7.999999999999998e-01 1.000000000000000e+00 0.000000000000000e+00 7.000000000000002e-01 1.000000000000000e+00 0.000000000000000e+00 5.999999999999996e-01 1.000000000000000e+00 0.000000000000000e+00 4.999999999999991e-01 1.000000000000000e+00 0.000000000000000e+00 3.999999999999995e-01 1.000000000000000e+00 0.000000000000000e+00 3.000000000000007e-01 1.000000000000000e+00 0.000000000000000e+00 1.999999999999993e-01 1.000000000000000e+00 0.000000000000000e+00 9.999999999999964e-02 1.000000000000000e+00 0.000000000000000e+00 0.000000000000000e+00 8.999999999995836e-01 0.000000000000000e+00 0.000000000000000e+00 7.999999999999998e-01 0.000000000000000e+00 0.000000000000000e+00 7.000000000006934e-01 0.000000000000000e+00 0.000000000000000e+00 6.000000000013869e-01 0.000000000000000e+00 0.000000000000000e+00 5.000000000020587e-01 0.000000000000000e+00 0.000000000000000e+00 4.000000000016644e-01 0.000000000000000e+00 0.000000000000000e+00 3.000000000012483e-01 0.000000000000000e+00 0.000000000000000e+00 2.000000000008322e-01 0.000000000000000e+00 0.000000000000000e+00 1.000000000004160e-01 0.000000000000000e+00 7.477570327540725e-01 4.905967956478702e-01 0.000000000000000e+00 1.346210646643281e+00 4.806066422083806e-01 0.000000000000000e+00 1.949496869330408e+00 5.032480558805372e-01 0.000000000000000e+00 4.449999999999997e+00 5.000000000000384e-01 0.000000000000000e+00 3.859142349610828e+00 5.103468031113156e-01 0.000000000000000e+00 3.246530027037640e+00 5.183101712757180e-01 0.000000000000000e+00 2.657531292711257e+00 5.037429884868682e-01 0.000000000000000e+00 3.824015840967434e-01 6.064457502813875e-01 0.000000000000000e+00 2.306343155343502e+00 6.315316747431162e-01 0.000000000000000e+00 1.049999999998266e+00 3.374999999994497e-01 0.000000000000000e+00 1.641930697057102e+00 3.436055112169133e-01 0.000000000000000e+00 4.150000000000006e+00 6.625000000000185e-01 0.000000000000000e+00 3.552784161359181e+00 6.642488388863971e-01 0.000000000000000e+00 2.940292465243163e+00 6.575992780735344e-01 0.000000000000000e+00 1.641237689750194e+00 6.703960699373966e-01 0.000000000000000e+00 1.050000000000000e+00 6.706367924525535e-01 0.000000000000000e+00 2.960517759676693e+00 3.261740577967960e-01 0.000000000000000e+00 3.551899302943298e+00 3.210887133285832e-01 0.000000000000000e+00 4.150779393876139e+00 3.209867287821391e-01 0.000000000000000e+00 2.213980362532827e+00 3.194901812685164e-01 0.000000000000000e+00 4.927283029162088e-01 3.252862896001115e-01 0.000000000000000e+00 4.696684455724628e+00 3.145438084075651e-01 0.000000000000000e+00 4.690990908683984e+00 6.962960281446974e-01 0.000000000000000e+00 2.487221901830106e+00 2.763334294511438e-01 0.000000000000000e+00 6.215262983536076e-01 7.328515730233995e-01 0.000000000000000e+00 2.065768881873406e+00 7.342557316219342e-01 0.000000000000000e+00 2.543072460766750e+00 7.257064952909391e-01 0.000000000000000e+00 8.105176211436336e-01 2.535517621144286e-01 0.0000000000000
[...]
<CellData Scalars="A_conc,As-lin_conc,Bs-lang_conc,Cs-freund_conc," Vectors="" Tensors="">
<DataArray type="Float64" Name="A_conc" format="ascii">
2.976998318139119e-01 6.948464419280923e-01 3.651694392570358e-01 2.514308350643220e-01 6.513896950476523e-01 4.724391436922655e-01 4.785075581035544e-01 6.013716922048128e-01 6.836702995757600e-01 2.584683158278031e-01 3.778321953971350e-01 3.076315301637059e-01 1.061090634486432e-02 3.853646441527762e-01 2.671071055836376e-03 3.060062357650882e-01 1.195757147325747e-01 1.274616547049487e-01 4.521619471111117e-01 1.877253820890544e-01 7.446546654193800e-02 1.373169222632355e-02 2.630141659791033e-01 2.662386666853994e-01 4.985154531034522e-02 2.587371284168903e-01 3.148647068921065e-01 6.385719451783948e-01 1.988263219389985e-02 9.427264370283832e-04 2.154279397138190e-03 6.055864680102894e-02 1.953864276175660e-01 2.997487373914244e-01 4.568261802121819e-01 6.718681756352609e-01 3.023021871666106e-01 3.596645720707029e-03 2.524739716096638e-01 6.560293592271405e-01 3.931485409467057e-01 5.674461084406539e-02 2.915902095024382e-01 2.406667667835243e-01 5.571239024263504e-02 4.743688795351932e-01 1.521652473710567e-01 5.436885220079513e-01 4.523029913047557e-01 4.675730735965123e-01 6.825983112174977e-01 2.330855104939361e-02 3.890163043708328e-01 6.655933084866417e-01 6.794227377955858e-01 7.038951855979017e-01 8.474576853483581e-02 5.968095570922503e-01 6.316199725502121e-01 1.386076745255913e-03 4.163778447792045e-01 5.991651931885941e-01 5.110559627206988e-01 1.920943763706911e-01 6.368840095748145e-02 4.885307548730895e-01 5.420651709621723e-01 1.532440815952400e-01 6.905885366592438e-01 6.256153697007761e-01 7.508921350121950e-03 3.368631399037564e-01 2.817108458959353e-01 1.460220886043320e-01 5.510880844735878e-01 4.601554557891606e-01 1.208116366286282e-01 4.748616319361970e-01 5.646599298347097e-01 9.767791300801829e-03 3.255871759469485e-01 4.573517305045887e-01 3.289304488064257e-01 4.010225961684724e-01 5.243448905982688e-01 1.301673406458067e-01 4.675403877441646e-01 5.576343918986876e-01 1.877207974459670e-01 1.719261232935285e-01 4.344310709451340e-01 5.257654766601573e-01 6.147678286494397e-01 5.174105655194705e-01 4.639523593687801e-01 1.813341589056453e-01 5.161770008372030e-01 6.030656667573773e-01 3.572397014374034e-01 6.315220226490197e-01 2.753313404680008e-01 1.837375769073910e-01 1.917813960575140e-01 5.183839186701653e-01 1.342024773086309e-01 5.543466695382835e-01 5.418976784772667e-02 6.414400175033890e-01 1.244483937944832e-01 5.611396992160906e-01 1.259547629085795e-02 1.310143065590761e-03 1.005367869434820e-03 2.077938848652082e-01 1.168436799042558e-02 6.073338496503526e-01 2.581317239776105e-03 4.555581272860545e-03 1.166693824343849e-01 6.381983105000342e-01 1.257646641394863e-01 2.317043634733688e-01 3.416076754816459e-01 1.842328881666298e-03 6.336275846618832e-01 3.735866721122429e-02 3.733228780348148e-01 5.460598411797582e-02 6.130489911195950e-01 5.774516047109647e-01 4.624739754869388e-01 1.179742853237764e-01 5.661770289009753e-01 5.837495334539826e-01 4.940402212911795e-01 1.567307245083984e-02 3.499447215071160e-03 7.000054188482819e-01 5.372273357805831e-01 4.903262648237097e-01 3.532900170826321e-02 6.319541561360851e-01 1.961088239733921e-01 2.163981128594548e-01 4.262116229536538e-01 4.202917339779670e-01 5.543938458283304e-01 1.338947961417962e-01 4.742104603139030e-01 5.609443357960213e-01 1.278336554906302e-01 4.697033004153023e-01 4.964339882871037e-01 5.336669782411884e-01 1.632713988604970e-01 4.166387094250906e-01 5.392498660488482e-02 6.144485270759128e-01 2.429455869569607e-01 4.087337141098414e-01 1.096234475793335e-01 5.749297909688580e-01 3.355518489956052e-01 3.513217630247243e-01 2.682935106898566e-01 3.524964517339419e-03 2.698890988685916e-03 2.402356415328061e-01 2.427051094313714e-01 4.104278680544333e-01 3.412652546446904e-02 3.024525592880290e-03 4.205188687653764e-01 4.137465592195486e-01 3.077986910447447e-02 5.067778083711003e-01 5.952446409188782e-01 3.491069122663782e-01 3.020597505733753e-01 9.265051738043367e-02 5.140242880418484e-01 6.020628999794504e-01 6.603361947398422e-01 2.273453104845392e-01 2.946130963213106e-01 6.585325835570666e-02 6.583296685456880e-02 2.342016370176939e-01 3.679966513628190e-01 2.712011128231004e-03 2.902001018679488e-01 4.072974771987614e-04 1.425396741003257e-01 1.325876865314119e-02 3.752536181533636e-02 8.840732792412358e-03 9.681382903629203e-02 2.858125279690672e-02 3.146034677119017e-01 3.199711270054849e-01 2.231885034374072e-03 2.043686297062853e-01 7.177671516004631e-01 2.471544369169678e-01 5.030719278090939e-01 5.923329976047911e-01 2.221530530222950e-01 1.838841590979114e-01 2.419710198613690e-01 6.696361666145333e-01 6.551772548644461e-02 3.583407499299369e-01 4.882823780996336e-01 2.947544471133882e-01 8.470085008966143e-03 2.447682320912638e-01 1.467900362899830e-03 2.323054970801653e-01 4.039850694649239e-03 4.578518367192418e-01 4.521432873671523e-01 6.460444631834877e-01 7.530987116323434e-03 2.656484139054143e-01 2.708247728876435e-01 7.106485187474793e-01 4.184269716188214e-02 2.727458116642866e-01 3.964275994684753e-01 1.097595116345407e-02 1.343962014938167e-02 3.261038753805574e-02 2.387644917088409e-03 2.402594115247088e-01 4.998476589763242e-01 5.297172665093302e-01 5.452914917528695e-01 4.849334024152300e-01 7.755705376361891e-03 4.040764912852301e-01 5.530357639808623e-01 1.379368901010992e-01 4.772602789369824e-01 1.842676310175329e-01 4.259055217929466e-01 5.180328255674312e-01 6.068715656857711e-01 4.036154447150120e-01 8.908974161282815e-02 3.972528593920616e-01 1.824737239867611e-01 7.256742736778334e-02 4.241512676940676e-01 5.191391299335599e-01 6.063368138493714e-01 6.064385837570712e-01 1.641700245517185e-02 3.058374110037948e-01 1.512627612094124e-01 3.879951325163156e-01 2.086056224249907e-01 2.955123784805919e-01 5.299303265538614e-01 5.235943030636911e-01 5.217812948518846e-03 1.945961559691762e-01 2.460438390650677e-01 4.635281723567571e-03 2.876364773042339e-01 4.025389563937671e-01 1.458256067902449e-01 1.270050965973175e-01 5.615874139635029e-01 4.693379670594558e-01 3.811886741382441e-01 2.315976654195046e-01 3.637755472489614e-01 6.537096493812001e-03 2.216308684678464e-03 2.758389619157523e-03 1.021542091949243e-01 5.716900132821249e-01 2.313362346544055e-01 1.002543576272067e-02 6.403466762917629e-01 6.027617522779764e-02 1.658745526285191e-02 1.641769872793958e-02 4.963753138468389e-01 5.349309062243160e-01 1.645176780642217e-01 1.360503712801049e-01 2.750701647020281e-01 2.836850841006915e-01 4.462676700760042e-01 6.085885832490963e-04 1.793424298926597e-01 3.356660973693610e-03 3.965943604964428e-01 3.107192501533166e-01 4.338390407600285e-01 2.542271649527973e-01 5.253695719298377e-01 6.129262621655812e-01 2.980805576679904e-01 1.902381471829355e-03 1.969092390237155e-03 6.348801401305182e-01 5.311736148286058e-01 4.402843728185248e-01 5.378965068892245e-01 4.461261867589025e-01 4.099897614705156e-01 1.930794959130987e-03 4.180205103740580e-01 2.935555923541370e-01 3.209181158776028e-01 3.275200782822145e-01 6.838478468954459e-01 5.970449472252297e-01 5.916478075529172e-01 7.929359097016696e-02 8.628137543412143e-02 4.377232005721255e-03 1.844038511997550e-01 5.197201116732587e-01 5.122847230406220e-01 8.929525172543443e-02 4.363139673072048e-01 1.331261705694283e-01 7.009370370361870e-01 6.974312562794008e-01 6.981070148127958e-01 7.005609964932575e-01 6.283558629182073e-01 2.283741126138734e-01 8.680544959773428e-03 2.689221170445199e-02 5.004478165726991e-01 2.690449923883801e-01 2.793957874036965e-01 5.924108769806547e-03 3.674342175260360e-01 6.629336739784970e-01 3.795679584927707e-01 9.511310846782904e-03 2.940894888784801e-01 3.862380883754710e-01 2.763894074181197e-02 3.342195673790915e-01 7.129735474582712e-01 3.595755606694425e-01 4.018582285327851e-04 2.684183556377492e-01 7.087848861584231e-02 6.034769488430255e-01 1.306356813151143e-02 1.619611550575470e-02 1.663119948970869e-01 2.188766178311399e-02 4.231675971586114e-02 2.049245496303183e-01 1.005238151318412e-01 5.821967048553930e-01 9.027718769753625e-02 5.845141427282734e-01 1.746268565251723e-01 5.273683078893682e-01 5.038047878835664e-01 6.888729697159131e-01 7.182629084688794e-01 7.182629119809282e-01 6.489308343232718e-01 6.480073010003444e-01 4.309184900651933e-01 5.823013236752166e-02 6.122369303864258e-01 7.986785545643428e-02 5.951681602463550e-01 2.013997813378861e-01 6.879187602741766e-01 1.625353002516410e-01 1.571148515159357e-01 5.388805665698715e-01 4.482970572429807e-01 3.431038858199247e-01 9.626349548536972e-03 3.127679914572397e-01 3.097835964401267e-01 6.465639613307780e-01 6.865163047330922e-01 2.377803336367197e-01 8.294356926053291e-02 3.724779098467838e-01 2.617800530780479e-01 1.199253964547725e-01 1.220784652527821e-01 5.693478849890026e-01 5.609136091227360e-01 1.270292447306224e-03 4.220189231494642e-01 6.784780900229256e-01 3.657565883484972e-01 9.887818174633247e-04 1.064617025081255e-01 1.136655338492381e-02 8.954279122270422e-03 4.747334849528790e-01 6.662814396000896e-01 5.652565234328034e-01 4.087805111102994e-01 7.179041819570038e-01 4.098836680763015e-01 9.066352004972743e-02 5.880901216622169e-01 6.816394436799466e-01 5.796897905723203e-04 2.084638403130218e-02 5.060375769464770e-01 2.841193753022340e-01 1.298239113889112e-01 4.687037897032664e-01 5.592597664180494e-01 6.335131424353797e-01 2.578874341035282e-01 3.153259412575452e-01 2.153632850321113e-01 1.537713976967113e-01 4.489241389010198e-01 5.397143088313398e-01 6.287193117346737e-01 2.812614635152837e-01 1.634346248639374e-01 4.425971830187513e-01 5.345379686909019e-01 6.231853720709188e-01 2.128805977508444e-01 1.737453943829864e-01 5.263369810540612e-01 5.039963014494204e-01 4.174572230751463e-01 5.074517173084611e-01 5.238342135551655e-01 5.782483699628291e-01 4.879029621270684e-01 5.914055625076415e-01 5.018006921090417e-01 3.567086626260849e-01 4.765160072406471e-02 7.073172293730445e-01 3.645904425621467e-01 1.701220748748559e-03 4.820537877044635e-01 7.018447024447340e-01 5.709652500835762e-01 4.802000815586464e-01 4.069752172275802e-01 2.316786679489856e-01 3.099236800754383e-01 8.319766426855052e-02 6.610133302254908e-01 6.829108597997852e-01 9.902187096781098e-02 3.463393108990414e-01 3.631476149962530e-01 2.415621946119022e-01 7.026848317373902e-01 6.980343232099279e-01 8.332237991503025e-02 5.941186153699579e-01 3.916346165205233e-01 3.936708870197873e-01 4.140988112935932e-01 6.799824653219896e-01 6.721897932564788e-01 6.778153853513267e-01 5.579372269732147e-04 2.207275903869745e-01 2.563444993628458e-02 3.503872220609071e-01 6.282668494066225e-01 5.388107655963496e-04 6.490015667818393e-01 5.080909798538671e-01 1.603474795285881e-02 1.948363344334452e-01 6.106307846594270e-01 5.165439441000339e-01 5.089535942973378e-01 1.203643325734187e-01 5.668157380099328e-01 6.975552766448025e-01 6.548861280830316e-01 5.858420645764125e-01 5.999913295559105e-01 5.107523336129922e-01 3.750241306596190e-01 6.401984618302000e-01 4.417403375911449e-01 6.558440937869154e-01 4.269379855407551e-04 4.132655390970019e-02 1.224100175447294e-01 5.642310326634947e-01 4.749786521361629e-01 5.371797791494033e-01 4.929634538761783e-01 1.753186604397011e-01 1.201608387636620e-03 3.000876303799473e-01 6.419179185601388e-01 2.324109174108865e-01 3.506345460445824e-01 3.366978099972337e-02 3.187499813057970e-01 1.010738652028505e-01 5.794602425358616e-01 6.251632473849829e-01 6.571828811534877e-01 6.592409410411127e-01 6.937141647077044e-02 7.949566312899314e-02 3.044621036716975e-01 1.062877228934528e-01 6.678418787469425e-01 6.454920175226684e-01 7.501121990673293e-02 5.995070796781493e-01 4.176612256738019e-01 6.721564477182075e-01 4.257157665231370e-01 1.122782441157182e-03 6.508517706360313e-01 6.119491880372422e-01 3.806092672691942e-01 4.720138628660621e-01 3.993954991576821e-01 5.002834494924174e-02 2.747544370576351e-01 6.413919941567265e-01 4.646539627211443e-01 6.142611917349741e-01 1.730481865125592e-01 5.264092652366931e-01 4.336394703595919e-01 3.424559353616921e-03 2.144687587903111e-01 6.543226719794966e-01 3.948044636397091e-01 2.411663280435222e-01 3.579345164423624e-02 2.761976982553477e-01 1.183535668325015e-01 5.665974922026030e-01 4.764921015814845e-01 2.220133250626773e-01 6.330548602068613e-01 6.750261501527548e-01 6.707966538320321e-04 4.855507362154300e-04 3.344165961486035e-03 2.859159272425502e-01 1.583779175026572e-01 4.501251681392778e-01 5.422528313884876e-01 9.790435646751816e-02 5.813502501634912e-01 1.970190620417051e-01 6.909926592159314e-01 1.891097325483581e-01 7.126837544780611e-04 6.613506796464944e-01 6.575741878616621e-01 1.467924453273568e-03 6.353035322760041e-01 6.394627928980698e-01 3.042529870449181e-01 4.110532479059582e-01 5.251990204676800e-01 2.628566471550136e-01 3.822317937931079e-01 6.888965497253668e-01 6.832648443857900e-01 3.338065961739018e-01 2.024473968445659e-02 5.080952503550180e-01 3.448145373223896e-01 3.820792240137249e-01 4.480737794066095e-02 6.198038204271750e-01 9.548830775494400e-02 1.120529531536667e-01 5.724634213505682e-01 1.053236741662474e-01 5.770360862739029e-01 7.020896343762493e-01 6.964147351742238e-01 3.318195161369670e-01 4.680299071389248e-01 7.017716013409189e-03 4.337705647478882e-02 1.179641146144615e-03 5.575205729378385e-01 1.355822993018063e-01 4.669297664387916e-01 6.877715523084528e-01 2.283166135885559e-01 2.248619828475324e-01 9.040505208815333e-04 3.714904246779699e-01 6.694272338382963e-03 6.359119570341172e-02 5.828863653816894e-04 7.872183039432192e-04 6.397698504937459e-01 1.150425665610432e-02 8.414918729708024e-03 3.283110525942827e-01 4.379633624558514e-01 8.828799738243084e-02 5.913821879669672e-01 3.887495174846328e-01 3.117046060217809e-01 2.679876229448391e-01 6.194648121359730e-01 2.104594150866004e-01 3.447678757641015e-01 2.803193543458168e-02 8.006957413462644e-02 8.106926452743807e-02 5.974492305067064e-01 5.921373918114010e-01 2.011544114689962e-01 2.934463940614319e-01 5.587813325809450e-01 1.344038397426455e-01 5.401204171488229e-02 5.110103522140941e-01 1.511660971054251e-01 4.561680547860769e-01 5.473087776700285e-01 1.063669864062651e-02 1.293844562162010e-02 6.115425186255862e-03 5.517667467921759e-01 4.794134092950715e-01 3.183337746266990e-01 3.857038277781314e-01 4.715591903898726e-03 3.796870958432556e-03 5.351442939892349e-04 6.541245045003334e-01 1.860858944078362e-02 7.402681997682624e-02 5.648601494132370e-01 4.747024557354288e-01 8.918856517037481e-02 6.225780874503015e-01 6.185146328454487e-01 1.675270158957225e-01 6.911285316780959e-02 6.018501356982541e-01 5.720737337196414e-02 2.171429192988282e-01 3.246783903416482e-02 1.686187981472483e-03 3.287858289301709e-01 3.962385230231478e-01 3.353555242009535e-01 2.385817981325993e-01 7.982102477856556e-02 6.072005876109308e-01 6.026440652756879e-01 4.247505245111712e-01 6.701697587862829e-02 7.357699455157389e-02 1.937011400993492e-01 3.728426179338020e-01 4.398532660196884e-01 2.534880094359347e-01 1.181922654579377e-03 1.409623320333059e-03 5.323125675367913e-01 1.092441250636426e-01 4.018939765851388e-01 6.678338120347296e-01 2.232496801858335e-01 7.138551482242568e-01 7.130562769602365e-01 3.541529737705328e-01 6.566498657816553e-03 5.032813056490377e-01 4.976511601785641e-01 4.303650539986138e-01 3.545060906283619e-01 3.484693625053503e-01 4.623834636406621e-01 1.398561772980705e-01 5.536467580064027e-01 3.767454014208446e-01 6.256306141980419e-01 2.694643077727382e-01 7.076674675914973e-01 7.134703657535220e-01 7.136326681504785e-01 7.078362859736822e-01 7.057381675582162e-01 7.065611758788091e-01 2.256539762188198e-01 5.514642032397588e-01 4.327970215492296e-01 4.300468634992003e-01 4.913049735691396e-03 3.447532075591830e-01 5.301825572221635e-03 2.438138966185124e-02 6.611384112140958e-01 3.509036252532907e-01 3.555943116232166e-01 1.440550511094949e-01 1.516721799256722e-01 5.461674860257304e-01 4.852864204275033e-01 5.532852901196353e-02 3.553045883327045e-01 2.014069651235569e-01 3.833555732917611e-01 1.065442243524264e-02 7.273806624426367e-03 2.079824395634728e-03 3.870719604234626e-02 4.462947320282078e-01 5.782407804305157e-01 1.042824548624588e-01 4.884356238946692e-01 2.886905610475836e-01 1.056439774522725e-03 9.134460155196655e-04 3.451033736884598e-02 3.666277720204898e-02 5.362196137067611e-01 4.668765978353069e-02 2.177295010032252e-01 4.478037880618600e-01 4.437569531602226e-01 1.128334303178968e-01 5.786603579405152e-01 2.006756062071848e-01 1.145496736443355e-01 4.308207926708280e-01 7.198510664119976e-01 7.198510676895997e-01 4.365458945014033e-02 6.268190135718291e-01 4.512675571879338e-01 3.229997452592853e-01 4.087239405683548e-04 5.620890009260540e-01 1.274038679465964e-01 4.687503040323898e-01 1.772005541979053e-02 4.971705524560322e-01 7.130986308516842e-01 7.130986347007842e-01 5.461150283970816e-01 6.609766211218239e-01 6.546647081322903e-01 6.378300009406903e-01 3.927828085239780e-03 3.770142723991096e-03 6.729101789599026e-01 6.668604145565094e-01 3.411235494493507e-01 8.131449038854129e-03 2.057882348760902e-01 4.524164241150271e-03 4.943824911685291e-03 6.589119486692522e-01 4.376094520761288e-01 7.067385789915621e-01 7.068475634741527e-01 2.417131673882930e-01 1.669353776879320e-01 5.841229189577225e-01 9.762869305579766e-02 4.951923958234242e-01 2.017623147222696e-02 6.530359489167570e-02 6.053560207654692e-01 6.185181536764210e-01 1.714209577142309e-01 2.134855135553585e-01 3.320026243919131e-01 3.378298376901029e-01 4.035006386190749e-01 1.877993063309844e-01 6.269794572996283e-01 4.879163834677368e-01 4.821483024828669e-01 5.767593457562608e-01 5.706968436820703e-01 4.383358325674626e-01 1.816335272056027e-01 4.961802211885722e-01 1.611007193913838e-01 5.384024915801304e-01 2.092453730472248e-01 4.282198320285246e-01 5.204703450593665e-01 6.082613397563293e-01 5.886076396584388e-01 4.999249639436594e-01 4.311987696058514e-01 4.903827256656051e-01 1.559126172379514e-01 5.422463755356014e-01 9.031675929212835e-03 6.461531474096291e-03 2.527955572184558e-02 7.400401034962290e-02 5.994985607734620e-01 4.333591819171969e-01 6.783447791594083e-01 5.158689971147911e-01 6.180389746164567e-01 4.594039356997385e-01 1.464269596312752e-01 5.479836227594981e-01 4.834474544295549e-01 6.144624790557477e-01 4.027696228262946e-01 3.948680254670673e-01 2.857181354901117e-01 3.215830555650263e-02 5.791929634231929e-02 4.128662659117106e-01 6.864398798754543e-01 6.907506737779245e-01 3.057171586492470e-01 5.304375686661460e-01 4.381937780040303e-01 6.794773857946396e-01 3.070764125411583e-03 4.484198887792363e-04 6.098512803582177e-04 6.648937871344929e-01 6.711482807245399e-01 2.343942915293813e-01 1.438206690458761e-01 4.563195527041060e-01 5.466211767390400e-01 7.689903719139568e-04 5.810677777320242e-04 5.167054615324261e-01 2.219366442897521e-01 3.072807726265184e-01 3.486429197706414e-01 2.785053068903255e-01 6.725135285814958e-01 1.243269439218017e-01 3.367548795537739e-01 4.411018712807154e-03 6.907303384756852e-01 7.071149293510247e-01 7.132731611993930e-01 5.535562959103406e-01 2.229841734490433e-01 3.610747222290808e-01 3.670005522712869e-01 2.284837284023252e-02 5.969591856295751e-01 5.097881477215290e-01 4.059054201664201e-02 1.240923955477652e-02 4.547332854732898e-01 4.480210371896976e-01 2.552550444514378e-02 1.699611933494144e-03 1.754462868430953e-01 5.110496795998130e-02 1.480205348776055e-01 4.332547839319442e-02 3.381492869721370e-01 1.040524450204792e-01 4.892845112994315e-01 5.785401164790789e-01 3.140334296059123e-01 3.219356042607345e-01 6.266984686604195e-02 6.088982097112973e-01 2.867122058139348e-01 5.544132599989017e-01 3.877102259815421e-01 2.950163091904519e-01 3.027846130370112e-01 5.308195376018003e-01 6.864056278806929e-01 3.247810548397397e-01 3.307192263018598e-01 4.155380090001791e-02 6.569875181118493e-01 6.847498836069021e-01 2.3168606