<?xml version="1.0"?>
<VTKFile type="UnstructuredGrid" version="0.1" byte_order="LittleEndian">
<UnstructuredGrid>
<Piece NumberOfPoints="133" NumberOfCells="393">
<Points>
<DataArray type="Float64" NumberOfComponents="3" format="ascii">
0 0 -0.24999999999941211 0 0 -0.49999999999869432 0 0 -0.74999999999934164 0 0 0 0 0 -1 0 0.1419064153440632 -0.85809358465605046 0.14138946044788619 0.141933462342688 -1 0.17663550269374309 0.2000173280584561 -0.80767327345777706 0.14192670059260701 0 -0.85802340138044431 0.49924645474497431 0.19077333889470441 -1 0.27864353689002019 0 -0.72105707495041649 0.24999999999941211 0 0 0.24999999999941211 0 -1 0 0.27852182539691489 -0.72147817460311425 0.49999999999869432 0 0 0.49999999999869432 0 -1 0.36400213509809493 0.30340182266465199 -0.71803582340462213 0.49631982208178133 0.49903983155338327 -1 0.27542009602191558 0.2786841073879448 -1 0.19232253086422449 0.50146053791918455 -1 0 0.50023418051147772 -0.80910018661861283 0 0.72340718694886286 -0.72340718694880013 0 0.80935234175974147 -0.50021433470480037 0 1 -0.74999999999934164 0 0.85590277777789092 -0.85590277777763279 0.14190641534415949 0.85809358465625163 -1 0.14141650744674819 1 -0.85809358465604513 0.4995456570474846 0.80901946774026934 -1 0.49967339473549249 1 -0.80913800705467398 0.27558237801302449 1 -0.72147817460308317 0.49999999999996553 1 -0.50000000000003098 0 0.25000000000104028 -1 0 0.25000000000104028 0 0.42348748445510859 0.67651247978210449 -0.75231254100799561 0.27852182539691328 0.7214781746031842 -1 0 0.50000000000205869 -1 0 0.50000000000205869 0 0.72106926594561294 0.72137148922016592 -1 0.72147817460319108 1 -0.72147817460312469 0 0.75000000000034661 -1 0.85809358465621599 1 -0.8580935846559189 0 0.75000000000034661 0 0.85802543321328628 0.85807580375875903 -1 1 0.85809358465601437 -0.85809358465601437 1 1 -0.74999999999934164 0 1 0 0 1 -1 1 0.72147817460311847 -0.72147817460311847 0.764412522315979 0.67651247978210449 -0.75231254100799561 0.80868366410180859 0.49988146068535011 -1 1 0.49999999999972489 -0.80913800705468164 0.764412522315979 0.33558750152587891 -0.75231254100799561 0.25000000000104028 1 0 0.25000000000104028 1 -1 1 0.14190641534373399 -0.85809358465589558 0.85809358465601437 0 -0.85809358465601437 0.85809358465589669 0.14190641534373391 -1 0.50013523499221102 0 -0.80867011855167226 0.72147817460313113 0.27852182539678161 -1 0.72147817460311847 0 -0.72147817460311858 1 0.19232253086420811 -0.50146053791859801 1 0.27852182539678272 -0.72147817460312469 1 0.49738970948455541 -0.4998377180089762 1 0.27365336566714249 -0.27365336566714249 0.80925971854791523 0 -0.49925229508213942 0.72147817460308961 0 -0.2755823780128876 0.50109540343913672 0 -0.49621010312562502 0.72305346565390649 0.3029574597295554 -0.36031078036159248 0.72147817460313146 0.27852182539678172 0 0.5010954034391506 0.49890459656082159 0 0.50000000000205869 1 0 0.50158224941189322 0.19220081937093081 0 0.50000000000205869 1 -1 0.85809358465589691 0.14190641534373391 0 0.82035644440722078 0.17329324848814129 -0.19386381810203029 0.8580935846558897 0 -0.1414165074464182 1 0.1440972222221624 -0.1440972222221624 0.80927324204716267 0.49986476500725602 0 1 0.50146053791859801 -0.19232253086420811 0.75000000000034661 1 -1 0.75000000000034661 1 0 0.764412522315979 0.67651247978210449 -0.41138750314712519 1 0.72147817460312469 -0.27852182539678277 1 1 -0.24999999999941211 1 1 -0.49999999999869432 1 1 -1 1 1 0 1 0.80884797477518766 -0.49998196866738898 0.80913800705466277 1 -0.49999999999972899 1 0.85809358465589558 -0.1419064153437341 0.85811386990508953 0.85807329940704491 0 0.85809358465609753 1 -0.14190641534383081 1 0.74999999999934164 0 1 0.74999999999934164 -1 0.50159577291168977 0.80754223414328785 0 0.72147817460319741 1 -0.27852182539678338 0.72159988609643178 0.72135646310988133 0 1 0.49999999999869432 0 1 0.49999999999869432 -1 0.27589492110682312 0.72442964287534417 0 0.42348748445510859 0.67651247978210449 -0.41138750314712519 0.27558237801301821 1 -0.27852182539675591 0.49967339473549238 1 -0.19086199294534331 0.1414165074468669 1 -0.14190641534369289 0.14146859796247779 0.85858549603494483 0 0 0.85809358465609809 -0.14190641534383031 0 1 -0.24999999999941211 0.19378306878302151 1 -0.49999999999974709 0 1 -0.49999999999869432 0 0.72147817460320118 -0.27852182539678011 0 0.50017861225427096 -0.49773060372977418 0 0.50000000000037348 -0.1908619929453429 0.16779372096061709 0.25035625696182251 -0.15569373965263369 0.19390478027631419 0.49987828850705518 0 0.27589341849557891 0.27527133753033889 0 0.42348748445510859 0.33558750152587891 -0.41138750314712519 0.74999999999934164 0 0 0.74999999999934164 0 -1 0 0.27852182539690867 -0.27852182539678699 0 0.190861992945314 -0.49999999999972489 0.19099722793781729 0 -0.49920550623183851 0.27852182539674158 0 -0.27558237801288138 1 0.24999999999941211 -1 1 0.24999999999941211 0 0.49999999999974359 0 -0.1937830687830959 1 0 0 1 0 -1 1 0 -0.49999999999869432 1 0 -0.24999999999941211 1 0 -0.74999999999934164 0.14190641534384699 0 -0.14141650744653689 0.14146834752682999 0.14136466736642039 0 0 0.14190641534418191 -0.14190641534369811 
</DataArray>
</Points>
<Cells>
<DataArray type="UInt32" Name="connectivity" format="ascii">
4 2 6 5 4 6 2 8 2 7 6 5 2 6 7 8 7 13 5 2 13 7 5 31 7 5 31 6 5 4 31 6 7 18 6 31 12 7 18 6 10 7 8 2 10 7 12 8 7 8 6 12 8 12 4 6 7 12 9 10 4 6 31 9 12 7 18 9 7 16 18 9 10 12 57 15 9 12 57 9 16 10 57 10 16 9 7 120 66 16 115 12 18 6 18 31 6 10 7 120 16 16 10 57 66 120 16 66 10 4 12 6 16 119 120 115 1 2 119 120 2 120 13 119 13 120 2 7 7 120 2 10 13 16 120 7 120 16 13 119 110 119 16 115 20 16 33 110 16 119 110 13 16 20 13 110 12 15 9 16 110 115 33 51 16 115 33 16 19 33 17 9 18 16 17 18 7 16 19 16 18 19 17 20 16 19 33 12 9 18 13 16 19 20 19 16 13 7 18 7 19 31 31 19 13 7 19 31 20 35 13 19 31 20 20 19 35 39 39 34 20 19 20 34 39 21 34 33 20 19 20 33 34 21 18 9 17 21 20 33 110 110 33 22 100 22 33 110 21 21 29 22 33 29 22 100 107 22 29 23 107 22 23 108 107 29 21 22 23 29 21 34 33 18 17 19 29 23 26 24 23 26 24 46 29 21 23 24 26 25 24 46 25 24 39 34 24 21 39 34 25 24 46 39 29 21 24 34 25 29 24 34 25 26 53 46 29 26 53 25 25 29 34 53 26 29 24 25 29 34 53 28 29 33 34 28 33 27 34 28 34 27 53 28 27 72 53 28 18 19 31 30 29 33 100 100 22 29 33 29 30 33 28 107 29 30 100 33 110 115 100 31 19 35 17 19 33 34 27 17 33 34 51 48 17 33 48 51 17 49 39 35 19 33 17 37 48 33 37 17 27 37 48 17 49 51 48 115 81 48 33 115 100 48 51 115 33 30 28 48 33 48 30 100 81 30 48 100 33 48 30 81 38 34 39 19 30 88 81 38 48 28 30 38 28 33 37 48 79 72 27 28 37 79 27 28 28 37 33 27 37 48 38 28 79 37 38 28 46 39 25 37 79 40 42 40 79 37 38 79 85 40 42 93 37 48 42 37 40 48 42 40 42 47 48 48 40 37 38 47 48 38 40 40 47 42 43 42 93 47 48 42 47 93 43 85 93 43 42 85 43 40 42 43 85 40 44 47 43 40 44 38 47 40 44 88 47 38 44 88 87 44 84 47 87 44 88 47 88 81 87 47 38 81 88 81 38 47 48 62 50 51 48 51 62 48 81 46 25 53 47 87 81 62 47 62 81 48 47 50 62 48 50 93 49 48 34 25 39 34 53 25 51 50 49 48 93 47 48 50 93 37 49 48 93 50 49 98 122 50 49 51 98 50 49 122 34 27 53 51 122 61 54 50 122 61 51 122 51 49 58 51 122 56 58 122 51 56 54 122 56 126 54 55 129 54 59 55 129 126 54 54 129 61 59 56 55 126 54 56 117 59 58 55 117 59 56 55 117 56 126 54 59 56 55 51 56 59 58 51 54 61 59 56 59 54 51 16 59 58 51 72 53 27 58 117 59 57 117 9 15 57 9 117 58 57 58 59 16 57 58 57 16 9 16 51 58 17 16 51 17 33 9 16 58 17 17 51 58 49 34 17 27 67 59 115 51 59 16 115 51 115 16 59 66 16 66 57 59 64 67 59 66 34 19 17 59 61 67 60 67 61 59 51 59 60 67 64 64 60 129 59 60 64 129 127 129 60 61 59 62 60 67 61 62 51 67 81 51 62 67 61 50 62 51 61 62 78 81 67 78 62 63 67 74 78 63 67 62 60 63 67 60 64 63 67 17 49 37 74 128 64 63 64 60 128 127 64 60 63 128 67 64 74 65 64 128 74 65 74 64 67 63 115 59 67 66 66 124 67 115 74 67 65 124 67 64 65 66 67 124 66 65 67 51 115 81 67 69 81 115 17 37 27 77 69 81 67 69 67 71 115 69 68 67 77 71 67 69 68 74 116 71 124 79 72 27 67 71 115 124 71 14 124 116 116 124 74 65 74 71 67 124 67 71 74 68 71 116 74 68 74 68 73 123 74 68 116 73 74 75 116 65 74 75 65 128 75 73 116 125 75 74 116 73 73 125 128 76 128 125 73 75 73 128 74 76 74 128 73 75 74 63 123 76 128 74 76 63 73 76 123 125 73 74 123 76 78 77 81 67 68 78 123 74 37 79 27 68 67 78 74 74 78 123 63 78 67 68 77 123 78 68 77 77 123 78 97 77 78 92 97 37 42 79 77 82 92 78 37 93 42 92 82 77 96 82 81 77 96 77 81 82 78 82 78 81 62 85 79 42 82 87 62 81 82 88 81 95 82 87 81 88 83 87 82 88 83 87 88 84 82 83 88 95 83 82 91 95 82 81 96 95 85 42 93 82 83 91 89 83 89 86 91 89 90 86 91 92 90 82 96 82 90 92 89 89 90 92 86 90 82 91 89 90 82 96 95 80 90 95 91 86 90 80 91 80 90 96 95 82 90 91 95 96 80 95 94 96 81 94 95 94 95 100 102 80 102 95 94 70 102 80 94 37 49 93 30 81 95 100 102 30 95 100 100 95 94 81 30 88 95 81 81 48 115 100 81 69 100 115 69 94 81 100 98 93 49 77 69 96 81 81 94 69 96 69 100 115 113 122 98 49 69 99 94 100 69 99 100 113 100 111 115 113 58 122 49 101 107 30 100 102 101 30 100 52 102 94 99 52 70 94 102 99 102 94 100 101 102 99 100 102 52 101 99 105 101 103 99 109 101 99 100 58 49 17 99 52 103 104 52 45 103 104 101 52 103 99 105 99 103 104 101 105 109 99 105 45 41 104 41 105 104 99 105 41 109 99 45 105 103 104 105 45 103 106 105 101 109 106 101 105 103 106 101 22 109 106 22 108 106 107 101 22 106 107 22 101 100 107 101 22 100 109 111 110 100 115 58 17 9 109 22 100 110 111 109 100 110 100 111 99 109 100 99 111 113 41 111 109 99 41 111 99 113 36 111 41 113 113 32 111 112 58 9 117 111 112 115 113 113 111 32 36 118 111 32 112 32 112 113 114 69 114 113 115 69 71 114 115 114 112 113 115 15 117 9 115 118 111 110 111 118 115 112 110 115 118 119 115 120 118 119 126 56 117 112 120 0 118 118 120 115 112 0 120 112 121 119 118 0 120 1 119 0 120 58 56 122 58 117 56 66 121 115 120 121 66 115 124 121 112 115 120 112 121 115 124 11 112 124 121 126 122 56 124 114 115 112 115 114 124 71 11 71 124 114 71 14 11 124 124 112 11 114 131 130 11 3 112 131 130 11 112 130 121 11 130 112 121 0 131 112 114 11 112 32 131 114 32 132 131 3 132 112 32 131 112 0 131 132 132 118 32 112 132 118 112 0 131 0 112 130 0 3 131 132 131 3 0 130 
</DataArray>
<DataArray type="UInt32" Name="offsets" format="ascii">
4 8 12 16 20 24 28 32 36 40 44 48 52 56 60 63 67 71 75 79 83 87 91 94 97 101 105 109 112 116 120 124 128 132 136 140 144 148 152 156 159 163 167 171 175 179 183 187 190 194 198 202 206 210 214 218 222 226 230 234 237 241 245 249 253 257 261 265 269 273 276 280 284 288 292 296 300 304 308 312 316 320 324 328 332 336 340 344 348 351 355 359 363 367 371 374 378 382 386 390 393 397 401 405 409 413 417 421 425 429 433 436 440 444 448 452 456 460 464 468 471 475 479 483 487 491 495 499 503 507 511 515 519 523 527 531 535 539 543 547 551 555 559 563 567 570 574 578 582 586 589 592 596 600 604 608 612 616 619 623 627 631 635 639 643 647 651 655 659 663 667 671 675 679 683 687 691 694 698 702 706 710 714 718 722 726 730 733 737 741 745 749 753 756 760 764 768 772 776 780 784 788 792 796 800 804 808 812 816 819 823 827 831 835 839 843 847 851 855 859 863 867 871 874 878 882 886 890 894 897 901 905 909 913 917 921 925 929 933 937 941 945 949 953 957 961 965 969 973 977 981 985 988 992 996 1000 1004 1008 1012 1015 1019 1022 1026 1030 1034 1038 1041 1045 1049 1053 1057 1061 1065 1069 1073 1076 1080 1084 1088 1092 1096 1100 1104 1108 1112 1116 1120 1124 1128 1132 1136 1140 1144 1147 1151 1155 1159 1163 1167 1171 1175 1178 1182 1186 1190 1193 1197 1201 1205 1208 1212 1216 1220 1224 1228 1232 1236 1240 1244 1247 1251 1255 1259 1263 1267 1271 1275 1279 1283 1287 1291 1295 1299 1303 1307 1311 1315 1319 1322 1326 1330 1334 1338 1342 1346 1350 1354 1357 1361 1365 1369 1373 1377 1381 1385 1388 1392 1396 1400 1404 1407 1411 1415 1419 1423 1427 1430 1433 1437 1441 1445 1449 1453 1456 1460 1464 1468 1472 1476 1480 1484 1488 1492 1496 1500 1504 1508 1512 1516 1520 1524 1528 1532 
</DataArray>
<DataArray type="UInt32" Name="types" format="ascii">
10 10 10 10 10 10 10 10 10 10 10 10 10 10 10 5 10 10 10 10 10 10 10 5 5 10 10 10 5 10 10 10 10 10 10 10 10 10 10 10 5 10 10 10 10 10 10 10 5 10 10 10 10 10 10 10 10 10 10 10 5 10 10 10 10 10 10 10 10 10 5 10 10 10 10 10 10 10 10 10 10 10 10 10 10 10 10 10 10 5 10 10 10 10 10 5 10 10 10 10 5 10 10 10 10 10 10 10 10 10 10 5 10 10 10 10 10 10 10 10 5 10 10 10 10 10 10 10 10 10 10 10 10 10 10 10 10 10 10 10 10 10 10 10 10 5 10 10 10 10 5 5 10 10 10 10 10 10 5 10 10 10 10 10 10 10 10 10 10 10 10 10 10 10 10 10 10 5 10 10 10 10 10 10 10 10 10 5 10 10 10 10 10 5 10 10 10 10 10 10 10 10 10 10 10 10 10 10 10 5 10 10 10 10 10 10 10 10 10 10 10 10 10 5 10 10 10 10 10 5 10 10 10 10 10 10 10 10 10 10 10 10 10 10 10 10 10 10 10 10 10 10 5 10 10 10 10 10 10 5 10 5 10 10 10 10 5 10 10 10 10 10 10 10 10 5 10 10 10 10 10 10 10 10 10 10 10 10 10 10 10 10 10 5 10 10 10 10 10 10 10 5 10 10 10 5 10 10 10 5 10 10 10 10 10 10 10 10 10 5 10 10 10 10 10 10 10 10 10 10 10 10 10 10 10 10 10 10 5 10 10 10 10 10 10 10 10 5 10 10 10 10 10 10 10 5 10 10 10 10 5 10 10 10 10 10 5 5 10 10 10 10 10 5 10 10 10 10 10 10 10 10 10 10 10 10 10 10 10 10 10 10 10 
</DataArray>
</Cells>
<CellData Scalars="pressure_p0,piezo_head_p0," Vectors="velocity_p0," Tensors="">
<DataArray type="Float64" Name="pressure_p0" format="ascii">
1.3114516764698781e-10 1.6545701496139683e-10 4.2253779753352122e-10 6.3895387727356914e-10 5.3276564991295265e-11 1.0195255711938949e-12 4.1378150873796945e-10 2.0136623312401284e-10 1.5232517689570759e-09 1.5175826303112197e-09 3.3832513805030001e-10 6.4978107695702768e-10 9.0543961184857118e-10 7.2257742583835896e-11 1.3957846365174233e-09 -2.000000000351509 2.0054530632253376e-09 2.2801369977527205e-09 4.5919046768434631e-10 1.9392229970348426e-10 8.6982138874178993e-10 1.6743660737903092e-09 3.8959355824667642e-10 -2.0000000003251444 -2.0000000003583609 7.381949098330136e-10 2.6680944736964373e-10 1.7956895150002727e-10 -2.0000000003316623 5.2704471507682542e-10 7.3645168977192377e-12 3.3737925339327248e-13 6.8097228646974436e-11 1.4290501106309382e-10 6.6438742879318448e-10 5.1791092302017909e-10 2.4834750267597375e-10 9.5816075718515719e-11 1.7081238502904875e-10 2.3040160242530459e-10 -2.0000000002959246 -2.7324055764041167e-10 2.3141054869463156e-12 1.3141094348328164e-09 2.4522191539151337e-09 1.87309236440502e-09 2.0221772844851239e-09 4.6975674880511614e-10 -2.0000000002777019 5.9386849812343922e-10 9.6338379711618804e-10 1.4424666113318076e-09 4.7411330046133615e-10 -1.7815814971555243e-10 5.2306867212999608e-11 -1.3193077460995458e-10 -2.0212196974163172e-10 -8.5983076684595188e-11 -1.1814942979780397e-10 -2.9115381681769647e-10 -2.0000000001827751 -5.1568558026938704e-11 -1.6201733860976565e-10 -2.0192753863753659e-10 -2.4847888903802175e-10 1.6324366057636075e-10 6.1317057054442639e-11 8.8406082849237598e-11 -1.4508317650203194e-11 -7.2247842421077828e-10 -2.0000000002229883 -1.1347028941855207e-10 -5.9923002358706859e-11 -8.5848044947372839e-11 -2.9833049439358353e-10 -3.1023031694927451e-10 -1.4408035265890318e-10 -9.0932113451833452e-11 -5.0648294266603419e-10 -9.0145539392244088e-10 -3.0858758958042017e-10 -3.5498267021085806e-10 -1.113434399983047e-09 -5.2107629433066081e-10 -7.496080656245827e-10 -1.2961200100138701e-09 -1.5285508297186885e-09 -1.0093646904104759e-09 -6.7089914281735248e-10 -2.0000000003814331 -1.214295519178038e-10 1.1897512125559905e-10 -8.1451030769455152e-10 -3.4261264066617862e-11 -7.7106848189953431e-10 -2.0000000003467329 1.0112506144046851e-09 4.2039700442135233e-10 1.756056703172479e-10 6.3656876193175838e-10 -2.0000000001015206 -2.0010792535965113e-10 -4.2960669413657067e-10 1.4673948782340699e-10 -1.3531840435097138e-09 -1.1115207750447122e-09 -7.404147938911408e-10 -1.5261050704902819e-09 -4.5527580347956845e-10 -7.6569735823109874e-10 -3.101320977691707e-10 -2.0000000000013203 6.8428979238703453e-11 -8.0337865371376545e-10 -1.6226154768119777e-09 -4.6424751184421711e-10 -8.0317362379832572e-10 -1.8545835552457393e-09 -1.4961668323408078e-09 -3.4382612942992642e-10 -1.9999999998885207 1.4045821645730207e-10 -6.3951456145072496e-11 6.7980203967934107e-11 -7.5952988522865357e-10 -9.668111502957165e-10 -4.7641300683347484e-10 -1.3217967236217727e-09 -5.074247282846623e-10 -2.0751262703949466e-10 -3.842106295876598e-10 -1.352923257507157e-10 -9.9093414895446494e-12 -4.4805134657971458e-12 2.5233647032279135e-11 -6.0664150663013752e-11 -1.5288048962792442e-10 -7.9209221351803727e-11 -5.4507159811410152e-11 -5.7961691762891289e-11 -1.5219909653631589e-10 -7.7119595451555589e-11 -4.5898425827518512e-10 -7.1980678520261186e-10 -1.7302548435589898e-09 -1.9999999998418443 -3.6564573729703786e-10 -1.2465568161012324e-09 -5.0551546872154657e-10 -1.6533770816506184e-10 -1.9999999999173554 -1.9999999998475615 6.237792827537954e-10 -3.4508456179708913e-10 -4.4679952280373921e-10 -5.9609890591633509e-10 -5.6397294412201879e-11 -4.165827610678221e-10 -1.9999999997980427 -1.2166725290331995e-10 -5.378567312341071e-10 -3.0847839666792584e-10 -3.2447449717694745e-10 -4.3853899163630709e-10 -1.2925902400024705e-10 1.1320700604857992e-10 4.3384914694627927e-11 8.6108230668770329e-11 9.4735965926698781e-11 -4.1274858517164835e-10 -1.6412792211065364e-10 -5.8336468742037031e-11 1.7595446195390503e-10 1.9112437899718005e-10 9.6599298684106897e-10 4.830191491248885e-10 6.4226069893680597e-10 -1.9999999997140434 -8.1548982236801106e-10 -2.001283637735844e-10 -1.0142950746634196e-09 2.432998621454528e-10 8.7308881413091527e-10 1.3252425812707374e-09 9.1592967316561332e-10 9.6574056220600056e-10 1.0284479125671808e-09 -1.9999999998286575 -2.6959063680887643e-10 6.1450097249472397e-10 4.2514093234555681e-10 1.6000003886103693e-10 4.1353554354024424e-11 -2.0000000000194511 4.5164929613320146e-10 8.3335066776441702e-10 3.2418325592756961e-10 2.9989456418710439e-10 1.3589110677619862e-10 3.8291409169127612e-10 -2.1995275965165451e-10 -1.4364498316163734e-09 -8.0306057286726957e-10 -9.5202908958948303e-10 -4.7771374418033632e-10 9.3083504203325589e-12 3.5565165768613544e-10 -6.6129135561695929e-11 2.7754017304048958e-10 -1.9999999997265756 1.1231064915688198e-10 5.963401505436018e-11 7.9039948761027659e-11 2.5695235046442366e-10 1.0049414741567611e-10 3.2144842308805626e-10 -2.1148361560043772e-10 8.3215141739049576e-11 3.1264175899629325e-10 1.4586373138941183e-10 1.8314566554242961e-10 -1.7849252443691542e-09 -7.8145772936854534e-10 -1.9999999996835658 -1.5940878291862153e-10 9.7401631856347607e-11 2.5272541734761593e-10 2.4392697651998689e-10 2.1372860357053893e-10 -1.9999999995418938 3.3766921060030573e-10 9.8624147114545891e-11 1.4734651224532266e-10 4.8562205826359528e-10 5.9978936793836662e-10 3.068730194971216e-10 2.6703273492317228e-10 3.4218838226160486e-10 2.0445383372693838e-10 1.4473678384142696e-10 3.774082179780485e-11 2.4474672339848636e-10 1.5613646857701402e-11 1.280394267512701e-11 1.2292696609977479e-10 1.3968468527263499e-10 1.0699766311080743e-10 9.7975421818178193e-11 1.7646644377626164e-11 1.2613819269241591e-10 5.52300198736979e-11 2.9980658119507414e-10 -1.9999999995222906 6.590520613345308e-10 1.1748565399817124e-10 6.1413364278961193e-10 2.2488332644439355e-10 9.611367910651826e-11 5.3259705971329639e-11 -1.999999999444245 8.7866481074646155e-11 -1.9999999995106512 8.1337008161907317e-12 1.0340173286985726e-10 2.2529643670077555e-10 2.2378820652025995e-11 -1.9999999994024342 -4.4499014391109638e-11 -1.1913343129910624e-10 -1.729151798964164e-10 -9.7796509998182325e-11 -6.6358972113895344e-11 -2.1407073544080133e-11 -1.0213223972335908e-11 3.5138620102713665e-11 -1.9999999994575137 -3.0146088257501368e-11 -1.7771400767175258e-11 2.2062908261685703e-11 1.5447384602173496e-11 4.2619899967750035e-11 2.5030915472648186e-11 4.0508172856423349e-11 3.7429771290684706e-11 2.6583293296948862e-11 1.7202635524568711e-11 3.5291918949582525e-11 3.1141733619184458e-11 2.7837838509608715e-11 4.3209070577125262e-11 1.4353311506497567e-10 2.9183135519846635e-11 4.3067750511287555e-11 -1.9999999996196356 9.2586719668926886e-11 9.657493696081866e-11 9.3772641066811594e-11 3.3234080777580893e-11 -1.2713049230960193e-09 -7.7270824587303491e-10 -2.1609273890085525e-10 -1.9999999996748035 -5.4227148911999846e-11 -7.894534218714873e-11 -1.31466725732338e-10 -1.9999999998265539 6.0101152899898032e-11 -1.6343275825767687e-11 -1.9418135940627427e-10 -1.9999999998944735 -2.4707882602750508e-11 1.9784847747550612e-11 9.1679421449853512e-11 4.8107922429219346e-11 3.8407056405960362e-10 2.8343790099556306e-10 2.4327233520808156e-11 -2.3984732501549131e-11 1.632278923700145e-10 -1.9999999998727884 -4.167210984755027e-11 -1.6254459945926607e-11 -8.8874545068829588e-12 -9.9429808931852e-11 5.7872351438939687e-12 -1.912140993624048e-11 -3.0333644817268924e-11 -3.3756979114674527e-12 -6.3738020226256863e-11 -1.3246050782306066e-11 -1.3828857042902726e-11 -1.3937175736068129e-11 -6.1271317344477017e-12 1.0561805908669299e-10 1.7398709595382542e-10 3.774181923360058e-10 2.836938674594958e-10 -2.179623080674077e-10 -2.0000000000497775 8.8676022712934706e-11 3.5252914450471682e-11 -6.2208573991023955e-11 -1.076528942467741e-10 4.7777713916866924e-12 1.2786404074341183e-11 1.1717253399643676e-11 4.9054485003403923e-12 -2.0000000000983631 9.9819311075686891e-11 2.4053000506199233e-12 2.0732434161780177e-11 5.1975180450401802e-11 2.4121793706773871e-10 3.5549613877911092e-10 2.4744694027127406e-10 -2.0000000002032587 2.0141742324209269e-10 1.5532521871136862e-10 3.2622944687686074e-10 5.6036751761472473e-10 -2.0000000000464149 2.9239080337691948e-11 3.6147266584874079e-10 6.876880278696404e-11 1.0810261085550505e-10 2.4218289794945849e-11 -1.999999999993157 -2.0000000000446625 1.627967718425831e-10 1.9213829635943763e-10 3.3987166956778115e-10 4.643586644608054e-10 1.1520317242015821e-10 -2.0000000000233218 5.772664078005937e-10 6.320675952464198e-10 1.7459525612263511e-10 1.1521448303411342e-10 1.9246950307857056e-10 1.1437037309967801e-11 5.8571786904781083e-11 7.4830196257456733e-11 6.2901843638465878e-11 8.8124264560856057e-11 6.3777051978078166e-11 2.7800416615205641e-12 2.3641639050658461e-11 2.4141771108008945e-11 -1.4850743854395751e-11 -1.6124578094281127e-11 5.1184830002669106e-11 3.3029030274162238e-12 9.6217802626887066e-12 
</DataArray>
<DataArray type="Float64" Name="piezo_head_p0" format="ascii">