<?xml version="1.0"?>
<VTKFile type="UnstructuredGrid" version="0.1" byte_order="LittleEndian">
<UnstructuredGrid>
<Piece NumberOfPoints="133" NumberOfCells="393">
<Points>
<DataArray type="Float64" NumberOfComponents="3" format="ascii">
0 0 -1 0 0.1419064153440632 -0.85809358465605046 0.14138946044788619 0.141933462342688 -1 0.17663550269374309 0.2000173280584561 -0.80767327345777706 0.14192670059260701 0 -0.85802340138044431 0.24999999999941211 0 -1 0.49924645474497431 0.19077333889470441 -1 0.49999999999869432 0 -1 0.27864353689002019 0 -0.72105707495041649 0 0 -0.74999999999934164 0 0.27852182539691489 -0.72147817460311425 0.36400213509809493 0.30340182266465199 -0.71803582340462213 0.49631982208178133 0.49903983155338327 -1 0.27542009602191558 0.2786841073879448 -1 0 0.25000000000104028 -1 0 0.50000000000205869 -1 0.19232253086422449 0.50146053791918455 -1 0 0.50023418051147772 -0.80910018661861283 0 0.72340718694886286 -0.72340718694880013 0 0.80935234175974147 -0.50021433470480037 0 1 -0.74999999999934164 0 1 -1 0 0.75000000000034661 -1 0 0.85590277777789092 -0.85590277777763279 0.14190641534415949 0.85809358465625163 -1 0.14141650744674819 1 -0.85809358465604513 0.4995456570474846 0.80901946774026934 -1 0.25000000000104028 1 -1 0.49967339473549249 1 -0.80913800705467398 0.27558237801302449 1 -0.72147817460308317 0.49999999999996553 1 -0.50000000000003098 0.42348748445510859 0.67651247978210449 -0.75231254100799561 0.27852182539691328 0.7214781746031842 -1 0.72106926594561294 0.72137148922016592 -1 0.72147817460319108 1 -0.72147817460312469 0.50000000000205869 1 -1 0.85809358465621599 1 -0.8580935846559189 0.75000000000034661 1 -1 0.85802543321328628 0.85807580375875903 -1 1 0.85809358465601437 -0.85809358465601437 1 1 -1 1 1 -0.74999999999934164 1 0.72147817460311847 -0.72147817460311847 1 0.74999999999934164 -1 0.764412522315979 0.67651247978210449 -0.75231254100799561 1 0.49999999999869432 -1 1 0.49999999999972489 -0.80913800705468164 0.80868366410180859 0.49988146068535011 -1 0.764412522315979 0.33558750152587891 -0.75231254100799561 1 0.24999999999941211 -1 1 0.14190641534373399 -0.85809358465589558 1 0 -1 0.85809358465601437 0 -0.85809358465601437 0.85809358465589669 0.14190641534373391 -1 0.74999999999934164 0 -1 0.50013523499221102 0 -0.80867011855167226 0.72147817460313113 0.27852182539678161 -1 0.72147817460311847 0 -0.72147817460311858 1 0 -0.74999999999934164 1 0.19232253086420811 -0.50146053791859801 1 0.27852182539678272 -0.72147817460312469 1 0.49738970948455541 -0.4998377180089762 1 0.27365336566714249 -0.27365336566714249 0.80925971854791523 0 -0.49925229508213942 1 0 -0.49999999999869432 0.72147817460308961 0 -0.2755823780128876 0.50109540343913672 0 -0.49621010312562502 0.72305346565390649 0.3029574597295554 -0.36031078036159248 0.72147817460313146 0.27852182539678172 0 0.5010954034391506 0.49890459656082159 0 0.50158224941189322 0.19220081937093081 0 0.74999999999934164 0 0 0.85809358465589691 0.14190641534373391 0 0.82035644440722078 0.17329324848814129 -0.19386381810203029 0.8580935846558897 0 -0.1414165074464182 1 0 0 1 0 -0.24999999999941211 1 0.1440972222221624 -0.1440972222221624 1 0.24999999999941211 0 0.80927324204716267 0.49986476500725602 0 1 0.49999999999869432 0 1 0.50146053791859801 -0.19232253086420811 1 0.74999999999934164 0 0.764412522315979 0.67651247978210449 -0.41138750314712519 1 0.72147817460312469 -0.27852182539678277 0.80913800705466277 1 -0.49999999999972899 1 0.80884797477518766 -0.49998196866738898 1 1 -0.49999999999869432 1 1 -0.24999999999941211 1 1 0 1 0.85809358465589558 -0.1419064153437341 0.85811386990508953 0.85807329940704491 0 0.75000000000034661 1 0 0.85809358465609753 1 -0.14190641534383081 0.50159577291168977 0.80754223414328785 0 0.50000000000205869 1 0 0.72147817460319741 1 -0.27852182539678338 0.72159988609643178 0.72135646310988133 0 0.27589492110682312 0.72442964287534417 0 0.42348748445510859 0.67651247978210449 -0.41138750314712519 0.27558237801301821 1 -0.27852182539675591 0.49967339473549238 1 -0.19086199294534331 0.25000000000104028 1 0 0.1414165074468669 1 -0.14190641534369289 0.14146859796247779 0.85858549603494483 0 0 0.85809358465609809 -0.14190641534383031 0 0.75000000000034661 0 0 1 0 0 1 -0.24999999999941211 0.19378306878302151 1 -0.49999999999974709 0 1 -0.49999999999869432 0 0.72147817460320118 -0.27852182539678011 0 0.50017861225427096 -0.49773060372977418 0 0.50000000000205869 0 0 0.50000000000037348 -0.1908619929453429 0 0.25000000000104028 0 0.16779372096061709 0.25035625696182251 -0.15569373965263369 0.19390478027631419 0.49987828850705518 0 0.27589341849557891 0.27527133753033889 0 0.42348748445510859 0.33558750152587891 -0.41138750314712519 0 0.27852182539690867 -0.27852182539678699 0.19099722793781729 0 -0.49920550623183851 0 0 -0.49999999999869432 0 0.190861992945314 -0.49999999999972489 0.27852182539674158 0 -0.27558237801288138 0.49999999999869432 0 0 0.49999999999974359 0 -0.1937830687830959 0.24999999999941211 0 0 0.14190641534384699 0 -0.14141650744653689 0.14146834752682999 0.14136466736642039 0 0 0.14190641534418191 -0.14190641534369811 0 0 -0.24999999999941211 0 0 0 
</DataArray>
</Points>
<Cells>
<DataArray type="UInt32" Name="connectivity" format="ascii">
5 13 2 8 3 5 4 1 0 14 2 9 3 2 1 9 2 3 4 3 13 2 14 8 3 4 9 3 10 1 9 0 9 2 1 0 2 9 4 0 2 14 10 3 1 14 5 3 13 2 13 14 2 3 1 14 2 3 4 2 5 4 5 0 2 0 5 2 6 8 5 55 7 6 5 55 8 11 6 3 6 11 8 55 6 3 11 13 3 5 6 8 6 5 3 13 5 6 13 5 7 6 121 66 11 119 121 11 66 8 11 8 55 66 8 3 121 11 9 121 10 123 122 9 123 121 11 123 121 119 10 121 9 3 121 11 10 123 10 11 121 3 3 121 9 8 112 123 11 119 17 11 31 112 11 123 112 10 11 17 10 112 48 11 119 31 11 112 119 31 11 13 16 12 13 6 12 11 16 31 12 13 3 11 16 13 12 16 6 13 11 12 13 3 16 14 14 16 10 3 17 11 16 31 16 14 17 15 14 16 15 13 16 14 10 11 16 17 16 11 10 3 10 16 14 17 17 16 15 22 17 31 32 18 32 31 17 16 17 32 22 18 22 32 17 16 32 22 16 22 15 16 19 31 112 18 18 17 31 112 112 31 19 99 19 29 20 109 19 20 110 109 18 29 19 31 29 19 99 109 29 18 19 20 23 18 22 32 20 25 23 21 32 24 22 25 29 23 24 32 27 24 24 29 32 27 29 18 32 31 21 24 27 29 20 25 23 24 29 23 32 29 25 27 24 24 25 27 21 29 18 23 32 29 18 20 23 24 23 22 32 25 24 23 21 24 23 21 22 21 22 24 29 32 27 28 31 26 32 28 29 31 32 28 32 26 27 26 35 27 28 35 27 26 32 26 27 28 99 19 29 31 30 29 31 99 109 29 30 99 29 30 31 28 31 112 119 99 32 16 12 12 16 31 32 32 12 26 26 12 31 32 31 12 33 44 31 33 12 26 12 33 26 12 47 33 48 44 12 31 44 48 12 47 33 44 12 47 44 31 119 99 48 44 119 83 44 48 119 31 30 44 99 31 30 85 83 34 44 30 83 34 44 30 99 83 44 28 30 34 30 28 44 31 33 37 26 28 28 33 31 26 37 35 26 28 33 44 34 28 37 33 34 28 33 37 26 37 35 26 28 31 33 44 34 42 36 41 39 40 36 41 42 44 34 36 40 38 43 42 39 36 41 36 42 38 39 38 43 42 44 33 43 38 38 42 43 39 36 38 42 44 33 38 37 43 33 44 38 33 37 36 38 36 37 33 34 33 36 44 38 44 36 33 34 40 43 39 38 40 37 38 37 40 36 38 40 39 36 38 42 86 41 85 85 42 34 41 42 85 83 86 85 86 41 87 42 34 83 85 83 34 42 44 42 61 83 44 48 61 44 83 42 46 61 44 61 46 48 44 42 86 83 61 45 43 47 48 46 47 44 43 46 47 45 43 42 44 46 33 47 43 46 43 47 44 43 33 47 44 45 46 47 49 48 49 60 50 49 45 47 48 49 53 56 49 46 47 48 56 49 47 46 49 60 48 49 48 47 56 52 58 51 50 53 57 50 48 50 57 53 52 52 58 50 57 51 53 54 51 49 53 49 48 53 50 52 54 53 51 53 54 57 56 56 54 53 48 50 60 57 50 58 60 57 48 53 57 56 56 53 49 52 54 57 53 49 53 51 50 53 52 51 50 56 6 54 56 54 57 55 56 57 11 55 11 57 56 48 54 6 7 55 6 54 56 55 56 55 11 6 7 54 6 11 48 12 31 6 11 56 12 56 12 6 11 48 56 12 56 47 12 12 48 56 47 67 57 119 48 11 66 55 57 63 67 57 66 119 11 57 66 57 11 119 48 67 60 57 48 63 59 58 57 57 60 67 59 58 59 60 57 59 63 58 64 57 59 67 63 46 61 48 60 48 61 67 60 61 59 67 60 61 48 67 83 81 61 62 67 73 81 62 67 61 59 62 67 61 81 83 67 63 59 62 76 59 63 62 67 63 59 76 64 67 63 73 65 73 63 67 62 63 76 73 65 73 76 63 62 73 67 65 126 67 126 66 65 66 126 67 119 119 57 67 66 67 63 65 66 67 69 83 119 67 48 119 83 69 68 67 79 79 69 83 67 69 67 70 119 70 67 69 68 73 70 67 126 67 70 73 68 70 71 73 68 71 126 73 65 73 71 70 126 70 125 126 71 67 70 119 126 73 62 78 77 73 74 71 65 73 68 72 78 76 73 77 62 73 74 65 76 74 72 71 75 73 68 71 72 74 73 71 72 72 75 76 77 76 75 72 74 73 76 72 74 72 76 73 77 72 77 78 75 72 73 78 77 73 81 78 62 79 78 81 80 81 67 68 79 68 67 81 73 68 81 78 73 81 79 83 67 78 81 68 79 82 84 79 97 79 83 84 81 84 83 79 97 79 84 82 81 79 81 82 80 84 86 61 83 84 81 83 61 84 88 85 96 84 85 83 96 88 86 84 85 88 86 85 87 84 86 83 85 84 88 93 90 88 90 89 93 90 91 82 89 84 91 82 90 82 91 84 97 84 83 97 96 88 84 93 96 91 84 93 90 92 91 97 96 84 91 93 96 91 84 97 96 92 91 96 93 90 91 89 93 89 91 92 93 94 96 99 101 97 83 94 96 92 101 96 94 95 101 92 94 97 92 96 94 99 96 94 83 101 30 96 99 30 85 96 83 30 83 96 99 83 44 119 99 83 69 99 119 69 94 83 99 83 94 69 97 79 69 97 83 69 98 99 117 69 98 94 99 69 99 119 117 99 114 119 117 101 100 30 99 100 109 30 99 101 102 100 98 98 101 94 99 102 95 94 101 100 101 98 99 102 101 94 98 105 98 103 104 98 102 103 104 111 100 98 99 106 105 104 98 100 102 103 98 105 106 111 98 100 105 103 108 102 107 103 104 105 100 111 108 105 100 103 98 100 105 111 98 105 107 106 104 107 105 103 104 105 107 103 108 100 19 111 108 100 19 99 111 19 100 99 109 19 110 108 109 100 19 108 109 111 19 99 112 114 111 99 112 114 112 99 119 99 98 114 117 99 114 98 111 106 114 111 98 106 114 98 117 113 114 106 117 120 114 115 116 117 114 115 113 114 116 119 117 115 116 117 118 117 115 114 116 69 118 117 119 118 116 117 119 69 70 118 119 114 120 119 116 119 120 114 112 112 119 120 123 119 121 120 123 120 121 119 116 131 121 116 124 116 121 131 120 123 120 131 121 122 123 131 121 116 124 119 126 124 66 119 126 124 116 119 121 66 124 119 121 127 70 126 118 70 125 127 126 126 116 127 118 126 118 119 116 119 118 126 70 127 116 126 124 116 131 129 130 130 120 115 116 129 131 116 128 116 128 124 127 116 129 128 127 129 128 127 132 129 116 118 127 115 130 129 132 130 120 116 131 116 115 129 118 128 116 124 131 130 116 115 129 131 132 129 130 129 132 131 128 
</DataArray>
<DataArray type="UInt32" Name="offsets" format="ascii">
3 7 11 15 19 23 27 31 35 39 42 46 50 53 57 61 65 68 72 76 80 84 88 92 96 99 102 106 110 114 118 122 126 130 134 138 142 146 150 154 158 162 166 170 174 177 181 185 188 192 196 200 204 208 211 214 218 222 226 230 234 238 242 246 249 252 256 260 264 268 272 276 280 284 288 292 295 299 302 306 310 313 317 321 325 329 333 337 341 345 349 352 356 360 364 367 371 374 378 382 386 390 394 398 401 405 408 412 416 420 423 426 430 434 438 442 446 450 454 458 462 466 470 474 478 482 486 490 494 497 500 504 508 512 516 519 523 527 531 534 538 542 545 549 553 557 561 565 569 572 576 580 584 588 592 596 600 604 608 612 616 620 624 627 631 635 639 642 646 650 654 658 661 665 669 672 676 680 684 688 692 696 699 702 706 710 714 717 721 725 729 732 736 740 744 747 751 755 759 763 767 771 774 778 782 785 789 792 796 800 804 808 812 816 820 824 828 832 836 840 844 848 852 856 860 864 868 872 876 880 884 888 892 896 900 904 908 912 916 920 924 928 932 936 940 944 948 952 956 960 964 968 972 976 980 984 988 992 996 1000 1004 1008 1012 1016 1020 1024 1028 1032 1036 1040 1044 1048 1052 1056 1060 1064 1068 1072 1076 1080 1084 1088 1092 1096 1100 1104 1108 1112 1116 1120 1124 1128 1132 1136 1140 1144 1148 1152 1156 1160 1164 1168 1172 1176 1180 1184 1188 1192 1196 1200 1204 1208 1212 1216 1220 1224 1228 1232 1236 1240 1244 1248 1252 1256 1260 1264 1268 1272 1276 1280 1284 1288 1292 1296 1300 1304 1308 1312 1316 1320 1324 1328 1332 1336 1340 1344 1348 1352 1356 1360 1364 1368 1372 1376 1380 1384 1388 1392 1396 1400 1404 1408 1412 1416 1420 1424 1428 1432 1436 1440 1444 1448 1452 1456 1460 1464 1468 1472 1476 1480 1484 1488 1492 1496 1500 1504 1508 1512 1516 1520 1524 1528 1532 
</DataArray>
<DataArray type="UInt32" Name="types" format="ascii">
5 10 10 10 10 10 10 10 10 10 5 10 10 5 10 10 10 5 10 10 10 10 10 10 10 5 5 10 10 10 10 10 10 10 10 10 10 10 10 10 10 10 10 10 10 5 10 10 5 10 10 10 10 10 5 5 10 10 10 10 10 10 10 10 5 5 10 10 10 10 10 10 10 10 10 10 5 10 5 10 10 5 10 10 10 10 10 10 10 10 10 5 10 10 10 5 10 5 10 10 10 10 10 10 5 10 5 10 10 10 5 5 10 10 10 10 10 10 10 10 10 10 10 10 10 10 10 10 10 5 5 10 10 10 10 5 10 10 10 5 10 10 5 10 10 10 10 10 10 5 10 10 10 10 10 10 10 10 10 10 10 10 10 5 10 10 10 5 10 10 10 10 5 10 10 5 10 10 10 10 10 10 5 5 10 10 10 5 10 10 10 5 10 10 10 5 10 10 10 10 10 10 5 10 10 5 10 5 10 10 10 10 10 10 10 10 10 10 10 10 10 10 10 10 10 10 10 10 10 10 10 10 10 10 10 10 10 10 10 10 10 10 10 10 10 10 10 10 10 10 10 10 10 10 10 10 10 10 10 10 10 10 10 10 10 10 10 10 10 10 10 10 10 10 10 10 10 10 10 10 10 10 10 10 10 10 10 10 10 10 10 10 10 10 10 10 10 10 10 10 10 10 10 10 10 10 10 10 10 10 10 10 10 10 10 10 10 10 10 10 10 10 10 10 10 10 10 10 10 10 10 10 10 10 10 10 10 10 10 10 10 10 10 10 10 10 10 10 10 10 10 10 10 10 10 10 10 10 10 10 10 10 10 10 10 10 10 10 10 10 10 10 10 10 10 10 10 10 10 10 10 10 10 10 10 10 10 10 10 10 10 10 10 
</DataArray>
</Cells>
<CellData Scalars="pressure_p0,piezo_head_p0," Vectors="velocity_p0," Tensors="">
<DataArray type="Float64" Name="pressure_p0" format="ascii">
-2.0000000000762665 -1.1551146019462286e-09 -5.9312434848931483e-10 -5.7135915598241878e-10 -1.7585604689966812e-09 5.2743100232765011e-09 -4.8558892636184518e-09 -1.2371217695384369e-09 -1.0946392888124648e-09 -2.0948077648353522e-09 -2.0000000002028107 -9.4650734409875646e-10 3.2173042359853235e-09 -2.0000000002365979 1.126313196643147e-09 2.3874153396429884e-09 -4.6466236721682002e-10 -2.0000000001083218 1.3947903296650832e-09 3.3954014567564472e-10 4.5075951611857282e-09 4.0313330689145378e-09 6.7996949519901594e-09 2.4902674316437984e-09 6.4377984312053114e-09 -1.9999999999534241 -1.9999999996453381 7.7691799345984202e-10 8.4427058133449205e-10 2.23163612618364e-09 3.1917431912351018e-10 -1.3487175122545159e-09 -8.5672963784841746e-10 5.2853080501208108e-10 -4.0992280233292667e-09 8.4325401763360147e-10 -1.2756808850834096e-10 -5.2781009156794551e-09 -6.8024793716325825e-10 1.5985891346798955e-09 -1.0509908039164909e-09 -5.8382600518722388e-10 -4.2993519541403783e-10 6.201421103547124e-10 6.2491425820516541e-09 -2.0000000002429821 6.2642727484396189e-09 9.4498853241811843e-09 -2.000000000277919 4.6872854177148339e-09 1.1152012933968591e-08 3.5849752757387954e-09 5.7219243228857505e-09 1.6445721511319614e-09 -2.0000000002423111 -2.0000000004247545 3.4590281012647703e-09 4.2192526550197322e-09 1.0230605056484828e-09 3.6359317253294234e-09 5.5935955727903583e-09 9.3344729180930965e-09 3.7234355895548938e-09 5.8383972975162868e-09 -1.9999999997576099 -1.999999999844992 4.9855495761890743e-10 1.3272960230399922e-09 -1.3452947360077294e-09 2.2439324232286574e-10 3.5783832457527399e-10 5.4534656285144012e-10 6.1064357474097581e-10 3.7974407262546486e-10 4.9098047617036193e-09 5.0278076594429407e-10 -1.9999999996559541 2.781232184931799e-09 -1.9999999995912412 3.0953527990284062e-09 4.4084676398366773e-09 -1.9999999996322426 1.4191392782569648e-09 5.8284109318297268e-09 2.1651593909053024e-09 2.5124338422815402e-09 4.585637431905989e-09 8.3857993660843102e-10 8.089357383034243e-09 1.0759012443290858e-09 -1.1200784858959533e-09 -1.9999999996596576 3.063715174118171e-10 -2.7349855920841902e-09 -1.8402141943216411e-09 -1.9999999995266966 -1.1126890692703692e-09 -1.9999999993758677 -8.6316310445555243e-10 -4.8625794926546993e-09 -7.8869937190192689e-09 -1.3191167163128761e-09 -3.8372691884397668e-09 8.5538631640868197e-11 -1.999999999892474 1.721831416838737e-08 -1.9999999996265372 7.0111683808988841e-09 -4.412404256376837e-09 -1.0373820274412195e-09 -1.9999999996653441 -2.000000000115759 -5.1246718413229101e-09 -5.3334815858517781e-09 -7.2754905745235393e-09 -1.1033515793601441e-09 -1.6045224831780385e-09 -1.4949397491280943e-09 -6.1717057436669037e-09 -2.039523836097604e-09 -4.3436364057594078e-09 -4.516333129778263e-09 -3.7734761591346809e-09 -6.5208809512687464e-09 -6.0535803764417161e-09 -6.8452500600957573e-09 -2.5158778688786091e-09 -7.3381282372319267e-09 -4.14794214532849e-09 -1.999999999180806 -1.9999999989594071 -8.7286957822508702e-09 -1.6334579007567776e-09 -4.8080951141607004e-10 -5.0613868808759464e-09 -1.9999999992536142 -9.0964743213990237e-10 -2.6684151414836862e-09 -8.1647126110393341e-09 -1.9999999994679958 -3.2900619020030703e-09 -5.9717323759102601e-09 -1.9999999991231157 -1.456511274370483e-08 -6.0474974009723227e-09 -4.2945590448393937e-09 -9.4003126837614687e-09 -7.4356338919461389e-09 -3.4095555220416293e-09 -1.9999999989678121 -1.4199653398139999e-09 -2.1569950697216815e-09 -1.3243436026560057e-09 -2.0763062915118472e-09 -2.149887164925342e-09 -7.373250116515156e-10 -3.6667741724099273e-09 -5.7353375503089617e-09 -4.0801598468039599e-09 -3.789099489018023e-09 -4.3701348414073582e-09 -4.5141537439118317e-09 -1.1043102744658419e-09 -1.9999999998237001 -6.3590801719057857e-09 -4.8395232350653641e-09 -6.5841078674680892e-09 -1.999999999800196 -1.0852058832420212e-08 -1.5383690653889012e-08 -2.9309367722224429e-09 2.9159003071535334e-10 -1.99999999975027 -5.7979651592959249e-10 -3.2950300222421273e-09 -1.9999999999539391 -1.9796580294137377e-09 -2.8312739608223525e-09 6.1370997311712128e-10 4.5692321028533767e-09 2.4977478743393438e-09 5.9670084952261027e-10 -1.9999999997626763 -1.9999999997872135 1.4637943691000595e-09 2.8597050553609014e-11 4.902647697052018e-10 -1.9999999997574691 5.065683823914798e-09 1.5157358439154746e-09 2.4253342123242529e-09 -1.9999999997989297 3.3724298942350583e-10 5.3155827750196282e-09 3.867720862750352e-09 -1.9999999999473237 -1.7531216255471314e-10 2.355743093637587e-09 3.2670412827732608e-10 -2.4170319077325998e-09 -6.2567360193023421e-11 3.7933317178749912e-09 -1.9999999997453939 -3.9636285827778952e-09 -2.7932612170653973e-09 -2.0000000005105645 -5.9596603043880006e-09 -2.0000000004907399 -4.6557495032329891e-09 -1.7689254245265781e-09 1.9324131583227221e-09 -8.7479230016237674e-10 1.160522033785632e-09 4.444731565685945e-10 3.0209923822339516e-09 5.2346236464575448e-10 7.7606937743433567e-10 1.5712559838966573e-09 -1.7625155436454063e-10 -1.3590348882340563e-09 -2.3027463497769158e-09 1.4663163907793096e-09 4.7740686321171472e-10 6.6391099102576011e-10 9.3613060294351594e-10 1.9077681810113396e-09 4.4454638856092553e-10 3.4055066973158528e-10 -8.9363854044519061e-10 -2.4620984036373831e-09 -5.3508349013773241e-10 -5.4486159642961635e-10 -1.2159760685814165e-09 1.0701027136248177e-09 4.5990614099491122e-10 1.9016825982028806e-09 -3.6882116288762612e-11 -1.2870120403183248e-11 -1.5763940055262196e-09 -1.2331660143276377e-09 2.931625007841715e-09 -1.5000060457683175e-10 3.1480787635471598e-09 3.3578254216521022e-09 3.789518684635599e-09 2.7767171975168301e-09 4.3529803027358516e-09 4.2506465564577471e-09 2.4806365902595024e-09 1.9019374873351644e-09 2.3702502428731267e-09 8.4800892393924015e-10 4.0435983882793328e-09 1.4236114997585115e-09 3.5976040893471658e-09 3.2016086397539599e-09 1.4472208844936033e-09 2.934297411929857e-09 4.9390076096275737e-10 3.5697992735815606e-09 3.3459229997695563e-09 3.8741823013948619e-10 3.7254092963882363e-10 2.7127043466350045e-09 2.5713557655959395e-09 3.4076528809991625e-10 2.1068445062814031e-09 1.1827183046693613e-09 4.4785798852666522e-10 3.9658160245235889e-09 5.0370790233235239e-09 3.293474586382794e-09 2.0048310022587973e-09 1.0334055338271157e-09 7.5715596115546119e-10 9.7710929255179273e-10 2.4104876126847697e-09 3.3124313962976829e-10 2.9114307138136682e-10 -1.7579961007786871e-10 2.6439630931745279e-10 -4.1341121542033142e-10 -1.1358112054099736e-09 -5.162682045109433e-10 -5.8614305534518016e-10 -9.3519652441027809e-10 -1.127330323650635e-11 -1.4699930660028323e-11 6.5263751533149082e-11 2.2374647008083769e-10 2.784769880976161e-10 7.2785569400285058e-10 -3.740043282966689e-11 3.0652855343146895e-10 2.5422345298177605e-10 3.0062472834643279e-10 4.285528973427779e-10 2.0112300687725168e-10 1.1554383312716574e-10 8.5975792767061627e-11 1.1304324781726411e-09 1.2388850400201105e-09 4.2861594416154269e-10 4.6482443477240644e-10 4.8182124582229628e-10 3.4404584249349252e-10 -1.6245449791371945e-09 -2.1868949004291111e-09 -3.1330613476341579e-09 -1.6128502337794412e-09 3.2341121633884385e-09 3.404572109821772e-09 3.4820870332469363e-09 3.9352972889090836e-09 2.2050966327983076e-09 2.5525319852745906e-09 3.9018875946307356e-09 1.1272081390119233e-09 -2.0254568452884814e-09 -1.9933623749724182e-09 3.8039445168848314e-10 3.0745906776973363e-09 4.836429450736781e-10 1.6689975078609351e-09 7.7682009205389525e-10 4.1502398765690785e-10 2.0098174000605877e-10 1.9748314611940342e-09 1.167743916320428e-10 3.7775632821890719e-10 2.6834038005172522e-10 1.1334586520409977e-10 1.340752142467477e-10 2.583956826948575e-10 5.9818914513558565e-10 7.6538836773319514e-10 1.5636249534249102e-10 4.9014591977905078e-10 1.5409312026793249e-10 3.633930022522895e-10 1.7518782162130053e-09 1.4686860466979785e-09 7.334676362105669e-10 1.1326590144134619e-09 9.503603381234447e-10 6.685131760859747e-10 -9.998974469624303e-11 1.5426731824165843e-09 1.4920750433457356e-09 4.5557561152929966e-10 3.6805474121111965e-10 1.3759645788563432e-10 -1.185493743158781e-10 5.87860177538322e-11 9.20317254962417e-10 4.1755060589422885e-10 1.0768216742676825e-10 3.5970821037422656e-09 1.7698508058172586e-09 4.2453156919697933e-09 3.0583569918359639e-10 -9.2337831960921241e-10 -1.3362098398588137e-09 -6.6559845304442892e-10 -3.8147170886415828e-10 2.1237767961912497e-10 -4.7483234668918988e-10 -4.9409468537980079e-10 -5.8391570863509564e-10 1.2382374822777855e-09 3.6115341077316952e-10 6.738629361744792e-11 -2.1136208443910637e-12 1.3958709019238775e-09 9.7851070117640094e-10 5.5944417173569267e-10 2.177565386131631e-09 4.6625036931374093e-09 4.5548616875605798e-10 1.7733369684962263e-10 -3.3522467737401477e-10 4.8904257157951097e-10 6.0345318114284185e-10 2.0342248392392362e-10 6.2051520951768831e-11 2.6119166708871457e-10 -2.1764290895174254e-12 -3.436263662090847e-10 2.6507838341818321e-10 7.4742091050734473e-10 6.710762277698565e-11 3.3794756456479892e-11 1.3083426597586493e-10 
</DataArray>
<DataArray type="Float64" Name="piezo_head_p0" format="ascii">