<?xml version="1.0"?>
<VTKFile type="UnstructuredGrid" version="0.1" byte_order="LittleEndian">
<UnstructuredGrid>
<Piece NumberOfPoints="3764" NumberOfCells="1271">
<Points>
<DataArray type="Float64" NumberOfComponents="3" format="ascii">
1.000000000000000e-01 0.000000000000000e+00 0.000000000000000e+00 1.000000000000000e-01 2.040816326526773e-02 0.000000000000000e+00 1.000000000000000e-01 2.040816326526773e-02 0.000000000000000e+00 1.000000000000000e-01 4.081632653053230e-02 0.000000000000000e+00 1.000000000000000e-01 4.081632653053230e-02 0.000000000000000e+00 1.000000000000000e-01 6.122448979579424e-02 0.000000000000000e+00 1.000000000000000e-01 6.122448979579424e-02 0.000000000000000e+00 1.000000000000000e-01 8.163265306106718e-02 0.000000000000000e+00 1.000000000000000e-01 8.163265306106718e-02 0.000000000000000e+00 1.000000000000000e-01 1.020408163263421e-01 0.000000000000000e+00 1.000000000000000e-01 1.020408163263421e-01 0.000000000000000e+00 1.000000000000000e-01 1.224489795916153e-01 0.000000000000000e+00 1.000000000000000e-01 1.224489795916153e-01 0.000000000000000e+00 1.000000000000000e-01 1.428571428568673e-01 0.000000000000000e+00 1.000000000000000e-01 1.428571428568673e-01 0.000000000000000e+00 1.000000000000000e-01 1.632653061221139e-01 0.000000000000000e+00 1.000000000000000e-01 1.632653061221139e-01 0.000000000000000e+00 1.000000000000000e-01 1.836734693873606e-01 0.000000000000000e+00 1.000000000000000e-01 1.836734693873606e-01 0.000000000000000e+00 1.000000000000000e-01 2.040816326526072e-01 0.000000000000000e+00 1.000000000000000e-01 2.040816326526072e-01 0.000000000000000e+00 1.000000000000000e-01 2.244897959178539e-01 0.000000000000000e+00 1.000000000000000e-01 2.244897959178539e-01 0.000000000000000e+00 1.000000000000000e-01 2.448979591831005e-01 0.000000000000000e+00 1.000000000000000e-01 2.448979591831005e-01 0.000000000000000e+00 1.000000000000000e-01 2.653061224483471e-01 0.000000000000000e+00 1.000000000000000e-01 2.653061224483471e-01 0.000000000000000e+00 1.000000000000000e-01 2.857142857135938e-01 0.000000000000000e+00 1.000000000000000e-01 2.857142857135938e-01 0.000000000000000e+00 1.000000000000000e-01 3.061224489788404e-01 0.000000000000000e+00 1.000000000000000e-01 3.061224489788404e-01 0.000000000000000e+00 1.000000000000000e-01 3.265306122440871e-01 0.000000000000000e+00 1.000000000000000e-01 3.265306122440871e-01 0.000000000000000e+00 1.000000000000000e-01 3.469387755093337e-01 0.000000000000000e+00 1.000000000000000e-01 3.469387755093337e-01 0.000000000000000e+00 1.000000000000000e-01 3.673469387745804e-01 0.000000000000000e+00 1.000000000000000e-01 3.673469387745804e-01 0.000000000000000e+00 1.000000000000000e-01 3.877551020398269e-01 0.000000000000000e+00 1.000000000000000e-01 3.877551020398269e-01 0.000000000000000e+00 1.000000000000000e-01 4.081632653050736e-01 0.000000000000000e+00 1.000000000000000e-01 4.081632653050736e-01 0.000000000000000e+00 1.000000000000000e-01 4.285714285703202e-01 0.000000000000000e+00 1.000000000000000e-01 4.285714285703202e-01 0.000000000000000e+00 1.000000000000000e-01 4.489795918355669e-01 0.000000000000000e+00 1.000000000000000e-01 4.489795918355669e-01 0.000000000000000e+00 1.000000000000000e-01 4.693877551008135e-01 0.000000000000000e+00 1.000000000000000e-01 4.693877551008135e-01 0.000000000000000e+00 1.000000000000000e-01 4.897959183660601e-01 0.000000000000000e+00 1.000000000000000e-01 4.897959183660601e-01 0.000000000000000e+00 1.000000000000000e-01 5.102040816313634e-01 0.000000000000000e+00 1.000000000000000e-01 5.102040816313634e-01 0.000000000000000e+00 1.000000000000000e-01 5.306122448967233e-01 0.000000000000000e+00 1.000000000000000e-01 5.306122448967233e-01 0.000000000000000e+00 1.000000000000000e-01 5.510204081620832e-01 0.000000000000000e+00 1.000000000000000e-01 5.510204081620832e-01 0.000000000000000e+00 1.000000000000000e-01 5.714285714274430e-01 0.000000000000000e+00 1.000000000000000e-01 5.714285714274430e-01 0.000000000000000e+00 1.000000000000000e-01 5.918367346928030e-01 0.000000000000000e+00 1.000000000000000e-01 5.918367346928030e-01 0.000000000000000e+00 1.000000000000000e-01 6.122448979581627e-01 0.000000000000000e+00 1.000000000000000e-01 6.122448979581627e-01 0.000000000000000e+00 1.000000000000000e-01 6.326530612235226e-01 0.000000000000000e+00 1.000000000000000e-01 6.326530612235226e-01 0.000000000000000e+00 1.000000000000000e-01 6.530612244888825e-01 0.000000000000000e+00 1.000000000000000e-01 6.530612244888825e-01 0.000000000000000e+00 1.000000000000000e-01 6.734693877542424e-01 0.000000000000000e+00 1.000000000000000e-01 6.734693877542424e-01 0.000000000000000e+00 1.000000000000000e-01 6.938775510196021e-01 0.000000000000000e+00 1.000000000000000e-01 6.938775510196021e-01 0.000000000000000e+00 1.000000000000000e-01 7.142857142849620e-01 0.000000000000000e+00 1.000000000000000e-01 7.142857142849620e-01 0.000000000000000e+00 1.000000000000000e-01 7.346938775503219e-01 0.000000000000000e+00 1.000000000000000e-01 7.346938775503219e-01 0.000000000000000e+00 1.000000000000000e-01 7.551020408156818e-01 0.000000000000000e+00 1.000000000000000e-01 7.551020408156818e-01 0.000000000000000e+00 1.000000000000000e-01 7.755102040810415e-01 0.000000000000000e+00 1.000000000000000e-01 7.755102040810415e-01 0.000000000000000e+00 1.000000000000000e-01 7.959183673464014e-01 0.000000000000000e+00 1.000000000000000e-01 7.959183673464014e-01 0.000000000000000e+00 1.000000000000000e-01 8.163265306117613e-01 0.000000000000000e+00 1.000000000000000e-01 8.163265306117613e-01 0.000000000000000e+00 1.000000000000000e-01 8.367346938771211e-01 0.000000000000000e+00 1.000000000000000e-01 8.367346938771211e-01 0.000000000000000e+00 1.000000000000000e-01 8.571428571424810e-01 0.000000000000000e+00 1.000000000000000e-01 8.571428571424810e-01 0.000000000000000e+00 1.000000000000000e-01 8.775510204078409e-01 0.000000000000000e+00 1.000000000000000e-01 8.775510204078409e-01 0.000000000000000e+00 1.000000000000000e-01 8.979591836732008e-01 0.000000000000000e+00 1.000000000000000e-01 8.979591836732008e-01 0.000000000000000e+00 1.000000000000000e-01 9.183673469385606e-01 0.000000000000000e+00 1.000000000000000e-01 9.183673469385606e-01 0.000000000000000e+00 1.000000000000000e-01 9.387755102039205e-01 0.000000000000000e+00 1.000000000000000e-01 9.387755102039205e-01 0.000000000000000e+00 1.000000000000000e-01 9.591836734692804e-01 0.000000000000000e+00 1.000000000000000e-01 9.591836734692804e-01 0.000000000000000e+00 1.000000000000000e-01 9.795918367346401e-01 0.000000000000000e+00 1.000000000000000e-01 9.795918367346401e-01 0.000000000000000e+00 1.000000000000000e-01 1.000000000000000e+00 0.000000000000000e+00 4.999999999998959e-02 5.114756178172757e-01 0.000000000000000e+00 6.228151969683019e-02 5.312445519176795e-01 0.000000000000000e+00 3.751914167667291e-02 5.312592799347757e-01 0.000000000000000e+00 3.133542164424451e-02 4.639238697356087e-01 0.000000000000000e+00 2.409851663476202e-02 4.410528110032798e-01 0.000000000000000e+00 4.648260855400819e-02 4.547803401498470e-01 0.000000000000000e+00 0.000000000000000e+00 9.387755102038267e-01 0.000000000000000e+00 0.000000000000000e+00 9.183673469384355e-01 0.000000000000000e+00 1.944462618255723e-02 9.288128947356744e-01 0.000000000000000e+00 1.000000000000000e-01 5.306122448967233e-01 0.000000000000000e+00 1.000000000000000e-01 5.510204081620832e-01 0.000000000000000e+00 8.012197144515044e-02 5.416148681194984e-01 0.000000000000000e+00 0.000000000000000e+00 5.510204081649921e-01 0.000000000000000e+00 0.000000000000000e+00 5.306122448998274e-01 0.000000000000000e+00 1.963064815290805e-02 5.416826923830900e-01 0.000000000000000e+00 0.000000000000000e+00 8.571428571424604e-01 0.000000000000000e+00 0.000000000000000e+00 8.367346938772958e-01 0.000000000000000e+00 1.947907892149852e-02 8.466968164341721e-01 0.000000000000000e+00 0.000000000000000e+00 7.959183673469667e-01 0.000000000000000e+00 0.000000000000000e+00 7.755102040818023e-01 0.000000000000000e+00 2.258563083861561e-02 7.856795524796590e-01 0.000000000000000e+00 0.000000000000000e+00 7.346938775514733e-01 0.000000000000000e+00 0.000000000000000e+00 7.142857142863088e-01 0.000000000000000e+00 2.258563083859787e-02 7.244550626841598e-01 0.000000000000000e+00 1.000000000000000e-01 5.918367346928030e-01 0.000000000000000e+00 1.000000000000000e-01 6.122448979581627e-01 0.000000000000000e+00 7.741436916128577e-02 6.020060830913998e-01 0.000000000000000e+00 0.000000000000000e+00 4.489795918386030e-01 0.000000000000000e+00 0.000000000000000e+00 4.285714285732120e-01 0.000000000000000e+00 2.409851663476202e-02 4.410528110032798e-01 0.000000000000000e+00 0.000000000000000e+00 6.734693877559796e-01 0.000000000000000e+00 0.000000000000000e+00 6.530612244908152e-01 0.000000000000000e+00 1.986707969698399e-02 6.633683120936215e-01 0.000000000000000e+00 1.000000000000000e-01 6.530612244888825e-01 0.000000000000000e+00 1.000000000000000e-01 6.734693877542424e-01 0.000000000000000e+00 7.769343978564471e-02 6.632834118678752e-01 0.000000000000000e+00 0.000000000000000e+00 3.877551020424299e-01 0.000000000000000e+00 0.000000000000000e+00 3.673469387770387e-01 0.000000000000000e+00 2.258563083872488e-02 3.775857536437918e-01 0.000000000000000e+00 0.000000000000000e+00 6.122448979604860e-01 0.000000000000000e+00 0.000000000000000e+00 5.918367346953213e-01 0.000000000000000e+00 1.954480862887780e-02 6.024198660057475e-01 0.000000000000000e+00 1.000000000000000e-01 7.142857142849620e-01 0.000000000000000e+00 1.000000000000000e-01 7.346938775503219e-01 0.000000000000000e+00 8.045519137097396e-02 7.248688455956910e-01 0.000000000000000e+00 0.000000000000000e+00 3.265306122462567e-01 0.000000000000000e+00 0.000000000000000e+00 3.061224489808657e-01 0.000000000000000e+00 2.261300864914188e-02 3.164931898911296e-01 0.000000000000000e+00 1.000000000000000e-01 1.224489795916153e-01 0.000000000000000e+00 1.000000000000000e-01 1.428571428568673e-01 0.000000000000
[...]
<PointData Scalars="temperature," Vectors="" Tensors="">
<DataArray type="Float64" Name="temperature" format="ascii">
1.000423646089026e+00 9.997217191395024e-01 9.999358017677493e-01 9.982192245035924e-01 9.984109496373563e-01 9.958236157053121e-01 9.960002836428151e-01 9.925986663025809e-01 9.927475104808180e-01 9.886398341819406e-01 9.887771157273988e-01 9.840347404736536e-01 9.841537516626869e-01 9.788733349753220e-01 9.789701806475871e-01 9.732328110851998e-01 9.733180058588559e-01 9.671776172861284e-01 9.672493893160541e-01 9.607693974822292e-01 9.608297396197701e-01 9.540581279726543e-01 9.541107589495063e-01 9.470826855969786e-01 9.471273927144868e-01 9.398785177172212e-01 9.399185053060151e-01 9.324745501978619e-01 9.325107624618189e-01 9.248923451982990e-01 9.249205655004875e-01 9.171501769175455e-01 9.171742999650916e-01 9.092730204644941e-01 9.093001488067122e-01 9.012737670279624e-01 9.012960137345898e-01 8.931552213732682e-01 8.931735660622944e-01 8.849329984680718e-01 8.849494187579244e-01 8.766201795405326e-01 8.766326125901370e-01 8.682225947203785e-01 8.682372267010161e-01 8.597457561371913e-01 8.597589658524457e-01 8.511935272009016e-01 8.512096602494993e-01 8.425784390749209e-01 8.425914313003017e-01 8.339097708827293e-01 8.339219522447132e-01 8.251861547089159e-01 8.251939245060239e-01 8.164224686220554e-01 8.164305720473266e-01 8.076143175198041e-01 8.076160616454492e-01 7.987719704682230e-01 7.987693296264986e-01 7.899063893672056e-01 7.899136526570140e-01 7.810171487257609e-01 7.810203874237240e-01 7.721105328381527e-01 7.721069720045628e-01 7.631874575212473e-01 7.631868150628722e-01 7.542665483848481e-01 7.542657248908863e-01 7.453351887255873e-01 7.453319806425068e-01 7.364120067017429e-01 7.364059373289117e-01 7.274978570149920e-01 7.274948794230829e-01 7.185928809420588e-01 7.185862549381579e-01 7.097065591656542e-01 7.096953224011496e-01 7.008540927708669e-01 7.008476747610102e-01 6.920466295850118e-01 6.920337631664930e-01 6.832857790902911e-01 6.832692353974462e-01 6.745991716846303e-01 6.745730632924191e-01 6.659926740243221e-01 6.659597716053116e-01 6.575224204876552e-01 6.574811390958207e-01 6.492088075327557e-01 6.491325169459851e-01 6.411273913737736e-01 6.409438421043903e-01 6.335330613195880e-01 6.618232216721064e-01 6.737947302114008e-01 6.289828322862279e-01 6.554718248516122e-01 6.569020673479431e-01 6.772803456829085e-01 4.497771949655460e-01 4.544580402171409e-01 4.551377512820635e-01 7.836770019315603e-01 7.744761174212570e-01 7.141260503565060e-01 5.968873458526304e-01 6.063296863840515e-01 6.047708817107983e-01 4.727258772337016e-01 4.796891742222426e-01 4.795062283794913e-01 4.947270987872733e-01 5.025747731034098e-01 5.031226127079297e-01 5.187579117778670e-01 5.270610421036805e-01 5.274572435546304e-01 7.567160557497349e-01 7.477336186456810e-01 6.786375483855908e-01 6.435198053842237e-01 6.532049709049033e-01 6.525289502641889e-01 5.439981822567892e-01 5.526469262607525e-01 5.518323795876096e-01 7.298582584674731e-01 7.209116077219199e-01 6.524366896224738e-01 6.726902015937828e-01 6.827206955712378e-01 6.823284957105168e-01 5.700899871158114e-01 5.790684432618255e-01 5.778650357816328e-01 7.031165209840534e-01 6.942123563630379e-01 6.343301360953170e-01 7.033958279069803e-01 7.141390702236348e-01 7.132437807188067e-01 9.554128126605087e-01 9.455706539064631e-01 9.048604823248901e-01 9.798291503451362e-01 9.697763177419109e-01 9.497599112212443e-01 7.367901072533075e-01 7.488604023676847e-01 7.472010696638162e-01 9.302966443970753e-01 9.212180468680061e-01 8.765319831070187e-01 6.765462855379060e-01 6.678617778970308e-01 6.081759921544108e-01 7.754336976562044e-01 7.901172603891946e-01 7.868405081759365e-01 9.052066177372819e-01 8.963457230569718e-01 8.462651616400971e-01 8.240279204059358e-01 8.433072119595620e-01 8.365972866075695e-01 8.798296261759098e-01 8.710084041831764e-01 8.173520316550261e-01 8.886564364889848e-01 9.141293468839334e-01 9.038801685347170e-01 8.540552219721886e-01 8.451969249012870e-01 7.891655086178158e-01 8.278550965182283e-01 8.190179784403928e-01 7.619573426550982e-01 4.620358418784035e-01 4.891045363745781e-01 4.738912916878738e-01 9.598306119233083e-01 9.454542938539434e-01 9.739832602884196e-01 6.918779071578739e-01 6.808734376629686e-01 6.530523970240717e-01 5.124277272975659e-01 4.884120530160717e-01 5.363769787956393e-01 9.133759470786826e-01 9.313313116192301e-01 9.046570607937410e-01 5.094575242113100e-01 4.714676969957876e-01 4.914238120079342e-01 9.527514008903103e-01 9.762133848126766e-01 9.432136468156819e-01 5.100923215614426e-01 5.391075558643650e-01 5.581996148261575e-01 6.537331488301702e-01 6.409840905958467e-01 6.591979446380262e-01 6.459647801361346e-01 6.292746512800161e-01 6.738824915922823e-01 5.365323409804199e-01 4.882520505710926e-01 5.204242291014005e-01 4.905032705014611e-01 5.176553706042869e-01 4.915302370542672e-01 4.519575091757363e-01 4.616879119451944e-01 4.578089229716401e-01 4.532849204569456e-01 4.488772072792433e-01 4.691316653427264e-01 1.001767492359611e+00 9.788215483033482e-01 9.763359133904528e-01 6.401752212697820e-01 6.560483971995477e-01 6.433961881817859e-01 8.168541879829203e-01 7.640228731538128e-01 7.642145209053282e-01 4.699249351671198e-01 4.823822279839026e-01 4.745675226384725e-01 7.175204226093227e-01 6.603410260129914e-01 6.557194599203033e-01 6.913289768301222e-01 6.344361870759614e-01 6.372063977282915e-01 7.871389262759708e-01 8.037317279362203e-01 7.897563542925994e-01 8.416300794982549e-01 8.583006229346873e-01 8.383007326435431e-01 6.649384149939215e-01 6.097243833872137e-01 6.111255511055849e-01 5.668343220525082e-01 5.811138737735123e-01 5.715966553546099e-01 9.031375726300890e-01 8.484494284106265e-01 8.629923999122955e-01 8.776232717776913e-01 8.196403196262562e-01 8.342679676088723e-01 8.517108626031086e-01 7.915714710541392e-01 8.064253475651996e-01 8.254633932706607e-01 7.644348005116487e-01 7.789229744374337e-01 5.937315331605422e-01 6.079709060417143e-01 5.982542021613273e-01 6.487413986263156e-01 6.646562666520414e-01 6.569666460170827e-01 7.443995051617970e-01 6.860529809872562e-01 6.819161737554257e-01 6.787743607247052e-01 6.943615589988621e-01 6.862726556830095e-01 7.103136139044126e-01 7.260884729225677e-01 7.170428563976011e-01 7.453396904540134e-01 7.613405723928706e-01 7.507112164801969e-01 4.766941914805679e-01 4.890634283362842e-01 4.825645689385915e-01 4.909458582411262e-01 5.068579934834482e-01 4.972074841192207e-01 4.987539011638934e-01 5.128790744692963e-01 5.069289634876641e-01 5.148772739202514e-01 5.312879393055434e-01 5.211123618949302e-01 5.231741746963543e-01 5.376583131349139e-01 5.313323881559244e-01 5.406701842684808e-01 5.551658334425355e-01 5.458571918732531e-01 9.529931555890271e-01 9.075408198549694e-01 9.258100065567705e-01 9.449248242255108e-01 9.041304763217165e-01 9.050779198791379e-01 9.700251208889316e-01 9.407488672866062e-01 9.489384845428865e-01 9.283123860241560e-01 8.787087839861953e-01 8.923408634792614e-01 7.721461582223311e-01 7.900825452066977e-01 7.741943672367868e-01 7.264827529536739e-01 6.557823505076034e-01 6.775611286922157e-01 7.331227426586775e-01 7.508184888938394e-01 7.371800411622005e-01 7.533916970974452e-01 6.819473724033730e-01 7.047003935746099e-01 6.994976155083674e-01 7.170723178460895e-01 7.046054168407359e-01 6.687095877508867e-01 6.862448174813841e-01 6.743267740552453e-01 7.719309558003605e-01 7.139048517909735e-01 7.167287609978820e-01 7.810954220408334e-01 7.170071926413171e-01 7.330116756668639e-01 6.030679231869865e-01 6.152718922530050e-01 6.083211495337801e-01 9.779276843604001e-01 9.520730612869923e-01 9.657467880687028e-01 9.856805230100197e-01 9.685507000219861e-01 9.793524447369871e-01 4.438445106681426e-01 4.524341987234450e-01 4.501930101470945e-01 4.473567815540906e-01 4.576496707288899e-01 4.528221943129505e-01 6.214882415864834e-01 6.599759735322500e-01 6.803290580044669e-01 5.963745793496495e-01 6.334257917250449e-01 6.541825605908267e-01 5.359213700424904e-01 5.052801437615591e-01 5.261546804711090e-01 7.163535217560474e-01 6.936317210107716e-01 6.846523209848333e-01 7.465907483323547e-01 7.237901839967493e-01 7.155021574118365e-01 5.608353024829166e-01 5.296844481103287e-01 5.510824643641484e-01 7.790401764087582e-01 7.561044360787177e-01 7.492713247819507e-01 7.887065273539191e-01 8.148678912233243e-01 7.925459930588435e-01 8.657305592630016e-01 9.060471100530905e-01 8.778655997503148e-01 5.962830623488268e-01 6.542161245799498e-01 6.223146728764533e-01 7.892565102728569e-01 8.114526221302019e-01 8.142791263312654e-01 8.042236536958306e-01 8.202787473501275e-01 8.030276354401220e-01 7.093789866949425e-01 6.517024807052084e-01 6.598582646055579e-01 8.636076197824953e-01 8.809025911767915e-01 8.577799237417671e-01 6.826860073053171e-01 6.241322152566868e-01 6.342767797605774e-01 9.117775587378681e-01 8.635102906044914e-01 8.730724820214222e-01 8.863509286861438e-01 8.345385683705761e-01 8.428107880969762e-01 8.605851087659752e-01 8.065408119726545e-01 8.147433454019412e-01 8.344258203535267e-01 7.789421593894285e-01 7.870730925118830e-01 5.582936244148903e-01 5.713153717104817e-01 5.625263041064059e-01 5.492836431827164e-01 5.627159281555122e-01 5.552721783266472e-01 5.757743567758522e-01 5.889284409571665e-01 5.812346378203652e-01 9.200407860063597e-01 8.739482986024442e-01 8.775390092711537e-01 7.002746523532818e-01 6.372338050406628e-01 6.518384009825355e-01 6.736250268552955e-01 6.111398481194923e-01 6.243657847969156e-01 8.946896700055645e-01 8.434221527383875e-01 8.478203091624776e-01 8.690373535630345e-01 8.151916812114411e-01 8.192711403535212e-01 8.219330599604707e-01 8.387379558368895e-01 8.201823027835231e-01 8.429828314039881e-01 7.874284183051984e-01 7.913555147557654e-01 8.873345932582448e-01 9.052181086253351e-01 8.806658503438279e-01 6.216213091036848e-01 6.801981736584636e-01 6.459878484474110e-01 6.894746367524124e-01 6.556876293075375e-01 6.791498413551073e-01 7.164292889485943e-01 6.846382252264670e-01 7.081264840314170e-01 7.465753222950234e-01 7.155702904645178e-01 7.390857112834044e-01 7.789009918552404e-01 7.494525144756601e-01 7.729553560821443e-01 5.359525057727275e-01 5.159453687506839e-01 5.052511424490838e-01 5.608842789975749e-01 5.403261125738847e-01 5.296297172335270e-01 8.673769895130672e-01 8.966121214282867e-01 9.044013581497281e-01 5.850351219588926e-01 5.978685976760498e-01 5.888023393101766e-01 4.582850336681636e-01 4.612386594491251e-01 4.722386862619087e-01 6.212541270140685e-01 5.908696721036648e-01 6.011741836161806e-01 7.791364329829115e-01 8.211495460794367e-01 8.081399435722443e-01 7.467030088795739e-01 7.901295960319978e-01 7.779787555718757e-01 7.164739722094809e-01 7.607805503678915e-01 7.490434770550607e-01 5.358010691306441e-01 5.773455143755148e-01 5.702994967066988e-01 8.662222194887399e-01 8.406791937190350e-01 8.583843418925944e-01 5.607699307369151e-01 6.031401265126684e-01 5.953726579740594e-01 7.984562123610461e-01 7.406424893269129e-01 7.316759961828504e-01 6.208466319296030e-01 6.329835134761111e-01 6.242637829252951e-01 5.797465145333083e-01 6.011785663577569e-01 5.912342013736552e-01 8.470374023040396e-01 8.086525174973361e-01 8.209938036152993e-01 8.182770424466577e-01 7.783065068959227e-01 7.901795347148324e-01 7.902285737237071e-01 7.492659527518619e-01 7.609488043682382e-01 6.098172249196407e-01 5.705713354432724e-01 5.774787991054372e-01 8.379354374573219e-01 8.594210866638811e-01 8.399298781113762e-01 6.358609925807240e-01 5.956312072681962e-01 6.032673893813485e-01 6.068047739321192e-01 5.363886322348042e-01 5.674724511927902e-01 9.949804311246041e-01 9.850689271588662e-01 9.805939040599442e-01 4.442378582997277e-01 4.464616275633289e-01 4.477349545396765e-01 6.064584841351232e-01 5.601120933671029e-01 5.368216991077844e-01 4.755586125430099e-01 4.744104193113290e-01 4.593395600597681e-01 4.830702661034247e-01 4.917258997242788e-01 4.740206649816607e-01 7.361244928215204e-01 6.771953947782603e-01 6.856193822100496e-01 6.595971777397884e-01 6.738352229969163e-01 6.641049231858104e-01 6.897944880925178e-01 7.041490274319933e-01 6.938719909532869e-01 7.222609748788452e-01 7.368004183874098e-01 7.255611976600672e-01 7.590107046726967e-01 7.739302852759178e-01 7.607744387925474e-01 4.842083933998025e-01 4.966529128006482e-01 4.889738198600298e-01 9.617493221508383e-01 9.274696130228727e-01 9.386077543137542e-01 5.075230055265887e-01 5.205927650541169e-01 5.124562041375958e-01 9.368564665795693e-01 8.933446618496007e-01 9.026708161414554e-01 5.324447531476713e-01 5.456063305986998e-01 5.371977592697789e-01 9.981558410560797e-01 1.002332453002782e+00 9.760182486907434e-01 4.801694891778386e-01 4.489118006893179e-01 4.738014616897891e-01 7.631497286466723e-01 7.043213281673366e-01 7.136459054908134e-01 7.648020896231099e-01 7.634080024440909e-01 7.176739295328285e-01 5.960990403901133e-01 5.664796145754731e-01 5.752543530257120e-01 8.146894975854125e-01 8.528890640916283e-01 8.400636476164075e-01 7.984050569866680e-01 7.317760284159726e-01 7.540401341518642e-01 6.210176817182159e-01 6.373499099358318e-01 6.329215757981348e-01 9.144157765291340e-01 9.419295136645341e-01 9.303984031328636e-01 7.128734587181569e-01 6.775283981589705e-01 6.803165537793163e-01 7.154107130961849e-01 6.777261945898732e-01 7.201857281568098e-01 9.199570076926673e-01 9.000641836263775e-01 9.240242537824919e-01 5.536034326539163e-01 5.754055444030252e-01 5.666098032466481e-01 8.770436110386266e-01 8.410364375628087e-01 8.521843963916717e-01 6.124629769460483e-01 6.601479781685431e-01 6.517227801491455e-01 8.221381521737161e-01 8.036233614554497e-01 8.200095140247530e-01 5.864187933474805e-01 6.343303076515837e-01 6.244141644022470e-01 8.773570083327711e-01 8.584034934483946e-01 8.804879385622991e-01 8.317246796611376e-01 8.738253413300556e-01 8.628870544228123e-01 7.998461820276196e-01 8.433722710591234e-01 8.341655013626780e-01 7.700715357384883e-01 8.151549478269801e-01 8.063389000666905e-01 7.412951342098435e-01 7.873958846229011e-01 7.788404081638471e-01 5.793592417310202e-01 5.627382831017897e-01 5.715186502331218e-01 6.058166542351304e-01 5.888727992278143e-01 5.981369613419407e-01 9.047265572877906e-01 9.252653976043730e-01 8.988828669647606e-01 9.495464350776368e-01 9.422574219941492e-01 9.683242274212223e-01 9.612065776313441e-01 9.830931796508270e-01 9.652078184082131e-01 4.620785114383391e-01 4.507741199320860e-01 4.523282221055797e-01 4.583561654340965e-01 4.676708956921151e-01 4.522750784153434e-01 4.851475895004818e-01 4.720419727543360e-01 4.938972347706953e-01 6.901577275881962e-01 7.323620169214758e-01 7.201964303139897e-01 4.832443578306273e-01 5.140858362020484e-01 4.916560147794434e-01 5.178730644322536e-01 4.887862639262786e-01 5.171611081327987e-01 7.158360363429891e-01 7.199598382463602e-01 7.612297757094704e-01 5.176377881625168e-01 4.942215991422969e-01 5.009737840826873e-01 6.336152879606360e-01 6.255937203189942e-01 5.797001192978830e-01 6.369827803614171e-01 6.857800289950594e-01 6.773122482428290e-01 6.826469470366164e-01 6.643921876441720e-01 6.740056418313107e-01 7.124496621762324e-01 6.941240120920323e-01 7.043210323663140e-01 7.441970473803449e-01 7.258646457447701e-01 7.368915348411694e-01 7.795773249893486e-01 7.611366920348147e-01 7.739310193591189e-01 9.087419326170799e-01 9.405971923364943e-01 9.255867321019955e-01 5.056816266854696e-01 4.889142568913941e-01 4.970169071969497e-01 8.651439093978669e-01 9.039736690837077e-01 8.921373862321523e-01 5.297129843633307e-01 5.125858949507599e-01 5.208498031975015e-01 5.547667231252651e-01 5.374206428033679e-01 5.457149006845852e-01 4.526032296056129e-01 4.457412716055758e-01 4.512128420112878e-01 9.972299804228095e-01 9.941567532491767e-01 9.828722536639952e-01 6.639719919773907e-01 7.137124726919045e-01 7.044632285328618e-01 9.201032801883938e-01 9.438974449443495e-01 9.239134507689311e-01 6.306346433360062e-01 6.587522573575092e-01 6.329662486850675e-01 6.983984108290640e-01 6.776814833305498e-01 6.588700529838115e-01 6.433552744656071e-01 6.173312126846930e-01 6.324072969647885e-01 9.613300311650264e-01 9.723117475017965e-01 9.826283296580064e-01 4.646531603566905e-01 4.711228439074062e-01 4.476552788055655e-01 4.856081503003288e-01 4.892669749117541e-01 4.663134087680925e-01 4.760226252192000e-01 4.664939410896276e-01 4.890349949455896e-01 6.477539030348085e-01 5.804792729472726e-01 6.098199471151670e-01 7.628600864544410e-01 7.198959091187235e-01 7.329517886925446e-01 4.808974789797268e-01 5.010670566168270e-01 4.940917818325525e-01 6.552511067911089e-01 6.512499562633476e-01 6.342083111396045e-01 7.158205397210166e-01 7.511704654314160e-01 7.025437570080245e-01 9.499278565808404e-01 9.260287186387850e-01 9.417773465071879e-01 6.474772563915889e-01 5.961310269418084e-01 5.806415268792520e-01 4.638079484194910e-01 4.504708937341034e-01 4.695363092578031e-01 7.208766106919333e-01 7.120909587404202e-01 6.573576374084218e-01 7.902358320320739e-01 8.064081868631880e-01 8.010466824062250e-01 6.942381782635634e-01 6.854412099838958e-01 6.317093385117558e-01 8.435413706513666e-01 8.649094987210613e-01 8.565729680283767e-01 6.677108831613543e-01 6.592884534130614e-01 6.070822438231117e-01 5.614167323198529e-01 5.702129814964451e-01 5.684225557877660e-01 9.135951505028007e-01 9.047321040990928e-01 8.616640230506963e-01 8.883498797075121e-01 8.795484674852925e-01 8.325767008093908e-01 8.627230576067745e-01 8.538832222101163e-01 8.044716382922703e-01 8.366756867358809e-01 8.277947608059588e-01 7.767803177527000e-01 5.880440048416640e-01 5.971283683950560e-01 5.950431448699927e-01 6.530408487901287e-01 6.630454944335205e-01 6.609529285207916e-01 6.826887136955736e-01 6.930808159771303e-01 6.907994749084549e-01 7.476990946230500e-01 7.388809456303270e-01 6.830416942400789e-01 7.141242809063019e-01 7.253729081813602e-01 7.226558500178621e-01 7.488851277643757e-01 7.618270648623553e-01 7.581463834987932e-01 4.797813959699901e-01 4.871807764026786e-01 4.861377804027844e-01 4.872461547761714e-01 4.946661129393084e-01 4.937958842940517e-01 5.025406665936488e-01 5.107388665896639e-01 5.094555084511786e-01 5.107352016078830e-01 5.187083730920300e-01 5.176106364941017e-01 5.270124915781020e-01 5.356457458458592e-01 5.341788946149194e-01 5.355812598029650e-01 5.440560434167228e-01 5.426363590366678e-01 9.635176335900301e-01 9.538177256934484e-01 9.254740517492690e-01 9.716510465233076e-01 9.619712540678497e-01 9.388920658136871e-01 9.468886893971916e-01 9.377028933806888e-01 9.021887513487457e-01 9.386054610491658e-01 9.294761280331798e-01 8.914793834364586e-01 7.618638702444493e-01 7.753375666732869e-01 7.712998501260538e-01 7.253954140748453e-01 7.367182117383869e-01 7.339073991308047e-01 7.388947186241094e-01 7.298032201520158e-01 6.745791018529580e-01 6.930886684566856e-01 7.033402218899526e-01 7.011061987932500e-01 7.657781880715978e-01 7.566364130106241e-01 7.018028461847867e-01 6.629688408163451e-01 6.726370889448917e-01 6.707560134503688e-01 7.746476348105068e-01 7.656728042858848e-01 7.112447424056864e-01 5.176342971212238e-01 5.035314261561195e-01 4.890134698609609e-01 4.735683210297476e-01 4.915732786170091e-01 5.008119857260405e-01 8.015903000653362e-01 7.922609633758902e-01 7.377506574116728e-01 6.151961616997987e-01 6.250499320689116e-01 6.204621162418079e-01 9.085492124453505e-01 8.829430706768602e-01 9.002426257961285e-01 8.772705162831589e-01 9.013640595101055e-01 8.818138375509936e-01 8.649086800172968e-01 8.338937764165169e-01 8.493884731341499e-01 8.313526767886439e-01 7.984717824147948e-01 8.077663478133970e-01 7.994086690589730e-01 7.653143937686967e-01 7.735269007660189e-01 7.696327151624066e-01 7.347638053293440e-01 7.423623199577453e-01 7.408894823867984e-01 7.057915317167363e-01 7.128511114482244e-01 8.220626013756286e-01 8.497927325318135e-01 8.334857185442760e-01 7.798009532528375e-01 8.083978430762759e-01 7.978675267840324e-01 7.443929966302700e-01 7.73983570218394