<?xml version="1.0"?>
<VTKFile type="UnstructuredGrid" version="0.1" byte_order="LittleEndian">
<UnstructuredGrid>
<Piece NumberOfPoints="3764" NumberOfCells="1271">
<Points>
<DataArray type="Float64" NumberOfComponents="3" format="ascii">
1.000000000000000e-01 0.000000000000000e+00 0.000000000000000e+00 1.000000000000000e-01 2.040816326526773e-02 0.000000000000000e+00 1.000000000000000e-01 2.040816326526773e-02 0.000000000000000e+00 1.000000000000000e-01 4.081632653053230e-02 0.000000000000000e+00 1.000000000000000e-01 4.081632653053230e-02 0.000000000000000e+00 1.000000000000000e-01 6.122448979579424e-02 0.000000000000000e+00 1.000000000000000e-01 6.122448979579424e-02 0.000000000000000e+00 1.000000000000000e-01 8.163265306106718e-02 0.000000000000000e+00 1.000000000000000e-01 8.163265306106718e-02 0.000000000000000e+00 1.000000000000000e-01 1.020408163263421e-01 0.000000000000000e+00 1.000000000000000e-01 1.020408163263421e-01 0.000000000000000e+00 1.000000000000000e-01 1.224489795916153e-01 0.000000000000000e+00 1.000000000000000e-01 1.224489795916153e-01 0.000000000000000e+00 1.000000000000000e-01 1.428571428568673e-01 0.000000000000000e+00 1.000000000000000e-01 1.428571428568673e-01 0.000000000000000e+00 1.000000000000000e-01 1.632653061221139e-01 0.000000000000000e+00 1.000000000000000e-01 1.632653061221139e-01 0.000000000000000e+00 1.000000000000000e-01 1.836734693873606e-01 0.000000000000000e+00 1.000000000000000e-01 1.836734693873606e-01 0.000000000000000e+00 1.000000000000000e-01 2.040816326526072e-01 0.000000000000000e+00 1.000000000000000e-01 2.040816326526072e-01 0.000000000000000e+00 1.000000000000000e-01 2.244897959178539e-01 0.000000000000000e+00 1.000000000000000e-01 2.244897959178539e-01 0.000000000000000e+00 1.000000000000000e-01 2.448979591831005e-01 0.000000000000000e+00 1.000000000000000e-01 2.448979591831005e-01 0.000000000000000e+00 1.000000000000000e-01 2.653061224483471e-01 0.000000000000000e+00 1.000000000000000e-01 2.653061224483471e-01 0.000000000000000e+00 1.000000000000000e-01 2.857142857135938e-01 0.000000000000000e+00 1.000000000000000e-01 2.857142857135938e-01 0.000000000000000e+00 1.000000000000000e-01 3.061224489788404e-01 0.000000000000000e+00 1.000000000000000e-01 3.061224489788404e-01 0.000000000000000e+00 1.000000000000000e-01 3.265306122440871e-01 0.000000000000000e+00 1.000000000000000e-01 3.265306122440871e-01 0.000000000000000e+00 1.000000000000000e-01 3.469387755093337e-01 0.000000000000000e+00 1.000000000000000e-01 3.469387755093337e-01 0.000000000000000e+00 1.000000000000000e-01 3.673469387745804e-01 0.000000000000000e+00 1.000000000000000e-01 3.673469387745804e-01 0.000000000000000e+00 1.000000000000000e-01 3.877551020398269e-01 0.000000000000000e+00 1.000000000000000e-01 3.877551020398269e-01 0.000000000000000e+00 1.000000000000000e-01 4.081632653050736e-01 0.000000000000000e+00 1.000000000000000e-01 4.081632653050736e-01 0.000000000000000e+00 1.000000000000000e-01 4.285714285703202e-01 0.000000000000000e+00 1.000000000000000e-01 4.285714285703202e-01 0.000000000000000e+00 1.000000000000000e-01 4.489795918355669e-01 0.000000000000000e+00 1.000000000000000e-01 4.489795918355669e-01 0.000000000000000e+00 1.000000000000000e-01 4.693877551008135e-01 0.000000000000000e+00 1.000000000000000e-01 4.693877551008135e-01 0.000000000000000e+00 1.000000000000000e-01 4.897959183660601e-01 0.000000000000000e+00 1.000000000000000e-01 4.897959183660601e-01 0.000000000000000e+00 1.000000000000000e-01 5.102040816313634e-01 0.000000000000000e+00 1.000000000000000e-01 5.102040816313634e-01 0.000000000000000e+00 1.000000000000000e-01 5.306122448967233e-01 0.000000000000000e+00 1.000000000000000e-01 5.306122448967233e-01 0.000000000000000e+00 1.000000000000000e-01 5.510204081620832e-01 0.000000000000000e+00 1.000000000000000e-01 5.510204081620832e-01 0.000000000000000e+00 1.000000000000000e-01 5.714285714274430e-01 0.000000000000000e+00 1.000000000000000e-01 5.714285714274430e-01 0.000000000000000e+00 1.000000000000000e-01 5.918367346928030e-01 0.000000000000000e+00 1.000000000000000e-01 5.918367346928030e-01 0.000000000000000e+00 1.000000000000000e-01 6.122448979581627e-01 0.000000000000000e+00 1.000000000000000e-01 6.122448979581627e-01 0.000000000000000e+00 1.000000000000000e-01 6.326530612235226e-01 0.000000000000000e+00 1.000000000000000e-01 6.326530612235226e-01 0.000000000000000e+00 1.000000000000000e-01 6.530612244888825e-01 0.000000000000000e+00 1.000000000000000e-01 6.530612244888825e-01 0.000000000000000e+00 1.000000000000000e-01 6.734693877542424e-01 0.000000000000000e+00 1.000000000000000e-01 6.734693877542424e-01 0.000000000000000e+00 1.000000000000000e-01 6.938775510196021e-01 0.000000000000000e+00 1.000000000000000e-01 6.938775510196021e-01 0.000000000000000e+00 1.000000000000000e-01 7.142857142849620e-01 0.000000000000000e+00 1.000000000000000e-01 7.142857142849620e-01 0.000000000000000e+00 1.000000000000000e-01 7.346938775503219e-01 0.000000000000000e+00 1.000000000000000e-01 7.346938775503219e-01 0.000000000000000e+00 1.000000000000000e-01 7.551020408156818e-01 0.000000000000000e+00 1.000000000000000e-01 7.551020408156818e-01 0.000000000000000e+00 1.000000000000000e-01 7.755102040810415e-01 0.000000000000000e+00 1.000000000000000e-01 7.755102040810415e-01 0.000000000000000e+00 1.000000000000000e-01 7.959183673464014e-01 0.000000000000000e+00 1.000000000000000e-01 7.959183673464014e-01 0.000000000000000e+00 1.000000000000000e-01 8.163265306117613e-01 0.000000000000000e+00 1.000000000000000e-01 8.163265306117613e-01 0.000000000000000e+00 1.000000000000000e-01 8.367346938771211e-01 0.000000000000000e+00 1.000000000000000e-01 8.367346938771211e-01 0.000000000000000e+00 1.000000000000000e-01 8.571428571424810e-01 0.000000000000000e+00 1.000000000000000e-01 8.571428571424810e-01 0.000000000000000e+00 1.000000000000000e-01 8.775510204078409e-01 0.000000000000000e+00 1.000000000000000e-01 8.775510204078409e-01 0.000000000000000e+00 1.000000000000000e-01 8.979591836732008e-01 0.000000000000000e+00 1.000000000000000e-01 8.979591836732008e-01 0.000000000000000e+00 1.000000000000000e-01 9.183673469385606e-01 0.000000000000000e+00 1.000000000000000e-01 9.183673469385606e-01 0.000000000000000e+00 1.000000000000000e-01 9.387755102039205e-01 0.000000000000000e+00 1.000000000000000e-01 9.387755102039205e-01 0.000000000000000e+00 1.000000000000000e-01 9.591836734692804e-01 0.000000000000000e+00 1.000000000000000e-01 9.591836734692804e-01 0.000000000000000e+00 1.000000000000000e-01 9.795918367346401e-01 0.000000000000000e+00 1.000000000000000e-01 9.795918367346401e-01 0.000000000000000e+00 1.000000000000000e-01 1.000000000000000e+00 0.000000000000000e+00 4.999999999998959e-02 5.114756178172757e-01 0.000000000000000e+00 6.228151969683019e-02 5.312445519176795e-01 0.000000000000000e+00 3.751914167667291e-02 5.312592799347757e-01 0.000000000000000e+00 3.133542164424451e-02 4.639238697356087e-01 0.000000000000000e+00 2.409851663476202e-02 4.410528110032798e-01 0.000000000000000e+00 4.648260855400819e-02 4.547803401498470e-01 0.000000000000000e+00 0.000000000000000e+00 9.387755102038267e-01 0.000000000000000e+00 0.000000000000000e+00 9.183673469384355e-01 0.000000000000000e+00 1.944462618255723e-02 9.288128947356744e-01 0.000000000000000e+00 1.000000000000000e-01 5.306122448967233e-01 0.000000000000000e+00 1.000000000000000e-01 5.510204081620832e-01 0.000000000000000e+00 8.012197144515044e-02 5.416148681194984e-01 0.000000000000000e+00 0.000000000000000e+00 5.510204081649921e-01 0.000000000000000e+00 0.000000000000000e+00 5.306122448998274e-01 0.000000000000000e+00 1.963064815290805e-02 5.416826923830900e-01 0.000000000000000e+00 0.000000000000000e+00 8.571428571424604e-01 0.000000000000000e+00 0.000000000000000e+00 8.367346938772958e-01 0.000000000000000e+00 1.947907892149852e-02 8.466968164341721e-01 0.000000000000000e+00 0.000000000000000e+00 7.959183673469667e-01 0.000000000000000e+00 0.000000000000000e+00 7.755102040818023e-01 0.000000000000000e+00 2.258563083861561e-02 7.856795524796590e-01 0.000000000000000e+00 0.000000000000000e+00 7.346938775514733e-01 0.000000000000000e+00 0.000000000000000e+00 7.142857142863088e-01 0.000000000000000e+00 2.258563083859787e-02 7.244550626841598e-01 0.000000000000000e+00 1.000000000000000e-01 5.918367346928030e-01 0.000000000000000e+00 1.000000000000000e-01 6.122448979581627e-01 0.000000000000000e+00 7.741436916128577e-02 6.020060830913998e-01 0.000000000000000e+00 0.000000000000000e+00 4.489795918386030e-01 0.000000000000000e+00 0.000000000000000e+00 4.285714285732120e-01 0.000000000000000e+00 2.409851663476202e-02 4.410528110032798e-01 0.000000000000000e+00 0.000000000000000e+00 6.734693877559796e-01 0.000000000000000e+00 0.000000000000000e+00 6.530612244908152e-01 0.000000000000000e+00 1.986707969698399e-02 6.633683120936215e-01 0.000000000000000e+00 1.000000000000000e-01 6.530612244888825e-01 0.000000000000000e+00 1.000000000000000e-01 6.734693877542424e-01 0.000000000000000e+00 7.769343978564471e-02 6.632834118678752e-01 0.000000000000000e+00 0.000000000000000e+00 3.877551020424299e-01 0.000000000000000e+00 0.000000000000000e+00 3.673469387770387e-01 0.000000000000000e+00 2.258563083872488e-02 3.775857536437918e-01 0.000000000000000e+00 0.000000000000000e+00 6.122448979604860e-01 0.000000000000000e+00 0.000000000000000e+00 5.918367346953213e-01 0.000000000000000e+00 1.954480862887780e-02 6.024198660057475e-01 0.000000000000000e+00 1.000000000000000e-01 7.142857142849620e-01 0.000000000000000e+00 1.000000000000000e-01 7.346938775503219e-01 0.000000000000000e+00 8.045519137097396e-02 7.248688455956910e-01 0.000000000000000e+00 0.000000000000000e+00 3.265306122462567e-01 0.000000000000000e+00 0.000000000000000e+00 3.061224489808657e-01 0.000000000000000e+00 2.261300864914188e-02 3.164931898911296e-01 0.000000000000000e+00 1.000000000000000e-01 1.224489795916153e-01 0.000000000000000e+00 1.000000000000000e-01 1.428571428568673e-01 0.000000000000
[...]
<PointData Scalars="temperature," Vectors="" Tensors="">
<DataArray type="Float64" Name="temperature" format="ascii">
1.001071228674665e+00 9.992530751103594e-01 9.997584129901785e-01 9.954786194785251e-01 9.958792167008120e-01 9.897229931283764e-01 9.900512864779035e-01 9.823078754361269e-01 9.825552235764262e-01 9.735898866808732e-01 9.737945486260889e-01 9.638420585344791e-01 9.639979752143162e-01 9.533044907011941e-01 9.534162170950832e-01 9.421626880491634e-01 9.422495424493841e-01 9.305563311719605e-01 9.306180554916268e-01 9.186042358215073e-01 9.186479123364807e-01 9.063973378246819e-01 9.064280230461090e-01 8.939994532828163e-01 8.940178128287941e-01 8.814663557274410e-01 8.814793957409300e-01 8.688427945627412e-01 8.688487872670404e-01 8.561565254847000e-01 8.561511623942649e-01 8.434313548865069e-01 8.434226196778523e-01 8.307068710223064e-01 8.307059942046437e-01 8.179951184941610e-01 8.179873128855814e-01 8.052969580169740e-01 8.052834114965384e-01 7.926336227566844e-01 7.926189390967032e-01 7.800223921571033e-01 7.799999054325796e-01 7.674690158646139e-01 7.674530210200101e-01 7.549742777609876e-01 7.549554244196469e-01 7.425446451601454e-01 7.425312080364432e-01 7.301955879772303e-01 7.301795143944644e-01 7.179373823708848e-01 7.179188536908464e-01 7.057640947224273e-01 7.057411544799013e-01 6.936951817947263e-01 6.936722508002618e-01 6.817208350376801e-01 6.816886155983475e-01 6.698515195307422e-01 6.698146966264644e-01 6.581000246308674e-01 6.580792833902961e-01 6.464624339554758e-01 6.464366810256547e-01 6.349434888171401e-01 6.349079813860387e-01 6.235407066374629e-01 6.235121839859713e-01 6.122759108555390e-01 6.122474080477958e-01 6.011276918831061e-01 6.010978891378947e-01 5.901168075045599e-01 5.900833578820845e-01 5.792403188218672e-01 5.792122683784889e-01 5.684922797498619e-01 5.684605578936598e-01 5.578805208535376e-01 5.578441391002629e-01 5.474187774759880e-01 5.473912255188932e-01 5.371137978493868e-01 5.370797560040431e-01 5.269594580871181e-01 5.269233947684715e-01 5.169815170537712e-01 5.169352371207322e-01 5.071758030836145e-01 5.071247512676559e-01 4.975978626139980e-01 4.975410255060986e-01 4.882551267447154e-01 4.881613580589295e-01 4.792173753828095e-01 4.790078300017790e-01 4.707526054718294e-01 4.865771551645945e-01 5.035387394280494e-01 4.467592193705656e-01 4.732562507693130e-01 4.724840345442050e-01 5.005574624085127e-01 2.774500183738566e-01 2.815502752681749e-01 2.825052239304911e-01 6.487708444591874e-01 6.372359390442336e-01 5.553893814798090e-01 4.100744595846798e-01 4.193139152505324e-01 4.186347704921001e-01 2.973914245913313e-01 3.034467522161636e-01 3.037929814299572e-01 3.165474445764849e-01 3.234702617901661e-01 3.247375940184627e-01 3.377777375771031e-01 3.452446362836548e-01 3.464776632375830e-01 6.142964166695435e-01 6.035355504888688e-01 5.135132597624327e-01 4.560282560201616e-01 4.659185069650331e-01 4.666876124155971e-01 3.605538002838218e-01 3.685164117512809e-01 3.685122195907230e-01 5.811992319169010e-01 5.708115352344598e-01 4.848551990671569e-01 4.858421859815585e-01 4.963487352305748e-01 4.973818595197559e-01 3.846682613714081e-01 3.931649164555966e-01 3.928030777071379e-01 5.493572692827919e-01 5.392584266804619e-01 4.666087127456172e-01 5.181533072678309e-01 5.297717189942035e-01 5.303788200574517e-01 9.045793097967255e-01 8.880788739286870e-01 8.056968708070624e-01 9.519381413656635e-01 9.319979709859936e-01 8.858126131962895e-01 5.545594170392790e-01 5.682273471910394e-01 5.680105878956087e-01 8.615934436275611e-01 8.475164756568520e-01 7.652403906230145e-01 5.186551455805372e-01 5.090908983671447e-01 4.390745176988002e-01 5.992660004168093e-01 6.174471417036941e-01 6.149591344485044e-01 8.214213657429642e-01 8.083221470157455e-01 7.227944146366256e-01 6.623886413662196e-01 6.905041147429585e-01 6.816014994854011e-01 7.826587583069392e-01 7.701143405993900e-01 6.838629907569083e-01 7.643038171379318e-01 8.115643283372183e-01 7.930262292401122e-01 7.448797334141671e-01 7.327371229917309e-01 6.472154799898682e-01 7.079481047973526e-01 6.962871611635282e-01 6.131348090808239e-01 2.899263132603184e-01 3.170417827934728e-01 3.021907188318180e-01 9.055362168590211e-01 8.742206719852457e-01 9.361535426416485e-01 5.178022597744967e-01 5.055390416533754e-01 4.671532026811104e-01 3.413363115924645e-01 3.161948134620584e-01 3.657150052321873e-01 8.108941441218008e-01 8.454480858515528e-01 7.937203886567984e-01 3.380204959103542e-01 2.995107098826341e-01 3.195902133792224e-01 8.909489736311625e-01 9.410760662775299e-01 8.692894661348404e-01 3.385699469156534e-01 3.689143440600608e-01 3.889909295560999e-01 4.711540884109294e-01 4.541023176051192e-01 4.753439381412224e-01 4.696556136469867e-01 4.474730789193659e-01 5.033214644274596e-01 3.659666077869839e-01 3.159401227137311e-01 3.491145494932771e-01 3.181656961313507e-01 3.459564334352674e-01 3.196564690004171e-01 2.790184242505527e-01 2.884574501355093e-01 2.852089667390267e-01 2.817042464902673e-01 2.771363038641783e-01 2.972449151441010e-01 1.002868867661190e+00 9.478594735816382e-01 9.422158840313420e-01 4.517547405678931e-01 4.711775073355134e-01 4.572851951854466e-01 6.922042633551210e-01 6.181960710439836e-01 6.174699619060331e-01 2.945257215639334e-01 3.067412137012971e-01 2.997839628204144e-01 5.656018191206268e-01 4.963853258590364e-01 4.899877839252822e-01 5.349992430467250e-01 4.682646580542045e-01 4.709147879594434e-01 6.125837629410499e-01 6.367560592701440e-01 6.197225793163598e-01 6.877718756573334e-01 7.144851612371536e-01 6.843746118832220e-01 5.049513386843690e-01 4.422222295524822e-01 4.433005725607209e-01 3.809091062211111e-01 3.965621497200851e-01 3.874632580803085e-01 8.175123857545444e-01 7.267290096705037e-01 7.492730226806424e-01 7.786513152788331e-01 6.878515142997388e-01 7.095025288663592e-01 7.408008684424326e-01 6.512514177125041e-01 6.723414051369520e-01 7.039638508011530e-01 6.171233213130003e-01 6.368587400990877e-01 4.062986031320603e-01 4.224724551701406e-01 4.129164560087720e-01 4.600539505145343e-01 4.795266735613918e-01 4.725180574838921e-01 5.981718164745117e-01 5.249367699200200e-01 5.188770555393049e-01 4.909244967643896e-01 5.106831004559248e-01 5.028096525219091e-01 5.242328381312120e-01 5.450217745171825e-01 5.358862340385115e-01 5.628201007072513e-01 5.848653722675308e-01 5.734078347636888e-01 3.003354515410226e-01 3.125393282525039e-01 3.069718944951720e-01 3.125751318564581e-01 3.286637432390536e-01 3.198558397916675e-01 3.193885039717579e-01 3.337133650891783e-01 3.288071807863722e-01 3.335803607402917e-01 3.506232249559130e-01 3.411530504876309e-01 3.409630830929948e-01 3.560617652541587e-01 3.507503854896513e-01 3.568417346216042e-01 3.722386871544896e-01 3.635592421476554e-01 8.996775182480679e-01 8.108363546917489e-01 8.442094207119197e-01 8.853639965571742e-01 8.088732474094309e-01 8.077756538322288e-01 9.316159504875617e-01 8.700000668359043e-01 8.850161244391253e-01 8.577030598274898e-01 7.692885016872151e-01 7.915254864604606e-01 5.941197501070373e-01 6.200371057392877e-01 6.000826298376758e-01 5.764186688554223e-01 4.894995190634127e-01 5.157456552439718e-01 5.491195177189260e-01 5.733773526280611e-01 5.573959660926965e-01 6.094088792093226e-01 5.182757409071237e-01 5.467093847748383e-01 5.126730941193186e-01 5.357616905490946e-01 5.217312074813747e-01 4.805099749452678e-01 5.026292585986505e-01 4.896140571574804e-01 6.328825298817584e-01 5.570461285828781e-01 5.599134475534150e-01 6.447308950429814e-01 5.597870045408355e-01 5.803202420438567e-01 4.153321281807168e-01 4.294177790854296e-01 4.229768571400975e-01 9.477600185346144e-01 8.905895995022863e-01 9.192291888391028e-01 9.646359568345036e-01 9.248075974006253e-01 9.489217058454897e-01 2.719737368071575e-01 2.803205812912833e-01 2.784876968147244e-01 2.750254355941810e-01 2.850247157088967e-01 2.807156318125160e-01 4.439645854408183e-01 4.906524319526394e-01 5.167305710527724e-01 4.190229319323532e-01 4.624225326831347e-01 4.879856298791257e-01 3.598633546803692e-01 3.268570064312478e-01 3.484614974992673e-01 5.438957554986831e-01 5.147853296335457e-01 5.005281893416851e-01 5.782304201720851e-01 5.478333639071266e-01 5.336038067167526e-01 3.833807669735312e-01 3.487284624805272e-01 3.715101696927771e-01 6.163692642341162e-01 5.844039816615326e-01 5.711646854698766e-01 6.180114903736418e-01 6.604855420306648e-01 6.277620123348963e-01 7.336661998249764e-01 8.082196469610690e-01 7.594433744234640e-01 4.192342080329832e-01 4.876906594471003e-01 4.509983963674739e-01 6.184760484486819e-01 6.515520486655860e-01 6.599810797472725e-01 6.349409633703188e-01 6.586551072427806e-01 6.357088175054916e-01 5.561387345562832e-01 4.868581190047762e-01 4.960515776350506e-01 7.223200058017668e-01 7.514081448909442e-01 7.135998046365655e-01 5.251150156185455e-01 4.570834252417337e-01 4.683627458999902e-01 8.311626093325104e-01 7.492332646813401e-01 7.636179913297109e-01 7.918077693531194e-01 7.091797629767665e-01 7.208996446186646e-01 7.536433118492717e-01 6.718578436474748e-01 6.830761216335952e-01 7.164228868402969e-01 6.362986926957324e-01 6.470307985922873e-01 3.730488030276764e-01 3.870796025576627e-01 3.789546390708522e-01 3.646938422796264e-01 3.791158523310496e-01 3.724262534273999e-01 3.892869652737141e-01 4.038485948521237e-01 3.967744342392995e-01 8.442296037204030e-01 7.643080851397690e-01 7.684126683559714e-01 5.454254819878807e-01 4.705406444305170e-01 4.873870641530595e-01 5.147540034858439e-01 4.429591838756871e-01 4.577151173112401e-01 8.044074498226478e-01 7.211785669321065e-01 7.266884685703532e-01 7.658976074315120e-01 6.831622760263907e-01 6.881197018339648e-01 6.590726725762119e-01 6.850304205721049e-01 6.586141318666127e-01 7.283485484815847e-01 6.470229066815770e-01 6.516729667015018e-01 7.626559384220786e-01 7.947570740010536e-01 7.510573805568357e-01 4.445142466159503e-01 5.161727536017263e-01 4.754054732834362e-01 5.147604131537383e-01 4.704811679092302e-01 4.996351557029485e-01 5.443081282520870e-01 5.002225849163753e-01 5.308235654075554e-01 5.785633262323072e-01 5.333712327806178e-01 5.652768282113663e-01 6.165793552638823e-01 5.710465071575436e-01 6.044429671631929e-01 3.597511978547877e-01 3.392662780276794e-01 3.269621739820334e-01 3.832703525808606e-01 3.616322935757640e-01 3.488219581371228e-01 7.357533931776791e-01 7.879963147897320e-01 8.061556012144225e-01 3.981039404621591e-01 4.123901053809563e-01 4.037565668920339e-01 2.856461551572221e-01 2.880324642348995e-01 2.993619915245009e-01 4.441511367818406e-01 4.089644400984080e-01 4.194087132546320e-01 6.164023096929918e-01 6.809272757175974e-01 6.643324380519160e-01 5.782543290657254e-01 6.415391620176875e-01 6.266170482546389e-01 5.439104520638490e-01 6.055353709108696e-01 5.915700538822752e-01 3.594489076567178e-01 4.046763380429157e-01 3.981492768771565e-01 7.344667832213458e-01 6.911312623348905e-01 7.173837422181806e-01 3.830048796088982e-01 4.305852033583544e-01 4.231602384253278e-01 6.670315362441273e-01 5.892571077025062e-01 5.761252198315254e-01 4.324903525200608e-01 4.476549466840231e-01 4.385282908147078e-01 3.949582748028766e-01 4.192639085870803e-01 4.095978421503676e-01 7.247893347959309e-01 6.644668263288476e-01 6.813545008925718e-01 6.860392019863679e-01 6.265303519213887e-01 6.421818430303492e-01 6.495262023540438e-01 5.913804066190529e-01 6.062689815336093e-01 4.415172498309800e-01 3.982198060907270e-01 4.050362788059895e-01 6.838526870075544e-01 7.188383558565290e-01 6.902857857478055e-01 4.690143348621186e-01 4.231926951170862e-01 4.309735656722660e-01 4.412041970307151e-01 3.655081425673063e-01 3.989347186585430e-01 9.867742009236762e-01 9.634688419198989e-01 9.517807535865327e-01 2.726435967260623e-01 2.746086982528205e-01 2.760082000899736e-01 4.406833978686144e-01 3.912956182045838e-01 3.661132099098092e-01 3.022452869393193e-01 3.016317065629766e-01 2.860506055599887e-01 3.074926700344561e-01 3.168608971809456e-01 2.991613672341630e-01 5.882256711548379e-01 5.148462925591160e-01 5.246810169126246e-01 4.714217915819479e-01 4.888634668820080e-01 4.788882421042291e-01 5.027096675659308e-01 5.209822684146838e-01 5.101014621150056e-01 5.374714106309501e-01 5.567104378537994e-01 5.443653390824654e-01 5.788360924824090e-01 5.995333450240828e-01 5.841154523332711e-01 3.068799789462697e-01 3.192287109227525e-01 3.124821278808710e-01 9.158481153575267e-01 8.463457134108746e-01 8.665674630332666e-01 3.272448199337981e-01 3.405391779828825e-01 3.333036852028310e-01 8.719312499558584e-01 7.923025446058694e-01 8.070641141546461e-01 3.494653003047901e-01 3.632256359709153e-01 3.556027857739485e-01 9.957127971945281e-01 1.005029560641054e+00 9.405291933579092e-01 3.084478526094048e-01 2.771641947689565e-01 3.020718445564762e-01 6.218111845740398e-01 5.457248203585818e-01 5.570739145413334e-01 6.179745438330222e-01 6.177546227712577e-01 5.532847784420997e-01 4.191169626398966e-01 3.859086033559757e-01 3.943863277541871e-01 6.601022903225178e-01 7.224562088177835e-01 7.057006153905943e-01 6.675461499447386e-01 5.758552810266028e-01 6.059712797045773e-01 4.326230912534763e-01 4.515090671860399e-01 4.476570930741208e-01 8.118573420029853e-01 8.677369631399587e-01 8.446698432199923e-01 5.487212710336182e-01 5.027723510905652e-01 5.047844482093311e-01 5.525643205131801e-01 5.008947684153935e-01 5.571127347041060e-01 8.244585048654085e-01 7.860429244304404e-01 8.310432440512677e-01 3.704600602936037e-01 3.944233921003824e-01 3.862419756852885e-01 7.667627306132277e-01 7.065764248442679e-01 7.220164375350200e-01 4.400513309654614e-01 4.961486237964280e-01 4.872817064885763e-01 6.647778347844391e-01 6.364792728346018e-01 6.584087883509885e-01 4.136361628537092e-01 4.681625523281955e-01 4.578139559413003e-01 7.473348832930132e-01 7.145125033023825e-01 7.508572693403635e-01 6.946039998070421e-01 7.640620089738741e-01 7.491420977679272e-01 6.535280479869884e-01 7.211502438815854e-01 7.093880042922807e-01 6.165963483569896e-01 6.831602724656123e-01 6.722541459365580e-01 5.820110291159052e-01 6.470294632881346e-01 6.367791090375506e-01 3.974050961154176e-01 3.791105322481372e-01 3.873845738085961e-01 4.230482754174923e-01 4.037469523875895e-01 4.127858588051465e-01 7.945020494870471e-01 8.332636893394343e-01 7.840092772533657e-01 8.860467681425136e-01 8.688618614995040e-01 9.241134378078992e-01 9.083691534406825e-01 9.570398302954201e-01 9.178265048988714e-01 2.900038188758036e-01 2.790485683001348e-01 2.802219640229712e-01 2.857534083473547e-01 2.952536548321917e-01 2.801320200762228e-01 3.109202408770736e-01 2.971303245479931e-01 3.191031788474588e-01 5.153690193233658e-01 5.717236734145065e-01 5.574281040539546e-01 3.088862256390248e-01 3.405092844305531e-01 3.182216612306570e-01 3.453592630557535e-01 3.150286354620880e-01 3.439305269850647e-01 5.527790685529497e-01 5.570954557415368e-01 6.140619950818809e-01 3.433819567657375e-01 3.194213029119189e-01 3.255072150157614e-01 4.708417291593488e-01 4.622256772726238e-01 4.108819232605894e-01 4.651352388438903e-01 5.245816747208835e-01 5.154406376385723e-01 5.020880131799341e-01 4.791402095539119e-01 4.891946916443619e-01 5.343073554762163e-01 5.103029813360974e-01 5.213455873482502e-01 5.696965249304409e-01 5.446378091377130e-01 5.569903809209732e-01 6.109789152758289e-01 5.844755556258280e-01 5.997106537109310e-01 8.074206753498588e-01 8.696125245662597e-01 8.436885491442183e-01 3.293197304266359e-01 3.123547190023755e-01 3.196588839548246e-01 7.397105770682312e-01 8.085305850861945e-01 7.911603457936902e-01 3.511468074599187e-01 3.333691377511144e-01 3.408734136405563e-01 3.743078096825925e-01 3.557695975237967e-01 3.634089241098184e-01 2.810017812211656e-01 2.741602993690986e-01 2.794971197395730e-01 9.929324853943219e-01 9.850506332361538e-01 9.568301862243973e-01 4.939055487130956e-01 5.568037043763349e-01 5.464061578060418e-01 8.245828716584432e-01 8.718286821163426e-01 8.341948234863217e-01 4.475696000529913e-01 4.823627890830944e-01 4.521608875197943e-01 5.337592432269888e-01 5.086373613714713e-01 4.827416398348267e-01 4.662943357257889e-01 4.349541494169562e-01 4.515305050821675e-01 9.081158952001771e-01 9.333534455727914e-01 9.564786670264673e-01 2.926584827345812e-01 2.993074620441365e-01 2.758430348047871e-01 3.113828598415476e-01 3.157282120363160e-01 2.922231432351223e-01 3.027433029814676e-01 2.924813031851373e-01 3.154121929485342e-01 4.859867515142571e-01 4.103819321975132e-01 4.431771505844790e-01 6.150995032892721e-01 5.565331684401794e-01 5.729725718139363e-01 3.051745289824036e-01 3.255233144539904e-01 3.193893244965569e-01 4.730056973464324e-01 4.700047424404792e-01 4.474505093047051e-01 5.530696806649560e-01 6.014024960737349e-01 5.364217994193750e-01 8.866194466424671e-01 8.378929451047373e-01 8.680044856768045e-01 4.853392576081687e-01 4.285926750444159e-01 4.108208306288583e-01 2.917868896331317e-01 2.783046058201620e-01 2.971501538027362e-01 5.704132875347656e-01 5.602556440790141e-01 4.921781914670776e-01 6.175412621594292e-01 6.385371190429658e-01 6.324599542487385e-01 5.390147966607488e-01 5.291114325454991e-01 4.645740329463018e-01 6.907738628312493e-01 7.243245313361486e-01 7.117971975416509e-01 5.086467265253058e-01 4.994511208048073e-01 4.387578288825171e-01 3.766162486798951e-01 3.848391889694643e-01 3.837713025404210e-01 8.346911974556046e-01 8.212947970731551e-01 7.458643659341794e-01 7.955478444450366e-01 7.827868371371937e-01 7.056894300320610e-01 7.574695468161338e-01 7.451251835565607e-01 6.683130437982018e-01 7.202722601075899e-01 7.083228316308254e-01 6.327409934958432e-01 4.016642136662253e-01 4.103972479226698e-01 4.090426914704161e-01 4.656565300177520e-01 4.760017166259528e-01 4.746966915627147e-01 4.962607192822022e-01 5.072868618049662e-01 5.058185824813987e-01 6.030882660398424e-01 5.925816164947838e-01 5.205269224451102e-01 5.296959969503229e-01 5.420460972431055e-01 5.400903882394497e-01 5.681936955863864e-01 5.832305260861437e-01 5.800126794333330e-01 3.035237396523084e-01 3.099903787829934e-01 3.095128986305607e-01 3.100428589552957e-01 3.165085279197380e-01 3.162509253916156e-01 3.234105451653571e-01 3.307053554082935e-01 3.300724480977842e-01 3.306849785375510e-01 3.377525673902282e-01 3.373426521394907e-01 3.451662839601458e-01 3.530205338643326e-01 3.522469142293272e-01 3.529293083188834e-01 3.606457683172749e-01 3.599404631871105e-01 9.196072718053776e-01 9.024224931757896e-01 8.424230066363791e-01 9.352547201305410e-01 9.172199650425064e-01 8.661813227624020e-01 8.896169372653120e-01 8.746324995763409e-01 8.049199434767315e-01 8.755090772989549e-01 8.609282419378078e-01 7.887409886700957e-01 5.832323218908583e-01 5.992162554924579e-01 5.954758922667022e-01 5.420412853765507e-01 5.545208828192782e-01 5.524882663192986e-01 5.922772150150152e-01 5.814885458923649e-01 5.111143810699506e-01 5.072669749534873e-01 5.181296342216682e-01 5.167691049965583e-01 6.258082992163034e-01 6.145879638792582e-01 5.419994196239792e-01 4.758743496429485e-01 4.858184485472764e-01 4.847937328552940e-01 6.371103487483003e-01 6.260028509621646e-01 5.530022642381491e-01 3.449975721730649e-01 3.311331536549914e-01 3.153855548958872e-01 3.001115845528848e-01 3.181277537350922e-01 3.282299198447120e-01 6.724145856945130e-01 6.603121069724389e-01 5.844298992769010e-01 4.278603691371065e-01 4.377251784634782e-01 4.338015687581999e-01 8.072692533808854e-01 7.597293620706669e-01 7.889631549937955e-01 7.470602588053121e-01 7.906505150780359e-01 7.581223356172739e-01 7.395283654977129e-01 6.872826552765278e-01 7.099017217608143e-01 6.941335491919367e-01 6.428035993466250e-01 6.541329065996379e-01 6.529935048929570e-01 6.026849512284170e-01 6.122010452113460e-01 6.161000706289839e-01 5.670912196898860e-01 5.756084382915767e-01 5.815993004958310e-01 5.343747844406831e-01 5.420315206484067e-01 6.645390946909564e-01 7.100564339075756e-01 6.871903356952119e-01 6.111899925621279e-01 6.547408892910150e-01 6.423161731259531e-01 5.698477271849509e-01 6.12560265820046