<?xml version="1.0"?>
<VTKFile type="UnstructuredGrid" version="0.1" byte_order="LittleEndian">
<UnstructuredGrid>
<Piece NumberOfPoints="360" NumberOfCells="124">
<Points>
<DataArray type="Float64" NumberOfComponents="3" format="ascii">
0 0 0 0.084352422163911631 0.086451712656266194 0 0 0.12500000000034689 0 0 0 0 0.1249999999997554 0 0 0.084352422163911631 0.086451712656266194 0 0 0.12500000000034689 0 0.1008171452988615 0.18885703697250469 0 0 0.25 0 0 0.12500000000034689 0 0.084352422163911631 0.086451712656266194 0 0.1008171452988615 0.18885703697250469 0 0.1008171452988615 0.18885703697250469 0 0.084352422163911631 0.086451712656266194 0 0.18402761812864499 0.1117324051466445 0 0.1249999999997599 0.31249999999987998 0 0.1008171452988615 0.18885703697250469 0 0.2403886547178353 0.24188814792673841 0 0.18402761812864499 0.1117324051466445 0 0.2403886547178353 0.24188814792673841 0 0.1008171452988615 0.18885703697250469 0 0.31250000000020822 0.12500000000041631 0 0.2403886547178353 0.24188814792673841 0 0.18402761812864499 0.1117324051466445 0 0.25 -0 0 0.18402761812864499 0.1117324051466445 0 0.1249999999997554 0 0 0.25 -0 0 0.31250000000020822 0.12500000000041631 0 0.18402761812864499 0.1117324051466445 0 0.1249999999997554 0 0 0.18402761812864499 0.1117324051466445 0 0.084352422163911631 0.086451712656266194 0 0.31250000000020822 0.12500000000041631 0 0.25 -0 0 0.25 -0 0 0.43749999999913258 0 0 0.31250000000020822 0.12500000000041631 0 0.31250000000020822 0.12500000000041631 0 0.37500000000027761 0.25000000000055511 0 0.2403886547178353 0.24188814792673841 0 0.37500000000027761 0.25000000000055511 0 0.31250000000020822 0.12500000000041631 0 0.31250000000020822 0.12500000000041631 0 0.4287911518546233 0.15455445427966699 0 0.37500000000027761 0.25000000000055511 0 0.37500000000027761 0.25000000000055511 0 0.4287911518546233 0.15455445427966699 0 0.49457493289300231 0.26251703776555491 0 0.54475767668582953 0.1431838882066932 0 0.49457493289300231 0.26251703776555491 0 0.4287911518546233 0.15455445427966699 0 0.31250000000020822 0.12500000000041631 0 0.43749999999913258 0 0 0.4287911518546233 0.15455445427966699 0 0.43749999999913258 0 0 0.54475767668582953 0.1431838882066932 0 0.4287911518546233 0.15455445427966699 0 0.37499999999973488 0.43749999999986738 0 0.5 0.5 -0 0.43750000000006939 0.37500000000013878 0 0.5 0.5 -0 0.37499999999973488 0.43749999999986738 0 0.43750000000006939 0.37500000000013878 0 0.37499999999973488 0.43749999999986738 0 0.33819444444448321 0.33819444444456342 0 0.5 0.5 -0 0.43750000000006939 0.37500000000013878 0 0.37500000000027761 0.25000000000055511 0 0.49457493289300231 0.26251703776555491 0 0.43750000000006939 0.37500000000013878 0 0.43750000000006939 0.37500000000013878 0 0.37500000000027761 0.25000000000055511 0 0.37500000000027761 0.25000000000055511 0 0.43750000000006939 0.37500000000013878 0 0.33819444444448321 0.33819444444456342 0 0.24999999999960859 0.37499999999980432 0 0.2403886547178353 0.24188814792673841 0 0.33819444444448321 0.33819444444456342 0 0.37500000000027761 0.25000000000055511 0 0.33819444444448321 0.33819444444456342 0 0.2403886547178353 0.24188814792673841 0 0.37499999999973488 0.43749999999986738 0 0.24999999999960859 0.37499999999980432 0 0.33819444444448321 0.33819444444456342 0 0.24999999999960859 0.37499999999980432 0 0.37499999999973488 0.43749999999986738 0 0.37499999999973488 0.43749999999986738 0 0.26452443700674649 0.51563531581639865 0 0.24999999999960859 0.37499999999980432 0 0.24999999999960859 0.37499999999980432 0 0.26452443700674649 0.51563531581639865 0 0.14929124186975251 0.44582793568106382 0 0.24999999999960859 0.37499999999980432 0 0.14929124186975251 0.44582793568106382 0 0.1249999999997599 0.31249999999987998 0 0.24999999999960859 0.37499999999980432 0 0.1249999999997599 0.31249999999987998 0 0.2403886547178353 0.24188814792673841 0 0.1249999999997599 0.31249999999987998 0 0.24999999999960859 0.37499999999980432 0 0 0.25 0 0.1249999999997599 0.31249999999987998 0 0 0.43750000000034689 0 0.1249999999997599 0.31249999999987998 0 0 0.25 0 0.1008171452988615 0.18885703697250469 0 0 0.25 0 0.1249999999997599 0.31249999999987998 0 0 0.43750000000034689 0 0.14929124186975251 0.44582793568106382 0 0.13928587515912139 0.57339806105677438 0 0 0.43750000000034689 0 0.1249999999997599 0.31249999999987998 0 0.14929124186975251 0.44582793568106382 0 0 0.43750000000034689 0 0.13928587515912139 0.57339806105677438 0 0 0.62500000000069389 0 0 0.62500000000069389 0 0.13928587515912139 0.57339806105677438 0 0.13900789599611679 0.72618316107059999 0 0 0.81250000000104083 0 0 0.62500000000069389 0 0.13900789599611679 0.72618316107059999 0 0.27589467050686478 0.66058853156435704 0 0.13900789599611679 0.72618316107059999 0 0.13928587515912139 0.57339806105677438 0 0.27987960212930818 0.83442741470570525 0 0.13900789599611679 0.72618316107059999 0 0.27589467050686478 0.66058853156435704 0 0.26452443700674649 0.51563531581639865 0 0.27589467050686478 0.66058853156435704 0 0.13928587515912139 0.57339806105677438 0 0.26452443700674649 0.51563531581639865 0 0.13928587515912139 0.57339806105677438 0 0.14929124186975251 0.44582793568106382 0 0.1875000000005205 1 0 0 1 0 0.12710107136012311 0.87094806618203435 0 0 1 0 0 0.81250000000104083 0 0.12710107136012311 0.87094806618203435 0 0 0.81250000000104083 0 0.13900789599611679 0.72618316107059999 0 0.12710107136012311 0.87094806618203435 0 0.27987960212930818 0.83442741470570525 0 0.12710107136012311 0.87094806618203435 0 0.13900789599611679 0.72618316107059999 0 0.1875000000005205 1 0 0.12710107136012311 0.87094806618203435 0 0.27987960212930818 0.83442741470570525 0 0.37500000000069389 1 0 0.27987960212930818 0.83442741470570525 0 0.44927105396715372 0.85565124085155886 0 0.37500000000069389 1 0 0.1875000000005205 1 0 0.27987960212930818 0.83442741470570525 0 0.44927105396715372 0.85565124085155886 0 0.27987960212930818 0.83442741470570525 0 0.38136204680495073 0.74038592213831234 0 0.44927105396715372 0.85565124085155886 0 0.38136204680495073 0.74038592213831234 0 0.50145856933078625 0.73674663046504862 0 0.37500000000069389 1 0 0.44927105396715372 0.85565124085155886 0 0.56250000000086742 1 0 0.4139414069912184 0.60563252640100373 0 0.27589467050686478 0.66058853156435704 0 0.26452443700674649 0.51563531581639865 0 0.37499999999973488 0.43749999999986738 0 0.4139414069912184 0.60563252640100373 0 0.26452443700674649 0.51563531581639865 0 0.27987960212930818 0.83442741470570525 0 0.27589467050686478 0.66058853156435704 0 0.38136204680495073 0.74038592213831234 0 0.4139414069912184 0.60563252640100373 0 0.38136204680495073 0.74038592213831234 0 0.27589467050686478 0.66058853156435704 0 0.4139414069912184 0.60563252640100373 0 0.50145856933078625 0.73674663046504862 0 0.38136204680495073 0.74038592213831234 0 0.5625 0.625 0 0.50145856933078625 0.73674663046504862 0 0.4139414069912184 0.60563252640100373 0 0.37499999999973488 0.43749999999986738 0 0.5 0.5 -0 0.4139414069912184 0.60563252640100373 0 0.5625 0.625 0 0.4139414069912184 0.60563252640100373 0 0.5 0.5 -0 0.5625 0.625 0 0.5 0.5 -0 0.63236534182377013 0.50296756406332266 0 0.5625 0.625 0 0.5 0.5 -0 0.5625 0.625 0 0.625 0.75 0 0.50145856933078625 0.73674663046504862 0 0.625 0.75 0 0.5625 0.625 0 0.625 0.75 0 0.71259747807844409 0.63846691315701831 0 0.73857795170433571 0.77736788564284653 0 0.5625 0.625 0 0.71259747807844409 0.63846691315701831 0 0.625 0.75 0 0.75338430262320943 0.49294443423175599 0 0.71259747807844409 0.63846691315701831 0 0.63236534182377013 0.50296756406332266 0 0.5625 0.625 0 0.63236534182377013 0.50296756406332266 0 0.71259747807844409 0.63846691315701831 0 0.6875 0.875 0 0.56250000000086742 1 0 0.56777512057187585 0.8470224641095303 0 0.56250000000086742 1 0 0.44927105396715372 0.85565124085155886 0 0.56777512057187585 0.8470224641095303 0 0.44927105396715372 0.85565124085155886 0 0.50145856933078625 0.73674663046504862 0 0.56777512057187585 0.8470224641095303 0 0.625 0.75 0 0.56777512057187585 0.8470224641095303 0 0.50145856933078625 0.73674663046504862 0 0.6875 0.875 0 0.625 0.75 0 0.73857795170433571 0.77736788564284653 0 0.6875 0.875 0 0.73857795170433571 0.77736788564284653 0 0.80552984491000901 0.88711122872127413 0 0.6875 0.875 0 0.625 0.75 0 0.6875 0.875 0 0.56777512057187585 0.8470224641095303 0 0.625 0.75 0 0.6875 0.875 0 0.75 1 0 0.56250000000086742 1 0 0.6875 0.875 0 0.80552984491000901 0.88711122872127413 0 0.75 1 0 0.75 1 0 0.6875 0.875 0 0.875 1 0 0.75 1 0 0.80552984491000901 0.88711122872127413 0 0.875 1 0 0.80552984491000901 0.88711122872127413 0 0.90637953422180084 0.90208583328057301 0 0.80552984491000901 0.88711122872127413 0 0.85787927391517405 0.753532520882502 0 0.90637953422180084 0.90208583328057301 0 0.80552984491000901 0.88711122872127413 0 0.73857795170433571 0.77736788564284653 0 0.85787927391517405 0.753532520882502 0 1 0.83333333333356463 0 0.85787927391517405 0.753532520882502 0 1 0.66666666666736052 0 1 0.83333333333356463 0 0.90637953422180084 0.90208583328057301 0 0.85787927391517405 0.753532520882502 0 1 1 0 0.90637953422180084 0.90208583328057301 0 1 0.83333333333356463 0 1 1 0 0.875 1 0 0.90637953422180084 0.90208583328057301 0 0.86127466977819722 0.57948076978797636 0 0.71259747807844409 0.63846691315701831 0 0.75338430262320943 0.49294443423175599 0 0.85787927391517405 0.753532520882502 0 0.71259747807844409 0.63846691315701831 0 0.86127466977819722 0.57948076978797636 0 0.85787927391517405 0.753532520882502 0 0.73857795170433571 0.77736788564284653 0 0.71259747807844409 0.63846691315701831 0 1 0.66666666666736052 0 0.85787927391517405 0.753532520882502 0 0.86127466977819722 0.57948076978797636 0 1 0.66666666666736052 0 0.86127466977819722 0.57948076978797636 0 1 0.50000000000138767 0 1 0.33333333333448978 0 1 0.50000000000138767 0 0.86569408477091048 0.40983673916766611 0 0.86127466977819722 0.57948076978797636 0 0.86569408477091048 0.40983673916766611 0 1 0.50000000000138767 0 0.86127466977819722 0.57948076978797636 0 0.75338430262320943 0.49294443423175599 0 0.86569408477091048 0.40983673916766611 0 0.75338430262320943 0.49294443423175599 0 0.71826039492840632 0.34564020717216182 0 0.86569408477091048 0.40983673916766611 0 0.71508993406183785 0.15715956854777599 0 0.86087286690217635 0.25206523597959418 0 0.71826039492840632 0.34564020717216182 0 0.86569408477091048 0.40983673916766611 0 0.71826039492840632 0.34564020717216182 0 0.86087286690217635 0.25206523597959418 0 1 0.16666666666736049 0 1 0.33333333333448978 0 0.86087286690217635 0.25206523597959418 0 1 0.33333333333448978 0 0.86569408477091048 0.40983673916766611 0 0.86087286690217635 0.25206523597959418 0 1 0.16666666666736049 0 0.86087286690217635 0.25206523597959418 0 0.87698901648812122 0.1160638338657984 0 0.81249999999947953 0 0 1 0 0 0.87698901648812122 0.1160638338657984 0 1 0.16666666666736049 0 0.87698901648812122 0.1160638338657984 0 1 0 0 0.81249999999947953 0 0 0.87698901648812122 0.1160638338657984 0 0.71508993406183785 0.15715956854777599 0 0.71508993406183785 0.15715956854777599 0 0.87698901648812122 0.1160638338657984 0 0.86087286690217635 0.25206523597959418 0 0.62499999999895905 0 0 0.71508993406183785 0.15715956854777599 0 0.54475767668582953 0.1431838882066932 0 0.81249999999947953 0 0 0.71508993406183785 0.15715956854777599 0 0.62499999999895905 0 0 0.43749999999913258 0 0 0.62499999999895905 0 0 0.54475767668582953 0.1431838882066932 0 0.71508993406183785 0.15715956854777599 0 0.61108462585082757 0.25750599582343231 0 0.54475767668582953 0.1431838882066932 0 0.54475767668582953 0.1431838882066932 0 0.61108462585082757 0.25750599582343231 0 0.49457493289300231 0.26251703776555491 0 0.56986707178436635 0.37762093650871992 0 0.49457493289300231 0.26251703776555491 0 0.61108462585082757 0.25750599582343231 0 0.43750000000006939 0.37500000000013878 0 0.49457493289300231 0.26251703776555491 0 0.56986707178436635 0.37762093650871992 0 0.43750000000006939 0.37500000000013878 0 0.56986707178436635 0.37762093650871992 0 0.5 0.5 -0 0.5 0.5 -0 0.56986707178436635 0.37762093650871992 0 0.63236534182377013 0.50296756406332266 0 0.75338430262320943 0.49294443423175599 0 0.63236534182377013 0.50296756406332266 0 0.71826039492840632 0.34564020717216182 0 0.56986707178436635 0.37762093650871992 0 0.71826039492840632 0.34564020717216182 0 0.63236534182377013 0.50296756406332266 0 0.71508993406183785 0.15715956854777599 0 0.71826039492840632 0.34564020717216182 0 0.61108462585082757 0.25750599582343231 0 0.56986707178436635 0.37762093650871992 0 0.61108462585082757 0.25750599582343231 0 0.71826039492840632 0.34564020717216182 0 
</DataArray>
</Points>
<Cells>
<DataArray type="UInt32" Name="connectivity" format="ascii">
0 1 2 3 4 5 6 7 8 9 10 11 12 13 14 15 16 17 18 19 20 21 22 23 24 25 26 27 28 29 30 31 32 33 34 35 36 37 38 39 40 41 42 43 44 45 46 47 48 49 50 51 52 53 54 55 56 57 58 59 60 61 62 63 64 65 66 67 68 69 70 71 72 73 74 75 76 77 78 79 80 81 82 83 84 85 86 87 88 89 90 91 92 93 94 95 96 97 98 99 100 101 102 103 104 105 106 107 108 109 110 111 112 113 114 115 116 117 118 119 120 121 122 123 124 125 126 127 128 129 130 131 132 133 134 135 136 137 138 139 140 141 142 143 144 145 146 147 148 149 150 151 152 153 154 155 156 157 158 159 160 161 162 163 164 165 166 167 168 169 170 171 172 173 174 175 176 177 178 179 180 181 182 183 184 185 186 187 188 189 190 191 192 193 194 195 196 197 198 199 200 201 202 203 204 205 206 207 208 209 210 211 212 213 214 215 216 217 218 219 220 221 222 223 224 225 226 227 228 229 230 231 232 233 234 235 236 237 238 239 240 241 242 243 244 245 246 247 248 249 250 251 252 253 254 255 256 257 258 259 260 261 262 263 264 265 266 267 268 269 270 271 272 273 274 275 276 277 278 279 280 281 282 283 284 285 286 287 288 289 290 291 292 293 294 295 296 297 298 299 300 301 302 303 304 305 306 307 308 309 310 311 312 313 314 315 316 317 318 319 320 321 322 323 324 325 326 327 328 329 330 331 332 333 334 335 336 337 338 339 340 341 342 343 344 345 346 347 348 349 350 351 352 353 354 355 356 357 358 359 
</DataArray>
<DataArray type="UInt32" Name="offsets" format="ascii">
3 6 9 12 15 18 21 24 27 30 33 35 38 41 43 46 49 52 55 58 60 63 66 68 71 73 76 79 82 85 87 90 93 96 99 101 104 107 109 112 115 118 121 124 127 130 133 136 139 142 145 148 151 154 157 160 163 166 169 172 175 178 181 184 187 190 193 195 198 200 203 206 209 212 215 218 221 224 227 230 232 235 238 241 243 246 249 252 255 258 261 264 267 270 273 276 279 282 285 288 291 294 297 300 303 306 309 312 315 318 321 324 327 330 333 336 339 342 345 348 351 354 357 360 
</DataArray>
<DataArray type="UInt32" Name="types" format="ascii">
5 5 5 5 5 5 5 5 5 5 5 3 5 5 3 5 5 5 5 5 3 5 5 3 5 3 5 5 5 5 3 5 5 5 5 3 5 5 3 5 5 5 5 5 5 5 5 5 5 5 5 5 5 5 5 5 5 5 5 5 5 5 5 5 5 5 5 3 5 3 5 5 5 5 5 5 5 5 5 5 3 5 5 5 3 5 5 5 5 5 5 5 5 5 5 5 5 5 5 5 5 5 5 5 5 5 5 5 5 5 5 5 5 5 5 5 5 5 5 5 5 5 5 5 
</DataArray>
</Cells>
<PointData Scalars="age_conc,U235_conc," Vectors="" Tensors="">
<DataArray type="Float64" Name="age_conc" format="ascii">
49961.479723543533 49968.843002965375 50090.530961573539 49963.964957991171 50086.026838130761 49976.886451092061 50411.667925846668 50506.467601486896 48562.144671832801 50104.793812975659 49915.089178272865 50098.212317576537 50048.609503516862 49975.795072702262 50076.22169676191 48014.550754126358 50326.059782081349 50968.917168641281 50000.353763348445 50419.89522603526 49961.253183005123 48112.006223810458 50926.850281386884 50377.927436086262 48701.20935854737 50492.278272814634 50324.907426882921 48588.000741029551 48134.647881399651 51327.376144822629 50091.548182392748 50123.909268151045 49922.264313746702 47078.493064916394 48784.04424162412 49999.005676208988 50003.70538149932 49998.428471776941 47864.872140883483 46927.071926730569 52350.497907157507 45377.219023019934 48126.629884442038 49999.983758653274 49999.909613069824 50000.140140286538 50000.15883407613 49999.797018713878 50000.241927301038 50001.488760545071 49999.67831162447 49999.609006237173 49997.447512446197 50006.101661897883 49996.786580652515 50009.646800428105 50008.913416452575 49990.367533258788 45515.473859539881 35252.142831096033 49609.697588519201 36789.20335827332 49519.473072426226 47117.139628610901 47058.320164570912 51562.848104467026 35345.650914336569 45990.018107845463 50000.327400348142 50001.024939563031 49997.80137219579 42358.742674705623 47149.050836305971 45647.373206298587 44858.212311112955 53805.120711095071 46221.968108048772 51599.132003354571 51257.392900303435 46390.119445407945 51168.388746072895 51561.717985491843 44674.874163837812 45425.629725079096 54015.951064256747 46992.090569996595 41928.474513415727 50242.147980864836 49866.977509620476 49972.654954064645 49984.450191462391 49965.248937227174 50022.019825941512 49984.804759230748 50008.306710242345 50001.761121936601 46760.709002931304 47735.211402195557 52472.944638626046 48023.36383931194 45119.760492177513 49999.032037309596 49999.249485583081 50003.076585136056 47965.163700501005 48449.517578492108 51413.627716867944 48718.113019027995 46916.527626325813 50017.912424859613 49987.015378957658 49991.620287468941 50005.215746262358 49998.934274534302 49995.838800805563 50036.873849918789 50104.329984378957 49858.677803512255 49744.963074067411 50206.220484474579 50017.837057891891 51870.052739386607 49511.608085200554 48862.906763441642 49722.582178651108 50426.98091497006 49918.773166435523 50550.275600559755 50544.238097215719 49392.366103079672 50045.081652792636 49922.863900739976 49962.079487478928 50015.550859585775 49961.532258923333 50009.07676239976 197.70917272140287 -3145.6351946495561 86521.256513970395 4221.8702387614903 64211.94314049698 60911.485064779714 53180.950613508976 47958.13159016578 49126.173020380389 54009.805170088512 45829.817312996485 50647.774975377659 6635.2759395460962 51746.292627781906 65499.922986184887 7102.0247140082138 56881.353221671648 61315.232085596952 1509.5743436285702 -382.61140562835135 89326.327082602933 51362.720202623626 49634.938067935153 49751.350534691002 47871.731204814445 49816.330415865239 51224.183942447133 -3804.4374884186873 89343.028730362974 -2204.8368192936796 50161.246604055072 49923.498638527868 49975.467024352831 50260.633098103099 50480.07326793082 49664.795611016401 49929.806457633349 50025.304188554845 50004.4627524186 50288.885784190556 49754.286919842285 49901.208384689729 50448.315992725657 50629.964591947479 49359.366954318022 38111.660285796672 54818.261585557637 54565.808821916937 50661.386609296671 46250.102477303815 52062.033280414958 41196.08341211966 55553.828482696576 46174.878316270297 49974.0756611373 49996.717627601181 50040.910740875996 29336.256123368628 39839.360370942682 36530.167897606625 32220.425582522592 63372.102457222303 20612.929858724699 35102.73624332418 49988.151086279126 50008.290620981781 49917.256136328731 50007.827433086226 49989.339416948664 49975.873046170491 49683.388815957318 50249.94828739424 50039.707991087715 49950.705102771266 50047.112254030559 50044.408036653163 48844.440462068451 5765.292356215592 60833.658332048522 18789.865316731557 56389.776043985541 50932.848370273663 47542.072611552452 52573.498680442433 47132.783731196578 29758.036778507732 58573.284973703943 56367.748516706117 47997.527648756128 50283.525870184247 50468.413614664903 47535.692133032688 51186.732369448466 49140.547448773723 8537.5278008698006 28810.697913186326 31133.550103145499 69393.002947823799 26677.524937137387 68700.843659939666 -6775.700034578158 7225.4698068951584 56178.218560129601 59896.376106802134 331.18220632067096 -6088.3075294056216 19357.301773074265 -2651.2414343967539 -5180.0444418010047 83792.226606573226 -1026.4980985896473 55989.417861559778 59031.58069727906 47868.09117065234 51428.902399630439 47517.521738029456 47994.820657456621 50099.061853649509 50432.67795156224 -514.38625578298524 87740.169030254401 -2491.4715963664567 1600.5717186989277 55421.138665018938 61146.276537844926 -6404.5868754612711 82046.915624123503 -6404.5868754603725 -6005.4928115156981 -5896.5327256722267 83437.553193136162 48391.780071914945 50715.406023548589 49862.327307831722 51404.30589117272 51005.490182482295 47417.718975944146 49973.977378550153 49777.984186633585 50105.26551341742 6625.1927712530742 61814.646485872967 54183.513601819119 -865.46136423342614 87472.275827418693 -3573.2129509580009 -3829.8965991558289 -1759.1859286133076 87303.082720341161 61427.333095047041 53916.022868066459 5720.9413800087277 51116.752898569692 51416.613248481466 46598.46812338211 50805.293640530785 50248.767898616235 47783.955405123488 50143.69358591846 49005.554597262628 50213.673685761125 50349.812657204588 50528.974398367747 48454.631916624756 -2664.5655769107107 -366.32622735037592 87518.618624530078 4944.5174834482605 61208.033553860856 55341.062130611819 3175.9910793442104 64037.283895282904 53152.439851369345 65558.356015878526 3548.9903348943617 59865.003655181739 -191.55300056135093 85202.963061140123 -3205.1962316591562 52257.296328635195 48814.283063149596 48851.729052415678 51131.683311004643 46837.532459313734 51908.101558537062 49880.185311805108 49865.899538641155 50128.631220403287 51272.738299522156 49309.169992546143 49692.819428606177 50024.461840688135 49909.85535827381 50049.495147352573 49970.969228734037 50008.767548471566 50008.145140532324 50001.465384700823 50002.458920056823 49998.755405818629 50000.082772521295 49999.107300629374 50003.041558621633 49997.779890486221 50002.750263233211 49995.572334625576 49999.622873388369 49986.741468815795 50012.386901826561 50018.50744694192 49980.565177469456 49999.733953688556 50037.897582908467 49917.797205784867 50057.948839319928 49997.027155807191 50043.361541579994 49948.905334065545 49959.052657712222 50002.388499586079 50018.751020768046 49994.801892395437 49999.251303767465 50023.021323371591 
</DataArray>
<DataArray type="Float64" Name="U235_conc" format="ascii">
0.00045471508681176845 0.00038108223653453321 -0.00083579732334630166 0.00044994469956006285 -0.00077067448653121511 0.00032072978697115237 -0.0046522072311866456 -0.0056002042292463659 0.013843025081436793 -0.00065428700311192384 0.0012427592956810677 -0.00058847229256914365 -0.00015067440177920198 0.00057747029375527625 -0.00042679589197607438 0.019143019029299269 -0.0039720717212460427 -0.010400647960514594 0.0012681368005067935 -0.0029272787781860258 0.0016591419776792312 0.018278981931440938 -0.0098694585284461143 -0.0043802300081139519 0.012491652361365702 -0.0054190365495585474 -0.0037453280924120776 0.012110704936306295 0.016644233545370611 -0.015283048747174531 -0.00045640958083091913 -0.00078002015005893173 0.0012364297308898509 0.022820101697627795 0.0057645901619037647 1.374196508372448e-05 -3.3255956455932785e-05 1.9513991372208305e-05 0.018406802368652546 0.027784804121843185 -0.026449455026523305 0.036187193323245659 0.0086930850211746902 2.7446228115949112e-07 1.0156719331843364e-06 -1.2901342143438276e-06 -9.2910147647744853e-07 2.6898902357789257e-06 -1.7607887593014772e-06 -1.2301063102997579e-05 5.80435377546194e-06 6.4967093275356387e-06 2.6644986910843563e-05 -5.9897902600251768e-05 3.3252915689408209e-05 -6.6708610922846937e-05 -5.9374239620039235e-05 0.00012608285054288619 0.015119202384980962 0.11775251160161701 -0.010606921939508913 0.11759802070859532 -0.0097046759129393034 0.024437283825321135 0.025025479030052415 -0.020019800731006111 0.11769542719811296 0.01125175511316176 -4.146063530928723e-06 -1.1123872134888717e-05 2.1115288928695961e-05 0.060195552976733818 0.012292470304635622 0.037663923014300396 0.045555532345324494 -0.043913551451426378 0.036830782825088539 -0.016940856568810472 -0.013523465489831174 0.035192271028113307 -0.012590420979659178 -0.016523713618073466 0.047188754356467459 0.039681198705148447 -0.046222015356008825 0.012954438614949493 0.063590599555427466 -0.0021488799890793031 0.0016028288646841643 0.00054605112439513881 0.00012635730728398725 0.00031837012515884445 -0.0002493403464710371 0.00014666949475181153 -8.8350834196434971e-05 -2.2894614580439438e-05 0.02926957613120627 0.019524555339358072 -0.027852781586758038 0.0091681999780069828 0.038204234660742478 1.4206208645894191e-05 1.2032282745894246e-05 -2.6238491391788441e-05 0.018110615769100318 0.013267076969759359 -0.016374024435558507 0.0060716593947805833 0.024087513326629416 -0.00018268089920032149 0.00012628915038320662 8.0239933851495077e-05 -5.2168207169821885e-05 1.0646146735395501e-05 4.1599492287358433e-05 -0.00036886035572831604 -0.0010434216923389534 0.0014130999020920169 0.0025184476357987288 -0.0020941265511151106 -0.00021029210533340839 -0.01788530177860178 0.0056991437412435425 0.012186158037358235 0.0030019655117262171 -0.0040420212245801867 0.0010400557128539701 -0.0038798229750164914 -0.0038194479706129855 0.0076992709456294769 -0.000522920137142778 0.00069925744789674704 0.00030710195531137569 -0.00016977041281887576 0.00037041602633441505 -0.0001050284594141392 0.42957574346732003 0.46300918822059095 -0.43365972952546916 0.4364983438377053 -0.16340238537017057 -0.13039780483965635 -0.030925322559522756 0.021302867772044556 0.0096224547874782015 -0.038473394130809906 0.043326485996977471 -0.0048530918661675599 0.40673428248378729 -0.044375878825250639 -0.18191217735023202 0.40352702258432005 -0.094266262439078444 -0.13860505088755859 0.42354632147142612 0.44246817099491098 -0.45462120267781631 -0.011130505822536618 0.0061473150084075893 0.0049831908141290309 0.020161849150944142 0.00071585545895686085 -0.013362681446789645 0.46935034724132785 -0.46212431452723945 0.45335434083609549 -0.0014117570890889437 0.00096572050510133141 0.00044603658398761236 -0.0012546620091965946 -0.0034490574296261807 0.0047037194388227736 0.00066027964258030532 -0.00029469899539023392 -8.6282544796182069e-05 -0.0029461663537364365 0.0023998173385368941 0.00093060541467728192 -0.0030243354957399625 -0.0048408203111057636 0.0078651558068457261 0.11630295757300577 -0.050763059222867564 -0.04823853083179961 -0.0076715671457145626 0.036441277272015113 -0.021678032024021146 0.080748745602528454 -0.062828699369361224 0.030960804595610049 0.00029825630060841761 7.1836918888866752e-05 -0.00037009321949728433 0.15899448905119545 0.053963446821502004 0.11627724546250022 0.15937466862223659 -0.15214210359831121 0.22542371072676848 0.080525647039760062 2.9562271079825971e-05 -0.00017183404041473506 0.00073851163913199165 -0.0001060543671140313 7.8825256652808305e-05 0.00021348960932931764 0.0031383368681437685 -0.0025272568778050646 -0.00042485490600120994 0.00063369916764451388 -0.00033037050251862163 -0.00030332866512589225 -0.024052119308491354 0.40673936212456901 -0.14394429775712447 0.28748725405434661 -0.088511853102541116 -0.033942580563864039 0.021743935155670267 -0.028570330367980491 0.025836820505591933 0.19695746774869985 -0.091195018381182658 -0.069139656904607882 0.018736153487171139 -0.0041238289885768805 -0.0059727063890411373 0.02244104912160658 -0.014069353563378451 0.0063924954110754668 0.31778854856355504 0.11505684855129744 0.16517519554128024 -0.21741933317477333 0.20973544608843775 -0.27031701281043491 0.48444842449427949 0.34443672625447841 -0.096398241679716001 -0.13357981669537353 0.46207212209216803 0.42682943228479631 0.17237333722107662 0.45022131447058045 0.47550934514264465 -0.41421336501654893 0.47316430594885894 -0.096994854158627741 -0.12741648447965226 0.018036710794239172 -0.017571400984267852 0.021542404831361474 0.01853353591564473 -0.0025088753795102876 -0.0058450366753548082 0.43789299250064495 -0.44465256035879963 0.45766384590646358 0.45119403793924157 -0.087011631523368022 -0.14426301025159957 0.48082707148383941 -0.4036879535110513 0.48082707148385018 0.4792038077862027 0.47811420901060692 -0.4152266538512388 0.015020369130981736 -0.0082158902364706451 0.00031489546252791434 -0.014220793801656081 -0.010232631466870538 0.025645080368640067 0.00011310963031363095 0.0020730434271024846 -0.0011997716040484155 0.40553871081003334 -0.14635582633557198 -0.07004449550175533 0.43965130515581147 -0.44372606386445179 0.4667288152148798 0.46793591664354384 0.4472288095466932 -0.4433938770329075 -0.14408916524861112 -0.068976067365865812 0.41297474657595662 -0.012062099147772846 -0.015060703329903018 0.033120743495810949 -0.0092502620949827183 -0.0036850060488856336 0.020963117484108628 -0.0020933916873849133 0.0092879989628481801 -0.0027931941187240043 -0.0041849839174002267 -0.0059766020074489522 0.014766826581521734 0.45914070077375962 0.43615830751113854 -0.44269114065605353 0.42118136164379189 -0.1414537997820377 -0.082784083041952561 0.43770442020926814 -0.17090850755559933 -0.062060067435130539 -0.17725080671494453 0.44284284980098676 -0.12031728155486196 0.43164749874364466 -0.42229765981972883 0.46178393020869518 -0.022651989697850965 0.011778148243907554 0.011403686897361355 -0.011443246115234019 0.031498266524985247 -0.019207433557968889 0.0010690528458630272 0.0012119111646031139 -0.0014154078580416074 -0.011811627160386825 0.0078240613481995198 0.0039875658121873055 -0.00026129952205022043 0.00088476795885303675 -0.00051163243072003097 0.0002778219989303463 -0.00010016093290503281 -9.3938959163294722e-05 -5.724926728578413e-06 -1.5653938896327883e-05 2.1378865624906299e-05 6.6078823124939651e-06 1.6362891360250239e-05 -2.2970773672744202e-05 1.818620589538609e-05 -3.1520831539749983e-05 4.0259030809291609e-05 2.4839294557855331e-06 0.00013129596377611569 -0.00012515418513720633 -0.00018630394127275028 0.00019311544798011115 1.4325721181090076e-06 -0.00033349708936751028 0.00086750777310203833 -0.00053401068373452811 1.8695969832648946e-05 -0.0004446470881445753 0.00049991310947486434 0.00038906505027910018 -4.4299612306113348e-05 -0.00020791800092816989 0.00010888700316617471 6.4410990192231962e-05 -0.0001732979933584067 
</DataArray>
</PointData>
</Piece>
</UnstructuredGrid>
</VTKFile>
