<?xml version="1.0"?>
<VTKFile type="UnstructuredGrid" version="0.1" byte_order="LittleEndian">
<UnstructuredGrid>
<Piece NumberOfPoints="360" NumberOfCells="124">
<Points>
<DataArray type="Float64" NumberOfComponents="3" format="ascii">
0 0 0 0.084352422163911631 0.086451712656266194 0 0 0.12500000000034689 0 0 0 0 0.084352422163911631 0.086451712656266194 0 0.1249999999997554 0 0 0 0.12500000000034689 0 0.1008171452988615 0.18885703697250469 0 0 0.25 0 0.084352422163911631 0.086451712656266194 0 0 0.12500000000034689 0 0.1008171452988615 0.18885703697250469 0 0.084352422163911631 0.086451712656266194 0 0.1008171452988615 0.18885703697250469 0 0.18402761812864499 0.1117324051466445 0 0.1008171452988615 0.18885703697250469 0 0.2403886547178353 0.24188814792673841 0 0.1249999999997599 0.31249999999987998 0 0.1008171452988615 0.18885703697250469 0 0.2403886547178353 0.24188814792673841 0 0.18402761812864499 0.1117324051466445 0 0.2403886547178353 0.24188814792673841 0 0.18402761812864499 0.1117324051466445 0 0.31250000000020822 0.12500000000041631 0 0.1249999999997554 0 0 0.18402761812864499 0.1117324051466445 0 0.25 -0 0 0.18402761812864499 0.1117324051466445 0 0.25 -0 0 0.31250000000020822 0.12500000000041631 0 0.084352422163911631 0.086451712656266194 0 0.1249999999997554 0 0 0.18402761812864499 0.1117324051466445 0 0.25 -0 0 0.31250000000020822 0.12500000000041631 0 0.25 -0 0 0.31250000000020822 0.12500000000041631 0 0.43749999999913258 0 0 0.2403886547178353 0.24188814792673841 0 0.31250000000020822 0.12500000000041631 0 0.37500000000027761 0.25000000000055511 0 0.31250000000020822 0.12500000000041631 0 0.37500000000027761 0.25000000000055511 0 0.31250000000020822 0.12500000000041631 0 0.4287911518546233 0.15455445427966699 0 0.37500000000027761 0.25000000000055511 0 0.4287911518546233 0.15455445427966699 0 0.49457493289300231 0.26251703776555491 0 0.37500000000027761 0.25000000000055511 0 0.4287911518546233 0.15455445427966699 0 0.49457493289300231 0.26251703776555491 0 0.54475767668582953 0.1431838882066932 0 0.31250000000020822 0.12500000000041631 0 0.4287911518546233 0.15455445427966699 0 0.43749999999913258 0 0 0.4287911518546233 0.15455445427966699 0 0.43749999999913258 0 0 0.54475767668582953 0.1431838882066932 0 0.37499999999973488 0.43749999999986738 0 0.5 0.5 -0 0.43750000000006939 0.37500000000013878 0 0.37499999999973488 0.43749999999986738 0 0.5 0.5 -0 0.43750000000006939 0.37500000000013878 0 0.33819444444448321 0.33819444444456342 0 0.37499999999973488 0.43749999999986738 0 0.43750000000006939 0.37500000000013878 0 0.5 0.5 -0 0.43750000000006939 0.37500000000013878 0 0.49457493289300231 0.26251703776555491 0 0.37500000000027761 0.25000000000055511 0 0.43750000000006939 0.37500000000013878 0 0.37500000000027761 0.25000000000055511 0 0.43750000000006939 0.37500000000013878 0 0.37500000000027761 0.25000000000055511 0 0.33819444444448321 0.33819444444456342 0 0.2403886547178353 0.24188814792673841 0 0.33819444444448321 0.33819444444456342 0 0.24999999999960859 0.37499999999980432 0 0.2403886547178353 0.24188814792673841 0 0.37500000000027761 0.25000000000055511 0 0.33819444444448321 0.33819444444456342 0 0.33819444444448321 0.33819444444456342 0 0.37499999999973488 0.43749999999986738 0 0.24999999999960859 0.37499999999980432 0 0.37499999999973488 0.43749999999986738 0 0.24999999999960859 0.37499999999980432 0 0.37499999999973488 0.43749999999986738 0 0.24999999999960859 0.37499999999980432 0 0.26452443700674649 0.51563531581639865 0 0.14929124186975251 0.44582793568106382 0 0.24999999999960859 0.37499999999980432 0 0.26452443700674649 0.51563531581639865 0 0.14929124186975251 0.44582793568106382 0 0.24999999999960859 0.37499999999980432 0 0.1249999999997599 0.31249999999987998 0 0.2403886547178353 0.24188814792673841 0 0.24999999999960859 0.37499999999980432 0 0.1249999999997599 0.31249999999987998 0 0.24999999999960859 0.37499999999980432 0 0.1249999999997599 0.31249999999987998 0 0.1249999999997599 0.31249999999987998 0 0 0.25 0 0 0.43750000000034689 0 0.1008171452988615 0.18885703697250469 0 0.1249999999997599 0.31249999999987998 0 0 0.25 0 0.1249999999997599 0.31249999999987998 0 0 0.25 0 0.14929124186975251 0.44582793568106382 0 0 0.43750000000034689 0 0.13928587515912139 0.57339806105677438 0 0.14929124186975251 0.44582793568106382 0 0.1249999999997599 0.31249999999987998 0 0 0.43750000000034689 0 0 0.43750000000034689 0 0 0.62500000000069389 0 0.13928587515912139 0.57339806105677438 0 0 0.62500000000069389 0 0.13900789599611679 0.72618316107059999 0 0.13928587515912139 0.57339806105677438 0 0 0.62500000000069389 0 0.13900789599611679 0.72618316107059999 0 0 0.81250000000104083 0 0.13900789599611679 0.72618316107059999 0 0.13928587515912139 0.57339806105677438 0 0.27589467050686478 0.66058853156435704 0 0.13900789599611679 0.72618316107059999 0 0.27987960212930818 0.83442741470570525 0 0.27589467050686478 0.66058853156435704 0 0.13928587515912139 0.57339806105677438 0 0.26452443700674649 0.51563531581639865 0 0.27589467050686478 0.66058853156435704 0 0.14929124186975251 0.44582793568106382 0 0.13928587515912139 0.57339806105677438 0 0.26452443700674649 0.51563531581639865 0 0 1 0 0.12710107136012311 0.87094806618203435 0 0.1875000000005205 1 0 0 1 0 0 0.81250000000104083 0 0.12710107136012311 0.87094806618203435 0 0.13900789599611679 0.72618316107059999 0 0 0.81250000000104083 0 0.12710107136012311 0.87094806618203435 0 0.13900789599611679 0.72618316107059999 0 0.12710107136012311 0.87094806618203435 0 0.27987960212930818 0.83442741470570525 0 0.12710107136012311 0.87094806618203435 0 0.1875000000005205 1 0 0.27987960212930818 0.83442741470570525 0 0.27987960212930818 0.83442741470570525 0 0.44927105396715372 0.85565124085155886 0 0.37500000000069389 1 0 0.1875000000005205 1 0 0.27987960212930818 0.83442741470570525 0 0.37500000000069389 1 0 0.27987960212930818 0.83442741470570525 0 0.44927105396715372 0.85565124085155886 0 0.38136204680495073 0.74038592213831234 0 0.44927105396715372 0.85565124085155886 0 0.38136204680495073 0.74038592213831234 0 0.50145856933078625 0.73674663046504862 0 0.44927105396715372 0.85565124085155886 0 0.37500000000069389 1 0 0.56250000000086742 1 0 0.26452443700674649 0.51563531581639865 0 0.27589467050686478 0.66058853156435704 0 0.4139414069912184 0.60563252640100373 0 0.37499999999973488 0.43749999999986738 0 0.26452443700674649 0.51563531581639865 0 0.4139414069912184 0.60563252640100373 0 0.27987960212930818 0.83442741470570525 0 0.27589467050686478 0.66058853156435704 0 0.38136204680495073 0.74038592213831234 0 0.27589467050686478 0.66058853156435704 0 0.38136204680495073 0.74038592213831234 0 0.4139414069912184 0.60563252640100373 0 0.38136204680495073 0.74038592213831234 0 0.4139414069912184 0.60563252640100373 0 0.50145856933078625 0.73674663046504862 0 0.4139414069912184 0.60563252640100373 0 0.50145856933078625 0.73674663046504862 0 0.5625 0.625 0 0.37499999999973488 0.43749999999986738 0 0.4139414069912184 0.60563252640100373 0 0.5 0.5 -0 0.4139414069912184 0.60563252640100373 0 0.5 0.5 -0 0.5625 0.625 0 0.5 0.5 -0 0.5625 0.625 0 0.63236534182377013 0.50296756406332266 0 0.5 0.5 -0 0.5625 0.625 0 0.50145856933078625 0.73674663046504862 0 0.5625 0.625 0 0.625 0.75 0 0.5625 0.625 0 0.625 0.75 0 0.71259747807844409 0.63846691315701831 0 0.625 0.75 0 0.73857795170433571 0.77736788564284653 0 0.5625 0.625 0 0.71259747807844409 0.63846691315701831 0 0.625 0.75 0 0.71259747807844409 0.63846691315701831 0 0.63236534182377013 0.50296756406332266 0 0.75338430262320943 0.49294443423175599 0 0.5625 0.625 0 0.71259747807844409 0.63846691315701831 0 0.63236534182377013 0.50296756406332266 0 0.56250000000086742 1 0 0.56777512057187585 0.8470224641095303 0 0.6875 0.875 0 0.44927105396715372 0.85565124085155886 0 0.56250000000086742 1 0 0.56777512057187585 0.8470224641095303 0 0.44927105396715372 0.85565124085155886 0 0.50145856933078625 0.73674663046504862 0 0.56777512057187585 0.8470224641095303 0 0.50145856933078625 0.73674663046504862 0 0.56777512057187585 0.8470224641095303 0 0.625 0.75 0 0.625 0.75 0 0.73857795170433571 0.77736788564284653 0 0.6875 0.875 0 0.73857795170433571 0.77736788564284653 0 0.6875 0.875 0 0.80552984491000901 0.88711122872127413 0 0.625 0.75 0 0.6875 0.875 0 0.56777512057187585 0.8470224641095303 0 0.625 0.75 0 0.6875 0.875 0 0.56250000000086742 1 0 0.6875 0.875 0 0.75 1 0 0.6875 0.875 0 0.75 1 0 0.80552984491000901 0.88711122872127413 0 0.6875 0.875 0 0.75 1 0 0.75 1 0 0.80552984491000901 0.88711122872127413 0 0.875 1 0 0.80552984491000901 0.88711122872127413 0 0.90637953422180084 0.90208583328057301 0 0.875 1 0 0.80552984491000901 0.88711122872127413 0 0.85787927391517405 0.753532520882502 0 0.90637953422180084 0.90208583328057301 0 0.73857795170433571 0.77736788564284653 0 0.80552984491000901 0.88711122872127413 0 0.85787927391517405 0.753532520882502 0 0.85787927391517405 0.753532520882502 0 1 0.83333333333356463 0 1 0.66666666666736052 0 0.85787927391517405 0.753532520882502 0 1 0.83333333333356463 0 0.90637953422180084 0.90208583328057301 0 1 0.83333333333356463 0 0.90637953422180084 0.90208583328057301 0 1 1 0 0.90637953422180084 0.90208583328057301 0 1 1 0 0.875 1 0 0.71259747807844409 0.63846691315701831 0 0.86127466977819722 0.57948076978797636 0 0.75338430262320943 0.49294443423175599 0 0.71259747807844409 0.63846691315701831 0 0.85787927391517405 0.753532520882502 0 0.86127466977819722 0.57948076978797636 0 0.71259747807844409 0.63846691315701831 0 0.73857795170433571 0.77736788564284653 0 0.85787927391517405 0.753532520882502 0 0.85787927391517405 0.753532520882502 0 0.86127466977819722 0.57948076978797636 0 1 0.66666666666736052 0 0.86127466977819722 0.57948076978797636 0 1 0.66666666666736052 0 1 0.50000000000138767 0 1 0.50000000000138767 0 0.86569408477091048 0.40983673916766611 0 1 0.33333333333448978 0 0.86127466977819722 0.57948076978797636 0 1 0.50000000000138767 0 0.86569408477091048 0.40983673916766611 0 0.86127466977819722 0.57948076978797636 0 0.75338430262320943 0.49294443423175599 0 0.86569408477091048 0.40983673916766611 0 0.75338430262320943 0.49294443423175599 0 0.86569408477091048 0.40983673916766611 0 0.71826039492840632 0.34564020717216182 0 0.86087286690217635 0.25206523597959418 0 0.71508993406183785 0.15715956854777599 0 0.71826039492840632 0.34564020717216182 0 0.86569408477091048 0.40983673916766611 0 0.86087286690217635 0.25206523597959418 0 0.71826039492840632 0.34564020717216182 0 0.86087286690217635 0.25206523597959418 0 1 0.33333333333448978 0 1 0.16666666666736049 0 0.86569408477091048 0.40983673916766611 0 0.86087286690217635 0.25206523597959418 0 1 0.33333333333448978 0 0.86087286690217635 0.25206523597959418 0 1 0.16666666666736049 0 0.87698901648812122 0.1160638338657984 0 1 0 0 0.87698901648812122 0.1160638338657984 0 0.81249999999947953 0 0 1 0.16666666666736049 0 1 0 0 0.87698901648812122 0.1160638338657984 0 0.87698901648812122 0.1160638338657984 0 0.81249999999947953 0 0 0.71508993406183785 0.15715956854777599 0 0.86087286690217635 0.25206523597959418 0 0.87698901648812122 0.1160638338657984 0 0.71508993406183785 0.15715956854777599 0 0.71508993406183785 0.15715956854777599 0 0.62499999999895905 0 0 0.54475767668582953 0.1431838882066932 0 0.81249999999947953 0 0 0.71508993406183785 0.15715956854777599 0 0.62499999999895905 0 0 0.43749999999913258 0 0 0.62499999999895905 0 0 0.54475767668582953 0.1431838882066932 0 0.71508993406183785 0.15715956854777599 0 0.54475767668582953 0.1431838882066932 0 0.61108462585082757 0.25750599582343231 0 0.49457493289300231 0.26251703776555491 0 0.54475767668582953 0.1431838882066932 0 0.61108462585082757 0.25750599582343231 0 0.49457493289300231 0.26251703776555491 0 0.61108462585082757 0.25750599582343231 0 0.56986707178436635 0.37762093650871992 0 0.43750000000006939 0.37500000000013878 0 0.49457493289300231 0.26251703776555491 0 0.56986707178436635 0.37762093650871992 0 0.43750000000006939 0.37500000000013878 0 0.5 0.5 -0 0.56986707178436635 0.37762093650871992 0 0.5 0.5 -0 0.63236534182377013 0.50296756406332266 0 0.56986707178436635 0.37762093650871992 0 0.63236534182377013 0.50296756406332266 0 0.75338430262320943 0.49294443423175599 0 0.71826039492840632 0.34564020717216182 0 0.63236534182377013 0.50296756406332266 0 0.56986707178436635 0.37762093650871992 0 0.71826039492840632 0.34564020717216182 0 0.71508993406183785 0.15715956854777599 0 0.61108462585082757 0.25750599582343231 0 0.71826039492840632 0.34564020717216182 0 0.61108462585082757 0.25750599582343231 0 0.56986707178436635 0.37762093650871992 0 0.71826039492840632 0.34564020717216182 0 
</DataArray>
</Points>
<Cells>
<DataArray type="UInt32" Name="connectivity" format="ascii">
0 1 2 3 4 5 6 7 8 9 10 11 12 13 14 15 16 17 18 19 20 21 22 23 24 25 26 27 28 29 30 31 32 33 34 35 36 37 38 39 40 41 42 43 44 45 46 47 48 49 50 51 52 53 54 55 56 57 58 59 60 61 62 63 64 65 66 67 68 69 70 71 72 73 74 75 76 77 78 79 80 81 82 83 84 85 86 87 88 89 90 91 92 93 94 95 96 97 98 99 100 101 102 103 104 105 106 107 108 109 110 111 112 113 114 115 116 117 118 119 120 121 122 123 124 125 126 127 128 129 130 131 132 133 134 135 136 137 138 139 140 141 142 143 144 145 146 147 148 149 150 151 152 153 154 155 156 157 158 159 160 161 162 163 164 165 166 167 168 169 170 171 172 173 174 175 176 177 178 179 180 181 182 183 184 185 186 187 188 189 190 191 192 193 194 195 196 197 198 199 200 201 202 203 204 205 206 207 208 209 210 211 212 213 214 215 216 217 218 219 220 221 222 223 224 225 226 227 228 229 230 231 232 233 234 235 236 237 238 239 240 241 242 243 244 245 246 247 248 249 250 251 252 253 254 255 256 257 258 259 260 261 262 263 264 265 266 267 268 269 270 271 272 273 274 275 276 277 278 279 280 281 282 283 284 285 286 287 288 289 290 291 292 293 294 295 296 297 298 299 300 301 302 303 304 305 306 307 308 309 310 311 312 313 314 315 316 317 318 319 320 321 322 323 324 325 326 327 328 329 330 331 332 333 334 335 336 337 338 339 340 341 342 343 344 345 346 347 348 349 350 351 352 353 354 355 356 357 358 359 
</DataArray>
<DataArray type="UInt32" Name="offsets" format="ascii">
3 6 9 12 15 18 21 24 27 30 33 35 38 41 43 46 49 52 55 58 60 63 66 68 71 73 76 79 82 85 87 90 93 96 99 101 104 107 109 112 115 118 121 124 127 130 133 136 139 142 145 148 151 154 157 160 163 166 169 172 175 178 181 184 187 190 193 195 198 200 203 206 209 212 215 218 221 224 227 230 232 235 238 241 243 246 249 252 255 258 261 264 267 270 273 276 279 282 285 288 291 294 297 300 303 306 309 312 315 318 321 324 327 330 333 336 339 342 345 348 351 354 357 360 
</DataArray>
<DataArray type="UInt32" Name="types" format="ascii">
5 5 5 5 5 5 5 5 5 5 5 3 5 5 3 5 5 5 5 5 3 5 5 3 5 3 5 5 5 5 3 5 5 5 5 3 5 5 3 5 5 5 5 5 5 5 5 5 5 5 5 5 5 5 5 5 5 5 5 5 5 5 5 5 5 5 5 3 5 3 5 5 5 5 5 5 5 5 5 5 3 5 5 5 3 5 5 5 5 5 5 5 5 5 5 5 5 5 5 5 5 5 5 5 5 5 5 5 5 5 5 5 5 5 5 5 5 5 5 5 5 5 5 5 
</DataArray>
</Cells>
<PointData Scalars="age_conc,U235_conc," Vectors="" Tensors="">
<DataArray type="Float64" Name="age_conc" format="ascii">
401601.40208206268 402471.3507132043 398109.46204786195 402084.88393152965 403833.65927767102 397738.07486439007 404678.55727018666 397525.58387028566 333013.9821337185 403733.31701468839 397867.14002224908 398076.54120651318 401883.27943236346 399694.66322460771 404989.90375228721 398277.64342747367 418791.07715861592 310097.37756694556 399316.2733596199 411317.84020642913 405252.57716464833 416877.71475411981 403200.90265047486 319032.31360100344 402227.33116624632 401076.19483753265 339982.82798819937 407764.97862940648 340775.57395409467 323812.26800318767 404994.2647118498 397124.358677777 401381.13666374865 339832.37737199717 319458.39003745711 400120.2223357631 400192.15119528642 399465.54379494692 426612.1619394212 318585.3581569292 299730.86152136326 322005.3076173939 295394.08387305599 400063.28884035244 399497.93306884327 399917.08839924546 399602.02172983362 398665.68020530941 400120.07328444277 399973.93476891908 397895.12061921461 400898.95024329849 400263.86601596751 400386.85539232247 399302.14509472979 401086.60557044233 398816.11754955107 398981.35415967455 246189.67262709964 185503.91216219382 309009.06918026169 288672.6590332847 190770.08798660533 302118.28132264363 372301.56815468299 284359.28882545594 265779.47503921622 192125.44957379773 398988.11028968706 398897.60601402412 400125.11890195636 260495.8166846059 298619.19951525587 279399.49705540785 295912.02828627761 390855.8432331006 431999.42842798907 383861.34022502304 282571.3456762089 428869.58771187329 295081.46289210254 383105.06995905522 393679.25293520861 263373.75636508816 283259.59947624267 242218.18145943613 286631.8530249403 409691.69325672335 401498.46651101217 398210.28587396216 398855.32094951643 401080.46587994497 398642.04864942154 399140.82425081008 400684.87704296375 399934.6363010825 430036.33483279945 288057.55417335971 309276.84849613818 282647.67240658373 312990.51111638016 399794.64061833941 400045.9726725269 399982.03171431925 404870.61247528601 314840.78326883679 334204.14084795048 309918.88720904198 333022.20942637854 399237.91066419106 400589.65467380296 397070.95754102297 399165.65836371068 399875.50753387797 400046.17376148008 401957.55567483878 396615.95056376274 398804.84494497505 399148.20086798759 379873.17419639905 400877.81415116193 414257.10241247097 375402.62873174297 333774.42999944818 379218.90310489089 404147.78453774413 385826.11667693767 384802.18531254889 298100.25516419683 395809.96606545773 397495.7720103715 400194.05542976968 385868.9521499204 400378.38354601123 396228.96142262674 398795.61029426992 4354.2615114248065 276679.87458774605 2731.7586268973364 2507.3386945479433 360658.60914495226 267802.62586150214 389108.24181557813 335891.81736809941 246909.56113494956 411177.12347871414 235904.38874547332 303711.43620160501 244551.08373978277 5887.3299643447317 313638.19628543465 290854.05675677396 282998.58035332756 -1553.7095539375186 6136.6477444960146 322382.05068027595 987.67488102764673 287125.56966771721 272644.15323924692 385954.19569884625 251188.85233886779 353886.77492366399 383173.65929629904 291272.03440090921 -2416.2741832662232 1282.3343766317612 402944.37602300098 384044.75209025125 403203.27929736004 409538.89857371326 398219.56657155033 414267.58173046738 284699.4247915094 411634.80201181531 373839.82615006517 386329.24983448756 351513.18149630207 408765.82215823646 343268.10361760936 425020.34189743572 376067.33805050986 459023.97941248765 403202.43917093385 160705.8475452784 405918.2493971315 441027.94276417856 249540.97233204066 461696.29608505085 249527.42136196347 173259.25729266618 400697.04906833277 392377.99596183276 401604.10512351937 193631.7413780512 136722.36002741291 420816.0064668291 161963.39086062665 129657.61273688966 139786.15878732462 82599.155849496499 391180.57041397574 373395.4475714271 356902.10116317996 398370.69838322041 386918.2567392835 371625.831307202 400874.63806379313 404418.92881813395 333187.19164507353 393503.05550497101 389625.51403080759 403189.79253143573 31602.56698580808 261811.25705641112 173551.77834266264 273816.49640412431 34589.50738012528 255694.28662506849 251160.68910510588 392913.2617690739 259686.61880748661 397303.53428109881 324594.03623749287 139842.04449874145 370043.14986014785 374900.09491943941 232651.16940776558 386691.3481988745 232968.21399316585 241477.58880120187 85667.957018652494 31776.550234189846 333934.09844179457 145197.5216475449 125221.61497184812 34242.018542455051 177553.67225668853 -1697.7058652135447 245959.66688325701 -1582.1062800071777 237477.31698113508 34847.173266868464 -3686.3119493430954 -410.39994370112208 243187.26943160914 -350.12149172545787 236519.99403462073 221524.94915338597 -2194.4728041349204 273619.98104400729 310804.47791818815 210096.659002314 364173.20262009453 267658.87452538015 303210.90583009832 294112.82379182277 -81.876088927043838 432.50824823445191 286391.24889332289 -2154.9520512270883 210287.25213288123 -1053.8691430851904 215190.2266215783 -1053.8691430832848 225998.28657217207 -1088.1565283396912 -659.94697096069854 413223.36187120026 248906.60249071621 339028.06760103017 425990.74498075934 280610.85188570205 245470.35031212121 395376.11551802466 354742.2518677499 302879.82449252397 285759.67512289574 254531.52501607931 1181.0325212937496 279324.52137659944 863.6806395126855 2116.6486062949944 499.10946252731537 273589.08500371542 1588.8238276463289 271938.33698915597 2331.7356384565064 247291.32232455604 263560.67456228839 389307.18371343653 239868.92992280095 377638.96896078618 240353.172055153 376007.10300600104 265789.69453180127 378210.8133625582 385694.24714198499 256432.8883038098 263167.18721197604 400319.59433986392 286507.20877695369 976.90151589726611 3418.2302398988068 266446.11473736272 260929.14871983224 1401.8548319989477 279497.53491819615 2381.4828167802207 242414.21179509538 2217.2032393457666 257778.09977628724 364661.9822192404 1845.9585007497462 4293.6897222067737 266383.27638256166 246305.38542614097 331516.44188454212 402477.83547968487 272311.39154225274 241749.66115218773 420869.7823143407 378665.07890973362 402890.2753583258 396528.67190038488 329518.88932386949 387934.6675204123 414481.42092297523 400237.22837809398 400241.56704343465 395007.7782759876 370621.40542690834 404495.08680586162 401006.25537197944 398158.11119076109 401637.02255608625 396201.85456864123 400610.16527499573 394365.73072736239 395507.01504568337 399511.72713825037 399288.87426723534 395336.30016468681 399926.6567265279 402896.2117403053 394327.76450549887 404092.14109884453 395187.32598475955 394274.84253438853 395325.94421510026 354328.31974557578 375088.76098912995 389826.77344255173 400946.03128468583 373222.73128865083 369747.85139311262 405851.50622172828 377021.35493515659 396580.00398821762 398193.61665949546 376145.71722190641 
</DataArray>
<DataArray type="Float64" Name="U235_conc" format="ascii">
0.00057275218286426111 0.0012196521564423008 0.00040463891351651506 -0.00031908192074532414 -0.0013795966027544356 0.0017321027268420723 -0.025126456475134767 -0.002782052712674826 0.18651747443047467 -0.002183409111692295 0.00025604886970019948 0.0080657444619212856 -0.00024519929176780673 0.0076030409333964991 -0.0068943882011146445 -0.0069970697524283192 -0.081567508612777395 0.26193365416719511 0.026273076684218646 -0.036754366839371042 0.010481290155152406 -0.072317023987178028 -0.02131731521583443 0.23497129967049596 -0.016248561053542717 -0.013269028681237936 0.16743738253634505 -0.033085574399622585 0.15646764300844965 0.21271718962579036 -0.0026812146663468782 0.0041028281966997851 -0.001378918286601545 0.15609573979984095 0.20890630696735463 -0.00056685274606688521 -0.00088634251608311345 0.0021465306905179699 -0.09752099192147462 0.2248978806617899 0.27738534243977386 0.20341734319470559 0.27058423778050289 -0.00021959344255604479 0.0015053620549770122 -0.00042745820627817453 0.001197342054951922 0.0025217313246807651 -0.0010837896446460953 0.00090707298134692785 0.0058359166769145002 -0.0063934006220982258 -0.0010149612227619603 -0.0020399386981105327 0.0031185492494021135 -0.0050789971300141037 0.0054020834577270804 0.0015064628507849434 0.40680029211696844 0.54731638644496428 0.2355127155863061 0.30123782813910766 0.53651604963708599 0.24917897612801321 0.056685976236875241 0.3089182632496526 0.3520428884442981 0.5288021464513154 0.0036383884781521309 0.0010769323517098861 -0.0005799148673830913 0.35859808141124777 0.26533872211862541 0.31396536149833165 0.27178017117205411 0.013652740324301499 -0.11869253181853187 0.027794368791594613 0.32746510426912062 -0.10698601335919926 0.29052032618812801 0.030821939323253653 0.003409470953520205 0.36238517519748115 0.30566957440137665 0.40873870804185097 0.29752499409158473 -0.033231631583066593 -0.00032976269005604534 0.03356139427312263 -0.0023545928448781041 0.0077406248954643847 0.018948670707868823 -0.0012930215588966183 0.0095234743531307092 -0.00020536628409350676 -0.11120179631954433 0.31148780439996671 0.25173558441718091 0.30564946099332457 0.22812697044433766 0.00029963962908674925 -0.00010439940334642611 2.2454045850981553e-05 -0.025338695949503092 0.23812046899173916 0.17308851117626467 0.23554142330268268 0.17444270661677566 0.002324929705388422 -0.0016968559006878053 0.0075916952449029181 0.0017435547878209578 -6.1474394527688081e-05 -0.00014249019895518327 -0.0022422379595721845 0.0011913369424306416 0.0024209409205166945 -0.012050415561349122 0.035915040582257744 -0.0014334829065679022 -0.068276656246475331 0.020836941247121633 0.204093307810018 0.043417153961447984 -0.016902990020470278 0.022990876692907732 0.013841759254060268 0.29460381016768356 -0.027865216604519988 0.0036064814807918889 0.0010107068711633777 0.033171735416081219 -0.0008255563523255655 0.0085626684366212971 0.0037845834567780843 0.93128186435566562 0.46436926319045491 0.94009439149405394 0.93231702640058745 0.12685673844984521 0.4168874781707661 -0.043897912241464165 0.18566423092979278 0.4350520747592978 -0.099227838145342931 0.42729303811380659 0.29091541949013766 0.4132230032451667 0.93385356119114793 0.30637101975405756 0.29938248576240928 0.38128458638781748 0.95370062514215415 0.93115903852464688 0.35114124362961241 0.94748768538269679 0.2826889191391504 0.36785048875606063 -0.019577392913728814 0.42195294251619786 0.11231119742817899 -0.0090395346892790246 0.44095910538973149 0.93854836516474593 0.93425614663670853 -0.0070435483187911464 0.04182517481933383 -0.024627962670181927 -0.0076371200982846589 0.057128093078485875 -0.049490972980201206 0.32263146714513913 -0.070109886172294203 0.037056830454922737 0.029040475357674685 0.1353624800807415 -0.047175702383321645 0.16342761189072658 -0.10498316244242775 0.024838116237987932 -0.21212755257805935 -0.038542671021272637 0.65858592449731024 -0.040879705245451828 -0.1768333871271939 0.45518582184996581 -0.22692508006187143 0.43510683251039661 0.63821986473140679 -0.0011662754730445977 0.02756340368949806 -0.023773759774355249 0.53479330661976532 0.66470261987932078 -0.057742727104359223 0.63218504019191391 0.69083162191627767 0.67014546467606273 0.79144250387737358 0.0029894188558310247 0.053045172049709412 0.093530593061541795 -0.0051869060666683911 0.019389140915329978 0.062659474233605239 -0.059913252483236666 -0.035447294021017012 0.20217761299790588 0.026664440275676462 0.0055399149946303815 -0.02628364405967348 0.85961960126979353 0.4026559438473078 0.63602513599766364 0.37130742672881362 0.89823126046676627 0.39294349744886614 0.40162924181504844 -0.035963957996468766 0.36187339222269466 -0.02234664754927583 0.22882954359409191 0.63223665280709562 0.050080187286479061 0.019737029083804716 0.4700980358644018 -0.020373906554175494 0.44717505817629949 0.4398286317738071 0.80448175495229413 0.90081363297273043 0.23099205711043086 0.6004945004450184 0.70537358853977283 0.88040427341046024 0.68127940999617509 0.93413258988724723 0.43002355876719378 0.93517256408342042 0.49704880862844203 0.91854976562882495 0.96242047138922837 0.94326041543826311 0.54365540442802796 0.94033257561840267 0.45352203180637729 0.5471585981106647 0.92598032368555905 0.3043279557558542 0.20962394150558467 0.52863940390090303 0.054510568230295098 0.34259346983656291 0.24579145683107592 0.41888128327475338 0.9434579191936554 0.94533380827502422 0.33025733084209136 0.93396204515592163 0.56545131164611828 0.93310619330010203 0.62153445519095707 0.93310619330012645 0.59745877836501826 0.93309213478113839 0.93226805160021009 -0.10521483873167911 0.42987640189717913 0.1686621806874142 -0.14621772723244536 0.34114121189486779 0.41236652073154512 -0.022192882732849001 0.092306861507479618 0.25828083156320392 0.36777097204542486 0.39747926472156142 0.95003611439919466 0.46378120577225168 0.94174060106859248 0.93249150161597227 0.93898534547451507 0.47864524236842876 0.93337434713472434 0.41272527779498003 0.9386801802428334 0.4154288942905312 0.39243857952855365 -0.026501787254169157 0.41069126491506414 0.015292598326820103 0.4457531734879957 0.04034422987553711 0.37502474085579685 0.037177869434304844 -0.0033500282117829294 0.41246699142816939 0.35538503106744146 -0.056304285471411947 0.44175955914893661 0.94168485101069399 0.93404911261037682 0.42688273357411155 0.38082462636776138 0.93815234060989239 0.39696947640314684 0.93132356919093651 0.42581262369422324 0.93275122441078762 0.43766487862783293 0.12145464846154458 0.94119883324205122 0.93448840538469147 0.48501152329466324 0.43171899147777926 0.19132804058811992 -0.078975172691824524 0.37292778835499885 0.41413439637940475 -0.12297048541824381 0.044024696663853266 -0.025561988683175302 0.016466967288654519 0.21373423400841315 -0.016757464010616705 -0.066753110234379562 0.0025124865295394201 -0.014534587804740654 0.018608387118446892 0.077521528732924255 -0.017896013290091255 -0.017632103794408441 0.0063748632980022996 -0.0077336720684792123 0.0023760443485385083 -0.0029317953490437003 0.0072125552720642963 0.0084028247119553069 0.0020006764167838564 -0.00051858022080643849 0.011471140300704723 0.00063988919407889709 -0.014475472713983683 0.016683319685647235 -0.016799159798735801 0.003212564912671508 0.017328091603835003 -0.00052722304695545369 0.11297550553017573 0.042016601279720886 0.022847796297713864 -0.0096437604282158928 0.054961184810884169 0.076770176920609612 -0.033566176348821399 0.036759771406141992 -0.0017791599877308752 -0.0015021291620371409 0.048356942645000942 
</DataArray>
</PointData>
</Piece>
</UnstructuredGrid>
</VTKFile>
