<?xml version="1.0"?>
<VTKFile type="UnstructuredGrid" version="0.1" byte_order="LittleEndian">
<UnstructuredGrid>
<Piece NumberOfPoints="360" NumberOfCells="124">
<Points>
<DataArray type="Float64" NumberOfComponents="3" format="ascii">
0 0 0 0.084352422163911631 0.086451712656266194 0 0 0.12500000000034689 0 0 0 0 0.1249999999997554 0 0 0.084352422163911631 0.086451712656266194 0 0 0.12500000000034689 0 0.1008171452988615 0.18885703697250469 0 0 0.25 0 0 0.12500000000034689 0 0.084352422163911631 0.086451712656266194 0 0.1008171452988615 0.18885703697250469 0 0.1008171452988615 0.18885703697250469 0 0.084352422163911631 0.086451712656266194 0 0.18402761812864499 0.1117324051466445 0 0.1249999999997599 0.31249999999987998 0 0.1008171452988615 0.18885703697250469 0 0.2403886547178353 0.24188814792673841 0 0.18402761812864499 0.1117324051466445 0 0.2403886547178353 0.24188814792673841 0 0.1008171452988615 0.18885703697250469 0 0.31250000000020822 0.12500000000041631 0 0.2403886547178353 0.24188814792673841 0 0.18402761812864499 0.1117324051466445 0 0.25 -0 0 0.18402761812864499 0.1117324051466445 0 0.1249999999997554 0 0 0.25 -0 0 0.31250000000020822 0.12500000000041631 0 0.18402761812864499 0.1117324051466445 0 0.1249999999997554 0 0 0.18402761812864499 0.1117324051466445 0 0.084352422163911631 0.086451712656266194 0 0.31250000000020822 0.12500000000041631 0 0.25 -0 0 0.25 -0 0 0.43749999999913258 0 0 0.31250000000020822 0.12500000000041631 0 0.31250000000020822 0.12500000000041631 0 0.37500000000027761 0.25000000000055511 0 0.2403886547178353 0.24188814792673841 0 0.37500000000027761 0.25000000000055511 0 0.31250000000020822 0.12500000000041631 0 0.31250000000020822 0.12500000000041631 0 0.4287911518546233 0.15455445427966699 0 0.37500000000027761 0.25000000000055511 0 0.37500000000027761 0.25000000000055511 0 0.4287911518546233 0.15455445427966699 0 0.49457493289300231 0.26251703776555491 0 0.54475767668582953 0.1431838882066932 0 0.49457493289300231 0.26251703776555491 0 0.4287911518546233 0.15455445427966699 0 0.31250000000020822 0.12500000000041631 0 0.43749999999913258 0 0 0.4287911518546233 0.15455445427966699 0 0.43749999999913258 0 0 0.54475767668582953 0.1431838882066932 0 0.4287911518546233 0.15455445427966699 0 0.37499999999973488 0.43749999999986738 0 0.5 0.5 -0 0.43750000000006939 0.37500000000013878 0 0.5 0.5 -0 0.37499999999973488 0.43749999999986738 0 0.43750000000006939 0.37500000000013878 0 0.37499999999973488 0.43749999999986738 0 0.33819444444448321 0.33819444444456342 0 0.5 0.5 -0 0.43750000000006939 0.37500000000013878 0 0.37500000000027761 0.25000000000055511 0 0.49457493289300231 0.26251703776555491 0 0.43750000000006939 0.37500000000013878 0 0.43750000000006939 0.37500000000013878 0 0.37500000000027761 0.25000000000055511 0 0.37500000000027761 0.25000000000055511 0 0.43750000000006939 0.37500000000013878 0 0.33819444444448321 0.33819444444456342 0 0.24999999999960859 0.37499999999980432 0 0.2403886547178353 0.24188814792673841 0 0.33819444444448321 0.33819444444456342 0 0.37500000000027761 0.25000000000055511 0 0.33819444444448321 0.33819444444456342 0 0.2403886547178353 0.24188814792673841 0 0.37499999999973488 0.43749999999986738 0 0.24999999999960859 0.37499999999980432 0 0.33819444444448321 0.33819444444456342 0 0.24999999999960859 0.37499999999980432 0 0.37499999999973488 0.43749999999986738 0 0.37499999999973488 0.43749999999986738 0 0.26452443700674649 0.51563531581639865 0 0.24999999999960859 0.37499999999980432 0 0.24999999999960859 0.37499999999980432 0 0.26452443700674649 0.51563531581639865 0 0.14929124186975251 0.44582793568106382 0 0.24999999999960859 0.37499999999980432 0 0.14929124186975251 0.44582793568106382 0 0.1249999999997599 0.31249999999987998 0 0.24999999999960859 0.37499999999980432 0 0.1249999999997599 0.31249999999987998 0 0.2403886547178353 0.24188814792673841 0 0.1249999999997599 0.31249999999987998 0 0.24999999999960859 0.37499999999980432 0 0 0.25 0 0.1249999999997599 0.31249999999987998 0 0 0.43750000000034689 0 0.1249999999997599 0.31249999999987998 0 0 0.25 0 0.1008171452988615 0.18885703697250469 0 0 0.25 0 0.1249999999997599 0.31249999999987998 0 0 0.43750000000034689 0 0.14929124186975251 0.44582793568106382 0 0.13928587515912139 0.57339806105677438 0 0 0.43750000000034689 0 0.1249999999997599 0.31249999999987998 0 0.14929124186975251 0.44582793568106382 0 0 0.43750000000034689 0 0.13928587515912139 0.57339806105677438 0 0 0.62500000000069389 0 0 0.62500000000069389 0 0.13928587515912139 0.57339806105677438 0 0.13900789599611679 0.72618316107059999 0 0 0.81250000000104083 0 0 0.62500000000069389 0 0.13900789599611679 0.72618316107059999 0 0.27589467050686478 0.66058853156435704 0 0.13900789599611679 0.72618316107059999 0 0.13928587515912139 0.57339806105677438 0 0.27987960212930818 0.83442741470570525 0 0.13900789599611679 0.72618316107059999 0 0.27589467050686478 0.66058853156435704 0 0.26452443700674649 0.51563531581639865 0 0.27589467050686478 0.66058853156435704 0 0.13928587515912139 0.57339806105677438 0 0.26452443700674649 0.51563531581639865 0 0.13928587515912139 0.57339806105677438 0 0.14929124186975251 0.44582793568106382 0 0.1875000000005205 1 0 0 1 0 0.12710107136012311 0.87094806618203435 0 0 1 0 0 0.81250000000104083 0 0.12710107136012311 0.87094806618203435 0 0 0.81250000000104083 0 0.13900789599611679 0.72618316107059999 0 0.12710107136012311 0.87094806618203435 0 0.27987960212930818 0.83442741470570525 0 0.12710107136012311 0.87094806618203435 0 0.13900789599611679 0.72618316107059999 0 0.1875000000005205 1 0 0.12710107136012311 0.87094806618203435 0 0.27987960212930818 0.83442741470570525 0 0.37500000000069389 1 0 0.27987960212930818 0.83442741470570525 0 0.44927105396715372 0.85565124085155886 0 0.37500000000069389 1 0 0.1875000000005205 1 0 0.27987960212930818 0.83442741470570525 0 0.44927105396715372 0.85565124085155886 0 0.27987960212930818 0.83442741470570525 0 0.38136204680495073 0.74038592213831234 0 0.44927105396715372 0.85565124085155886 0 0.38136204680495073 0.74038592213831234 0 0.50145856933078625 0.73674663046504862 0 0.37500000000069389 1 0 0.44927105396715372 0.85565124085155886 0 0.56250000000086742 1 0 0.4139414069912184 0.60563252640100373 0 0.27589467050686478 0.66058853156435704 0 0.26452443700674649 0.51563531581639865 0 0.37499999999973488 0.43749999999986738 0 0.4139414069912184 0.60563252640100373 0 0.26452443700674649 0.51563531581639865 0 0.27987960212930818 0.83442741470570525 0 0.27589467050686478 0.66058853156435704 0 0.38136204680495073 0.74038592213831234 0 0.4139414069912184 0.60563252640100373 0 0.38136204680495073 0.74038592213831234 0 0.27589467050686478 0.66058853156435704 0 0.4139414069912184 0.60563252640100373 0 0.50145856933078625 0.73674663046504862 0 0.38136204680495073 0.74038592213831234 0 0.5625 0.625 0 0.50145856933078625 0.73674663046504862 0 0.4139414069912184 0.60563252640100373 0 0.37499999999973488 0.43749999999986738 0 0.5 0.5 -0 0.4139414069912184 0.60563252640100373 0 0.5625 0.625 0 0.4139414069912184 0.60563252640100373 0 0.5 0.5 -0 0.5625 0.625 0 0.5 0.5 -0 0.63236534182377013 0.50296756406332266 0 0.5625 0.625 0 0.5 0.5 -0 0.5625 0.625 0 0.625 0.75 0 0.50145856933078625 0.73674663046504862 0 0.625 0.75 0 0.5625 0.625 0 0.625 0.75 0 0.71259747807844409 0.63846691315701831 0 0.73857795170433571 0.77736788564284653 0 0.5625 0.625 0 0.71259747807844409 0.63846691315701831 0 0.625 0.75 0 0.75338430262320943 0.49294443423175599 0 0.71259747807844409 0.63846691315701831 0 0.63236534182377013 0.50296756406332266 0 0.5625 0.625 0 0.63236534182377013 0.50296756406332266 0 0.71259747807844409 0.63846691315701831 0 0.6875 0.875 0 0.56250000000086742 1 0 0.56777512057187585 0.8470224641095303 0 0.56250000000086742 1 0 0.44927105396715372 0.85565124085155886 0 0.56777512057187585 0.8470224641095303 0 0.44927105396715372 0.85565124085155886 0 0.50145856933078625 0.73674663046504862 0 0.56777512057187585 0.8470224641095303 0 0.625 0.75 0 0.56777512057187585 0.8470224641095303 0 0.50145856933078625 0.73674663046504862 0 0.6875 0.875 0 0.625 0.75 0 0.73857795170433571 0.77736788564284653 0 0.6875 0.875 0 0.73857795170433571 0.77736788564284653 0 0.80552984491000901 0.88711122872127413 0 0.6875 0.875 0 0.625 0.75 0 0.6875 0.875 0 0.56777512057187585 0.8470224641095303 0 0.625 0.75 0 0.6875 0.875 0 0.75 1 0 0.56250000000086742 1 0 0.6875 0.875 0 0.80552984491000901 0.88711122872127413 0 0.75 1 0 0.75 1 0 0.6875 0.875 0 0.875 1 0 0.75 1 0 0.80552984491000901 0.88711122872127413 0 0.875 1 0 0.80552984491000901 0.88711122872127413 0 0.90637953422180084 0.90208583328057301 0 0.80552984491000901 0.88711122872127413 0 0.85787927391517405 0.753532520882502 0 0.90637953422180084 0.90208583328057301 0 0.80552984491000901 0.88711122872127413 0 0.73857795170433571 0.77736788564284653 0 0.85787927391517405 0.753532520882502 0 1 0.83333333333356463 0 0.85787927391517405 0.753532520882502 0 1 0.66666666666736052 0 1 0.83333333333356463 0 0.90637953422180084 0.90208583328057301 0 0.85787927391517405 0.753532520882502 0 1 1 0 0.90637953422180084 0.90208583328057301 0 1 0.83333333333356463 0 1 1 0 0.875 1 0 0.90637953422180084 0.90208583328057301 0 0.86127466977819722 0.57948076978797636 0 0.71259747807844409 0.63846691315701831 0 0.75338430262320943 0.49294443423175599 0 0.85787927391517405 0.753532520882502 0 0.71259747807844409 0.63846691315701831 0 0.86127466977819722 0.57948076978797636 0 0.85787927391517405 0.753532520882502 0 0.73857795170433571 0.77736788564284653 0 0.71259747807844409 0.63846691315701831 0 1 0.66666666666736052 0 0.85787927391517405 0.753532520882502 0 0.86127466977819722 0.57948076978797636 0 1 0.66666666666736052 0 0.86127466977819722 0.57948076978797636 0 1 0.50000000000138767 0 1 0.33333333333448978 0 1 0.50000000000138767 0 0.86569408477091048 0.40983673916766611 0 0.86127466977819722 0.57948076978797636 0 0.86569408477091048 0.40983673916766611 0 1 0.50000000000138767 0 0.86127466977819722 0.57948076978797636 0 0.75338430262320943 0.49294443423175599 0 0.86569408477091048 0.40983673916766611 0 0.75338430262320943 0.49294443423175599 0 0.71826039492840632 0.34564020717216182 0 0.86569408477091048 0.40983673916766611 0 0.71508993406183785 0.15715956854777599 0 0.86087286690217635 0.25206523597959418 0 0.71826039492840632 0.34564020717216182 0 0.86569408477091048 0.40983673916766611 0 0.71826039492840632 0.34564020717216182 0 0.86087286690217635 0.25206523597959418 0 1 0.16666666666736049 0 1 0.33333333333448978 0 0.86087286690217635 0.25206523597959418 0 1 0.33333333333448978 0 0.86569408477091048 0.40983673916766611 0 0.86087286690217635 0.25206523597959418 0 1 0.16666666666736049 0 0.86087286690217635 0.25206523597959418 0 0.87698901648812122 0.1160638338657984 0 0.81249999999947953 0 0 1 0 0 0.87698901648812122 0.1160638338657984 0 1 0.16666666666736049 0 0.87698901648812122 0.1160638338657984 0 1 0 0 0.81249999999947953 0 0 0.87698901648812122 0.1160638338657984 0 0.71508993406183785 0.15715956854777599 0 0.71508993406183785 0.15715956854777599 0 0.87698901648812122 0.1160638338657984 0 0.86087286690217635 0.25206523597959418 0 0.62499999999895905 0 0 0.71508993406183785 0.15715956854777599 0 0.54475767668582953 0.1431838882066932 0 0.81249999999947953 0 0 0.71508993406183785 0.15715956854777599 0 0.62499999999895905 0 0 0.43749999999913258 0 0 0.62499999999895905 0 0 0.54475767668582953 0.1431838882066932 0 0.71508993406183785 0.15715956854777599 0 0.61108462585082757 0.25750599582343231 0 0.54475767668582953 0.1431838882066932 0 0.54475767668582953 0.1431838882066932 0 0.61108462585082757 0.25750599582343231 0 0.49457493289300231 0.26251703776555491 0 0.56986707178436635 0.37762093650871992 0 0.49457493289300231 0.26251703776555491 0 0.61108462585082757 0.25750599582343231 0 0.43750000000006939 0.37500000000013878 0 0.49457493289300231 0.26251703776555491 0 0.56986707178436635 0.37762093650871992 0 0.43750000000006939 0.37500000000013878 0 0.56986707178436635 0.37762093650871992 0 0.5 0.5 -0 0.5 0.5 -0 0.56986707178436635 0.37762093650871992 0 0.63236534182377013 0.50296756406332266 0 0.75338430262320943 0.49294443423175599 0 0.63236534182377013 0.50296756406332266 0 0.71826039492840632 0.34564020717216182 0 0.56986707178436635 0.37762093650871992 0 0.71826039492840632 0.34564020717216182 0 0.63236534182377013 0.50296756406332266 0 0.71508993406183785 0.15715956854777599 0 0.71826039492840632 0.34564020717216182 0 0.61108462585082757 0.25750599582343231 0 0.56986707178436635 0.37762093650871992 0 0.61108462585082757 0.25750599582343231 0 0.71826039492840632 0.34564020717216182 0 
</DataArray>
</Points>
<Cells>
<DataArray type="UInt32" Name="connectivity" format="ascii">
0 1 2 3 4 5 6 7 8 9 10 11 12 13 14 15 16 17 18 19 20 21 22 23 24 25 26 27 28 29 30 31 32 33 34 35 36 37 38 39 40 41 42 43 44 45 46 47 48 49 50 51 52 53 54 55 56 57 58 59 60 61 62 63 64 65 66 67 68 69 70 71 72 73 74 75 76 77 78 79 80 81 82 83 84 85 86 87 88 89 90 91 92 93 94 95 96 97 98 99 100 101 102 103 104 105 106 107 108 109 110 111 112 113 114 115 116 117 118 119 120 121 122 123 124 125 126 127 128 129 130 131 132 133 134 135 136 137 138 139 140 141 142 143 144 145 146 147 148 149 150 151 152 153 154 155 156 157 158 159 160 161 162 163 164 165 166 167 168 169 170 171 172 173 174 175 176 177 178 179 180 181 182 183 184 185 186 187 188 189 190 191 192 193 194 195 196 197 198 199 200 201 202 203 204 205 206 207 208 209 210 211 212 213 214 215 216 217 218 219 220 221 222 223 224 225 226 227 228 229 230 231 232 233 234 235 236 237 238 239 240 241 242 243 244 245 246 247 248 249 250 251 252 253 254 255 256 257 258 259 260 261 262 263 264 265 266 267 268 269 270 271 272 273 274 275 276 277 278 279 280 281 282 283 284 285 286 287 288 289 290 291 292 293 294 295 296 297 298 299 300 301 302 303 304 305 306 307 308 309 310 311 312 313 314 315 316 317 318 319 320 321 322 323 324 325 326 327 328 329 330 331 332 333 334 335 336 337 338 339 340 341 342 343 344 345 346 347 348 349 350 351 352 353 354 355 356 357 358 359 
</DataArray>
<DataArray type="UInt32" Name="offsets" format="ascii">
3 6 9 12 15 18 21 24 27 30 33 35 38 41 43 46 49 52 55 58 60 63 66 68 71 73 76 79 82 85 87 90 93 96 99 101 104 107 109 112 115 118 121 124 127 130 133 136 139 142 145 148 151 154 157 160 163 166 169 172 175 178 181 184 187 190 193 195 198 200 203 206 209 212 215 218 221 224 227 230 232 235 238 241 243 246 249 252 255 258 261 264 267 270 273 276 279 282 285 288 291 294 297 300 303 306 309 312 315 318 321 324 327 330 333 336 339 342 345 348 351 354 357 360 
</DataArray>
<DataArray type="UInt32" Name="types" format="ascii">
5 5 5 5 5 5 5 5 5 5 5 3 5 5 3 5 5 5 5 5 3 5 5 3 5 3 5 5 5 5 3 5 5 5 5 3 5 5 3 5 5 5 5 5 5 5 5 5 5 5 5 5 5 5 5 5 5 5 5 5 5 5 5 5 5 5 5 3 5 3 5 5 5 5 5 5 5 5 5 5 3 5 5 5 3 5 5 5 5 5 5 5 5 5 5 5 5 5 5 5 5 5 5 5 5 5 5 5 5 5 5 5 5 5 5 5 5 5 5 5 5 5 5 5 
</DataArray>
</Cells>
<PointData Scalars="age_conc,U235_conc," Vectors="" Tensors="">
<DataArray type="Float64" Name="age_conc" format="ascii">
453137.85721698659 453619.62933785864 445292.73256002914 453738.0615660359 444968.99107339204 455404.95245418296 452547.09587212029 442596.317232317 366359.61328317184 445036.23943788878 455485.59215269721 445312.10689083138 447980.32068237528 452499.62918134715 455101.03455299564 338835.31684838125 444808.31036148639 467116.38735040708 455833.04088973999 459467.26108975656 447952.81660827249 350781.66949715302 464967.68509099656 451104.13695056608 375410.92850564979 447559.26898112398 450020.89307025366 376331.86310671474 356229.19879136025 454333.41378980351 444288.16213690443 449764.72713214846 457115.95669102116 352755.67145407462 376060.31607995176 450191.28348984034 449079.85266519454 450290.3500571397 350574.07455430122 328972.94834894408 474459.24068828684 325091.62248607323 355254.65275822429 450098.71922944399 449081.3249932545 449759.84492584009 450094.77764777816 449268.546310028 447519.21293120994 450421.22412594606 446441.15777446725 450014.16302425141 450412.87041034887 448892.68250500684 450390.37888516433 448298.13377968076 447836.50714289711 451389.99940145324 265738.36700797779 199451.26745525806 336260.84983942861 205634.28048766177 310101.52097464708 329611.73417344649 306376.36748734262 407442.32725836872 207653.13016260244 290445.68260198855 450147.40209282964 447829.01169476303 448422.64880809351 285305.83410226862 328232.53497710678 326161.08678786358 305335.07558688166 427402.49124105816 308222.81182444014 481808.45563093637 420812.55873281998 324744.58534831472 420512.58551163808 477960.60912507109 284446.42310028814 309469.43003028503 430036.54797609599 312568.62002861861 262146.17169291427 458611.78861540637 449185.32108897017 452478.65405808249 452139.31324208563 448352.10350045841 447878.30095507472 451546.99936278514 448303.33290510543 449961.54282845935 313567.56861986127 338246.85149033542 478351.59611937165 343431.27289488283 308647.01121138985 450088.35634140891 449694.14051554713 449775.50260377501 344474.80254580057 367730.21449959197 450116.67410082225 367011.96105816343 340346.99848913529 450539.02152813831 448998.31458724372 445189.29011293303 449852.97424108186 449839.60939136916 448670.06925990205 452997.20733877941 446225.47390681528 444265.84402113402 447618.4121782016 449376.82072756538 416182.50564057124 355431.74762414448 465783.46370779566 412935.47193664254 429112.23967101856 413850.47842630889 454907.63060268795 313847.26123658271 419718.21757400897 440477.82932210981 449295.11037390446 428045.43203325075 446111.99803331733 447269.23060042853 444301.38108642056 450441.11582344893 2466.794962213452 4104.8292067470302 284247.95639551885 2479.6863182384732 379961.31403192692 277162.1432354087 357512.40057463973 426713.25516201206 258453.80650906404 317765.93295044731 248844.11328582201 447292.38847127871 5433.0974636195988 256410.62417340992 326092.02295834559 -1896.3908184161246 306143.32995095605 292260.64477268845 684.88229151812402 5668.2880871861616 333090.8635429595 283812.18237268628 303674.33969180239 418435.00337209477 265171.0854782525 385670.28837126633 414222.53322095808 -2398.7682326735367 298656.10003386927 1472.3296101103278 450189.32774161524 425230.87257780385 453854.45888181007 458524.17708615819 461913.281958821 450306.37516127783 300873.88900311361 456933.95742163382 406444.76965130406 456673.46979530086 382690.14685293724 428057.44207071664 475026.35001719627 407769.16991432139 374629.32575778739 169924.4465765788 435121.60003269411 506744.41192546469 452515.60530047934 265548.60947641975 489313.30539092358 181000.08957468841 509346.83869604493 265771.97949807631 438933.63593029516 450642.22973039217 448304.49139210861 145120.16322675391 208367.89274079565 171821.82683253798 135861.13781709244 450790.65383601934 85752.761672422042 147746.00833196889 409794.83035581856 433657.99850988307 387478.47352186084 445508.76931021572 428549.12862108613 407525.84684369556 361337.65911145217 440834.30379820347 451775.52973013109 440965.68462207663 450400.58503720886 430493.36024832452 177181.78768672759 33015.647775607853 270696.71132530598 35028.80874836904 287494.83361017425 265809.03835055046 265834.12664993148 423432.87786748208 271856.5339497088 148591.13648604482 339111.10861701926 426005.3263867991 241992.84007574682 403222.79134174122 406204.20064522879 242600.78783705091 417301.93337227899 251360.63323795493 32145.289693000806 88491.52890599276 128330.52838944489 346913.24602019676 153610.84547384855 180161.00208409241 -1417.8237254817882 35048.160210361908 255557.9505943128 244406.39196718179 -1635.8000985057324 -3776.4389352720009 35254.331374960137 -232.59788547945118 -695.28914219117905 248794.26543467969 -1589.3723477875101 245178.18995137463 226370.5505796746 287722.41307893931 327589.26382524584 215935.43426380443 282120.22648762434 394495.98910430423 320626.33585202717 -81.867780947787651 302782.13130259665 -72.429511387889306 -1734.7815820634423 214827.21509192261 298461.83116034977 -741.8982602470669 218470.98579224883 -741.89826024483455 -773.21985330020891 -331.0955534557811 229695.90912558243 260776.70690618013 453210.21834017331 367741.45084320102 293155.654269705 465655.45678887516 257925.31450366246 320307.23567335116 385098.50781014212 436388.8642940775 464.8249591773174 296221.78487537475 266472.31839975354 681.89191290887447 286602.33303533588 1970.6396923900256 1513.2638711657387 490.0894611497074 280395.4784062524 280846.51088784565 258535.64600785341 2046.772725517616 274001.28132766881 418780.648269445 252489.8697268953 407803.73048276937 411953.07987430925 252329.63540798193 415330.90801133803 278636.86864831432 421975.47553988802 266684.53294032504 436350.34194928041 276209.47974732821 3140.3102243565163 857.21304014777866 294526.6463306779 1263.0917717963266 274850.60352343647 272993.15162507829 2273.6692962365414 289020.20727522543 253024.87080516588 383714.86088742258 2202.3922447682194 266622.87145236967 1642.3496463798051 273466.54921007151 3997.3637948102669 353898.59589186002 257197.41873892432 441899.75892010721 458988.69966072589 253450.35136890516 283625.61802989501 451567.56210409972 416703.88207875803 445145.18473617779 351784.98353864509 427258.98707959038 465764.52002452692 450701.15753947425 448399.72765192081 442497.88773767557 406754.59749244247 448694.4783239963 455327.30654754792 451535.68156426318 442383.81385139952 447070.4269139978 442449.32600979466 450540.15940292849 439687.07439333806 449251.44105094363 448385.19787312963 442356.26696349645 449868.33967013651 441229.55078280775 452989.32784040336 454719.41595149046 441429.37826773763 440754.71089871234 383653.91516039742 441266.28797473962 410468.61841844837 449741.39683362789 408281.79499171884 434451.70203273464 406134.66160851781 413018.68261814612 454769.42956119962 446233.12024498178 442654.4666153586 412185.66124941665 
</DataArray>
<DataArray type="Float64" Name="U235_conc" format="ascii">
-0.0022722968846046899 -0.0011968564048208403 0.0068910144034512533 -0.0030681198355003879 0.0077925233974125213 -0.0045911545221423555 -0.019768296543579929 0.0091467893810515104 0.21245402727292684 0.0061886340006644044 -0.0066812436175452596 0.014163886358158325 0.011161867513661817 -0.0015140623953683295 -0.0067190498644482668 0.29396498261881915 -0.0003909879829255905 -0.073548714140940941 0.0066048858884186178 -0.032498430831331727 0.025893544942913113 0.2608808210050535 -0.063653632411838912 -0.017018769435663179 0.18967658426453238 -0.0042240603434339254 -0.011090320715311724 0.17951216075990209 0.2389557585875936 -0.02137435553992139 0.0092103534049126252 0.0022286363503223753 -0.0082827897894887023 0.23182400630469988 0.17747739864259271 -0.00084440782096618428 0.0035238889890306215 -0.0015072646701777964 0.25125033427924826 0.30332300457566941 -0.083520750599741955 0.29617348984999603 0.22792413916444698 -0.00032932919538977869 0.0022506346052708786 -0.00036565204318048279 -0.0013118220636178207 0.0016937073050213994 0.0042948701348641946 -0.007704998673389413 0.0084826100622538425 0.00076655776462454105 -0.001660370903617662 0.0046496888696916511 -0.0029476555049490869 0.0076459344010143685 0.0029073959490871319 -0.0070112752966451719 0.44660075488947648 0.58281815946324855 0.27430387817113172 0.56798188325090337 0.35086243419659252 0.2821595376495758 0.35286369811657359 0.090540134920250148 0.56144223829766038 0.38314708892970267 -0.00067804356708956533 0.0025499441529071108 0.0044785308880035384 0.38687057500329808 0.29292136884784792 0.29369518322841259 0.34338868484562146 0.051508243568049963 0.35574720618527866 -0.11149399974144002 0.060450609383490284 0.31133914445649125 0.061884696729078134 -0.098195873183520424 0.4009624180170972 0.33497765735252261 0.042769105528166887 0.33201175579467185 0.4451796035659536 -0.027036317126459122 0.029221171727117561 -0.0015753309761227061 0.0069746659140324865 0.019894349518045196 0.0013817605436781837 0.0088474745508493845 0.0012986328526867507 0.0002055714000510603 0.34445767950308892 0.28393145866388969 -0.098077106159967953 0.25805248158888217 0.33789732006218376 -0.00038976932684605493 0.00058354251110616763 0.00052747194124411006 0.26966651382356144 0.19982479642079995 -0.010829411952852586 0.20022025533163931 0.26385085344753845 -0.00039273852841453728 0.0020879191311999334 0.0090273722427950519 0.00025286739995500687 0.00016713391097493359 0.0024002360718873559 -0.0029635584228199768 0.0092684243553480677 -0.0012679734344022214 -0.018478466945051158 0.00022636548082867496 0.066482177430162992 0.2709556835442779 -0.081540941307088791 0.038218830935931355 0.026229093577090593 0.082861955959928388 -0.02534555767140774 0.36427269870565504 0.052902777442079149 -0.026730520991187605 0.0037993017364568293 0.046092567804486645 0.0014667298193357676 0.0080792394427355169 0.0082296435312483388 -0.00039929028972826271 0.95371511216120552 0.9491451591165907 0.54901335590493572 0.94051239256852892 0.21397416623465154 0.49797691477919592 0.2517576222070933 -0.017436581532837697 0.49426823618996774 0.37453773338117557 0.47568318546264554 -0.054399930412935435 0.94538574770443873 0.47548415901887731 0.39834503564376245 0.9575707223392832 0.36763143972713741 0.47599980295621624 0.95823968056342945 0.94961716383828088 0.44472689774045737 0.44882645105298985 0.34288877921998645 0.026971477081120049 0.47218403512468393 0.14401042136307951 0.04378205042686098 0.95104330017261329 0.53471455563564763 0.94634364680453076 -0.022755888280558769 0.059383196901715597 -0.012233137328744842 -0.002907715307308132 -0.044245287835116637 0.047153003142424779 0.3815439896168753 -0.062978782290176838 0.076510356951451974 -0.047344356109130639 0.17018405386948984 0.044686662787960629 -0.10935075073745221 0.069470234455507984 0.18990318262789685 0.68731167444066243 0.01904770947788691 -0.18874101707271379 -0.034382723279091532 0.50239769660623768 -0.16086625975950214 0.68024821409036007 -0.19768541552079175 0.48475472281136528 0.030841308007921741 -0.0028480899307853575 -0.01929981323471968 0.70014490519628669 0.57056855927089623 0.66548534887920219 0.72178248747763896 0.014732585695283573 0.82431667767797534 0.70736656429313638 0.077426395145473489 0.012401051069256866 0.13064838132672105 -0.0033425633631710278 0.031806810792898481 0.08962370867842373 0.23813144320113344 -0.034445677522355896 -0.035978836277753827 0.024860020722491272 -0.0247518950410546 0.022231113716720971 0.70127124223855086 0.87897905158067913 0.4860876774318843 0.91253059761175637 0.43549241490539803 0.47284774584537537 0.4489519231886076 0.021847300835352829 0.43248608947053774 0.6566465888941897 0.31820241911734498 0.04264140285651899 0.53388755142837641 0.083824028804901446 0.063736174087652725 0.51286097350717474 0.033257242172125889 0.50789532088760603 0.92461522886892722 0.83787502112877665 0.75352392914456701 0.32973995597859673 0.63684655714471217 0.74641240023625544 0.94769072648799524 0.90452508479456362 0.50291755560468587 0.57483685964639508 0.94604161036237311 0.97510897087709847 0.93975198445331565 0.95259432969700863 0.95963102225156904 0.62146389264405821 0.93340193880862332 0.52554464666882428 0.62848759225436202 0.37259707299714057 0.28470342280135968 0.60215024241784376 0.40265168996733158 0.094071602014471067 0.31194865771472313 0.95439158180200911 0.50786834354845556 0.96151592249430828 0.93959027454548616 0.64384936098427858 0.41068251936592326 0.94662348667497775 0.69770643815019329 0.94662348667500684 0.9463179628094186 0.94560498618147359 0.67671765209537649 0.48761703652909855 -0.073028948555892217 0.204851257005777 0.41944057643133886 -0.10735909501345269 0.46718969105824143 0.32398180712763031 0.12751572380641493 -0.0060361820954409617 0.95981763898777184 0.45622039040744078 0.4631166158316018 0.95454090966919947 0.55106982895224066 0.94893672274927132 0.9492292108906204 0.95148083502070335 0.56537601723197883 0.50063923720580983 0.48044498236200306 0.94822319786855946 0.471168147475789 0.036218259961369514 0.46338808966359618 0.069566418759307164 0.06538779186133703 0.49796345010199472 0.061332073108524621 0.44003744934132466 0.026682411562930622 0.48618938886230884 -0.017483238060146927 0.42095271238148874 0.95117926729996516 0.95387692744058983 0.52944061649177421 0.94675257385339329 0.51414708482706284 0.4492611094306268 0.94219932273181761 0.483845223565673 0.49289598134089452 0.21115765864109887 0.94111914930311313 0.51630006695266406 0.95459897934496341 0.56743641560124369 0.95221311556665822 0.25036034224850257 0.49419052676610709 -0.051867700824637028 -0.080672646997423963 0.472760121054906 0.45021725300342536 -0.029259185030787015 0.066983323207577661 0.017900671226453026 0.27387528549598955 0.002022127328792464 -0.077981371534968674 0.0025362960919922536 -0.016354554894009311 0.024666660336900161 0.10523636683182755 -0.017321551464660571 -0.022547928786850815 -0.01036815441797204 0.0076642338965274351 0.0077867216576039018 0.012385317768344232 -0.004353622352610006 0.015097748714014748 0.0022083345559250284 0.00062265024090636494 0.016018809727798171 0.0003940332070912554 0.021205349883557652 -0.016098150257039874 -0.019616785769918453 0.020633134978941224 0.0090460493538028746 0.15727235265704068 0.00033720224566777257 0.071822939643728365 -0.010963575700590478 0.086850216657784057 0.028201641783987944 0.10109747088911188 0.064406798078392558 -0.037338259599140944 -0.0018365548896011503 0.0028414799597335817 0.077431976879483985 
</DataArray>
</PointData>
</Piece>
</UnstructuredGrid>
</VTKFile>
