<?xml version="1.0"?>
<VTKFile type="UnstructuredGrid" version="0.1" byte_order="LittleEndian">
<UnstructuredGrid>
<Piece NumberOfPoints="360" NumberOfCells="124">
<Points>
<DataArray type="Float64" NumberOfComponents="3" format="ascii">
0 0 0 0.084352422163911631 0.086451712656266194 0 0 0.12500000000034689 0 0 0 0 0.1249999999997554 0 0 0.084352422163911631 0.086451712656266194 0 0 0.12500000000034689 0 0.1008171452988615 0.18885703697250469 0 0 0.25 0 0 0.12500000000034689 0 0.084352422163911631 0.086451712656266194 0 0.1008171452988615 0.18885703697250469 0 0.1008171452988615 0.18885703697250469 0 0.084352422163911631 0.086451712656266194 0 0.18402761812864499 0.1117324051466445 0 0.1249999999997599 0.31249999999987998 0 0.1008171452988615 0.18885703697250469 0 0.2403886547178353 0.24188814792673841 0 0.18402761812864499 0.1117324051466445 0 0.2403886547178353 0.24188814792673841 0 0.1008171452988615 0.18885703697250469 0 0.31250000000020822 0.12500000000041631 0 0.2403886547178353 0.24188814792673841 0 0.18402761812864499 0.1117324051466445 0 0.25 -0 0 0.18402761812864499 0.1117324051466445 0 0.1249999999997554 0 0 0.25 -0 0 0.31250000000020822 0.12500000000041631 0 0.18402761812864499 0.1117324051466445 0 0.1249999999997554 0 0 0.18402761812864499 0.1117324051466445 0 0.084352422163911631 0.086451712656266194 0 0.31250000000020822 0.12500000000041631 0 0.25 -0 0 0.25 -0 0 0.43749999999913258 0 0 0.31250000000020822 0.12500000000041631 0 0.31250000000020822 0.12500000000041631 0 0.37500000000027761 0.25000000000055511 0 0.2403886547178353 0.24188814792673841 0 0.37500000000027761 0.25000000000055511 0 0.31250000000020822 0.12500000000041631 0 0.31250000000020822 0.12500000000041631 0 0.4287911518546233 0.15455445427966699 0 0.37500000000027761 0.25000000000055511 0 0.37500000000027761 0.25000000000055511 0 0.4287911518546233 0.15455445427966699 0 0.49457493289300231 0.26251703776555491 0 0.54475767668582953 0.1431838882066932 0 0.49457493289300231 0.26251703776555491 0 0.4287911518546233 0.15455445427966699 0 0.31250000000020822 0.12500000000041631 0 0.43749999999913258 0 0 0.4287911518546233 0.15455445427966699 0 0.43749999999913258 0 0 0.54475767668582953 0.1431838882066932 0 0.4287911518546233 0.15455445427966699 0 0.37499999999973488 0.43749999999986738 0 0.5 0.5 -0 0.43750000000006939 0.37500000000013878 0 0.5 0.5 -0 0.37499999999973488 0.43749999999986738 0 0.43750000000006939 0.37500000000013878 0 0.37499999999973488 0.43749999999986738 0 0.33819444444448321 0.33819444444456342 0 0.5 0.5 -0 0.43750000000006939 0.37500000000013878 0 0.37500000000027761 0.25000000000055511 0 0.49457493289300231 0.26251703776555491 0 0.43750000000006939 0.37500000000013878 0 0.43750000000006939 0.37500000000013878 0 0.37500000000027761 0.25000000000055511 0 0.37500000000027761 0.25000000000055511 0 0.43750000000006939 0.37500000000013878 0 0.33819444444448321 0.33819444444456342 0 0.24999999999960859 0.37499999999980432 0 0.2403886547178353 0.24188814792673841 0 0.33819444444448321 0.33819444444456342 0 0.37500000000027761 0.25000000000055511 0 0.33819444444448321 0.33819444444456342 0 0.2403886547178353 0.24188814792673841 0 0.37499999999973488 0.43749999999986738 0 0.24999999999960859 0.37499999999980432 0 0.33819444444448321 0.33819444444456342 0 0.24999999999960859 0.37499999999980432 0 0.37499999999973488 0.43749999999986738 0 0.37499999999973488 0.43749999999986738 0 0.26452443700674649 0.51563531581639865 0 0.24999999999960859 0.37499999999980432 0 0.24999999999960859 0.37499999999980432 0 0.26452443700674649 0.51563531581639865 0 0.14929124186975251 0.44582793568106382 0 0.24999999999960859 0.37499999999980432 0 0.14929124186975251 0.44582793568106382 0 0.1249999999997599 0.31249999999987998 0 0.24999999999960859 0.37499999999980432 0 0.1249999999997599 0.31249999999987998 0 0.2403886547178353 0.24188814792673841 0 0.1249999999997599 0.31249999999987998 0 0.24999999999960859 0.37499999999980432 0 0 0.25 0 0.1249999999997599 0.31249999999987998 0 0 0.43750000000034689 0 0.1249999999997599 0.31249999999987998 0 0 0.25 0 0.1008171452988615 0.18885703697250469 0 0 0.25 0 0.1249999999997599 0.31249999999987998 0 0 0.43750000000034689 0 0.14929124186975251 0.44582793568106382 0 0.13928587515912139 0.57339806105677438 0 0 0.43750000000034689 0 0.1249999999997599 0.31249999999987998 0 0.14929124186975251 0.44582793568106382 0 0 0.43750000000034689 0 0.13928587515912139 0.57339806105677438 0 0 0.62500000000069389 0 0 0.62500000000069389 0 0.13928587515912139 0.57339806105677438 0 0.13900789599611679 0.72618316107059999 0 0 0.81250000000104083 0 0 0.62500000000069389 0 0.13900789599611679 0.72618316107059999 0 0.27589467050686478 0.66058853156435704 0 0.13900789599611679 0.72618316107059999 0 0.13928587515912139 0.57339806105677438 0 0.27987960212930818 0.83442741470570525 0 0.13900789599611679 0.72618316107059999 0 0.27589467050686478 0.66058853156435704 0 0.26452443700674649 0.51563531581639865 0 0.27589467050686478 0.66058853156435704 0 0.13928587515912139 0.57339806105677438 0 0.26452443700674649 0.51563531581639865 0 0.13928587515912139 0.57339806105677438 0 0.14929124186975251 0.44582793568106382 0 0.1875000000005205 1 0 0 1 0 0.12710107136012311 0.87094806618203435 0 0 1 0 0 0.81250000000104083 0 0.12710107136012311 0.87094806618203435 0 0 0.81250000000104083 0 0.13900789599611679 0.72618316107059999 0 0.12710107136012311 0.87094806618203435 0 0.27987960212930818 0.83442741470570525 0 0.12710107136012311 0.87094806618203435 0 0.13900789599611679 0.72618316107059999 0 0.1875000000005205 1 0 0.12710107136012311 0.87094806618203435 0 0.27987960212930818 0.83442741470570525 0 0.37500000000069389 1 0 0.27987960212930818 0.83442741470570525 0 0.44927105396715372 0.85565124085155886 0 0.37500000000069389 1 0 0.1875000000005205 1 0 0.27987960212930818 0.83442741470570525 0 0.44927105396715372 0.85565124085155886 0 0.27987960212930818 0.83442741470570525 0 0.38136204680495073 0.74038592213831234 0 0.44927105396715372 0.85565124085155886 0 0.38136204680495073 0.74038592213831234 0 0.50145856933078625 0.73674663046504862 0 0.37500000000069389 1 0 0.44927105396715372 0.85565124085155886 0 0.56250000000086742 1 0 0.4139414069912184 0.60563252640100373 0 0.27589467050686478 0.66058853156435704 0 0.26452443700674649 0.51563531581639865 0 0.37499999999973488 0.43749999999986738 0 0.4139414069912184 0.60563252640100373 0 0.26452443700674649 0.51563531581639865 0 0.27987960212930818 0.83442741470570525 0 0.27589467050686478 0.66058853156435704 0 0.38136204680495073 0.74038592213831234 0 0.4139414069912184 0.60563252640100373 0 0.38136204680495073 0.74038592213831234 0 0.27589467050686478 0.66058853156435704 0 0.4139414069912184 0.60563252640100373 0 0.50145856933078625 0.73674663046504862 0 0.38136204680495073 0.74038592213831234 0 0.5625 0.625 0 0.50145856933078625 0.73674663046504862 0 0.4139414069912184 0.60563252640100373 0 0.37499999999973488 0.43749999999986738 0 0.5 0.5 -0 0.4139414069912184 0.60563252640100373 0 0.5625 0.625 0 0.4139414069912184 0.60563252640100373 0 0.5 0.5 -0 0.5625 0.625 0 0.5 0.5 -0 0.63236534182377013 0.50296756406332266 0 0.5625 0.625 0 0.5 0.5 -0 0.5625 0.625 0 0.625 0.75 0 0.50145856933078625 0.73674663046504862 0 0.625 0.75 0 0.5625 0.625 0 0.625 0.75 0 0.71259747807844409 0.63846691315701831 0 0.73857795170433571 0.77736788564284653 0 0.5625 0.625 0 0.71259747807844409 0.63846691315701831 0 0.625 0.75 0 0.75338430262320943 0.49294443423175599 0 0.71259747807844409 0.63846691315701831 0 0.63236534182377013 0.50296756406332266 0 0.5625 0.625 0 0.63236534182377013 0.50296756406332266 0 0.71259747807844409 0.63846691315701831 0 0.6875 0.875 0 0.56250000000086742 1 0 0.56777512057187585 0.8470224641095303 0 0.56250000000086742 1 0 0.44927105396715372 0.85565124085155886 0 0.56777512057187585 0.8470224641095303 0 0.44927105396715372 0.85565124085155886 0 0.50145856933078625 0.73674663046504862 0 0.56777512057187585 0.8470224641095303 0 0.625 0.75 0 0.56777512057187585 0.8470224641095303 0 0.50145856933078625 0.73674663046504862 0 0.6875 0.875 0 0.625 0.75 0 0.73857795170433571 0.77736788564284653 0 0.6875 0.875 0 0.73857795170433571 0.77736788564284653 0 0.80552984491000901 0.88711122872127413 0 0.6875 0.875 0 0.625 0.75 0 0.6875 0.875 0 0.56777512057187585 0.8470224641095303 0 0.625 0.75 0 0.6875 0.875 0 0.75 1 0 0.56250000000086742 1 0 0.6875 0.875 0 0.80552984491000901 0.88711122872127413 0 0.75 1 0 0.75 1 0 0.6875 0.875 0 0.875 1 0 0.75 1 0 0.80552984491000901 0.88711122872127413 0 0.875 1 0 0.80552984491000901 0.88711122872127413 0 0.90637953422180084 0.90208583328057301 0 0.80552984491000901 0.88711122872127413 0 0.85787927391517405 0.753532520882502 0 0.90637953422180084 0.90208583328057301 0 0.80552984491000901 0.88711122872127413 0 0.73857795170433571 0.77736788564284653 0 0.85787927391517405 0.753532520882502 0 1 0.83333333333356463 0 0.85787927391517405 0.753532520882502 0 1 0.66666666666736052 0 1 0.83333333333356463 0 0.90637953422180084 0.90208583328057301 0 0.85787927391517405 0.753532520882502 0 1 1 0 0.90637953422180084 0.90208583328057301 0 1 0.83333333333356463 0 1 1 0 0.875 1 0 0.90637953422180084 0.90208583328057301 0 0.86127466977819722 0.57948076978797636 0 0.71259747807844409 0.63846691315701831 0 0.75338430262320943 0.49294443423175599 0 0.85787927391517405 0.753532520882502 0 0.71259747807844409 0.63846691315701831 0 0.86127466977819722 0.57948076978797636 0 0.85787927391517405 0.753532520882502 0 0.73857795170433571 0.77736788564284653 0 0.71259747807844409 0.63846691315701831 0 1 0.66666666666736052 0 0.85787927391517405 0.753532520882502 0 0.86127466977819722 0.57948076978797636 0 1 0.66666666666736052 0 0.86127466977819722 0.57948076978797636 0 1 0.50000000000138767 0 1 0.33333333333448978 0 1 0.50000000000138767 0 0.86569408477091048 0.40983673916766611 0 0.86127466977819722 0.57948076978797636 0 0.86569408477091048 0.40983673916766611 0 1 0.50000000000138767 0 0.86127466977819722 0.57948076978797636 0 0.75338430262320943 0.49294443423175599 0 0.86569408477091048 0.40983673916766611 0 0.75338430262320943 0.49294443423175599 0 0.71826039492840632 0.34564020717216182 0 0.86569408477091048 0.40983673916766611 0 0.71508993406183785 0.15715956854777599 0 0.86087286690217635 0.25206523597959418 0 0.71826039492840632 0.34564020717216182 0 0.86569408477091048 0.40983673916766611 0 0.71826039492840632 0.34564020717216182 0 0.86087286690217635 0.25206523597959418 0 1 0.16666666666736049 0 1 0.33333333333448978 0 0.86087286690217635 0.25206523597959418 0 1 0.33333333333448978 0 0.86569408477091048 0.40983673916766611 0 0.86087286690217635 0.25206523597959418 0 1 0.16666666666736049 0 0.86087286690217635 0.25206523597959418 0 0.87698901648812122 0.1160638338657984 0 0.81249999999947953 0 0 1 0 0 0.87698901648812122 0.1160638338657984 0 1 0.16666666666736049 0 0.87698901648812122 0.1160638338657984 0 1 0 0 0.81249999999947953 0 0 0.87698901648812122 0.1160638338657984 0 0.71508993406183785 0.15715956854777599 0 0.71508993406183785 0.15715956854777599 0 0.87698901648812122 0.1160638338657984 0 0.86087286690217635 0.25206523597959418 0 0.62499999999895905 0 0 0.71508993406183785 0.15715956854777599 0 0.54475767668582953 0.1431838882066932 0 0.81249999999947953 0 0 0.71508993406183785 0.15715956854777599 0 0.62499999999895905 0 0 0.43749999999913258 0 0 0.62499999999895905 0 0 0.54475767668582953 0.1431838882066932 0 0.71508993406183785 0.15715956854777599 0 0.61108462585082757 0.25750599582343231 0 0.54475767668582953 0.1431838882066932 0 0.54475767668582953 0.1431838882066932 0 0.61108462585082757 0.25750599582343231 0 0.49457493289300231 0.26251703776555491 0 0.56986707178436635 0.37762093650871992 0 0.49457493289300231 0.26251703776555491 0 0.61108462585082757 0.25750599582343231 0 0.43750000000006939 0.37500000000013878 0 0.49457493289300231 0.26251703776555491 0 0.56986707178436635 0.37762093650871992 0 0.43750000000006939 0.37500000000013878 0 0.56986707178436635 0.37762093650871992 0 0.5 0.5 -0 0.5 0.5 -0 0.56986707178436635 0.37762093650871992 0 0.63236534182377013 0.50296756406332266 0 0.75338430262320943 0.49294443423175599 0 0.63236534182377013 0.50296756406332266 0 0.71826039492840632 0.34564020717216182 0 0.56986707178436635 0.37762093650871992 0 0.71826039492840632 0.34564020717216182 0 0.63236534182377013 0.50296756406332266 0 0.71508993406183785 0.15715956854777599 0 0.71826039492840632 0.34564020717216182 0 0.61108462585082757 0.25750599582343231 0 0.56986707178436635 0.37762093650871992 0 0.61108462585082757 0.25750599582343231 0 0.71826039492840632 0.34564020717216182 0 
</DataArray>
</Points>
<Cells>
<DataArray type="UInt32" Name="connectivity" format="ascii">
0 1 2 3 4 5 6 7 8 9 10 11 12 13 14 15 16 17 18 19 20 21 22 23 24 25 26 27 28 29 30 31 32 33 34 35 36 37 38 39 40 41 42 43 44 45 46 47 48 49 50 51 52 53 54 55 56 57 58 59 60 61 62 63 64 65 66 67 68 69 70 71 72 73 74 75 76 77 78 79 80 81 82 83 84 85 86 87 88 89 90 91 92 93 94 95 96 97 98 99 100 101 102 103 104 105 106 107 108 109 110 111 112 113 114 115 116 117 118 119 120 121 122 123 124 125 126 127 128 129 130 131 132 133 134 135 136 137 138 139 140 141 142 143 144 145 146 147 148 149 150 151 152 153 154 155 156 157 158 159 160 161 162 163 164 165 166 167 168 169 170 171 172 173 174 175 176 177 178 179 180 181 182 183 184 185 186 187 188 189 190 191 192 193 194 195 196 197 198 199 200 201 202 203 204 205 206 207 208 209 210 211 212 213 214 215 216 217 218 219 220 221 222 223 224 225 226 227 228 229 230 231 232 233 234 235 236 237 238 239 240 241 242 243 244 245 246 247 248 249 250 251 252 253 254 255 256 257 258 259 260 261 262 263 264 265 266 267 268 269 270 271 272 273 274 275 276 277 278 279 280 281 282 283 284 285 286 287 288 289 290 291 292 293 294 295 296 297 298 299 300 301 302 303 304 305 306 307 308 309 310 311 312 313 314 315 316 317 318 319 320 321 322 323 324 325 326 327 328 329 330 331 332 333 334 335 336 337 338 339 340 341 342 343 344 345 346 347 348 349 350 351 352 353 354 355 356 357 358 359 
</DataArray>
<DataArray type="UInt32" Name="offsets" format="ascii">
3 6 9 12 15 18 21 24 27 30 33 35 38 41 43 46 49 52 55 58 60 63 66 68 71 73 76 79 82 85 87 90 93 96 99 101 104 107 109 112 115 118 121 124 127 130 133 136 139 142 145 148 151 154 157 160 163 166 169 172 175 178 181 184 187 190 193 195 198 200 203 206 209 212 215 218 221 224 227 230 232 235 238 241 243 246 249 252 255 258 261 264 267 270 273 276 279 282 285 288 291 294 297 300 303 306 309 312 315 318 321 324 327 330 333 336 339 342 345 348 351 354 357 360 
</DataArray>
<DataArray type="UInt32" Name="types" format="ascii">
5 5 5 5 5 5 5 5 5 5 5 3 5 5 3 5 5 5 5 5 3 5 5 3 5 3 5 5 5 5 3 5 5 5 5 3 5 5 3 5 5 5 5 5 5 5 5 5 5 5 5 5 5 5 5 5 5 5 5 5 5 5 5 5 5 5 5 3 5 3 5 5 5 5 5 5 5 5 5 5 3 5 5 5 3 5 5 5 5 5 5 5 5 5 5 5 5 5 5 5 5 5 5 5 5 5 5 5 5 5 5 5 5 5 5 5 5 5 5 5 5 5 5 5 
</DataArray>
</Cells>
<PointData Scalars="age_conc,U235_conc," Vectors="" Tensors="">
<DataArray type="Float64" Name="age_conc" format="ascii">
99860.430016841157 99900.9684630954 100329.62550606614 99873.708840478183 100308.16978285223 99939.61676850004 101226.23413048517 101442.70973618304 95312.551337963072 100361.12077863557 99759.992034143375 100335.61250132111 100179.22333897477 99941.481478826914 100313.88524109744 93540.156095608909 100821.66108887923 103090.36180679173 100084.63674022915 101570.83791505272 99905.435511461372 93897.113276858989 102943.2091701598 101039.72370894425 95757.445324920423 101445.07036980252 100941.6544265969 95619.662654849701 94150.86282199854 103370.37384679698 100307.47709746128 100446.07467333421 99795.97078229273 91854.561080340296 95660.756874200859 99996.064986724115 100016.18163956847 99992.875096184172 93443.533471464907 90741.411772290681 106188.25755160034 87805.406060220368 93547.712754402353 99999.992833867756 99999.053029435454 100000.9564724669 100001.3692821415 99998.513092539972 100000.45828969887 100013.42291781455 99995.393977904052 99997.069360595749 99989.422244975925 100024.26781371993 99987.775289780373 100035.871324914 100035.03375310458 99967.37397339147 84540.650752722839 66002.884124950026 96148.265474900341 67740.457937915708 95476.840448559698 91709.455491906163 91251.264189669353 102962.64181324096 66371.298111841068 85930.995770275826 100002.10952967955 100005.07570077368 99986.178725442034 81061.191739552902 90413.698873477464 87959.098170382422 86265.521348352733 108128.38196976953 88647.717408110591 104780.4709321433 103311.54218807549 89242.597720490681 103037.17709402612 104635.57237610774 85588.487320351749 87256.092233159186 108717.35065196098 89824.342828618348 79793.122309783546 100956.60909242793 99489.708302924599 99919.771804356962 99931.493005236174 99853.455415141769 100086.20611625776 99932.111178788575 100037.69320051385 100005.64804378811 90176.392060598329 93008.463231598435 106540.16592520461 93145.318200320864 87018.114777362556 99995.676340383347 99995.995217769829 100015.37941975954 93624.608155051872 95197.976682186782 103523.58389374601 95394.918048147636 91333.01971125626 100082.28774550858 99941.4181693219 99950.004176526025 100024.38795306353 99995.026764895418 99979.260393873352 100139.13610080612 100408.49747116322 99474.336900859751 99138.507973806772 100676.96207952611 100151.74834131204 104488.09676946948 98969.559380371196 96821.739172838672 98934.257636653943 101530.85502520234 99743.681253668168 100444.61968771825 102117.68205118485 98319.05482968298 100187.79146801709 99665.157883155829 99817.451635344536 100076.78709915749 99816.903692956199 100038.13756615971 1404.7599465517342 -1346.3346531023562 144018.31522369938 3325.4597031400408 124822.1620769124 116077.61317550846 107176.00089123138 96076.723944274039 94744.929729058815 109383.65639621063 86229.437091459782 103515.72610797096 7263.6656358025721 94378.316296566656 127735.6082689441 6369.7926756614179 106427.16530106385 119598.82825547314 2427.8923728141344 1653.6801555022794 154407.025330987 102509.80177218474 96739.710158976741 100798.90475839782 91824.462084758008 99060.530959376541 103960.28088302194 -4501.5621137027938 151110.82695027508 -2055.768896834008 100615.33787294575 99722.472174693146 99925.318468782396 100989.03011822497 101816.98671851217 98879.997578225186 97825.437191976511 100710.30912498449 100455.4099362651 101023.3111970132 98913.871629630143 99717.312774356033 101781.15511104843 102100.87403672401 97575.782130667241 68266.615104744254 112099.53481008619 112051.26276000851 101690.99178061297 88327.195104993181 106484.3729846479 74945.419957959748 114070.90586787373 88336.94551252875 99846.621341563019 99985.929002470904 100237.16815631113 53892.523264681578 71503.700773077464 66431.602068186301 56359.547867522269 126721.14702328642 37721.584629798643 59846.372953700658 99884.644090885064 100023.76577431988 99565.212965713989 100041.49636527279 99932.67603358184 99835.189795638726 98327.540352204087 101253.00799561408 100219.71741730344 99736.886076033639 100270.66346097368 100227.04526264907 88753.746822310059 10425.746359670717 111145.5445643413 26491.303214344145 106292.31984717888 98662.047592220391 90549.499295015499 107084.19811593552 92323.623719740281 51927.777449385831 117342.97985421229 114362.7287594662 91935.468858617387 100713.70367684314 101673.8678628889 90779.489703177067 103989.02686053369 95563.98039482921 17138.921172262155 45202.876652406281 58573.800076864587 132138.71256280746 49068.004383254229 108287.00504610877 -7150.9118140535447 14906.574955762888 101894.93662915115 111286.85252137292 -1490.7679453455421 -4655.6529404722432 25207.042104281281 -2559.3556019276948 -3891.1008922335077 135157.26312103181 -4008.3480673707891 100448.02041583939 109686.87298353243 93096.472944569745 101919.45326609252 92110.445247228403 93081.102923517115 100267.73268047214 99890.441248754563 -314.23793266269058 148027.11359653604 -1151.5479288341012 -894.96974238489929 103327.63283365173 113234.51843522844 -6692.5258799017156 129961.35244592436 -6692.5258799003223 -6407.9845016790987 -6212.4402654559926 133628.82791508845 93022.496087182051 103052.16896754145 98933.759328042535 102616.16117660864 104519.54182858954 90297.47186634317 98959.44075385209 99100.242053485083 100598.43166029577 6809.9588753838907 119487.15182882259 99298.114348019968 -210.06705982963467 146140.28528796587 -2656.1689905315434 -3142.7993374583639 -1450.2503101830262 145277.20024212642 118049.43185813715 98151.955444486244 5385.6712599958264 101544.93488918523 105166.84298870272 87991.92370252822 102969.46343865733 100608.39271916072 91072.768716829669 100420.59082432048 95314.968637067679 100945.34468419055 99128.949982172373 102531.29321557775 93730.151583367755 -1165.3626563523139 221.39201802487275 147010.14471580528 4140.1327724123257 117299.05413688431 101611.77444248277 2352.5163719333286 122138.94058742271 96633.095271159968 127496.1635524263 2635.2908034496559 113169.4879117888 726.64669448084533 140464.88209783571 -965.99547321299542 104631.99384157248 94187.674513958787 98551.437554496733 104759.51458858268 89295.26329242083 103147.35384995275 99663.037973864455 99541.055056822355 100338.55998630256 102705.50947798506 98368.184862931841 99467.080834075954 100077.77945596051 99710.728021408562 100151.56217098953 99783.235434595161 100068.28392239536 100056.18748810668 100014.59136559855 100016.444193979 99988.502242854767 99991.531773604467 99998.15764774647 100015.60373137977 99987.304065455217 100014.6935430482 99969.183293002774 99996.384529056901 99921.047807000286 100076.68531393452 100106.2983493682 99888.329368486928 100005.42144358276 100006.63056543212 99675.976276157089 100201.0586493892 100003.89199171415 100132.60451763716 99747.925210437403 99700.016240309444 100041.47764638509 100128.31941192779 99975.947154673166 100010.65344802768 100065.82588494977 
</DataArray>
<DataArray type="Float64" Name="U235_conc" format="ascii">
0.0013391191692000324 0.0012931117692470755 -0.0026322309384471079 0.0013222036046017154 -0.0024131915825081648 0.0010909879779064495 -0.010128700123411064 -0.01249200733251038 0.033000263586511931 -0.0019275407942982875 0.0035162324510443072 -0.0015886916567460206 -0.000266938714638435 0.0015142720241302949 -0.0012473333094918596 0.04647696660843359 -0.0070807336073259834 -0.026375912309064092 0.0040899799689449682 -0.0094533758794103015 0.0053633959104653342 0.044076047195977512 -0.024899985882613263 -0.0085326431496572409 0.029878402715363628 -0.012421585981626151 -0.0079033883677961814 0.026883471596578137 0.038720774972173577 -0.02832977302158126 -0.001288978953863621 -0.0022558184227733386 0.00354479737663696 0.046588545751009472 0.02072121705897461 5.9142929887215782e-05 -0.00014946304778705761 9.0320117899841829e-05 0.041521631327741552 0.06273743889342899 -0.051688069132114198 0.070109303754705671 0.031078268102037086 9.897287127288223e-07 7.8895992259927293e-06 -8.879327938721552e-06 -8.265014673891989e-06 1.6740841584403629e-05 -8.4758269105116416e-06 -7.4444628696596649e-05 3.8604244873789796e-05 3.584038382280686e-05 0.00010698135370236804 -0.00025249089186164266 0.00014602918396377468 -0.00026125964088421718 -0.00024617752123287521 0.00050743716211709244 0.073499381963837457 0.19973085091947795 0.0032002377092157225 0.21143287454114043 0.0085655842404928906 0.049274135360697018 0.05297666681053239 -0.028292059074526098 0.19838382454214679 0.064985203670944847 -2.2588560664566641e-05 -6.0205800777872645e-05 0.00012093918108106852 0.10978658098821305 0.046180516729857582 0.077214329830733314 0.088189516910585797 -0.070004552934135239 0.08297310721932305 -0.037483167640508318 -0.029778226530813589 0.078546581213237959 -0.027492712892406897 -0.036269698423839564 0.092832854555006769 0.081887073355262852 -0.074915198042818348 0.048876139900017018 0.11740360478651851 -0.007344005425295199 0.0059588802133178796 0.001385125211977319 0.00069919796982779569 0.0014999833724837625 -0.0011659255337890203 0.00077869937443803753 -0.00047604354393950953 -0.0001019895326542802 0.066585870623530441 0.044283985522943325 -0.054711964631927408 0.032992030639547941 0.074752879244297105 7.0353720217549955e-05 5.3744285396489284e-05 -0.00012409800561403924 0.042059698949391572 0.029348798139213188 -0.02980605887947552 0.021967618148156363 0.049658474814303674 -0.00083201697263627467 0.00053627694940915451 0.00048042887676504357 -0.00022665314695423632 4.0698299145116687e-05 0.00018600553179929673 -0.0013679493558639529 -0.0038895701131103459 0.0052580548055804503 0.0084048628316697217 -0.0066154442977289091 -0.0013627429979164406 -0.044191881182269598 0.012714132775927849 0.031477748406341745 0.010966439125781116 -0.013899067786066146 0.0029326286602850281 -0.0092577573468847832 -0.013464485230136776 0.022722242577021556 -0.0021730630897043891 0.0030279978546893095 0.00148449286468252 -0.00082200426395148804 0.0017469957234470688 -0.00045129053687145303 0.64013931834204707 0.64624195081985802 -0.40462973897913779 0.69448026770887383 -0.2163038210720466 -0.17839712430480609 -0.067180375169549111 0.042086105581298563 0.02851785764967095 -0.098648938531241875 0.11066729574616654 -0.012018357214924641 0.65656489973585019 0.014608978753476054 -0.2815937502944339 0.67142167715873202 -0.074266527200024746 -0.22473164774148091 0.64431687608657451 0.6380906494618559 -0.48320773827933405 -0.040552154046943838 0.02829430707282115 0.012257846974122695 0.056137540188860031 0.0068184641010714756 -0.038545476369643276 0.68062332371348977 -0.46977718022509463 0.66506317167269025 -0.0045699112116969094 0.0031823164155006124 0.0013875947961962966 -0.003646970067609695 -0.011626737521824965 0.015273707589434663 0.007922629846139723 -0.0028804056879063659 -0.0026294665426156807 -0.0087319727712660746 0.0083364304654693477 0.0024097006423607409 -0.0082168785210901298 -0.016535007418020484 0.024751885939110617 0.23581284972841701 -0.10459016645771008 -0.095204797692590257 -0.013568100445178716 0.087257023697102698 -0.05662779288118687 0.17712708398556162 -0.12325316385315579 0.07326944862226023 0.0015428627572240258 0.0003476424962850152 -0.0018905052535090408 0.26686517526600662 0.14778459750060213 0.21519999367171677 0.29881650444180891 -0.23036074909391846 0.36139765818549546 0.21181436201660198 0.00012565928039899349 -5.5641647166646686e-05 0.001729225014897133 -0.00024671320084862719 0.00035737754716415836 0.00052322560981900735 0.012395725580585689 -0.011045108215848936 -0.0012287214008938874 0.003112651944654812 -0.0015441353375302413 -0.0015685166071245703 0.0059363594728910341 0.6115082818594989 -0.12798483885208845 0.51812649354645224 -0.084277475418470998 -0.047323680595720147 0.066131563135539473 -0.059180808985960474 0.037192270382707178 0.35715752471359813 -0.1623685785516055 -0.11711092412017686 0.046754636109487269 -0.0063314622283236165 -0.014854393165948027 0.054666285007921735 -0.024567148266814498 0.0059882542454374136 0.48331508102205606 0.29342345910756323 0.25263028042782631 -0.28105932840629344 0.3500794282208915 -0.16125805444657287 0.68006942559731232 0.51895091601254917 -0.055287531878319529 -0.16075026621097585 0.70426775328094871 0.6106821236425517 0.41137986861285281 0.65826387935081576 0.65443228976457046 -0.34357059215905256 0.72392553517976577 -0.044458321500625231 -0.16140762188413821 0.046990332108320966 -0.020819456884819069 0.019181072411887455 0.04204019816192988 -0.0012405232247267011 -0.012072921097360257 0.65544278912700138 -0.43754071582678322 0.64927257752499012 0.7099994470153298 -0.10791257250549235 -0.13741030445311397 0.67752269033772095 -0.32036685696832096 0.67752269033773738 0.6787836221477388 0.67736093702997402 -0.34677806399875249 0.045360697376208334 -0.026543910341785194 0.0058861798397988763 -0.045997063979741494 -0.025802527417758549 0.072579604184248706 -0.00061300827955777771 0.0065593362104696355 -0.0030362060192285181 0.65806891426551017 -0.2210043560194796 -0.024608457235835407 0.65126747883956093 -0.42449663635343682 0.65854621014484427 0.66185481164351323 0.65832520111070059 -0.42065321417608537 -0.2128890312350567 -0.017569652346541204 0.665996301476799 -0.04318933186048414 -0.036326813690880186 0.089603306877794817 -0.029457316417303557 -0.0054549878179658649 0.060777636138598011 -0.0039216737107673118 0.026210958376255668 -0.0073803295420776819 -0.018131474364182141 -0.010224772639572995 0.038789289006990052 0.64883288671353734 0.65058367448008825 -0.42963085786850919 0.67653548377548933 -0.2070578592975168 -0.043745235725970236 0.68478866942531935 -0.24090918270821496 -0.008790032970184658 -0.23784799611024116 0.69748991029937779 -0.15502858019675217 0.64247756420734425 -0.37789985638407375 0.63951188831607775 -0.044774839759551974 0.031902531525119474 0.018882086206327274 -0.026055775292087031 0.076323968165012843 -0.049713394272049322 0.0034142143776875757 0.0037262320191472887 -0.0040499574963039301 -0.027024156542368744 0.017993124508948424 0.0090310320334203199 -0.00086738388589499853 0.0030363861331732817 -0.001770427811665459 0.0012451265794806239 -0.00050055361396713911 -0.00036930234772077596 -2.9626394080082264e-05 -0.00010098289576044489 0.00013060928984052713 5.4036038432503947e-05 8.0433108560794842e-05 -0.00013446914699329873 0.00010047811166058229 -0.00016134727201718612 0.0002288824558522247 2.5696690201671172e-05 0.00068445209020088192 -0.00067214330643475565 -0.00089904982190649617 0.00098507120109025373 -8.0625114024301443e-05 -0.0019096809846770369 0.0039671928105843614 -0.002057511825907324 0.00018760279916103955 -0.0021340651515728837 0.002234283157806658 0.0017548387963445121 -0.00055198932883727817 -0.00078327364290853697 0.00059952504051175286 0.00033097614908208741 -0.00093050118959384022 
</DataArray>
</PointData>
</Piece>
</UnstructuredGrid>
</VTKFile>
