<?xml version="1.0"?>
<VTKFile type="UnstructuredGrid" version="0.1" byte_order="LittleEndian">
<UnstructuredGrid>
<Piece NumberOfPoints="360" NumberOfCells="124">
<Points>
<DataArray type="Float64" NumberOfComponents="3" format="ascii">
0 0 0 0.084352422163911631 0.086451712656266194 0 0 0.12500000000034689 0 0 0 0 0.084352422163911631 0.086451712656266194 0 0.1249999999997554 0 0 0 0.12500000000034689 0 0.1008171452988615 0.18885703697250469 0 0 0.25 0 0.084352422163911631 0.086451712656266194 0 0 0.12500000000034689 0 0.1008171452988615 0.18885703697250469 0 0.084352422163911631 0.086451712656266194 0 0.1008171452988615 0.18885703697250469 0 0.18402761812864499 0.1117324051466445 0 0.1008171452988615 0.18885703697250469 0 0.2403886547178353 0.24188814792673841 0 0.1249999999997599 0.31249999999987998 0 0.1008171452988615 0.18885703697250469 0 0.2403886547178353 0.24188814792673841 0 0.18402761812864499 0.1117324051466445 0 0.2403886547178353 0.24188814792673841 0 0.18402761812864499 0.1117324051466445 0 0.31250000000020822 0.12500000000041631 0 0.1249999999997554 0 0 0.18402761812864499 0.1117324051466445 0 0.25 -0 0 0.18402761812864499 0.1117324051466445 0 0.25 -0 0 0.31250000000020822 0.12500000000041631 0 0.084352422163911631 0.086451712656266194 0 0.1249999999997554 0 0 0.18402761812864499 0.1117324051466445 0 0.25 -0 0 0.31250000000020822 0.12500000000041631 0 0.25 -0 0 0.31250000000020822 0.12500000000041631 0 0.43749999999913258 0 0 0.2403886547178353 0.24188814792673841 0 0.31250000000020822 0.12500000000041631 0 0.37500000000027761 0.25000000000055511 0 0.31250000000020822 0.12500000000041631 0 0.37500000000027761 0.25000000000055511 0 0.31250000000020822 0.12500000000041631 0 0.4287911518546233 0.15455445427966699 0 0.37500000000027761 0.25000000000055511 0 0.4287911518546233 0.15455445427966699 0 0.49457493289300231 0.26251703776555491 0 0.37500000000027761 0.25000000000055511 0 0.4287911518546233 0.15455445427966699 0 0.49457493289300231 0.26251703776555491 0 0.54475767668582953 0.1431838882066932 0 0.31250000000020822 0.12500000000041631 0 0.4287911518546233 0.15455445427966699 0 0.43749999999913258 0 0 0.4287911518546233 0.15455445427966699 0 0.43749999999913258 0 0 0.54475767668582953 0.1431838882066932 0 0.37499999999973488 0.43749999999986738 0 0.5 0.5 -0 0.43750000000006939 0.37500000000013878 0 0.37499999999973488 0.43749999999986738 0 0.5 0.5 -0 0.43750000000006939 0.37500000000013878 0 0.33819444444448321 0.33819444444456342 0 0.37499999999973488 0.43749999999986738 0 0.43750000000006939 0.37500000000013878 0 0.5 0.5 -0 0.43750000000006939 0.37500000000013878 0 0.49457493289300231 0.26251703776555491 0 0.37500000000027761 0.25000000000055511 0 0.43750000000006939 0.37500000000013878 0 0.37500000000027761 0.25000000000055511 0 0.43750000000006939 0.37500000000013878 0 0.37500000000027761 0.25000000000055511 0 0.33819444444448321 0.33819444444456342 0 0.2403886547178353 0.24188814792673841 0 0.33819444444448321 0.33819444444456342 0 0.24999999999960859 0.37499999999980432 0 0.2403886547178353 0.24188814792673841 0 0.37500000000027761 0.25000000000055511 0 0.33819444444448321 0.33819444444456342 0 0.33819444444448321 0.33819444444456342 0 0.37499999999973488 0.43749999999986738 0 0.24999999999960859 0.37499999999980432 0 0.37499999999973488 0.43749999999986738 0 0.24999999999960859 0.37499999999980432 0 0.37499999999973488 0.43749999999986738 0 0.24999999999960859 0.37499999999980432 0 0.26452443700674649 0.51563531581639865 0 0.14929124186975251 0.44582793568106382 0 0.24999999999960859 0.37499999999980432 0 0.26452443700674649 0.51563531581639865 0 0.14929124186975251 0.44582793568106382 0 0.24999999999960859 0.37499999999980432 0 0.1249999999997599 0.31249999999987998 0 0.2403886547178353 0.24188814792673841 0 0.24999999999960859 0.37499999999980432 0 0.1249999999997599 0.31249999999987998 0 0.24999999999960859 0.37499999999980432 0 0.1249999999997599 0.31249999999987998 0 0.1249999999997599 0.31249999999987998 0 0 0.25 0 0 0.43750000000034689 0 0.1008171452988615 0.18885703697250469 0 0.1249999999997599 0.31249999999987998 0 0 0.25 0 0.1249999999997599 0.31249999999987998 0 0 0.25 0 0.14929124186975251 0.44582793568106382 0 0 0.43750000000034689 0 0.13928587515912139 0.57339806105677438 0 0.14929124186975251 0.44582793568106382 0 0.1249999999997599 0.31249999999987998 0 0 0.43750000000034689 0 0 0.43750000000034689 0 0 0.62500000000069389 0 0.13928587515912139 0.57339806105677438 0 0 0.62500000000069389 0 0.13900789599611679 0.72618316107059999 0 0.13928587515912139 0.57339806105677438 0 0 0.62500000000069389 0 0.13900789599611679 0.72618316107059999 0 0 0.81250000000104083 0 0.13900789599611679 0.72618316107059999 0 0.13928587515912139 0.57339806105677438 0 0.27589467050686478 0.66058853156435704 0 0.13900789599611679 0.72618316107059999 0 0.27987960212930818 0.83442741470570525 0 0.27589467050686478 0.66058853156435704 0 0.13928587515912139 0.57339806105677438 0 0.26452443700674649 0.51563531581639865 0 0.27589467050686478 0.66058853156435704 0 0.14929124186975251 0.44582793568106382 0 0.13928587515912139 0.57339806105677438 0 0.26452443700674649 0.51563531581639865 0 0 1 0 0.12710107136012311 0.87094806618203435 0 0.1875000000005205 1 0 0 1 0 0 0.81250000000104083 0 0.12710107136012311 0.87094806618203435 0 0.13900789599611679 0.72618316107059999 0 0 0.81250000000104083 0 0.12710107136012311 0.87094806618203435 0 0.13900789599611679 0.72618316107059999 0 0.12710107136012311 0.87094806618203435 0 0.27987960212930818 0.83442741470570525 0 0.12710107136012311 0.87094806618203435 0 0.1875000000005205 1 0 0.27987960212930818 0.83442741470570525 0 0.27987960212930818 0.83442741470570525 0 0.44927105396715372 0.85565124085155886 0 0.37500000000069389 1 0 0.1875000000005205 1 0 0.27987960212930818 0.83442741470570525 0 0.37500000000069389 1 0 0.27987960212930818 0.83442741470570525 0 0.44927105396715372 0.85565124085155886 0 0.38136204680495073 0.74038592213831234 0 0.44927105396715372 0.85565124085155886 0 0.38136204680495073 0.74038592213831234 0 0.50145856933078625 0.73674663046504862 0 0.44927105396715372 0.85565124085155886 0 0.37500000000069389 1 0 0.56250000000086742 1 0 0.26452443700674649 0.51563531581639865 0 0.27589467050686478 0.66058853156435704 0 0.4139414069912184 0.60563252640100373 0 0.37499999999973488 0.43749999999986738 0 0.26452443700674649 0.51563531581639865 0 0.4139414069912184 0.60563252640100373 0 0.27987960212930818 0.83442741470570525 0 0.27589467050686478 0.66058853156435704 0 0.38136204680495073 0.74038592213831234 0 0.27589467050686478 0.66058853156435704 0 0.38136204680495073 0.74038592213831234 0 0.4139414069912184 0.60563252640100373 0 0.38136204680495073 0.74038592213831234 0 0.4139414069912184 0.60563252640100373 0 0.50145856933078625 0.73674663046504862 0 0.4139414069912184 0.60563252640100373 0 0.50145856933078625 0.73674663046504862 0 0.5625 0.625 0 0.37499999999973488 0.43749999999986738 0 0.4139414069912184 0.60563252640100373 0 0.5 0.5 -0 0.4139414069912184 0.60563252640100373 0 0.5 0.5 -0 0.5625 0.625 0 0.5 0.5 -0 0.5625 0.625 0 0.63236534182377013 0.50296756406332266 0 0.5 0.5 -0 0.5625 0.625 0 0.50145856933078625 0.73674663046504862 0 0.5625 0.625 0 0.625 0.75 0 0.5625 0.625 0 0.625 0.75 0 0.71259747807844409 0.63846691315701831 0 0.625 0.75 0 0.73857795170433571 0.77736788564284653 0 0.5625 0.625 0 0.71259747807844409 0.63846691315701831 0 0.625 0.75 0 0.71259747807844409 0.63846691315701831 0 0.63236534182377013 0.50296756406332266 0 0.75338430262320943 0.49294443423175599 0 0.5625 0.625 0 0.71259747807844409 0.63846691315701831 0 0.63236534182377013 0.50296756406332266 0 0.56250000000086742 1 0 0.56777512057187585 0.8470224641095303 0 0.6875 0.875 0 0.44927105396715372 0.85565124085155886 0 0.56250000000086742 1 0 0.56777512057187585 0.8470224641095303 0 0.44927105396715372 0.85565124085155886 0 0.50145856933078625 0.73674663046504862 0 0.56777512057187585 0.8470224641095303 0 0.50145856933078625 0.73674663046504862 0 0.56777512057187585 0.8470224641095303 0 0.625 0.75 0 0.625 0.75 0 0.73857795170433571 0.77736788564284653 0 0.6875 0.875 0 0.73857795170433571 0.77736788564284653 0 0.6875 0.875 0 0.80552984491000901 0.88711122872127413 0 0.625 0.75 0 0.6875 0.875 0 0.56777512057187585 0.8470224641095303 0 0.625 0.75 0 0.6875 0.875 0 0.56250000000086742 1 0 0.6875 0.875 0 0.75 1 0 0.6875 0.875 0 0.75 1 0 0.80552984491000901 0.88711122872127413 0 0.6875 0.875 0 0.75 1 0 0.75 1 0 0.80552984491000901 0.88711122872127413 0 0.875 1 0 0.80552984491000901 0.88711122872127413 0 0.90637953422180084 0.90208583328057301 0 0.875 1 0 0.80552984491000901 0.88711122872127413 0 0.85787927391517405 0.753532520882502 0 0.90637953422180084 0.90208583328057301 0 0.73857795170433571 0.77736788564284653 0 0.80552984491000901 0.88711122872127413 0 0.85787927391517405 0.753532520882502 0 0.85787927391517405 0.753532520882502 0 1 0.83333333333356463 0 1 0.66666666666736052 0 0.85787927391517405 0.753532520882502 0 1 0.83333333333356463 0 0.90637953422180084 0.90208583328057301 0 1 0.83333333333356463 0 0.90637953422180084 0.90208583328057301 0 1 1 0 0.90637953422180084 0.90208583328057301 0 1 1 0 0.875 1 0 0.71259747807844409 0.63846691315701831 0 0.86127466977819722 0.57948076978797636 0 0.75338430262320943 0.49294443423175599 0 0.71259747807844409 0.63846691315701831 0 0.85787927391517405 0.753532520882502 0 0.86127466977819722 0.57948076978797636 0 0.71259747807844409 0.63846691315701831 0 0.73857795170433571 0.77736788564284653 0 0.85787927391517405 0.753532520882502 0 0.85787927391517405 0.753532520882502 0 0.86127466977819722 0.57948076978797636 0 1 0.66666666666736052 0 0.86127466977819722 0.57948076978797636 0 1 0.66666666666736052 0 1 0.50000000000138767 0 1 0.50000000000138767 0 0.86569408477091048 0.40983673916766611 0 1 0.33333333333448978 0 0.86127466977819722 0.57948076978797636 0 1 0.50000000000138767 0 0.86569408477091048 0.40983673916766611 0 0.86127466977819722 0.57948076978797636 0 0.75338430262320943 0.49294443423175599 0 0.86569408477091048 0.40983673916766611 0 0.75338430262320943 0.49294443423175599 0 0.86569408477091048 0.40983673916766611 0 0.71826039492840632 0.34564020717216182 0 0.86087286690217635 0.25206523597959418 0 0.71508993406183785 0.15715956854777599 0 0.71826039492840632 0.34564020717216182 0 0.86569408477091048 0.40983673916766611 0 0.86087286690217635 0.25206523597959418 0 0.71826039492840632 0.34564020717216182 0 0.86087286690217635 0.25206523597959418 0 1 0.33333333333448978 0 1 0.16666666666736049 0 0.86569408477091048 0.40983673916766611 0 0.86087286690217635 0.25206523597959418 0 1 0.33333333333448978 0 0.86087286690217635 0.25206523597959418 0 1 0.16666666666736049 0 0.87698901648812122 0.1160638338657984 0 1 0 0 0.87698901648812122 0.1160638338657984 0 0.81249999999947953 0 0 1 0.16666666666736049 0 1 0 0 0.87698901648812122 0.1160638338657984 0 0.87698901648812122 0.1160638338657984 0 0.81249999999947953 0 0 0.71508993406183785 0.15715956854777599 0 0.86087286690217635 0.25206523597959418 0 0.87698901648812122 0.1160638338657984 0 0.71508993406183785 0.15715956854777599 0 0.71508993406183785 0.15715956854777599 0 0.62499999999895905 0 0 0.54475767668582953 0.1431838882066932 0 0.81249999999947953 0 0 0.71508993406183785 0.15715956854777599 0 0.62499999999895905 0 0 0.43749999999913258 0 0 0.62499999999895905 0 0 0.54475767668582953 0.1431838882066932 0 0.71508993406183785 0.15715956854777599 0 0.54475767668582953 0.1431838882066932 0 0.61108462585082757 0.25750599582343231 0 0.49457493289300231 0.26251703776555491 0 0.54475767668582953 0.1431838882066932 0 0.61108462585082757 0.25750599582343231 0 0.49457493289300231 0.26251703776555491 0 0.61108462585082757 0.25750599582343231 0 0.56986707178436635 0.37762093650871992 0 0.43750000000006939 0.37500000000013878 0 0.49457493289300231 0.26251703776555491 0 0.56986707178436635 0.37762093650871992 0 0.43750000000006939 0.37500000000013878 0 0.5 0.5 -0 0.56986707178436635 0.37762093650871992 0 0.5 0.5 -0 0.63236534182377013 0.50296756406332266 0 0.56986707178436635 0.37762093650871992 0 0.63236534182377013 0.50296756406332266 0 0.75338430262320943 0.49294443423175599 0 0.71826039492840632 0.34564020717216182 0 0.63236534182377013 0.50296756406332266 0 0.56986707178436635 0.37762093650871992 0 0.71826039492840632 0.34564020717216182 0 0.71508993406183785 0.15715956854777599 0 0.61108462585082757 0.25750599582343231 0 0.71826039492840632 0.34564020717216182 0 0.61108462585082757 0.25750599582343231 0 0.56986707178436635 0.37762093650871992 0 0.71826039492840632 0.34564020717216182 0 
</DataArray>
</Points>
<Cells>
<DataArray type="UInt32" Name="connectivity" format="ascii">
0 1 2 3 4 5 6 7 8 9 10 11 12 13 14 15 16 17 18 19 20 21 22 23 24 25 26 27 28 29 30 31 32 33 34 35 36 37 38 39 40 41 42 43 44 45 46 47 48 49 50 51 52 53 54 55 56 57 58 59 60 61 62 63 64 65 66 67 68 69 70 71 72 73 74 75 76 77 78 79 80 81 82 83 84 85 86 87 88 89 90 91 92 93 94 95 96 97 98 99 100 101 102 103 104 105 106 107 108 109 110 111 112 113 114 115 116 117 118 119 120 121 122 123 124 125 126 127 128 129 130 131 132 133 134 135 136 137 138 139 140 141 142 143 144 145 146 147 148 149 150 151 152 153 154 155 156 157 158 159 160 161 162 163 164 165 166 167 168 169 170 171 172 173 174 175 176 177 178 179 180 181 182 183 184 185 186 187 188 189 190 191 192 193 194 195 196 197 198 199 200 201 202 203 204 205 206 207 208 209 210 211 212 213 214 215 216 217 218 219 220 221 222 223 224 225 226 227 228 229 230 231 232 233 234 235 236 237 238 239 240 241 242 243 244 245 246 247 248 249 250 251 252 253 254 255 256 257 258 259 260 261 262 263 264 265 266 267 268 269 270 271 272 273 274 275 276 277 278 279 280 281 282 283 284 285 286 287 288 289 290 291 292 293 294 295 296 297 298 299 300 301 302 303 304 305 306 307 308 309 310 311 312 313 314 315 316 317 318 319 320 321 322 323 324 325 326 327 328 329 330 331 332 333 334 335 336 337 338 339 340 341 342 343 344 345 346 347 348 349 350 351 352 353 354 355 356 357 358 359 
</DataArray>
<DataArray type="UInt32" Name="offsets" format="ascii">
3 6 9 12 15 18 21 24 27 30 33 35 38 41 43 46 49 52 55 58 60 63 66 68 71 73 76 79 82 85 87 90 93 96 99 101 104 107 109 112 115 118 121 124 127 130 133 136 139 142 145 148 151 154 157 160 163 166 169 172 175 178 181 184 187 190 193 195 198 200 203 206 209 212 215 218 221 224 227 230 232 235 238 241 243 246 249 252 255 258 261 264 267 270 273 276 279 282 285 288 291 294 297 300 303 306 309 312 315 318 321 324 327 330 333 336 339 342 345 348 351 354 357 360 
</DataArray>
<DataArray type="UInt32" Name="types" format="ascii">
5 5 5 5 5 5 5 5 5 5 5 3 5 5 3 5 5 5 5 5 3 5 5 3 5 3 5 5 5 5 3 5 5 5 5 3 5 5 3 5 5 5 5 5 5 5 5 5 5 5 5 5 5 5 5 5 5 5 5 5 5 5 5 5 5 5 5 3 5 3 5 5 5 5 5 5 5 5 5 5 3 5 5 5 3 5 5 5 5 5 5 5 5 5 5 5 5 5 5 5 5 5 5 5 5 5 5 5 5 5 5 5 5 5 5 5 5 5 5 5 5 5 5 5 
</DataArray>
</Cells>
<PointData Scalars="age_conc,U235_conc," Vectors="" Tensors="">
<DataArray type="Float64" Name="age_conc" format="ascii">
99860.430004424852 99900.968437311443 100329.6255489719 99873.7090941434 99939.617041792852 100308.16915549808 101226.2341962193 101442.70992357799 95312.551057179575 99759.991984965396 100361.12083790157 100335.61253344759 99941.481483000345 100179.22332366263 100313.88522648775 100821.66112574989 103090.36161284654 93540.156079733206 99905.435525629335 101570.83772199047 100084.63675351501 102943.20891860276 101039.72370534026 93897.113480867585 100941.65442900723 101445.07032015731 95757.44533148536 103370.37375063774 95619.662633250889 94150.863068299092 99795.971240084022 100307.47638380092 100446.07433352033 95660.756911303964 91854.561215429276 99996.064946502767 99992.875056816498 100016.18179222458 106188.25718340374 93443.533732925396 90741.41196441112 93547.712853270874 87805.406299758673 99999.992812094395 99999.053075370437 100000.95654135608 99998.513109876658 100000.45847725862 100001.36933252981 99997.069412291661 99995.394065335247 100013.42334098526 99989.422141502568 99987.775494843125 100024.26797560528 99967.374295194677 100035.87133324354 100035.03399378648 84540.650398356956 66002.884308872264 96148.265824092043 95476.840059189402 67740.458017362762 91709.455767145526 102962.64181539044 91251.26389763481 85930.995948029886 66371.298146435438 99986.178568468167 100005.07598192993 100002.10961321689 81061.191802904228 90413.699126079155 86265.521519029207 87959.098362540812 108128.38189221137 104780.47100301521 103311.54221701172 88647.717223537475 104635.57186153115 89242.597933092839 103037.17738658644 108717.3507515019 85588.487058715677 87256.092041801006 79793.122039377296 89824.342660628841 100956.60943953929 99919.771887808049 99489.707571615436 100086.20617944469 99931.492942057594 99853.455045246388 100037.69314451945 99932.111034772868 100005.64808031109 106540.1657393528 90176.391744473236 93008.463281332413 87018.114579223213 93145.31806292753 99995.9953924656 99995.676251165933 100015.37967088445 103523.58415624198 93624.608114464922 95197.976341074784 91333.019657269848 95394.917598690401 99941.41806034169 100082.28784085451 99950.004256873988 99979.26008170245 99995.026982599215 100024.38827939141 100139.13644697779 99474.336615696346 100408.49758304664 99138.508005168187 100151.74838553047 100676.96201721673 98969.559421679631 96821.739386865447 104488.09655068534 101530.85497996239 99743.681266134678 98934.257617279058 102117.6819805085 100444.61982209931 98319.054797698103 99817.451650738542 100187.791483693 99665.157759530586 100038.13748325325 99816.90382634323 100076.7869573084 -1346.3346634605587 144018.31523773872 1404.7598794175465 3325.4596875888456 124822.16207662701 116077.61317838584 96076.724212531059 107176.00054141987 94744.930010532233 103515.72632767356 86229.437519262283 109383.65597183455 94378.316533691628 7263.6653374833913 127735.60830813354 106427.16529507356 119598.82815098477 6369.7926028800284 1653.6802151168085 154407.02517147028 2427.8923141514897 96739.710000505787 102509.80179214335 100798.90491368185 91824.462830992401 99060.531017985297 103960.28076277811 151110.82684007098 -4501.5621697858278 -2055.7690326307784 99925.318618390273 99722.471950239531 100615.33769740618 100989.03065053534 98879.996651849651 101816.98660855158 97825.437285804117 100710.30903209807 100455.41036004103 99717.312398397844 98913.872131730735 101023.31105352739 97575.782144024721 101781.15517476988 102100.87410346362 112051.26433748388 112099.53563181963 68266.61358822124 101690.9908456914 106484.37425525031 88327.196000222975 114070.90820311423 88336.945925197215 74945.417126425862 99985.928977329182 99846.621298044935 100237.16851851305 71503.700849184504 53892.523198610405 126721.14751294626 66431.601715857614 56359.547336699674 59846.372917067099 37721.58454583463 100023.76615807274 99884.643912829866 99565.212778586254 100041.49631426587 99932.676322458414 99835.189654368311 101253.00739599981 100219.71760603321 98327.539434221297 99736.885978231017 100227.04542177382 100270.66385028329 10425.746346631604 111145.54457046394 88753.746747390949 106292.32055503412 26491.303404290156 98662.047145393357 90549.500169179883 107084.19790257198 92323.623831103192 114362.72949925237 117342.97999670086 51927.776624826685 100713.70367749399 101673.86788923401 91935.468739065487 103989.02687303032 90779.489524241362 95563.980642510433 45202.876552368944 17138.921192395967 132138.71256345595 49068.004054807767 58573.800091312922 14906.574963019099 108287.00495444852 -7150.911819687366 101894.93660426556 -1490.7679284402911 111286.85253255384 25207.042089691364 -4655.6529390162832 -3891.1008654345678 135157.26315119182 -2559.355736286454 100448.0203375822 109686.87319791892 -4008.3482221524791 93096.472978727325 101919.45319998033 92110.445291897704 100267.73265248555 93081.103231218673 99890.441495288018 148027.11356187495 -314.23795165770207 -1151.5479397550152 113234.51840008458 -894.96976065698254 103327.632783201 -6692.5258847965451 129961.35237651315 -6692.5258847952737 133628.82817020835 -6407.9845176913277 -6212.4404633453942 103052.16812556934 93022.497823053898 98933.758094201636 104519.54188567403 102616.16133693847 90297.471728605917 100598.43232387392 99100.241521313437 98959.441308439214 119487.15184430357 99298.114369873801 6809.9588688288131 146140.28544920066 -210.06704583552346 -2656.1691022182495 -1450.2503053251712 145277.20022688995 -3142.7993329964156 118049.43201461103 5385.6711972288595 98151.955449816043 101544.93501915252 105166.84288151625 87991.923786334271 102969.46338187595 91072.768802228355 100608.39272785152 95314.968788329934 100420.59083585361 100945.34461210728 99128.949935418248 93730.151794185906 102531.29310724071 147010.14465065743 221.3919670235955 -1165.3628025954022 117299.05403905368 101611.77475178208 4140.1326882922367 122138.94135444777 2352.5163413518239 96633.095187288418 2635.2908623662661 113169.4877935453 127496.16353372796 726.64658492399394 -965.99538740375863 140464.8819672041 94187.674526957126 104631.99381568813 98551.437567096407 103147.35440511821 89295.263267929258 104759.51448335158 99541.055041024039 99663.038251717415 100338.55978511144 102705.5089959085 98368.185088100217 99467.081340456542 100077.77977964813 99710.727922030419 100151.56229931994 99783.235300567816 100056.18752491291 100068.28372635678 99988.502281045367 100014.59208679694 100016.44372164621 99998.158180506216 100015.60317189539 99991.531539474687 99987.30401256257 100014.69386346512 99969.183052547814 99996.384601748345 100076.68548945111 99921.04759524329 100106.29871324223 100005.42126207493 99888.32906993755 99675.975219370681 100006.62978912433 100201.05934026753 99747.92426733418 100003.89213811791 100132.6047354199 99700.016063254749 100128.31912780811 100041.47802152341 100010.65249055186 99975.94745223505 100065.82617725084 
</DataArray>
<DataArray type="Float64" Name="U235_conc" format="ascii">
0.0013391191539926526 0.0012931117574202324 -0.002632230911412885 0.0013222043291046353 0.0010909878369336102 -0.0024131921660382454 -0.010128700042912699 -0.012492007212717066 0.033000263316566442 0.0035162324176288102 -0.0019275407909682472 -0.0015886916266605626 0.0015142720173432133 -0.00026693865853021016 -0.001247333358813003 -0.007080733540050713 -0.026375912039115344 0.046476966179936456 0.005363395963874102 -0.0094533758484876551 0.0040899798846135548 -0.024899985956075576 -0.008532643112385014 0.044076047148873684 -0.0079033883730710262 -0.012421585979885616 0.029878402680452512 -0.02832977299289869 0.026883471557737081 0.038720774933491978 0.0035447972917998314 -0.0012889797393792653 -0.0022558175524205661 0.020721217063852097 0.046588545731848632 5.9142930847285398e-05 9.0320116303831192e-05 -0.00014946304715111658 -0.051688069039558165 0.041521631443691004 0.062737438298996265 0.031078268119304017 0.070109303729765565 9.8972869698371436e-07 7.8895994245064895e-06 -8.8793281214902047e-06 1.6740841914061168e-05 -8.475826979130338e-06 -8.2650149349308314e-06 3.5840384523808948e-05 3.860424601254192e-05 -7.4444630536350868e-05 0.00010698135201366687 0.00014602918123862244 -0.00025249089021944288 0.0005074371622170625 -0.00026125963998389673 -0.00024617752223316577 0.07349938117071958 0.19973085075177469 0.0032002371817578812 0.0085655846941914277 0.21143287427359353 0.049274134863666753 -0.028292059015247693 0.052976667114748917 0.064985203890731813 0.19838382426462794 0.00012093918301528178 -6.0205801802648402e-05 -2.2588561009422489e-05 0.1097865814546817 0.046180516490709866 0.088189516067582394 0.077214329501119741 -0.070004552377477908 -0.03748316740459396 -0.029778226193326495 0.082973106729716653 -0.036269697845747913 0.078546579910560355 -0.027492712598678009 -0.074915197478556128 0.092832854436532219 0.081887072733600852 0.11740360407744536 0.048876139566538315 -0.0073440056093415692 0.0013851252266967378 0.0059588803826448305 -0.0011659254975010455 0.00069919791072853722 0.0014999834933980725 -0.00047604348322792642 0.00077869936393092521 -0.00010198956074843643 -0.054711964041005298 0.066585869927923924 0.044283985109635271 0.074752878499394548 0.032992030408018284 5.3744245434743939e-05 7.0353728118842016e-05 -0.00012409797355358596 -0.029806058584233543 0.042059698617027311 0.029348797878002843 0.049658474429918789 0.021967617880270025 0.00053627696489095568 -0.00083201687389213204 0.00048042858259651972 0.00018600546728997065 4.0698274311024147e-05 -0.00022665307626514687 -0.0013679493555322809 0.0052580548042589327 -0.0038895701120572074 0.0084048628243303652 -0.0013627430089361305 -0.0066154442857362678 0.012714132767587616 0.031477748374240208 -0.044191881141827823 -0.013899067802638745 0.0029326286613832095 0.010966439141255535 -0.013464485316688674 -0.0092577572280320083 0.022722242544720682 0.0014844929391364626 -0.0021730631253507552 0.003027997742706737 -0.00045129041715644201 0.001746995171869306 -0.00082200394999873048 0.64624195074258428 -0.40462973873921537 0.64013931849236938 0.69448026768860049 -0.21630382107712817 -0.17839712409118708 0.042086105466313639 -0.067180375181909252 0.028517857878426166 -0.012018357436630241 0.11066729618732433 -0.098648938750694096 0.014608979197381577 0.65656490012887359 -0.28159375060363101 -0.074266527348700428 -0.22473164662158207 0.67142167727356039 0.63809064995815712 -0.48320773833710196 0.64431687592515363 0.028294306828546528 -0.040552153388581598 0.012257846560035077 0.056137541725170867 0.0068184642991213108 -0.038545477421179392 -0.46977717897808258 0.6806233234871546 0.66506317260645287 0.0013875948061747721 0.0031823160875886543 -0.0045699108937634269 -0.0036469703025484353 0.015273707853564744 -0.011626737551016305 0.0079226300756778788 -0.0028804058164251605 -0.0026294664548674098 0.0024097002285727669 0.0083364301825419162 -0.0087319722248735895 0.024751885956216087 -0.0082168782253500255 -0.01653500773086606 -0.09520479845699209 -0.10459016651482655 0.23581285089346796 -0.013568100840838575 -0.056627793817767141 0.087257025424199552 -0.12325316571558155 0.073269450916671641 0.17712708479718464 0.00034764236348239165 0.0015428624274348767 -0.0018905047909172684 0.14778459737667196 0.26686517473068394 -0.23036074900217751 0.21519999396767503 0.29881650527041148 0.21181436160783268 0.36139765744649688 -5.5641654157051598e-05 0.00012565927624975741 0.001729225079938012 -0.000246713207818075 0.00035737755676198176 0.00052322562257139905 -0.011045108123002351 -0.0012287213411634325 0.012395725425998233 0.0031126515778244594 -0.0015685170032789183 -0.0015441345745455404 0.61150828199332474 -0.12798483895906593 0.0059363598433956333 -0.084277473394233901 0.51812649624529705 -0.047323683001852371 0.066131565382731933 -0.059180810199291604 0.037192269465725222 -0.11711092418685146 -0.16236857912032959 0.3571575260305408 -0.0063314622555072867 -0.014854393158620034 0.046754636258469678 -0.024567148316609149 0.054666285133337079 0.0059882544533012318 0.29342345814882909 0.48331508105652199 -0.28105932882896534 0.3500794288195529 0.25263028151574962 0.51895091605373445 -0.16125805397885665 0.68006942551591543 -0.055287531795949224 0.70426775377663564 -0.16075026615468019 0.41137986841175123 0.61068212338944283 0.65443229052627006 -0.34357059202900442 0.6582638787766415 -0.044458321553087654 -0.16140762044389073 0.72392553446827845 0.046990332260831831 -0.020819456980533245 0.019181073082278399 -0.0012405232062080371 0.042040198500054166 -0.012072921089314986 -0.43754071559982988 0.65544278921705368 0.64927257757525303 -0.13741030423327 0.70999944706657914 -0.10791257217372746 0.67752269031714107 -0.32036685646705004 0.67752269031715551 -0.34677806242036913 0.67878362307034679 0.67736093585505719 -0.026543910164012727 0.045360697319340088 0.0058861796415598296 -0.025802527386996493 -0.045997063879236029 0.07257960406646792 -0.0030362061307103055 0.0065593362577185295 -0.00061300802568568802 -0.22100435585324113 -0.02460845753847456 0.65806891462138484 -0.42449663595115095 0.65126747938712981 0.65854620967220945 0.65832520104395098 -0.42065321413487905 0.66185481167199334 -0.21288903077480625 0.66599630144215916 -0.017569652914924461 -0.043189331479537983 -0.036326813449478974 0.089603306273741301 -0.029457316198645639 0.060777635755096281 -0.0054549878299413913 0.026210958444363865 -0.0039216736959195742 -0.0073803296232468991 -0.018131474702781911 0.038789289188209564 -0.0102247726790845 -0.429630856722096 0.65058367466256595 0.64883288710922793 -0.2070578600920191 -0.043745235368297136 0.67653548445712919 -0.24090918302726094 0.68478867434506041 -0.0087900337238491777 0.69748991053355835 -0.15502857972807155 -0.237847996227943 0.64247756447384119 0.63951188850530916 -0.37789985591625086 0.031902531796453672 -0.044774839725062292 0.018882086104878262 -0.049713393757130374 0.07632396817859792 -0.026055775685732217 0.0037262320194322227 0.0034142143703267203 -0.0040499574920072291 -0.027024156503478707 0.017993124509023802 0.0090310319944549022 -0.00086738388379860006 0.0030363861315113507 -0.0017704278120044569 0.0012451265810830339 -0.00036930234468666556 -0.00050055362291662664 0.00013060929315504788 -2.9626394985905342e-05 -0.00010098289816914254 8.0433108782525516e-05 -0.00013446914755849116 5.4036038775965663e-05 0.00010047811332470416 -0.00016134727490809295 0.00022888245947686527 2.5696692652749941e-05 -0.00067214332486264681 0.00068445210391727962 -0.00089904984070223891 -8.0625122946756801e-05 0.00098507122998645557 0.0039671928026467325 -0.0019096809028815612 -0.0020575118997651714 0.0022342831860043119 0.00018760279639057321 -0.0021340651693318603 0.0017548388112444344 -0.00078327364194792268 -0.00055198937575149363 0.00033097615173901645 0.00059952504357682406 -0.00093050119531584046 
</DataArray>
</PointData>
</Piece>
</UnstructuredGrid>
</VTKFile>
