<?xml version="1.0"?>
<VTKFile type="UnstructuredGrid" version="0.1" byte_order="LittleEndian">
<UnstructuredGrid>
<Piece NumberOfPoints="360" NumberOfCells="124">
<Points>
<DataArray type="Float64" NumberOfComponents="3" format="ascii">
0 0 0 0.084352422163911631 0.086451712656266194 0 0 0.12500000000034689 0 0 0 0 0.1249999999997554 0 0 0.084352422163911631 0.086451712656266194 0 0 0.12500000000034689 0 0.1008171452988615 0.18885703697250469 0 0 0.25 0 0 0.12500000000034689 0 0.084352422163911631 0.086451712656266194 0 0.1008171452988615 0.18885703697250469 0 0.1008171452988615 0.18885703697250469 0 0.084352422163911631 0.086451712656266194 0 0.18402761812864499 0.1117324051466445 0 0.1249999999997599 0.31249999999987998 0 0.1008171452988615 0.18885703697250469 0 0.2403886547178353 0.24188814792673841 0 0.18402761812864499 0.1117324051466445 0 0.2403886547178353 0.24188814792673841 0 0.1008171452988615 0.18885703697250469 0 0.31250000000020822 0.12500000000041631 0 0.2403886547178353 0.24188814792673841 0 0.18402761812864499 0.1117324051466445 0 0.25 -0 0 0.18402761812864499 0.1117324051466445 0 0.1249999999997554 0 0 0.25 -0 0 0.31250000000020822 0.12500000000041631 0 0.18402761812864499 0.1117324051466445 0 0.1249999999997554 0 0 0.18402761812864499 0.1117324051466445 0 0.084352422163911631 0.086451712656266194 0 0.31250000000020822 0.12500000000041631 0 0.25 -0 0 0.25 -0 0 0.43749999999913258 0 0 0.31250000000020822 0.12500000000041631 0 0.31250000000020822 0.12500000000041631 0 0.37500000000027761 0.25000000000055511 0 0.2403886547178353 0.24188814792673841 0 0.37500000000027761 0.25000000000055511 0 0.31250000000020822 0.12500000000041631 0 0.31250000000020822 0.12500000000041631 0 0.4287911518546233 0.15455445427966699 0 0.37500000000027761 0.25000000000055511 0 0.37500000000027761 0.25000000000055511 0 0.4287911518546233 0.15455445427966699 0 0.49457493289300231 0.26251703776555491 0 0.54475767668582953 0.1431838882066932 0 0.49457493289300231 0.26251703776555491 0 0.4287911518546233 0.15455445427966699 0 0.31250000000020822 0.12500000000041631 0 0.43749999999913258 0 0 0.4287911518546233 0.15455445427966699 0 0.43749999999913258 0 0 0.54475767668582953 0.1431838882066932 0 0.4287911518546233 0.15455445427966699 0 0.37499999999973488 0.43749999999986738 0 0.5 0.5 -0 0.43750000000006939 0.37500000000013878 0 0.5 0.5 -0 0.37499999999973488 0.43749999999986738 0 0.43750000000006939 0.37500000000013878 0 0.37499999999973488 0.43749999999986738 0 0.33819444444448321 0.33819444444456342 0 0.5 0.5 -0 0.43750000000006939 0.37500000000013878 0 0.37500000000027761 0.25000000000055511 0 0.49457493289300231 0.26251703776555491 0 0.43750000000006939 0.37500000000013878 0 0.43750000000006939 0.37500000000013878 0 0.37500000000027761 0.25000000000055511 0 0.37500000000027761 0.25000000000055511 0 0.43750000000006939 0.37500000000013878 0 0.33819444444448321 0.33819444444456342 0 0.24999999999960859 0.37499999999980432 0 0.2403886547178353 0.24188814792673841 0 0.33819444444448321 0.33819444444456342 0 0.37500000000027761 0.25000000000055511 0 0.33819444444448321 0.33819444444456342 0 0.2403886547178353 0.24188814792673841 0 0.37499999999973488 0.43749999999986738 0 0.24999999999960859 0.37499999999980432 0 0.33819444444448321 0.33819444444456342 0 0.24999999999960859 0.37499999999980432 0 0.37499999999973488 0.43749999999986738 0 0.37499999999973488 0.43749999999986738 0 0.26452443700674649 0.51563531581639865 0 0.24999999999960859 0.37499999999980432 0 0.24999999999960859 0.37499999999980432 0 0.26452443700674649 0.51563531581639865 0 0.14929124186975251 0.44582793568106382 0 0.24999999999960859 0.37499999999980432 0 0.14929124186975251 0.44582793568106382 0 0.1249999999997599 0.31249999999987998 0 0.24999999999960859 0.37499999999980432 0 0.1249999999997599 0.31249999999987998 0 0.2403886547178353 0.24188814792673841 0 0.1249999999997599 0.31249999999987998 0 0.24999999999960859 0.37499999999980432 0 0 0.25 0 0.1249999999997599 0.31249999999987998 0 0 0.43750000000034689 0 0.1249999999997599 0.31249999999987998 0 0 0.25 0 0.1008171452988615 0.18885703697250469 0 0 0.25 0 0.1249999999997599 0.31249999999987998 0 0 0.43750000000034689 0 0.14929124186975251 0.44582793568106382 0 0.13928587515912139 0.57339806105677438 0 0 0.43750000000034689 0 0.1249999999997599 0.31249999999987998 0 0.14929124186975251 0.44582793568106382 0 0 0.43750000000034689 0 0.13928587515912139 0.57339806105677438 0 0 0.62500000000069389 0 0 0.62500000000069389 0 0.13928587515912139 0.57339806105677438 0 0.13900789599611679 0.72618316107059999 0 0 0.81250000000104083 0 0 0.62500000000069389 0 0.13900789599611679 0.72618316107059999 0 0.27589467050686478 0.66058853156435704 0 0.13900789599611679 0.72618316107059999 0 0.13928587515912139 0.57339806105677438 0 0.27987960212930818 0.83442741470570525 0 0.13900789599611679 0.72618316107059999 0 0.27589467050686478 0.66058853156435704 0 0.26452443700674649 0.51563531581639865 0 0.27589467050686478 0.66058853156435704 0 0.13928587515912139 0.57339806105677438 0 0.26452443700674649 0.51563531581639865 0 0.13928587515912139 0.57339806105677438 0 0.14929124186975251 0.44582793568106382 0 0.1875000000005205 1 0 0 1 0 0.12710107136012311 0.87094806618203435 0 0 1 0 0 0.81250000000104083 0 0.12710107136012311 0.87094806618203435 0 0 0.81250000000104083 0 0.13900789599611679 0.72618316107059999 0 0.12710107136012311 0.87094806618203435 0 0.27987960212930818 0.83442741470570525 0 0.12710107136012311 0.87094806618203435 0 0.13900789599611679 0.72618316107059999 0 0.1875000000005205 1 0 0.12710107136012311 0.87094806618203435 0 0.27987960212930818 0.83442741470570525 0 0.37500000000069389 1 0 0.27987960212930818 0.83442741470570525 0 0.44927105396715372 0.85565124085155886 0 0.37500000000069389 1 0 0.1875000000005205 1 0 0.27987960212930818 0.83442741470570525 0 0.44927105396715372 0.85565124085155886 0 0.27987960212930818 0.83442741470570525 0 0.38136204680495073 0.74038592213831234 0 0.44927105396715372 0.85565124085155886 0 0.38136204680495073 0.74038592213831234 0 0.50145856933078625 0.73674663046504862 0 0.37500000000069389 1 0 0.44927105396715372 0.85565124085155886 0 0.56250000000086742 1 0 0.4139414069912184 0.60563252640100373 0 0.27589467050686478 0.66058853156435704 0 0.26452443700674649 0.51563531581639865 0 0.37499999999973488 0.43749999999986738 0 0.4139414069912184 0.60563252640100373 0 0.26452443700674649 0.51563531581639865 0 0.27987960212930818 0.83442741470570525 0 0.27589467050686478 0.66058853156435704 0 0.38136204680495073 0.74038592213831234 0 0.4139414069912184 0.60563252640100373 0 0.38136204680495073 0.74038592213831234 0 0.27589467050686478 0.66058853156435704 0 0.4139414069912184 0.60563252640100373 0 0.50145856933078625 0.73674663046504862 0 0.38136204680495073 0.74038592213831234 0 0.5625 0.625 0 0.50145856933078625 0.73674663046504862 0 0.4139414069912184 0.60563252640100373 0 0.37499999999973488 0.43749999999986738 0 0.5 0.5 -0 0.4139414069912184 0.60563252640100373 0 0.5625 0.625 0 0.4139414069912184 0.60563252640100373 0 0.5 0.5 -0 0.5625 0.625 0 0.5 0.5 -0 0.63236534182377013 0.50296756406332266 0 0.5625 0.625 0 0.5 0.5 -0 0.5625 0.625 0 0.625 0.75 0 0.50145856933078625 0.73674663046504862 0 0.625 0.75 0 0.5625 0.625 0 0.625 0.75 0 0.71259747807844409 0.63846691315701831 0 0.73857795170433571 0.77736788564284653 0 0.5625 0.625 0 0.71259747807844409 0.63846691315701831 0 0.625 0.75 0 0.75338430262320943 0.49294443423175599 0 0.71259747807844409 0.63846691315701831 0 0.63236534182377013 0.50296756406332266 0 0.5625 0.625 0 0.63236534182377013 0.50296756406332266 0 0.71259747807844409 0.63846691315701831 0 0.6875 0.875 0 0.56250000000086742 1 0 0.56777512057187585 0.8470224641095303 0 0.56250000000086742 1 0 0.44927105396715372 0.85565124085155886 0 0.56777512057187585 0.8470224641095303 0 0.44927105396715372 0.85565124085155886 0 0.50145856933078625 0.73674663046504862 0 0.56777512057187585 0.8470224641095303 0 0.625 0.75 0 0.56777512057187585 0.8470224641095303 0 0.50145856933078625 0.73674663046504862 0 0.6875 0.875 0 0.625 0.75 0 0.73857795170433571 0.77736788564284653 0 0.6875 0.875 0 0.73857795170433571 0.77736788564284653 0 0.80552984491000901 0.88711122872127413 0 0.6875 0.875 0 0.625 0.75 0 0.6875 0.875 0 0.56777512057187585 0.8470224641095303 0 0.625 0.75 0 0.6875 0.875 0 0.75 1 0 0.56250000000086742 1 0 0.6875 0.875 0 0.80552984491000901 0.88711122872127413 0 0.75 1 0 0.75 1 0 0.6875 0.875 0 0.875 1 0 0.75 1 0 0.80552984491000901 0.88711122872127413 0 0.875 1 0 0.80552984491000901 0.88711122872127413 0 0.90637953422180084 0.90208583328057301 0 0.80552984491000901 0.88711122872127413 0 0.85787927391517405 0.753532520882502 0 0.90637953422180084 0.90208583328057301 0 0.80552984491000901 0.88711122872127413 0 0.73857795170433571 0.77736788564284653 0 0.85787927391517405 0.753532520882502 0 1 0.83333333333356463 0 0.85787927391517405 0.753532520882502 0 1 0.66666666666736052 0 1 0.83333333333356463 0 0.90637953422180084 0.90208583328057301 0 0.85787927391517405 0.753532520882502 0 1 1 0 0.90637953422180084 0.90208583328057301 0 1 0.83333333333356463 0 1 1 0 0.875 1 0 0.90637953422180084 0.90208583328057301 0 0.86127466977819722 0.57948076978797636 0 0.71259747807844409 0.63846691315701831 0 0.75338430262320943 0.49294443423175599 0 0.85787927391517405 0.753532520882502 0 0.71259747807844409 0.63846691315701831 0 0.86127466977819722 0.57948076978797636 0 0.85787927391517405 0.753532520882502 0 0.73857795170433571 0.77736788564284653 0 0.71259747807844409 0.63846691315701831 0 1 0.66666666666736052 0 0.85787927391517405 0.753532520882502 0 0.86127466977819722 0.57948076978797636 0 1 0.66666666666736052 0 0.86127466977819722 0.57948076978797636 0 1 0.50000000000138767 0 1 0.33333333333448978 0 1 0.50000000000138767 0 0.86569408477091048 0.40983673916766611 0 0.86127466977819722 0.57948076978797636 0 0.86569408477091048 0.40983673916766611 0 1 0.50000000000138767 0 0.86127466977819722 0.57948076978797636 0 0.75338430262320943 0.49294443423175599 0 0.86569408477091048 0.40983673916766611 0 0.75338430262320943 0.49294443423175599 0 0.71826039492840632 0.34564020717216182 0 0.86569408477091048 0.40983673916766611 0 0.71508993406183785 0.15715956854777599 0 0.86087286690217635 0.25206523597959418 0 0.71826039492840632 0.34564020717216182 0 0.86569408477091048 0.40983673916766611 0 0.71826039492840632 0.34564020717216182 0 0.86087286690217635 0.25206523597959418 0 1 0.16666666666736049 0 1 0.33333333333448978 0 0.86087286690217635 0.25206523597959418 0 1 0.33333333333448978 0 0.86569408477091048 0.40983673916766611 0 0.86087286690217635 0.25206523597959418 0 1 0.16666666666736049 0 0.86087286690217635 0.25206523597959418 0 0.87698901648812122 0.1160638338657984 0 0.81249999999947953 0 0 1 0 0 0.87698901648812122 0.1160638338657984 0 1 0.16666666666736049 0 0.87698901648812122 0.1160638338657984 0 1 0 0 0.81249999999947953 0 0 0.87698901648812122 0.1160638338657984 0 0.71508993406183785 0.15715956854777599 0 0.71508993406183785 0.15715956854777599 0 0.87698901648812122 0.1160638338657984 0 0.86087286690217635 0.25206523597959418 0 0.62499999999895905 0 0 0.71508993406183785 0.15715956854777599 0 0.54475767668582953 0.1431838882066932 0 0.81249999999947953 0 0 0.71508993406183785 0.15715956854777599 0 0.62499999999895905 0 0 0.43749999999913258 0 0 0.62499999999895905 0 0 0.54475767668582953 0.1431838882066932 0 0.71508993406183785 0.15715956854777599 0 0.61108462585082757 0.25750599582343231 0 0.54475767668582953 0.1431838882066932 0 0.54475767668582953 0.1431838882066932 0 0.61108462585082757 0.25750599582343231 0 0.49457493289300231 0.26251703776555491 0 0.56986707178436635 0.37762093650871992 0 0.49457493289300231 0.26251703776555491 0 0.61108462585082757 0.25750599582343231 0 0.43750000000006939 0.37500000000013878 0 0.49457493289300231 0.26251703776555491 0 0.56986707178436635 0.37762093650871992 0 0.43750000000006939 0.37500000000013878 0 0.56986707178436635 0.37762093650871992 0 0.5 0.5 -0 0.5 0.5 -0 0.56986707178436635 0.37762093650871992 0 0.63236534182377013 0.50296756406332266 0 0.75338430262320943 0.49294443423175599 0 0.63236534182377013 0.50296756406332266 0 0.71826039492840632 0.34564020717216182 0 0.56986707178436635 0.37762093650871992 0 0.71826039492840632 0.34564020717216182 0 0.63236534182377013 0.50296756406332266 0 0.71508993406183785 0.15715956854777599 0 0.71826039492840632 0.34564020717216182 0 0.61108462585082757 0.25750599582343231 0 0.56986707178436635 0.37762093650871992 0 0.61108462585082757 0.25750599582343231 0 0.71826039492840632 0.34564020717216182 0 
</DataArray>
</Points>
<Cells>
<DataArray type="UInt32" Name="connectivity" format="ascii">
0 1 2 3 4 5 6 7 8 9 10 11 12 13 14 15 16 17 18 19 20 21 22 23 24 25 26 27 28 29 30 31 32 33 34 35 36 37 38 39 40 41 42 43 44 45 46 47 48 49 50 51 52 53 54 55 56 57 58 59 60 61 62 63 64 65 66 67 68 69 70 71 72 73 74 75 76 77 78 79 80 81 82 83 84 85 86 87 88 89 90 91 92 93 94 95 96 97 98 99 100 101 102 103 104 105 106 107 108 109 110 111 112 113 114 115 116 117 118 119 120 121 122 123 124 125 126 127 128 129 130 131 132 133 134 135 136 137 138 139 140 141 142 143 144 145 146 147 148 149 150 151 152 153 154 155 156 157 158 159 160 161 162 163 164 165 166 167 168 169 170 171 172 173 174 175 176 177 178 179 180 181 182 183 184 185 186 187 188 189 190 191 192 193 194 195 196 197 198 199 200 201 202 203 204 205 206 207 208 209 210 211 212 213 214 215 216 217 218 219 220 221 222 223 224 225 226 227 228 229 230 231 232 233 234 235 236 237 238 239 240 241 242 243 244 245 246 247 248 249 250 251 252 253 254 255 256 257 258 259 260 261 262 263 264 265 266 267 268 269 270 271 272 273 274 275 276 277 278 279 280 281 282 283 284 285 286 287 288 289 290 291 292 293 294 295 296 297 298 299 300 301 302 303 304 305 306 307 308 309 310 311 312 313 314 315 316 317 318 319 320 321 322 323 324 325 326 327 328 329 330 331 332 333 334 335 336 337 338 339 340 341 342 343 344 345 346 347 348 349 350 351 352 353 354 355 356 357 358 359 
</DataArray>
<DataArray type="UInt32" Name="offsets" format="ascii">
3 6 9 12 15 18 21 24 27 30 33 35 38 41 43 46 49 52 55 58 60 63 66 68 71 73 76 79 82 85 87 90 93 96 99 101 104 107 109 112 115 118 121 124 127 130 133 136 139 142 145 148 151 154 157 160 163 166 169 172 175 178 181 184 187 190 193 195 198 200 203 206 209 212 215 218 221 224 227 230 232 235 238 241 243 246 249 252 255 258 261 264 267 270 273 276 279 282 285 288 291 294 297 300 303 306 309 312 315 318 321 324 327 330 333 336 339 342 345 348 351 354 357 360 
</DataArray>
<DataArray type="UInt32" Name="types" format="ascii">
5 5 5 5 5 5 5 5 5 5 5 3 5 5 3 5 5 5 5 5 3 5 5 3 5 3 5 5 5 5 3 5 5 5 5 3 5 5 3 5 5 5 5 5 5 5 5 5 5 5 5 5 5 5 5 5 5 5 5 5 5 5 5 5 5 5 5 3 5 3 5 5 5 5 5 5 5 5 5 5 3 5 5 5 3 5 5 5 5 5 5 5 5 5 5 5 5 5 5 5 5 5 5 5 5 5 5 5 5 5 5 5 5 5 5 5 5 5 5 5 5 5 5 5 
</DataArray>
</Cells>
<PointData Scalars="age_conc,U235_conc," Vectors="" Tensors="">
<DataArray type="Float64" Name="age_conc" format="ascii">
249620.89028712365 250143.84139467767 251143.14602505925 249779.46938459895 250948.3826041724 250562.76344449341 254835.18166831616 253558.85305424136 223037.29779507234 251095.55601478589 250141.71647132869 251027.13726230874 250872.71611123858 250266.43605045043 252405.35952816973 213033.73647053458 252055.60209504844 263432.79351805151 251899.00267616913 258221.74439130406 250076.63568716749 215840.30538076244 262545.46563545329 253805.09977843764 225610.29087900597 254370.30970608891 253409.14706444071 225863.43883311283 218042.6435112328 259531.42227039341 250716.75393817338 252034.97331805978 250541.2773957836 212941.03187382425 224686.8821815727 250003.69043214162 250011.29363862137 249991.16329620665 215072.88895379219 204506.62403686717 270777.05403176381 199459.37429134262 215497.35503288309 250007.17126243503 249948.863903953 250012.75381004554 250039.10383780324 249953.65868197719 249898.35486851318 250378.07921705258 249739.48536649739 249952.41180486148 249992.85877777345 249986.32269193506 250046.55477258406 249909.8153727529 250053.97595703037 250136.34999464417 177122.74470893035 135655.10237847123 215170.78805855755 138525.50575312469 208301.35206513875 208152.03336359918 202599.45482543026 249236.7670836967 138220.99348443974 184749.75803951672 250035.18122871526 249964.19256412788 249775.0194369166 179077.97655083478 202873.32692655982 199207.85649226155 192549.93536660334 262399.20494663261 196005.21139853736 270712.93240267411 254532.98239532407 200189.13695688965 253556.11011995672 269553.32816734817 187218.70304532698 194873.48813638024 264529.60954284447 198744.53467605886 172038.46046223812 256017.46944716375 247630.24289411091 249956.70699400926 249744.38263043808 249158.82578624348 250207.01665902376 249684.83097627814 250123.8123810128 249993.4967873701 200600.4439435215 212009.60403777109 272449.633521999 212468.32189033288 194802.77285052935 249986.35249274925 249951.99278345579 250104.26165462591 214884.73004595246 223486.87663879796 259123.81028199432 222514.68164693401 209588.630054218 250482.37414884748 249620.06662677065 249360.73872721544 250145.63110278506 249959.87651396275 249796.67627556552 250645.09077311854 251457.23522943683 248213.5737033445 248252.58300611761 251893.89122821117 249047.27218505641 242263.35401358048 253393.15990779846 242035.72217892855 245019.38749750846 252184.61346248616 250296.74624726016 224056.91268355952 255775.70395806292 248483.85615008464 250796.22215699987 247081.77816486929 248862.93088343425 250341.08305924677 248676.16528468346 250197.63503133634 3113.0002210771836 4023.9773919519012 236773.43081767514 2339.1746683242782 271988.89864741126 219939.86033622874 245206.73109106475 250502.63983735739 193149.65858839016 236200.59190659222 178548.34584036504 271422.33986219135 6855.9146447146377 189308.83721661798 252421.81031846983 631.23686650441232 221350.6422286169 233086.30149104295 2126.7734666608339 6396.7991579605896 268927.38452723518 215954.62933444334 212881.16050058042 258542.68834549066 191272.19428378568 238414.60778078664 259727.90958378743 -3070.6963193520596 250828.03642780753 142.47009652953784 253438.05405389765 247225.94229888284 250320.91717714936 255977.54354556446 259924.62488605327 246063.66821233416 212990.82025599989 258975.49187800172 250125.60986408318 255770.17434816743 237544.12176899204 247998.22788423742 263023.3772208278 253165.50241041818 231567.23308415257 126365.37122517658 276436.20104816725 292783.27199925488 256361.95627349388 186473.66210684757 277898.32692309102 139993.81314848451 295875.22270911164 186359.59339770352 247949.62683222961 250078.68720339553 252441.44525155623 104436.94288891274 142055.06168066279 125469.40511747607 102710.74852467727 297651.97979535675 67871.538711341433 108948.29116204324 245534.33226589108 249686.7313900537 241301.32177372655 250428.79327410969 248263.59846154213 245026.94539121815 229840.39291922026 258316.08924553735 252979.90320324356 247566.93179926361 252887.6076200734 250575.1383453091 151393.81951577877 24031.825757105369 213545.62798364047 32599.867429345162 212756.15283465578 202879.36520104893 189002.62578216378 268495.97059413727 199544.85550191547 103362.75369628187 252217.84633363 277944.00224438496 185423.19232962516 247392.03615139652 252935.21325576951 184446.26379663291 263299.8335570955 192520.97132083596 28681.10029893821 72523.513989364204 106865.3906889667 266377.15537859901 107132.7981378421 160750.85141406365 -3487.1951640636562 29079.787213235599 197220.04046122398 200099.75960008544 -1774.7661064814656 -3449.1670421725935 32439.079616623676 -1053.157850847505 -31.203485840730536 212282.94324686399 -4608.2672456477867 191360.38289118485 192070.67653582641 206024.38941290363 231515.19848139115 176300.11112972203 201389.08957865872 246266.23689160685 224435.37330006805 -83.334049104123551 249124.46405861276 1640.2788365988763 -3401.3322171540094 182301.73786172384 226249.84720534144 -2961.8501462867539 194278.41402434325 -2961.8501462847407 -2964.5557250604925 -2609.682630199693 202851.70370292006 192835.70125284471 267212.50324785803 232952.39933347472 218990.81459038111 276967.48761730903 187892.86616331435 223660.3632766759 239725.7072519424 253897.44148302756 3889.1165263663679 232439.6414808449 198291.32535106057 1113.6671761027465 240145.81138923831 1555.0953679702052 874.11431171619734 121.37053600138006 236480.25294745463 224779.28448123572 193749.05422241634 3290.0311446470951 210305.21603552561 267333.53687373031 182473.4161645087 257078.05916715984 247899.61567438708 185919.86692198127 248074.66704908665 203640.40447604813 253457.51042293949 204314.60962498697 264340.58422454947 200612.61718400457 3336.4783146005593 1139.674023268841 244402.71299691981 1914.5740773645957 221423.21988397749 203481.56327675414 2227.5329956987371 230389.4852693048 190842.83257999705 276349.63931006746 2042.2724100690018 212287.99532555396 2133.0306349714047 228673.65308391437 4331.9053892472748 239540.61579375682 193216.03982149102 258402.01966655653 276037.20589173015 186011.06233953295 215412.23350242031 250766.89476730762 246323.12539630494 249479.48808276298 237460.88985165625 248944.90279893563 254339.23141029725 250078.50692060313 249975.25731286328 249414.06003328171 244352.1764833841 251224.1428396831 251231.65932330134 250484.96539624978 249983.23577871814 249662.94638788473 249430.57202590897 250132.39645318119 249705.36918319028 249849.57203092042 250075.96734065749 249269.74991211138 249942.55381383133 248794.86950491296 251111.76316183785 251404.69169476698 248553.83223262301 249846.63698243193 241909.3409385921 248896.74572378997 247526.36713377165 250605.79332931587 246782.59531164114 247522.4673855429 243540.0160828759 247867.45912789094 252566.14799653407 249843.76833890926 250160.84550267615 247230.76946156943 
</DataArray>
<DataArray type="Float64" Name="U235_conc" format="ascii">
0.0034036103700331921 0.0040326916002241028 -0.0070786359822215981 0.0031863063732100834 -0.0061270397794523403 0.0029407334062422573 -0.025577892920500771 -0.02120794216863978 0.10628879934751459 -0.0052238449166096493 0.0066325375279691779 -0.0014086926113595281 0.0016566488826700774 0.0027391543659538425 -0.0043958032486239194 0.15300604345637192 -0.013517656687931191 -0.072347355931794352 0.012536975139004494 -0.032017703038621961 0.019480727899617467 0.14145868174616233 -0.06678512209708036 -0.020694245517074814 0.096395400437756545 -0.024534807755155867 -0.018839141848505131 0.086361113859992067 0.12428914025279642 -0.047976349082712401 -0.0022407614456211346 -0.0049251018888833318 0.0071658633345044664 0.12988370845101754 0.08569391023235963 9.5975632296621774e-05 -0.00034774287420977256 0.00025746024592789328 0.13232000997464646 0.17945765312715106 -0.1027520440724624 0.17788840115505739 0.11831381766418619 -2.9278364055352816e-05 0.00026354137840042959 -0.00016509627175563841 -0.0002897490497952048 0.00027326325260560282 0.00022229545933350318 -0.0016557752817435208 0.001183108570498809 0.00047266671124471206 0.00019949631446089221 -0.00031312383128747517 0.00024224017842428149 0.00014711652526051705 -0.00060827098283352111 0.00046115445757300398 0.25807575296740864 0.4048175990469231 0.10970511377892056 0.41037557532472357 0.14164871963100306 0.14475119711761433 0.17161239531568329 -0.015818624443661299 0.39592416918713269 0.22904379038673905 -0.00024961194097799957 -0.0003177680854728391 0.0013699123673171121 0.25044136109970372 0.16361925192183641 0.18789199160668951 0.21008667541907028 -0.069258486577231437 0.22124103554954258 -0.099874954363590493 -0.036515014293388902 0.20347984824131382 -0.031547136026056091 -0.093973254371944467 0.23254890163586972 0.20392744340674862 -0.079954508180418063 0.17784576158704357 0.27683158691923376 -0.029182209340515696 0.027228509062380855 0.0019537002781348399 0.0051921886911673147 0.01044940368873392 -0.0057087258402716834 0.00602467549867874 -0.0031197659629670308 -0.0004739032494947195 0.19540781021615897 0.14425287955339525 -0.1115760256055475 0.12897760899467037 0.19509677579004095 0.00038310700104336889 0.00023922870410152857 -0.00062233570514489745 0.13633121196922815 0.094307970788875983 -0.046915924688442079 0.093160205039933927 0.14234395147116802 -0.0037419744864556192 0.0024189768087233927 0.0040555201695267624 -0.00092221055524588152 4.2746298972458993e-05 0.00094880052444327231 -0.0036172543766900518 -0.010268187144454075 0.013885591655601824 0.014727699514066075 -0.0098886747349256222 -0.0047193641777957592 0.009033645972832573 -0.0096457437555793005 0.030726835495738257 0.028019696617093661 -0.026594033136380056 0.0029089993795286683 0.088438955480975856 -0.045959966004212864 0.0078947151933764122 -0.0055264902947500597 0.013981986360348222 0.0070921409934004368 -0.0029428897363487226 0.008571567370479951 -0.0016872572395591739 0.86809656786609801 0.84122357842801077 0.10274172544239307 0.89776333927241014 -0.12128232164970076 0.10442595105108771 -0.0096325314626116224 -0.027862257771934174 0.22544461177011982 0.0096006329948804814 0.28442133865036651 -0.12666348085091403 0.88233202209151329 0.21782168243934946 -0.038035796352919676 0.92522152304583916 0.095335714683202427 0.01979721163544132 0.88390994950840518 0.84223355119001642 -0.031859187193317956 0.092183060671813505 0.12874761316031857 -0.06614629336345039 0.24161440991265762 0.040487735486589349 -0.090113850675711316 0.87755994273649796 0.03772212018664739 0.87269865891151022 -0.015162242026174956 0.012455076647841663 0.0027071653783332919 -0.011730036864536112 -0.04123026571812935 0.052960302582665465 0.14152262037203109 -0.046176783924002568 -0.020135350635530638 -0.027764795439423326 0.052395158315361297 0.0042180607937646192 -0.050986594051468145 -0.041189115943511871 0.09217570999498001 0.51151417353823347 -0.14863529992218052 -0.2066869388286747 -0.035386559043163762 0.27799493109078799 -0.1570465280463394 0.45214753829058857 -0.23896085242825257 0.25352798455793774 0.013847886163205198 0.0016271862100734964 -0.015475072373278694 0.51357882049264825 0.38346523460384241 0.47331157502465415 0.5632992419328382 -0.22973531682486986 0.64034237434638286 0.50441660940070898 0.0095602963698027121 -0.002372358259976024 0.022084062696018085 -0.0027891953797540307 0.0032547603308510364 0.012496321594556466 0.091306861697242933 -0.063332370476410119 -0.015012732783100809 0.021265369592610103 -0.012934739310901344 -0.0083306302817087591 0.35477069884713558 0.78962696141573008 0.11649448613008628 0.81901132180075242 0.14097795242317096 0.12824366992279107 0.24390232795919131 -0.12420388049038877 0.15328089479270463 0.5591667913264281 -0.048737769878389972 -0.15295821864853576 0.24691939632041282 -0.0076277637045054358 -0.044125816127278041 0.23324458216343882 -0.096773079160944103 0.19935968249853606 0.77364760894979456 0.63959572723915081 0.50590530253463117 -0.089056046403883746 0.50065402552077498 0.3692941784035404 0.8671879900213727 0.7655130395637656 0.18294102063267026 0.18021871898840347 0.88810390247889837 0.87635089800344323 0.78798857378021592 0.87417414973834817 0.85388352158168401 0.19746195524539439 0.90030227926006867 0.20745429033892099 0.20058295442243651 0.1310366783464586 0.026064650740588557 0.24659026385680005 0.16979054612452915 -0.0072640763654985008 0.068383246956812513 0.8818493313609872 0.047224436455481328 0.85779285580700693 0.91071578962901423 0.23271921517048444 0.071097788607615481 0.86645944491732518 0.26134064431977116 0.86645944491735094 0.86817217670683811 0.86695728353601031 0.22794617006233137 0.23346563391251479 -0.11392665184461724 0.066949425916319805 0.081299314933570066 -0.1548255240307235 0.24483359506494906 0.081209508317776902 0.028150134711896774 -0.027521252469645298 0.89720112402228525 0.034102885600030552 0.18680313878652943 0.87336274248021362 0.08812366345242692 0.85163663676884516 0.85496346597641937 0.87355832491487817 0.10135116018468987 0.068885492899367767 0.20433892517405422 0.89279504802907439 0.11631906839871765 -0.12398287444120479 0.25867804157222346 -0.075172804845443683 -0.0022000074537753198 0.26376029874543355 -0.0037067053339180159 0.17433820892657248 -0.034827385507454164 0.15333718845040681 -0.088906301706697319 0.16938452964617332 0.84765488606417361 0.87569205276631745 0.069430231145126309 0.89769415868944125 0.082469171788638246 0.16318246323277397 0.88493199852628845 0.057761556569318848 0.20756235568634801 -0.1376963122017866 0.896042286976515 0.13475575161451075 0.86957349656009575 0.13221409041411175 0.84118454769855344 0.021423016101907541 0.21881211912271961 -0.066045133065279926 -0.1468833889767292 0.23833214248492279 0.10629546371431155 -0.0017779854099118017 0.011222155319182442 0.0016918174344132952 0.038244822573130624 -0.006974610508539294 -0.014517725791128342 -0.00092598708254130069 0.0019823347820176816 0.00071171645152555288 0.019577526066625127 -0.007197746657181355 -0.0051458646055761344 -0.0013817440621702189 -0.00084565037004300252 0.0022273944322132211 0.0017726026762966919 -0.00029405919747720679 -0.00058332466023381887 0.00091619732743133649 -0.0011246633688532951 0.0032363595127840317 0.0003858404775793781 0.0065411529831925323 -0.0065110629362197516 -0.0073018902053945331 0.0082522332047596791 -0.00094882962379172443 0.018140794354018552 0.0077546248022398578 -0.0036339590277296753 -0.0022428966972085256 0.00089291810961100379 0.012657255381385903 0.023173071279368511 -0.0017148636808119358 -0.011313907370283378 0.0013529397485098681 -0.0015091959882796912 0.0021118270475213863 
</DataArray>
</PointData>
</Piece>
</UnstructuredGrid>
</VTKFile>
