<?xml version="1.0"?>
<VTKFile type="UnstructuredGrid" version="0.1" byte_order="LittleEndian">
<UnstructuredGrid>
<Piece NumberOfPoints="360" NumberOfCells="124">
<Points>
<DataArray type="Float64" NumberOfComponents="3" format="ascii">
0 0.25 0 0.1249999999997599 0.31249999999987998 0 0 0 0 0.1249999999997554 0 0 0.084352422163911631 0.086451712656266194 0 0 0 0 0.084352422163911631 0.086451712656266194 0 0 0.12500000000034689 0 0 0.12500000000034689 0 0.084352422163911631 0.086451712656266194 0 0.1008171452988615 0.18885703697250469 0 0 0.12500000000034689 0 0.1008171452988615 0.18885703697250469 0 0 0.25 0 0.1008171452988615 0.18885703697250469 0 0.084352422163911631 0.086451712656266194 0 0.18402761812864499 0.1117324051466445 0 0.1249999999997599 0.31249999999987998 0 0.1008171452988615 0.18885703697250469 0 0.2403886547178353 0.24188814792673841 0 0.18402761812864499 0.1117324051466445 0 0.2403886547178353 0.24188814792673841 0 0.1008171452988615 0.18885703697250469 0 0.31250000000020822 0.12500000000041631 0 0.2403886547178353 0.24188814792673841 0 0.18402761812864499 0.1117324051466445 0 0.25 -0 0 0.18402761812864499 0.1117324051466445 0 0.1249999999997554 0 0 0.25 -0 0 0.31250000000020822 0.12500000000041631 0 0.18402761812864499 0.1117324051466445 0 0.1249999999997554 0 0 0.18402761812864499 0.1117324051466445 0 0.084352422163911631 0.086451712656266194 0 0.25 -0 0 0.43749999999913258 0 0 0.31250000000020822 0.12500000000041631 0 0.43749999999913258 0 0 0.54475767668582953 0.1431838882066932 0 0.4287911518546233 0.15455445427966699 0 0.31250000000020822 0.12500000000041631 0 0.43749999999913258 0 0 0.4287911518546233 0.15455445427966699 0 0.54475767668582953 0.1431838882066932 0 0.49457493289300231 0.26251703776555491 0 0.4287911518546233 0.15455445427966699 0 0.37500000000027761 0.25000000000055511 0 0.4287911518546233 0.15455445427966699 0 0.49457493289300231 0.26251703776555491 0 0.31250000000020822 0.12500000000041631 0 0.37500000000027761 0.25000000000055511 0 0.2403886547178353 0.24188814792673841 0 0.31250000000020822 0.12500000000041631 0 0.4287911518546233 0.15455445427966699 0 0.37500000000027761 0.25000000000055511 0 0.1249999999997599 0.31249999999987998 0 0.24999999999960859 0.37499999999980432 0 0.24999999999960859 0.37499999999980432 0 0.2403886547178353 0.24188814792673841 0 0.33819444444448321 0.33819444444456342 0 0.37500000000027761 0.25000000000055511 0 0.33819444444448321 0.33819444444456342 0 0.2403886547178353 0.24188814792673841 0 0.37500000000027761 0.25000000000055511 0 0.49457493289300231 0.26251703776555491 0 0.43750000000006939 0.37500000000013878 0 0.37500000000027761 0.25000000000055511 0 0.43750000000006939 0.37500000000013878 0 0.33819444444448321 0.33819444444456342 0 0.43750000000006939 0.37500000000013878 0 0.37499999999973488 0.43749999999986738 0 0.33819444444448321 0.33819444444456342 0 0.43750000000006939 0.37500000000013878 0 0.5 0.5 -0 0.37499999999973488 0.43749999999986738 0 0.37499999999973488 0.43749999999986738 0 0.26452443700674649 0.51563531581639865 0 0.24999999999960859 0.37499999999980432 0 0.37499999999973488 0.43749999999986738 0 0.24999999999960859 0.37499999999980432 0 0.33819444444448321 0.33819444444456342 0 0.24999999999960859 0.37499999999980432 0 0.26452443700674649 0.51563531581639865 0 0.14929124186975251 0.44582793568106382 0 0.24999999999960859 0.37499999999980432 0 0.14929124186975251 0.44582793568106382 0 0.1249999999997599 0.31249999999987998 0 0.24999999999960859 0.37499999999980432 0 0.1249999999997599 0.31249999999987998 0 0.2403886547178353 0.24188814792673841 0 0 0.25 0 0.1249999999997599 0.31249999999987998 0 0 0.43750000000034689 0 0.1249999999997599 0.31249999999987998 0 0 0.25 0 0.1008171452988615 0.18885703697250469 0 0 0.43750000000034689 0 0.1249999999997599 0.31249999999987998 0 0.14929124186975251 0.44582793568106382 0 0 0.43750000000034689 0 0.14929124186975251 0.44582793568106382 0 0.13928587515912139 0.57339806105677438 0 0 0.43750000000034689 0 0.13928587515912139 0.57339806105677438 0 0 0.62500000000069389 0 0.31250000000020822 0.12500000000041631 0 0.25 -0 0 0.37500000000027761 0.25000000000055511 0 0.31250000000020822 0.12500000000041631 0 0.24999999999960859 0.37499999999980432 0 0.37499999999973488 0.43749999999986738 0 0.26452443700674649 0.51563531581639865 0 0.27589467050686478 0.66058853156435704 0 0.13928587515912139 0.57339806105677438 0 0.26452443700674649 0.51563531581639865 0 0.13928587515912139 0.57339806105677438 0 0.14929124186975251 0.44582793568106382 0 0.27987960212930818 0.83442741470570525 0 0.13900789599611679 0.72618316107059999 0 0.27589467050686478 0.66058853156435704 0 0.27589467050686478 0.66058853156435704 0 0.13900789599611679 0.72618316107059999 0 0.13928587515912139 0.57339806105677438 0 0 0.81250000000104083 0 0 0.62500000000069389 0 0.13900789599611679 0.72618316107059999 0 0 0.62500000000069389 0 0.13928587515912139 0.57339806105677438 0 0.13900789599611679 0.72618316107059999 0 0 0.81250000000104083 0 0.13900789599611679 0.72618316107059999 0 0.12710107136012311 0.87094806618203435 0 0.1875000000005205 1 0 0 1 0 0.12710107136012311 0.87094806618203435 0 0 1 0 0 0.81250000000104083 0 0.12710107136012311 0.87094806618203435 0 0.1875000000005205 1 0 0.12710107136012311 0.87094806618203435 0 0.27987960212930818 0.83442741470570525 0 0.27987960212930818 0.83442741470570525 0 0.12710107136012311 0.87094806618203435 0 0.13900789599611679 0.72618316107059999 0 0.43750000000006939 0.37500000000013878 0 0.37500000000027761 0.25000000000055511 0 0.5 0.5 -0 0.43750000000006939 0.37500000000013878 0 0.37499999999973488 0.43749999999986738 0 0.5 0.5 -0 0.44927105396715372 0.85565124085155886 0 0.27987960212930818 0.83442741470570525 0 0.38136204680495073 0.74038592213831234 0 0.37500000000069389 1 0 0.27987960212930818 0.83442741470570525 0 0.44927105396715372 0.85565124085155886 0 0.37500000000069389 1 0 0.1875000000005205 1 0 0.27987960212930818 0.83442741470570525 0 0.37500000000069389 1 0 0.44927105396715372 0.85565124085155886 0 0.56250000000086742 1 0 0.44927105396715372 0.85565124085155886 0 0.38136204680495073 0.74038592213831234 0 0.50145856933078625 0.73674663046504862 0 0.5625 0.625 0 0.50145856933078625 0.73674663046504862 0 0.4139414069912184 0.60563252640100373 0 0.4139414069912184 0.60563252640100373 0 0.50145856933078625 0.73674663046504862 0 0.38136204680495073 0.74038592213831234 0 0.4139414069912184 0.60563252640100373 0 0.38136204680495073 0.74038592213831234 0 0.27589467050686478 0.66058853156435704 0 0.27987960212930818 0.83442741470570525 0 0.27589467050686478 0.66058853156435704 0 0.38136204680495073 0.74038592213831234 0 0.4139414069912184 0.60563252640100373 0 0.27589467050686478 0.66058853156435704 0 0.26452443700674649 0.51563531581639865 0 0.37499999999973488 0.43749999999986738 0 0.4139414069912184 0.60563252640100373 0 0.26452443700674649 0.51563531581639865 0 0.37499999999973488 0.43749999999986738 0 0.5 0.5 -0 0.4139414069912184 0.60563252640100373 0 0.5625 0.625 0 0.4139414069912184 0.60563252640100373 0 0.5 0.5 -0 0.5625 0.625 0 0.5 0.5 -0 0.63236534182377013 0.50296756406332266 0 0.5625 0.625 0 0.5 0.5 -0 0.625 0.75 0 0.5625 0.625 0 0.5625 0.625 0 0.63236534182377013 0.50296756406332266 0 0.71259747807844409 0.63846691315701831 0 0.75338430262320943 0.49294443423175599 0 0.71259747807844409 0.63846691315701831 0 0.63236534182377013 0.50296756406332266 0 0.5625 0.625 0 0.71259747807844409 0.63846691315701831 0 0.625 0.75 0 0.625 0.75 0 0.71259747807844409 0.63846691315701831 0 0.73857795170433571 0.77736788564284653 0 0.5625 0.625 0 0.625 0.75 0 0.50145856933078625 0.73674663046504862 0 0.625 0.75 0 0.56777512057187585 0.8470224641095303 0 0.50145856933078625 0.73674663046504862 0 0.44927105396715372 0.85565124085155886 0 0.50145856933078625 0.73674663046504862 0 0.56777512057187585 0.8470224641095303 0 0.56250000000086742 1 0 0.44927105396715372 0.85565124085155886 0 0.56777512057187585 0.8470224641095303 0 0.6875 0.875 0 0.56250000000086742 1 0 0.56777512057187585 0.8470224641095303 0 0.6875 0.875 0 0.75 1 0 0.56250000000086742 1 0 0.6875 0.875 0 0.80552984491000901 0.88711122872127413 0 0.75 1 0 0.6875 0.875 0 0.73857795170433571 0.77736788564284653 0 0.80552984491000901 0.88711122872127413 0 0.6875 0.875 0 0.56777512057187585 0.8470224641095303 0 0.625 0.75 0 0.6875 0.875 0 0.625 0.75 0 0.73857795170433571 0.77736788564284653 0 0.80552984491000901 0.88711122872127413 0 0.73857795170433571 0.77736788564284653 0 0.85787927391517405 0.753532520882502 0 0.6875 0.875 0 0.625 0.75 0 0.75 1 0 0.6875 0.875 0 0.80552984491000901 0.88711122872127413 0 0.85787927391517405 0.753532520882502 0 0.90637953422180084 0.90208583328057301 0 0.875 1 0 0.75 1 0 0.80552984491000901 0.88711122872127413 0 0.875 1 0 0.80552984491000901 0.88711122872127413 0 0.90637953422180084 0.90208583328057301 0 1 1 0 0.875 1 0 0.90637953422180084 0.90208583328057301 0 1 1 0 0.90637953422180084 0.90208583328057301 0 1 0.83333333333356463 0 1 0.83333333333356463 0 0.85787927391517405 0.753532520882502 0 1 0.66666666666736052 0 1 0.83333333333356463 0 0.90637953422180084 0.90208583328057301 0 0.85787927391517405 0.753532520882502 0 1 0.66666666666736052 0 0.85787927391517405 0.753532520882502 0 0.86127466977819722 0.57948076978797636 0 0.85787927391517405 0.753532520882502 0 0.71259747807844409 0.63846691315701831 0 0.86127466977819722 0.57948076978797636 0 0.85787927391517405 0.753532520882502 0 0.73857795170433571 0.77736788564284653 0 0.71259747807844409 0.63846691315701831 0 0.86127466977819722 0.57948076978797636 0 0.71259747807844409 0.63846691315701831 0 0.75338430262320943 0.49294443423175599 0 1 0.66666666666736052 0 0.86127466977819722 0.57948076978797636 0 1 0.50000000000138767 0 1 0.33333333333448978 0 1 0.50000000000138767 0 0.86569408477091048 0.40983673916766611 0 0.86127466977819722 0.57948076978797636 0 0.86569408477091048 0.40983673916766611 0 1 0.50000000000138767 0 1 0.16666666666736049 0 1 0.33333333333448978 0 0.86087286690217635 0.25206523597959418 0 1 0.33333333333448978 0 0.86569408477091048 0.40983673916766611 0 0.86087286690217635 0.25206523597959418 0 0.86569408477091048 0.40983673916766611 0 0.71826039492840632 0.34564020717216182 0 0.86087286690217635 0.25206523597959418 0 0.71508993406183785 0.15715956854777599 0 0.86087286690217635 0.25206523597959418 0 0.71826039492840632 0.34564020717216182 0 0.86127466977819722 0.57948076978797636 0 0.75338430262320943 0.49294443423175599 0 0.86569408477091048 0.40983673916766611 0 0.75338430262320943 0.49294443423175599 0 0.71826039492840632 0.34564020717216182 0 0.86569408477091048 0.40983673916766611 0 0.56986707178436635 0.37762093650871992 0 0.71826039492840632 0.34564020717216182 0 0.63236534182377013 0.50296756406332266 0 0.75338430262320943 0.49294443423175599 0 0.63236534182377013 0.50296756406332266 0 0.71826039492840632 0.34564020717216182 0 0.43750000000006939 0.37500000000013878 0 0.56986707178436635 0.37762093650871992 0 0.5 0.5 -0 0.5 0.5 -0 0.56986707178436635 0.37762093650871992 0 0.63236534182377013 0.50296756406332266 0 0.43750000000006939 0.37500000000013878 0 0.49457493289300231 0.26251703776555491 0 0.56986707178436635 0.37762093650871992 0 0.56986707178436635 0.37762093650871992 0 0.49457493289300231 0.26251703776555491 0 0.61108462585082757 0.25750599582343231 0 0.71508993406183785 0.15715956854777599 0 0.71826039492840632 0.34564020717216182 0 0.61108462585082757 0.25750599582343231 0 0.56986707178436635 0.37762093650871992 0 0.61108462585082757 0.25750599582343231 0 0.71826039492840632 0.34564020717216182 0 0.71508993406183785 0.15715956854777599 0 0.61108462585082757 0.25750599582343231 0 0.54475767668582953 0.1431838882066932 0 0.54475767668582953 0.1431838882066932 0 0.61108462585082757 0.25750599582343231 0 0.49457493289300231 0.26251703776555491 0 0.43749999999913258 0 0 0.62499999999895905 0 0 0.54475767668582953 0.1431838882066932 0 0.62499999999895905 0 0 0.71508993406183785 0.15715956854777599 0 0.54475767668582953 0.1431838882066932 0 0.81249999999947953 0 0 0.71508993406183785 0.15715956854777599 0 0.62499999999895905 0 0 0.81249999999947953 0 0 0.87698901648812122 0.1160638338657984 0 0.71508993406183785 0.15715956854777599 0 0.71508993406183785 0.15715956854777599 0 0.87698901648812122 0.1160638338657984 0 0.86087286690217635 0.25206523597959418 0 1 0.16666666666736049 0 0.86087286690217635 0.25206523597959418 0 0.87698901648812122 0.1160638338657984 0 0.81249999999947953 0 0 1 0 0 0.87698901648812122 0.1160638338657984 0 1 0.16666666666736049 0 0.87698901648812122 0.1160638338657984 0 1 0 0 
</DataArray>
</Points>
<Cells>
<DataArray type="UInt32" Name="connectivity" format="ascii">
0 1 2 3 4 5 6 7 8 9 10 11 12 13 14 15 16 17 18 19 20 21 22 23 24 25 26 27 28 29 30 31 32 33 34 35 36 37 38 39 40 41 42 43 44 45 46 47 48 49 50 51 52 53 54 55 56 57 58 59 60 61 62 63 64 65 66 67 68 69 70 71 72 73 74 75 76 77 78 79 80 81 82 83 84 85 86 87 88 89 90 91 92 93 94 95 96 97 98 99 100 101 102 103 104 105 106 107 108 109 110 111 112 113 114 115 116 117 118 119 120 121 122 123 124 125 126 127 128 129 130 131 132 133 134 135 136 137 138 139 140 141 142 143 144 145 146 147 148 149 150 151 152 153 154 155 156 157 158 159 160 161 162 163 164 165 166 167 168 169 170 171 172 173 174 175 176 177 178 179 180 181 182 183 184 185 186 187 188 189 190 191 192 193 194 195 196 197 198 199 200 201 202 203 204 205 206 207 208 209 210 211 212 213 214 215 216 217 218 219 220 221 222 223 224 225 226 227 228 229 230 231 232 233 234 235 236 237 238 239 240 241 242 243 244 245 246 247 248 249 250 251 252 253 254 255 256 257 258 259 260 261 262 263 264 265 266 267 268 269 270 271 272 273 274 275 276 277 278 279 280 281 282 283 284 285 286 287 288 289 290 291 292 293 294 295 296 297 298 299 300 301 302 303 304 305 306 307 308 309 310 311 312 313 314 315 316 317 318 319 320 321 322 323 324 325 326 327 328 329 330 331 332 333 334 335 336 337 338 339 340 341 342 343 344 345 346 347 348 349 350 351 352 353 354 355 356 357 358 359 
</DataArray>
<DataArray type="UInt32" Name="offsets" format="ascii">
2 5 8 11 14 17 20 23 26 29 32 35 38 41 44 47 50 53 56 58 61 64 67 70 73 76 79 82 85 88 91 94 97 100 103 106 108 110 112 115 118 121 124 127 130 133 136 139 142 145 147 149 151 154 157 160 163 166 169 172 175 178 181 184 187 190 193 195 197 200 203 206 209 212 215 218 221 224 227 230 233 236 239 242 244 246 249 252 255 258 261 264 267 270 273 276 279 282 285 288 291 294 297 300 303 306 309 312 315 318 321 324 327 330 333 336 339 342 345 348 351 354 357 360 
</DataArray>
<DataArray type="UInt32" Name="types" format="ascii">
3 5 5 5 5 5 5 5 5 5 5 5 5 5 5 5 5 5 5 3 5 5 5 5 5 5 5 5 5 5 5 5 5 5 5 5 3 3 3 5 5 5 5 5 5 5 5 5 5 5 3 3 3 5 5 5 5 5 5 5 5 5 5 5 5 5 5 3 3 5 5 5 5 5 5 5 5 5 5 5 5 5 5 5 3 3 5 5 5 5 5 5 5 5 5 5 5 5 5 5 5 5 5 5 5 5 5 5 5 5 5 5 5 5 5 5 5 5 5 5 5 5 5 5 
</DataArray>
</Cells>
<PointData Scalars="age_conc,U235_conc," Vectors="" Tensors="">
<DataArray type="Float64" Name="age_conc" format="ascii">
139897.21511771699 133136.22135831739 149757.24042612175 150621.21102250236 149955.92057294433 149717.69366024414 149847.34201585536 150679.56519082427 150712.48279012128 149650.73556442541 150655.71867895997 152375.22780047765 152510.85628150284 140008.2333958887 150392.76072164476 149941.52644067869 150777.63450859318 136237.45135322545 151395.27291686126 156167.69303246887 150383.63565104952 153438.97821630142 149894.65814510398 137087.31429171728 155842.85239653432 151937.38776018424 140948.41639447192 152620.77586698814 151780.98259083985 140878.18805624009 137800.84888513727 155719.24895384826 150582.83745526132 150940.86620240964 149754.02555500538 149992.71310430937 150034.37695196428 149984.24888585749 150059.59117651163 150069.49328396161 149954.81018464197 149978.45669924459 150045.75049337468 149980.31081508912 150059.43494028109 149973.49206464237 149989.04597024366 150005.98365296607 149993.90131766291 149996.20792535454 136471.91484575308 131406.39949575832 160990.59926379134 150000.39704348645 149994.9828019563 150003.37169242406 135465.67387536814 125703.20035917585 127456.13364847135 159404.76921410437 155165.53087608345 128815.94728207443 154644.09968376372 159048.26181694624 150007.25556706777 150010.97782047337 149953.41354292209 127323.93252470833 124444.89357802976 161656.81623185554 133399.58115240358 131982.84625399692 153550.52652622166 139183.89873746861 94344.000345718756 137255.37589178677 152230.4048819351 148889.35831013008 149866.64791507702 122817.820899171 125820.87985736597 162740.15718558664 149841.25663574785 149657.68452914874 150177.30110275504 149838.05797167236 150087.80740380869 150008.67625811719 130131.39433428209 135487.59523821948 161683.617049083 149990.22184392044 149988.21787223659 150040.51322392834 136686.28703218384 140005.080979697 155850.02795604992 150060.61277248233 149987.21100853599 149943.1779077159 150200.78897909983 149856.27075818199 149845.11249127187 150292.72603554049 150857.71019264541 148947.41598632088 134277.35558974693 140549.26148299137 127365.11198730621 136421.65548271532 129109.8002402507 113722.73651568838 150409.36278799654 149177.98561721412 149544.41081323361 150188.63538875018 149534.96783661511 150086.3206510914 147006.22837672054 154315.71350258181 147668.32340045809 147773.3200869906 152847.07905597668 149605.92867238668 155009.91568599912 149166.74202754511 144942.31902873123 148459.77733736686 151226.80998523685 150365.41556408236 158354.84668874927 146518.01083026791 133938.01743109844 2345.7170146751341 1143.7652877610599 184591.90852253034 2515.2009975773908 180494.19858570374 159963.09911738089 7092.1693603623426 131071.57230741766 179217.6769193857 159445.81655148996 121427.64355444739 159443.56668838669 116333.38573405234 130466.13067503949 93252.117394106099 121788.36035350774 118940.17618982377 92391.277776524235 147957.75296361637 139963.47770122864 154002.77978608254 4121.2682017887055 150238.52081492115 167455.44907548855 2656.0295580256425 3907.8386063412254 203099.12802581076 -4148.8869527481438 195169.26896859964 -1299.7336625887929 130401.61872097335 147345.42649157296 157330.86034837467 92060.175181087136 169328.58312656442 171775.51190021256 154355.96137827175 153769.90193837343 144256.70321509824 152221.82417760542 147002.86357103253 149481.65217668563 141388.95760346169 152633.80946572879 151335.82485683565 151379.03299950375 149353.28434080406 149897.39051272892 152259.58354852154 154025.80781429147 147816.20548444949 153125.24954632786 125724.92597671761 162824.1960995906 101930.02227448014 174485.74737308201 125760.94165546919 149514.44103149956 149975.04984157797 150720.13987549749 73822.026849846297 98258.495972048186 50517.086634070511 79400.690157625853 149256.86009058633 150823.23386918855 150564.31675108062 144999.07217728565 153298.40747531055 150719.10338142974 150131.5929230387 149754.40782764202 149303.55051375611 149433.42537678781 150059.39355979167 148488.16059955332 90353.010492812609 75039.908973778744 187905.60358741003 70763.654072467703 170170.20222162586 172072.77716046051 128259.5911701411 162597.66529640174 133488.12325588468 29814.182532975021 148464.04244442005 140186.5630106735 117313.94085937009 15379.793332161978 152998.77573841531 133139.01544399693 -5924.315897922248 21124.259029893503 140123.64628969313 150033.01697385032 -2102.9828846664968 128053.99812208826 158579.57900212606 134961.96723915701 79876.308829375208 185926.66880486201 70122.987007575575 129545.8890322948 150972.75163722917 153352.26608191335 133980.1246465302 150403.335499587 146146.63378195566 22731.679651905251 56929.336353955317 -3828.3537035664667 28638.41616360208 135326.60743347468 149960.79835256562 128367.99186158134 -2005.1647326630318 -1881.6070141459877 169685.45361477177 -5299.9583727428508 137188.27623244034 146956.46349159378 -5312.6881295946705 -5050.050565276124 166003.47573886949 -5453.3875612823194 160301.24993753372 -5453.3877963053856 -166.40689879855927 191663.09184572054 479.24576774963862 -2689.9523350254894 138973.3824954131 157894.35320508803 5888.009317427146 166583.16267624291 137890.31138341888 148547.3525818249 161411.0382122492 127884.79874816144 145067.62732194448 147626.44512100631 151686.63655166881 132066.69201433286 157313.95524881087 146296.95885201916 481.18021444222904 187529.28607610241 -848.53073961675545 -1475.5774407320496 -805.96224168546178 185746.04418008475 163407.50040955871 135623.71887451329 4417.9206109801125 939.98577493365883 723.32908637464197 189482.33293563727 2973.5262038502333 161857.14521423582 141329.52322100702 141622.28379155602 156756.10318757637 134470.17446170584 150577.7056037721 136942.4210209861 152273.16802145939 145611.18704084927 160944.6147612909 124121.6906729796 155858.83837399699 150778.74653804692 128331.52899879884 150074.52459527069 150021.34607462207 149314.17545953809 149293.43392692265 149359.03441103516 150222.21955698819 149985.82195113998 149743.99854445935 150253.3446066039 150333.10654644467 149654.15481887068 150021.92906410494 149961.26785707867 150039.7824867926 149883.35966667574 149941.75100449656 150006.35289193309 150028.64108567481 148859.90513867853 150039.85537483916 150490.60529168122 149944.42750435293 150062.95738500348 149947.62405044306 149124.65250003253 150261.70733873275 150214.74879039088 150068.99795560396 150049.2434149191 149949.30212904632 150126.27037596365 149549.57777291117 150188.61916472414 149595.76957719942 149025.66296170338 150389.25162730803 151905.85051758942 148082.03530802796 149960.15771634536 154227.05015626998 133480.91748907891 150780.34396803277 161656.70013282937 126613.31020308158 148197.24948051421 1917.2650429708083 168104.51692815201 133648.62129364727 184112.9195533981 2015.8125518856868 155150.84986153469 1485.085337505112 179103.89128857898 1692.4128906280548 
</DataArray>
<DataArray type="Float64" Name="U235_conc" format="ascii">
0.042752487516618767 0.078855130682788072 0.0022508963349494181 -0.0042810718852206 0.0020301755502711814 0.0022908394334295863 0.0024462931533125436 -0.0047371325867421304 -0.0033801877950115733 0.0056408754951892308 -0.0022606877001776575 -0.016008407075663998 -0.018022843405555336 0.055518903857137307 -4.6367075463051889e-05 0.0022913865742786674 -0.002245019498815616 0.079233197944252876 -0.009920149890408304 -0.043603835455385688 0.0074097048655698463 -0.017524933011183047 0.010115228145613206 0.074558125136735862 -0.040906049859432921 -0.012933871590167078 0.050366689344663457 -0.018566080459910334 -0.012238565462808295 0.044497411137416863 0.06499226838800623 -0.038536457087246886 -0.0020936316298641473 -0.0036708614823032183 0.0057644931121673647 0.00012508624863485519 -0.00033164974148267419 0.000206563492847819 -0.00047682361681394223 -0.00050644388740028984 0.00098326750421423212 0.00021731507573265158 -0.00051189439272209653 0.00031654333191809676 -0.00028082701831386528 0.00017454791218912731 0.00010627910612473795 -4.5382228018551509e-05 5.2062555986707415e-05 -4.5552801772534177e-06 0.069136572225989429 0.10150301313303456 -0.073921151451112665 -1.0290157844751608e-06 3.6064599248637392e-05 -3.2106183028323916e-05 0.062370730329747215 0.11425012257307546 0.13124035778359722 -0.060120358952965837 -0.040434332912766831 0.12310990817046098 -0.036855955994177646 -0.057677835536573643 -7.0048741117866354e-05 -0.00014870841978244513 0.00036067471544411471 0.11635106823813585 0.12995140457652835 -0.081704394916634504 0.078136201046214077 0.087570090993158989 -0.030743288205070232 0.031751840009199228 0.28884989672662242 0.044245832365104057 -0.014492308148599546 0.012532399008620526 0.0019599091399790198 0.13916135991520151 0.12420196808821919 -0.089071286707774061 0.001870639482430274 0.0037431508454494155 -0.0027280527970964573 0.0020859705519174956 -0.0012606035431845569 -0.00022607747346936637 0.10859372948223912 0.074226107012906245 -0.078783244663204924 0.00017752246186394368 0.00012435740262872649 -0.00030187986449267017 0.070698709968212703 0.04850064751451276 -0.039752903411559938 -0.00050827651387622737 7.7260033962218999e-05 0.00043104964339770379 -0.0019261934939326308 0.0011956877462093948 0.0013754329592315737 -0.0026493686805906876 -0.0074925750920450118 0.010142294183050014 0.073298817848154563 0.040005831714045335 0.10615545532915513 0.058257256408475372 0.090431674326520883 0.17207071682140729 -0.0043728009986914503 0.0067787757375900306 0.0034929363733224176 -0.0018977074775518644 0.0041184575204661978 -0.00097329425107119517 0.0014683000924118092 -0.028839806051432423 0.027371505959020614 0.02024931446826644 -0.023784941926014512 0.0037832481024914653 -0.053182971229153601 0.012752517270940478 0.043466329391025793 0.014193417494020606 -0.010890580360768561 -0.0030235513570924574 -0.078248814246092244 0.033858363151267112 0.078865784606227132 0.75482001172994928 0.73623275514790798 -0.24260728772450654 0.81771740480082356 -0.21658514835513815 -0.12215218336041742 0.7848741174354037 0.085018775964453369 -0.25645142625936024 -0.11208390623117823 0.17583106167044599 -0.048460376513127429 0.15909434441731396 0.084754101979388985 0.27163223438076101 0.12229328124669023 0.13668199776242906 0.27496181820515458 -0.037374582890900079 0.055756952844393276 -0.011042040258807236 0.81829357761911625 -0.025059781357445104 -0.2006850562626975 0.76712147574188005 0.73634626181248652 -0.35903736020063343 0.78401514701603059 -0.32317284779034899 0.77302935367221459 0.10997822476128023 0.014467752222873571 -0.065344232165017488 0.34317007086901163 -0.13997493497934879 -0.14032807797293093 -0.017381598230072518 -0.029266402411840788 0.046648000641913309 -0.015483641581240035 0.01896811605160879 0.0031302901262713614 0.038078127978370395 -0.014880500484383908 -0.0085455547717712722 -0.0083830844835659554 0.0060302156357901274 0.0023528688477758271 -0.0065060381927030553 -0.02208350430959987 0.028589542502302931 -0.020483494109366576 0.14721333397464989 -0.094561532800042314 0.27546052211870992 -0.17485079876072224 0.12700319203958096 0.0042141891072274007 0.00078573251942955897 -0.0049999216266569599 0.36156845815715788 0.2359417199871261 0.47316580664233693 0.32694300538559889 0.0077300919250698121 -0.004041785790570622 -0.0036883061344991897 0.030490238396705595 -0.025686044476345923 -0.003845757995714837 -0.0007572744147810789 0.00088904364197876036 0.0020075231437948105 0.0010332106622056979 -0.00055733855271562674 0.0051421359385355088 0.30877729636635975 0.4116618884124989 -0.26096447212723506 0.46091234040604973 -0.16839307362736183 -0.15045336761091796 0.12366628295293941 -0.092041969453596439 0.059060371758927893 0.66959890996040339 -0.026627499679631683 -0.016381836656319176 0.10665046529254102 0.70763878200075392 -0.064308148308527227 0.028830492019712106 0.77417707200182129 0.62786145207916078 0.0169024701107095 -0.077753807654142498 0.81200165425016446 0.10392806779015445 -0.054734389307613367 0.045799831580249736 0.33552599289876217 -0.25656986898866668 0.42569214273577044 0.099380332854161299 -0.010721975291476799 -0.027910786063652736 0.076806645368859408 -0.0057586958353764393 -0.0013933164348796725 0.60736854399584006 0.43789936571917931 0.73334762407581289 0.58350863108200723 0.069757451475556342 -0.019537669305542391 0.062625566738452668 0.76783291062511383 0.74443207719298177 -0.15753615245355918 0.83506160706825716 0.03580969526047359 -0.078625478221042489 0.77533868919803139 0.77389705421533406 -0.15361148385290038 0.77285645187718532 -0.12009841458704509 0.77285644909014273 0.77244900487256007 -0.29040897900623669 0.74694579406352468 0.83368993351689091 -0.02988381283071212 -0.083813510267855787 0.79109491726673864 -0.18478995822899674 0.044059481712804077 -0.040847807283249979 -0.067645587094936357 0.12969906616532606 0.011612156223506767 0.012006298737020301 -0.0099896376329015463 0.097955551090450108 -0.055190509776504255 0.017540674393869055 0.76407444420828452 -0.26511186678837595 0.75178652833762294 0.75604360726179132 0.76864368671113348 -0.25740429761370226 -0.16760299845340554 0.056314138052318635 0.795725945383575 0.74283900861483443 0.7657705120700794 -0.27613397996067035 0.80538960349917976 -0.15837311660755518 0.021235072351348167 0.0071344864434799878 -0.035809545544169201 0.074538034229797809 -0.0070506860328340259 0.06197308889029722 -0.016321878441413338 -0.029123100229177561 -0.076067390606345653 0.15158547644399456 -0.053824800081467089 -0.0078609481461660875 0.12258148830783543 -5.630845176880046e-06 -0.0037667401054065895 0.0052653274509045951 -0.0016774154193534916 0.0068432530404933098 -0.0044450232101387235 8.5325052820399219e-05 0.0019319511406983045 -0.0019040102420714836 -0.0023915023466253836 0.0026333283903920706 -0.00023829387262047701 0.00026577228174335906 -0.00042145739148248909 0.00075369903829307263 0.00027065006750117099 7.3673170789863721e-05 -0.00034432323829103469 0.0052901911971202972 -0.0013294389676688442 -0.0024870774619771283 0.0012407994190370337 0.00041103448072541397 -0.0016518338997624478 0.0039819223398032851 -0.001582689545159611 -0.0011382314938287424 -0.00017831674492012968 -0.00026887717573880913 0.00044719392065893876 -0.0014678924130656333 0.0051298249585096664 -0.0028634247277876399 0.0050456316335470291 0.0064266006409003694 -0.0054304548402115665 -0.026692412548722389 0.018890055313359598 0.0078023572353627902 -0.045346945795285032 0.079220609921976951 0.00065058190603259694 -0.066913023045086423 0.12849728356473122 -0.035075139393095769 0.80175630571067757 -0.18688948327699212 0.061849958533959554 -0.23942697776890853 0.81694248774493561 -0.09114453763352591 0.75686367908889851 -0.20989407105894378 0.72985914355227877 
</DataArray>
</PointData>
</Piece>
</UnstructuredGrid>
</VTKFile>
