<?xml version="1.0"?>
<VTKFile type="UnstructuredGrid" version="0.1" byte_order="LittleEndian">
<UnstructuredGrid>
<Piece NumberOfPoints="360" NumberOfCells="124">
<Points>
<DataArray type="Float64" NumberOfComponents="3" format="ascii">
0 0.25 0 0.1249999999997599 0.31249999999987998 0 0 0 0 0.1249999999997554 0 0 0.084352422163911631 0.086451712656266194 0 0 0 0 0.084352422163911631 0.086451712656266194 0 0 0.12500000000034689 0 0 0.12500000000034689 0 0.084352422163911631 0.086451712656266194 0 0.1008171452988615 0.18885703697250469 0 0 0.12500000000034689 0 0.1008171452988615 0.18885703697250469 0 0 0.25 0 0.1008171452988615 0.18885703697250469 0 0.084352422163911631 0.086451712656266194 0 0.18402761812864499 0.1117324051466445 0 0.1249999999997599 0.31249999999987998 0 0.1008171452988615 0.18885703697250469 0 0.2403886547178353 0.24188814792673841 0 0.18402761812864499 0.1117324051466445 0 0.2403886547178353 0.24188814792673841 0 0.1008171452988615 0.18885703697250469 0 0.31250000000020822 0.12500000000041631 0 0.2403886547178353 0.24188814792673841 0 0.18402761812864499 0.1117324051466445 0 0.25 -0 0 0.18402761812864499 0.1117324051466445 0 0.1249999999997554 0 0 0.25 -0 0 0.31250000000020822 0.12500000000041631 0 0.18402761812864499 0.1117324051466445 0 0.1249999999997554 0 0 0.18402761812864499 0.1117324051466445 0 0.084352422163911631 0.086451712656266194 0 0.25 -0 0 0.43749999999913258 0 0 0.31250000000020822 0.12500000000041631 0 0.43749999999913258 0 0 0.54475767668582953 0.1431838882066932 0 0.4287911518546233 0.15455445427966699 0 0.31250000000020822 0.12500000000041631 0 0.43749999999913258 0 0 0.4287911518546233 0.15455445427966699 0 0.54475767668582953 0.1431838882066932 0 0.49457493289300231 0.26251703776555491 0 0.4287911518546233 0.15455445427966699 0 0.37500000000027761 0.25000000000055511 0 0.4287911518546233 0.15455445427966699 0 0.49457493289300231 0.26251703776555491 0 0.31250000000020822 0.12500000000041631 0 0.37500000000027761 0.25000000000055511 0 0.2403886547178353 0.24188814792673841 0 0.31250000000020822 0.12500000000041631 0 0.4287911518546233 0.15455445427966699 0 0.37500000000027761 0.25000000000055511 0 0.1249999999997599 0.31249999999987998 0 0.24999999999960859 0.37499999999980432 0 0.24999999999960859 0.37499999999980432 0 0.2403886547178353 0.24188814792673841 0 0.33819444444448321 0.33819444444456342 0 0.37500000000027761 0.25000000000055511 0 0.33819444444448321 0.33819444444456342 0 0.2403886547178353 0.24188814792673841 0 0.37500000000027761 0.25000000000055511 0 0.49457493289300231 0.26251703776555491 0 0.43750000000006939 0.37500000000013878 0 0.37500000000027761 0.25000000000055511 0 0.43750000000006939 0.37500000000013878 0 0.33819444444448321 0.33819444444456342 0 0.43750000000006939 0.37500000000013878 0 0.37499999999973488 0.43749999999986738 0 0.33819444444448321 0.33819444444456342 0 0.43750000000006939 0.37500000000013878 0 0.5 0.5 -0 0.37499999999973488 0.43749999999986738 0 0.37499999999973488 0.43749999999986738 0 0.26452443700674649 0.51563531581639865 0 0.24999999999960859 0.37499999999980432 0 0.37499999999973488 0.43749999999986738 0 0.24999999999960859 0.37499999999980432 0 0.33819444444448321 0.33819444444456342 0 0.24999999999960859 0.37499999999980432 0 0.26452443700674649 0.51563531581639865 0 0.14929124186975251 0.44582793568106382 0 0.24999999999960859 0.37499999999980432 0 0.14929124186975251 0.44582793568106382 0 0.1249999999997599 0.31249999999987998 0 0.24999999999960859 0.37499999999980432 0 0.1249999999997599 0.31249999999987998 0 0.2403886547178353 0.24188814792673841 0 0 0.25 0 0.1249999999997599 0.31249999999987998 0 0 0.43750000000034689 0 0.1249999999997599 0.31249999999987998 0 0 0.25 0 0.1008171452988615 0.18885703697250469 0 0 0.43750000000034689 0 0.1249999999997599 0.31249999999987998 0 0.14929124186975251 0.44582793568106382 0 0 0.43750000000034689 0 0.14929124186975251 0.44582793568106382 0 0.13928587515912139 0.57339806105677438 0 0 0.43750000000034689 0 0.13928587515912139 0.57339806105677438 0 0 0.62500000000069389 0 0.31250000000020822 0.12500000000041631 0 0.25 -0 0 0.37500000000027761 0.25000000000055511 0 0.31250000000020822 0.12500000000041631 0 0.24999999999960859 0.37499999999980432 0 0.37499999999973488 0.43749999999986738 0 0.26452443700674649 0.51563531581639865 0 0.27589467050686478 0.66058853156435704 0 0.13928587515912139 0.57339806105677438 0 0.26452443700674649 0.51563531581639865 0 0.13928587515912139 0.57339806105677438 0 0.14929124186975251 0.44582793568106382 0 0.27987960212930818 0.83442741470570525 0 0.13900789599611679 0.72618316107059999 0 0.27589467050686478 0.66058853156435704 0 0.27589467050686478 0.66058853156435704 0 0.13900789599611679 0.72618316107059999 0 0.13928587515912139 0.57339806105677438 0 0 0.81250000000104083 0 0 0.62500000000069389 0 0.13900789599611679 0.72618316107059999 0 0 0.62500000000069389 0 0.13928587515912139 0.57339806105677438 0 0.13900789599611679 0.72618316107059999 0 0 0.81250000000104083 0 0.13900789599611679 0.72618316107059999 0 0.12710107136012311 0.87094806618203435 0 0.1875000000005205 1 0 0 1 0 0.12710107136012311 0.87094806618203435 0 0 1 0 0 0.81250000000104083 0 0.12710107136012311 0.87094806618203435 0 0.1875000000005205 1 0 0.12710107136012311 0.87094806618203435 0 0.27987960212930818 0.83442741470570525 0 0.27987960212930818 0.83442741470570525 0 0.12710107136012311 0.87094806618203435 0 0.13900789599611679 0.72618316107059999 0 0.43750000000006939 0.37500000000013878 0 0.37500000000027761 0.25000000000055511 0 0.5 0.5 -0 0.43750000000006939 0.37500000000013878 0 0.37499999999973488 0.43749999999986738 0 0.5 0.5 -0 0.44927105396715372 0.85565124085155886 0 0.27987960212930818 0.83442741470570525 0 0.38136204680495073 0.74038592213831234 0 0.37500000000069389 1 0 0.27987960212930818 0.83442741470570525 0 0.44927105396715372 0.85565124085155886 0 0.37500000000069389 1 0 0.1875000000005205 1 0 0.27987960212930818 0.83442741470570525 0 0.37500000000069389 1 0 0.44927105396715372 0.85565124085155886 0 0.56250000000086742 1 0 0.44927105396715372 0.85565124085155886 0 0.38136204680495073 0.74038592213831234 0 0.50145856933078625 0.73674663046504862 0 0.5625 0.625 0 0.50145856933078625 0.73674663046504862 0 0.4139414069912184 0.60563252640100373 0 0.4139414069912184 0.60563252640100373 0 0.50145856933078625 0.73674663046504862 0 0.38136204680495073 0.74038592213831234 0 0.4139414069912184 0.60563252640100373 0 0.38136204680495073 0.74038592213831234 0 0.27589467050686478 0.66058853156435704 0 0.27987960212930818 0.83442741470570525 0 0.27589467050686478 0.66058853156435704 0 0.38136204680495073 0.74038592213831234 0 0.4139414069912184 0.60563252640100373 0 0.27589467050686478 0.66058853156435704 0 0.26452443700674649 0.51563531581639865 0 0.37499999999973488 0.43749999999986738 0 0.4139414069912184 0.60563252640100373 0 0.26452443700674649 0.51563531581639865 0 0.37499999999973488 0.43749999999986738 0 0.5 0.5 -0 0.4139414069912184 0.60563252640100373 0 0.5625 0.625 0 0.4139414069912184 0.60563252640100373 0 0.5 0.5 -0 0.5625 0.625 0 0.5 0.5 -0 0.63236534182377013 0.50296756406332266 0 0.5625 0.625 0 0.5 0.5 -0 0.625 0.75 0 0.5625 0.625 0 0.5625 0.625 0 0.63236534182377013 0.50296756406332266 0 0.71259747807844409 0.63846691315701831 0 0.75338430262320943 0.49294443423175599 0 0.71259747807844409 0.63846691315701831 0 0.63236534182377013 0.50296756406332266 0 0.5625 0.625 0 0.71259747807844409 0.63846691315701831 0 0.625 0.75 0 0.625 0.75 0 0.71259747807844409 0.63846691315701831 0 0.73857795170433571 0.77736788564284653 0 0.5625 0.625 0 0.625 0.75 0 0.50145856933078625 0.73674663046504862 0 0.625 0.75 0 0.56777512057187585 0.8470224641095303 0 0.50145856933078625 0.73674663046504862 0 0.44927105396715372 0.85565124085155886 0 0.50145856933078625 0.73674663046504862 0 0.56777512057187585 0.8470224641095303 0 0.56250000000086742 1 0 0.44927105396715372 0.85565124085155886 0 0.56777512057187585 0.8470224641095303 0 0.6875 0.875 0 0.56250000000086742 1 0 0.56777512057187585 0.8470224641095303 0 0.6875 0.875 0 0.75 1 0 0.56250000000086742 1 0 0.6875 0.875 0 0.80552984491000901 0.88711122872127413 0 0.75 1 0 0.6875 0.875 0 0.73857795170433571 0.77736788564284653 0 0.80552984491000901 0.88711122872127413 0 0.6875 0.875 0 0.56777512057187585 0.8470224641095303 0 0.625 0.75 0 0.6875 0.875 0 0.625 0.75 0 0.73857795170433571 0.77736788564284653 0 0.80552984491000901 0.88711122872127413 0 0.73857795170433571 0.77736788564284653 0 0.85787927391517405 0.753532520882502 0 0.6875 0.875 0 0.625 0.75 0 0.75 1 0 0.6875 0.875 0 0.80552984491000901 0.88711122872127413 0 0.85787927391517405 0.753532520882502 0 0.90637953422180084 0.90208583328057301 0 0.875 1 0 0.75 1 0 0.80552984491000901 0.88711122872127413 0 0.875 1 0 0.80552984491000901 0.88711122872127413 0 0.90637953422180084 0.90208583328057301 0 1 1 0 0.875 1 0 0.90637953422180084 0.90208583328057301 0 1 1 0 0.90637953422180084 0.90208583328057301 0 1 0.83333333333356463 0 1 0.83333333333356463 0 0.85787927391517405 0.753532520882502 0 1 0.66666666666736052 0 1 0.83333333333356463 0 0.90637953422180084 0.90208583328057301 0 0.85787927391517405 0.753532520882502 0 1 0.66666666666736052 0 0.85787927391517405 0.753532520882502 0 0.86127466977819722 0.57948076978797636 0 0.85787927391517405 0.753532520882502 0 0.71259747807844409 0.63846691315701831 0 0.86127466977819722 0.57948076978797636 0 0.85787927391517405 0.753532520882502 0 0.73857795170433571 0.77736788564284653 0 0.71259747807844409 0.63846691315701831 0 0.86127466977819722 0.57948076978797636 0 0.71259747807844409 0.63846691315701831 0 0.75338430262320943 0.49294443423175599 0 1 0.66666666666736052 0 0.86127466977819722 0.57948076978797636 0 1 0.50000000000138767 0 1 0.33333333333448978 0 1 0.50000000000138767 0 0.86569408477091048 0.40983673916766611 0 0.86127466977819722 0.57948076978797636 0 0.86569408477091048 0.40983673916766611 0 1 0.50000000000138767 0 1 0.16666666666736049 0 1 0.33333333333448978 0 0.86087286690217635 0.25206523597959418 0 1 0.33333333333448978 0 0.86569408477091048 0.40983673916766611 0 0.86087286690217635 0.25206523597959418 0 0.86569408477091048 0.40983673916766611 0 0.71826039492840632 0.34564020717216182 0 0.86087286690217635 0.25206523597959418 0 0.71508993406183785 0.15715956854777599 0 0.86087286690217635 0.25206523597959418 0 0.71826039492840632 0.34564020717216182 0 0.86127466977819722 0.57948076978797636 0 0.75338430262320943 0.49294443423175599 0 0.86569408477091048 0.40983673916766611 0 0.75338430262320943 0.49294443423175599 0 0.71826039492840632 0.34564020717216182 0 0.86569408477091048 0.40983673916766611 0 0.56986707178436635 0.37762093650871992 0 0.71826039492840632 0.34564020717216182 0 0.63236534182377013 0.50296756406332266 0 0.75338430262320943 0.49294443423175599 0 0.63236534182377013 0.50296756406332266 0 0.71826039492840632 0.34564020717216182 0 0.43750000000006939 0.37500000000013878 0 0.56986707178436635 0.37762093650871992 0 0.5 0.5 -0 0.5 0.5 -0 0.56986707178436635 0.37762093650871992 0 0.63236534182377013 0.50296756406332266 0 0.43750000000006939 0.37500000000013878 0 0.49457493289300231 0.26251703776555491 0 0.56986707178436635 0.37762093650871992 0 0.56986707178436635 0.37762093650871992 0 0.49457493289300231 0.26251703776555491 0 0.61108462585082757 0.25750599582343231 0 0.71508993406183785 0.15715956854777599 0 0.71826039492840632 0.34564020717216182 0 0.61108462585082757 0.25750599582343231 0 0.56986707178436635 0.37762093650871992 0 0.61108462585082757 0.25750599582343231 0 0.71826039492840632 0.34564020717216182 0 0.71508993406183785 0.15715956854777599 0 0.61108462585082757 0.25750599582343231 0 0.54475767668582953 0.1431838882066932 0 0.54475767668582953 0.1431838882066932 0 0.61108462585082757 0.25750599582343231 0 0.49457493289300231 0.26251703776555491 0 0.43749999999913258 0 0 0.62499999999895905 0 0 0.54475767668582953 0.1431838882066932 0 0.62499999999895905 0 0 0.71508993406183785 0.15715956854777599 0 0.54475767668582953 0.1431838882066932 0 0.81249999999947953 0 0 0.71508993406183785 0.15715956854777599 0 0.62499999999895905 0 0 0.81249999999947953 0 0 0.87698901648812122 0.1160638338657984 0 0.71508993406183785 0.15715956854777599 0 0.71508993406183785 0.15715956854777599 0 0.87698901648812122 0.1160638338657984 0 0.86087286690217635 0.25206523597959418 0 1 0.16666666666736049 0 0.86087286690217635 0.25206523597959418 0 0.87698901648812122 0.1160638338657984 0 0.81249999999947953 0 0 1 0 0 0.87698901648812122 0.1160638338657984 0 1 0.16666666666736049 0 0.87698901648812122 0.1160638338657984 0 1 0 0 
</DataArray>
</Points>
<Cells>
<DataArray type="UInt32" Name="connectivity" format="ascii">
0 1 2 3 4 5 6 7 8 9 10 11 12 13 14 15 16 17 18 19 20 21 22 23 24 25 26 27 28 29 30 31 32 33 34 35 36 37 38 39 40 41 42 43 44 45 46 47 48 49 50 51 52 53 54 55 56 57 58 59 60 61 62 63 64 65 66 67 68 69 70 71 72 73 74 75 76 77 78 79 80 81 82 83 84 85 86 87 88 89 90 91 92 93 94 95 96 97 98 99 100 101 102 103 104 105 106 107 108 109 110 111 112 113 114 115 116 117 118 119 120 121 122 123 124 125 126 127 128 129 130 131 132 133 134 135 136 137 138 139 140 141 142 143 144 145 146 147 148 149 150 151 152 153 154 155 156 157 158 159 160 161 162 163 164 165 166 167 168 169 170 171 172 173 174 175 176 177 178 179 180 181 182 183 184 185 186 187 188 189 190 191 192 193 194 195 196 197 198 199 200 201 202 203 204 205 206 207 208 209 210 211 212 213 214 215 216 217 218 219 220 221 222 223 224 225 226 227 228 229 230 231 232 233 234 235 236 237 238 239 240 241 242 243 244 245 246 247 248 249 250 251 252 253 254 255 256 257 258 259 260 261 262 263 264 265 266 267 268 269 270 271 272 273 274 275 276 277 278 279 280 281 282 283 284 285 286 287 288 289 290 291 292 293 294 295 296 297 298 299 300 301 302 303 304 305 306 307 308 309 310 311 312 313 314 315 316 317 318 319 320 321 322 323 324 325 326 327 328 329 330 331 332 333 334 335 336 337 338 339 340 341 342 343 344 345 346 347 348 349 350 351 352 353 354 355 356 357 358 359 
</DataArray>
<DataArray type="UInt32" Name="offsets" format="ascii">
2 5 8 11 14 17 20 23 26 29 32 35 38 41 44 47 50 53 56 58 61 64 67 70 73 76 79 82 85 88 91 94 97 100 103 106 108 110 112 115 118 121 124 127 130 133 136 139 142 145 147 149 151 154 157 160 163 166 169 172 175 178 181 184 187 190 193 195 197 200 203 206 209 212 215 218 221 224 227 230 233 236 239 242 244 246 249 252 255 258 261 264 267 270 273 276 279 282 285 288 291 294 297 300 303 306 309 312 315 318 321 324 327 330 333 336 339 342 345 348 351 354 357 360 
</DataArray>
<DataArray type="UInt32" Name="types" format="ascii">
3 5 5 5 5 5 5 5 5 5 5 5 5 5 5 5 5 5 5 3 5 5 5 5 5 5 5 5 5 5 5 5 5 5 5 5 3 3 3 5 5 5 5 5 5 5 5 5 5 5 3 3 3 5 5 5 5 5 5 5 5 5 5 5 5 5 5 3 3 5 5 5 5 5 5 5 5 5 5 5 5 5 5 5 3 3 5 5 5 5 5 5 5 5 5 5 5 5 5 5 5 5 5 5 5 5 5 5 5 5 5 5 5 5 5 5 5 5 5 5 5 5 5 5 
</DataArray>
</Cells>
<PointData Scalars="age_conc,U235_conc," Vectors="" Tensors="">
<DataArray type="Float64" Name="age_conc" format="ascii">
367011.95886836777 340346.99750222196 453738.06103690487 444968.99283701682 455404.95217045356 453137.85735461698 453619.62970727106 445292.73263588955 445036.23946622905 455485.59256996808 445312.10730466415 452547.09594572458 442596.31749658671 366359.61143759126 447980.32119347743 452499.62941552454 455101.0350073342 338835.31497550348 444808.31048112689 467116.38903989102 455833.0413538033 459467.26227324217 447952.81708733557 350781.66951701971 464967.6859333241 451104.13729583984 375410.92915834568 447559.26922780293 450020.89318199357 376331.86378075025 356229.1986916301 454333.41404369008 444288.16391706938 449764.72818240459 457115.95632216049 450191.28349436831 449079.85436326254 450290.3502272027 448298.13498324662 447836.50784578174 451390.00158122036 450412.8705035724 448892.68423154094 450390.38033159322 450421.2258638441 446441.15754130861 450014.16431579978 450094.78101666283 449268.54600470426 447519.21583235561 350574.07462356595 328972.94853021705 474459.24153848866 450098.71959552582 449081.32495041634 449759.84817642428 343431.27189643617 308647.0093774923 308222.8095467228 481808.45578376681 420812.55826993467 324744.58574477379 420512.58476568147 477960.6101735644 450147.40414597717 447829.01694918977 448422.65011642408 326161.08676943858 305335.07520319446 427402.49122893496 329611.73452654638 306376.36545178521 407442.32679840509 336260.85022859683 205634.27970577695 310101.51889644569 458611.78728344565 449185.32314117433 452478.65405429679 284446.42097612069 309469.42775029264 430036.54757284111 452139.31362536614 448352.10489655862 447878.30133655132 451546.99980332737 448303.33333689085 449961.54288813792 313567.56733039394 338246.84958366182 478351.59794376855 450088.3562553933 449694.14053310838 449775.50207231747 344474.80117304769 367730.21263384441 450116.67445264716 449852.97362008755 449839.60938883538 448670.07021305634 450539.0212172647 448998.31522756472 445189.29020643159 452997.20673880959 446225.47378635377 444265.8439227363 352755.67205942882 376060.31668262481 325091.62229708728 355254.6534085208 312568.61823279486 262146.16953254736 449295.11150888319 428045.43307255529 446111.99810135836 447269.23140534811 444301.38127135136 450441.11627951358 313847.26079648518 419718.21641994792 440477.82982075919 429112.24022770685 413850.47709833778 454907.63101407612 355431.74819673016 465783.46316595899 412935.47036516777 447618.41150067904 449376.82099899126 416182.5044366183 357512.40125069872 426713.25342462928 258453.80646673607 2466.7955441778568 4104.8288659174987 284247.95708394394 2479.6854264215835 379961.3155417667 277162.14458440675 5433.0999518136159 256410.62412242449 326092.02014244744 317765.93156950333 248844.11300763043 447292.38677907537 285305.83301674703 328232.53509206866 207653.12936793888 290445.68185881153 265738.36481341039 199451.26709331232 283812.18229059363 303674.33972421446 418435.00289004442 -1896.3906990550522 306143.32971393742 292260.64492694516 684.88230019619505 5668.289640075267 333090.86122349923 -2398.7681216735773 298656.10019299242 1472.3295605735993 265171.08386585419 385670.28746483545 414222.53654220566 169924.44324430899 435121.60258719721 506744.41454953601 475026.35268608003 407769.17228121369 374629.32513793447 456673.47042507032 382690.14852528548 428057.44224061159 300873.88882129744 456933.95749725471 406444.76897571108 450189.32893346029 425230.87391705986 453854.45977579389 458524.17552985472 461913.28283179877 450306.3773445093 452515.60444394045 265548.60663102695 489313.3051354615 181000.09045035442 509346.83844134287 265771.97659634787 438933.63505686616 450642.22926892241 448304.49057001946 145120.16277917477 208367.89220105999 85752.761634103328 147746.00801823023 440965.68374184362 450400.58424687939 430493.35859251296 361337.65977574704 440834.30395061872 451775.52969728509 445508.76889538951 428549.12671506876 407525.84722756286 409794.83055917505 433657.99659240502 387478.47421724908 171821.82431314126 135861.1352921417 450790.65620225301 148591.13313214682 339111.10995374707 426005.33009186498 265834.12490300846 423432.88125694694 271856.53582499636 35028.807691990907 287494.83272813179 265809.04013184452 177181.78702114467 33015.647909191379 270696.71235207247 180161.00209457602 -1417.8237605440702 35048.160266233215 255557.95068654319 244406.39174043923 -1635.8000038607424 242600.78762093137 417301.93365655118 251360.63333701296 128330.52773254516 346913.24693746987 153610.84407132913 241992.84072544158 403222.79036749998 406204.20033618738 282120.22697826731 394495.98958616122 320626.33643669373 32145.289775644043 88491.528839369887 -3776.438926587155 35254.331419066904 287722.4134302524 327589.26425943262 215935.43393832142 -232.59785862602439 -695.28904486609167 248794.26520437095 -1589.3726381594875 245178.18972213459 226370.5509533908 -773.21988958827205 -331.09586523368853 229695.90946527332 -741.89826022295836 218470.98610934865 -741.89857104421856 -81.867837364867682 302782.13086288155 -72.429568851514887 -1734.78181314014 214827.21537314288 298461.83105244918 464.82492072784407 296221.78589560045 266472.31863486406 293155.65699774248 465655.45595759241 257925.31444294495 320307.23759821441 385098.50927447906 436388.86066485971 260776.70709177561 453210.21862026339 367741.45128514833 681.89189166326605 286602.33138170349 1970.640542451034 1513.2637233646042 490.08957115195108 280395.47856514656 280846.50944688043 258535.646282514 2046.7735515297281 3140.3104139710231 857.21307196747762 294526.64628328133 1263.0919247768943 274850.60374497727 272993.1507618702 266684.53349837445 436350.34327967401 276209.47849898256 415330.90733108768 278636.86748762726 421975.47682341485 274001.27996470209 418780.64703918266 252489.87002431456 407803.72988164809 411953.07983171503 252329.6360113133 449741.40057398082 408281.79698086757 434451.70518529392 383653.91379047354 441266.28913776029 410468.62072815589 449868.34197737329 441229.55588678428 452989.32572497393 454719.4146405721 441429.3832321153 440754.71030125773 449251.44285702053 448385.20280535991 442356.27204410499 442449.33219714451 450540.16216934053 439687.06760004471 406134.6598520322 413018.68651389476 454769.42895698437 446233.12808602751 442654.45909634768 412185.66203129786 406754.59604426182 448694.47802011645 455327.30603884539 451535.68434843025 442383.81075384986 447070.42635904328 450701.15917419619 448399.72611415858 442497.88877083466 451567.56123548915 416703.87907178613 445145.18533645244 351784.98433904455 427258.98436661804 465764.5184114048 353898.59611031349 257197.41757243808 441899.756373015 458988.69744664757 253450.34973956743 283625.61926996161 2273.6690528494764 289020.20744599099 253024.87174299583 383714.86114824726 2202.3921189415537 266622.8718187206 1642.3497353130224 273466.54959770106 3997.3636656302015 
</DataArray>
<DataArray type="Float64" Name="U235_conc" format="ascii">
0.20022025341378771 0.26385085190556723 -0.0030681195000025942 0.0077925226759812637 -0.0045911540064602629 -0.0022722969508399736 -0.0011968563416230504 0.0068910146263703644 0.0061886341526705205 -0.0066812436461436177 0.014163886956714033 -0.019768296088084648 0.0091467899408501901 0.21245402564161192 0.01116186840747534 -0.0015140624376738733 -0.0067190506868411116 0.29396498036908641 -0.0003909877458741981 -0.073548712057762977 0.0066048847632815119 -0.032498430391575669 0.025893545628294157 0.26088082242806027 -0.063653633267970772 -0.017018769777917647 0.18967658531384618 -0.0042240605593789025 -0.011090320753510579 0.17951216175601328 0.23895575970223934 -0.021374355857639964 0.0092103526218217085 0.0022286371036252272 -0.0082827893442919635 -0.00084440783118571654 0.0035238890494608253 -0.0015072646972026454 0.0076459344413543308 0.0029073962091131049 -0.0070112753653343964 -0.0016603709496109949 0.0046496889438328191 -0.0029476555246944697 -0.0077049983531144598 0.0084826098994620902 0.00076655769422241985 -0.0013118219866455549 0.0016937072159913631 0.0042948701695931244 0.25125033575535116 0.30332300650280419 -0.083520751530710119 -0.000329329199342161 0.0022506345387214815 -0.00036565197312395906 0.25805247970925549 0.33789731723842314 0.35574720356334238 -0.11149399768329181 0.060450610696316756 0.31133914678657326 0.061884695514735577 -0.098195874505590558 -0.00067804356940112372 0.0025499443336880171 0.0044785307613153195 0.29369518386284932 0.34338868500813158 0.051508242662142018 0.28215953820471756 0.35286369682616192 0.0905401351956239 0.27430387890810048 0.56798188257203708 0.35086243276911216 -0.027036316136147116 0.029221170930695574 -0.0015753310651307425 0.40096241577235375 0.33497765482271735 0.042769107183871266 0.0069746658973347912 0.019894348926784156 0.0013817603747704197 0.0088474744842666868 0.0012986326440381901 0.00020557140923459336 0.34445767780942604 0.28393145640151152 -0.098077103755098052 -0.00038976933132812232 0.00058354232544581054 0.00052747206872729997 0.26966651215461263 0.19982479488150287 -0.010829411162917461 0.00025286756203120569 0.00016713369067248933 0.0024002359213930353 -0.00039273852458758985 0.0020879190938539924 0.009027372843104951 -0.0029635581616427771 0.0092684243094111399 -0.0012679738943604322 0.23182400746165391 0.17747739949575275 0.29617349079886751 0.22792414035783642 0.33201175330036559 0.44517959997069945 0.0037993008831356187 0.046092567911768419 0.0014667307733362972 0.0080792387118472052 0.0082296444260378972 -0.00039929043870592842 0.3642726972356769 0.052902774102333044 -0.026730518371994604 0.026229095761680671 0.082861952729968491 -0.025345557059108199 0.2709556849187833 -0.08154094148952365 0.038218828750438846 -0.018478467209275994 0.00022636585133729874 0.06648217504040882 0.25175762388013057 -0.017436584144329095 0.49426823627937833 0.95371511348579219 0.94914515810741173 0.54901335748752755 0.9405123924409341 0.21397416739572811 0.49797691758223928 0.94538575431275396 0.47548415934862165 0.39834502382448533 0.37453772399982149 0.47568318600333531 -0.054399932668157146 0.38687057533946528 0.29292137007026059 0.56144223769260893 0.38314708953682125 0.44660075100185515 0.58281815869525533 0.44882644955750362 0.34288878048499249 0.026971475736329936 0.95757072276575772 0.36763144043869583 0.47599980164809685 0.95823967562515355 0.9496171691193499 0.44472688638458402 0.95104330054671626 0.53471455434719917 0.94634364664016823 0.47218403173454265 0.14401041953357105 0.043782055256668811 0.68731167441145657 0.019047713271337616 -0.18874101458050613 -0.10935074950983166 0.069470238211363819 0.18990318086921082 -0.04734435471055936 0.17018405283701754 0.044686661360749662 0.38154399076768042 -0.062978782330440727 0.076510355450450568 -0.022755887128379729 0.059383195740369106 -0.01223313738815736 -0.0029077148605545222 -0.044245286787064408 0.047153001647618931 -0.034382722244168398 0.50239769260297706 -0.1608662564736808 0.6802482163240261 -0.1976854119858602 0.48475471848986684 0.030841307797372992 -0.0028480898184855062 -0.019299812940778927 0.70014490326680634 0.57056855860091371 0.82431667681262943 0.70736656271366838 0.024860020657412538 -0.024751894669083299 0.022231113082656372 0.2381314445504954 -0.034445678167558641 -0.035978837004961649 -0.0033425632661912737 0.031806810380078133 0.089623708796789214 0.077426395169065618 0.012401050521075032 0.13064838220024239 0.66548534901189893 0.72178248777148757 0.014732590234824039 0.65664658845061163 0.31820242102973439 0.04264140690269258 0.44895191897454489 0.021847305488951946 0.43248609494303936 0.91253059369235756 0.4354924109087186 0.47284775244679 0.70127123949885828 0.87897905344863692 0.48608768067310948 0.74641240094872463 0.94769072638653895 0.90452508462983749 0.50291755525215154 0.57483685854927746 0.94604161038064127 0.51286097200750513 0.03325724313055986 0.5078953210911562 0.75352392836335125 0.32973995808676365 0.63684655777312671 0.5338875502381053 0.083824027949081614 0.063736174893989167 0.40265169228634085 0.094071602255991343 0.31194865925573673 0.92461522943080232 0.83787502030048733 0.97510897184477685 0.93975198518597225 0.37259707498231143 0.284703424071723 0.60215024593448729 0.95259432986825532 0.95963102227417751 0.62146389151206571 0.93340193654916725 0.52554464603705875 0.62848759724659276 0.94631796379858868 0.94560498397357995 0.67671765690912644 0.94662348802211627 0.69770644293236328 0.94662348412180952 0.95439158131560986 0.50786834346392806 0.96151592313609169 0.93959027225143699 0.64384936555588201 0.41068251880116369 0.95981764433950434 0.45622039249079782 0.46311661829233108 0.41944057924543521 -0.10735909614517339 0.46718969261786436 0.3239818083097426 0.12751572488544913 -0.0060361838158565495 0.48761703902231324 -0.073028949551164554 0.2048512581785544 0.95454090706564509 0.55106982247360525 0.94893672611862645 0.94922921010113059 0.95148083547096229 0.56537601881135946 0.50063923118866449 0.4804449853483449 0.94822320154243667 0.95117926768767447 0.95387692728380868 0.52944061517070584 0.94675257300338056 0.51414708729348946 0.44926110745447778 0.48618939161890795 -0.017483235194976646 0.42095271031058312 0.061332072310177316 0.44003744778405507 0.026682414361639192 0.47116814223323727 0.036218257541461879 0.46338809233497308 0.069566416193717451 0.065387793598069233 0.49796345291894695 -0.010963575899571866 0.086850217877396066 0.028201641607585919 0.15727235205564757 0.00033720187906646076 0.071822940790863751 0.0003940331593851403 0.021205349918423728 -0.016098150492075147 -0.01961678593181803 0.020633135080853057 0.0090460488223498836 0.0022083343764302283 0.00062265043281957075 0.016018809872247929 0.01238531812281167 -0.004353622311434319 0.015097748575726079 0.10109746971472355 0.064406800684135027 -0.037338258817509344 -0.0018365545255168425 0.0028414796522543001 0.077431977603360708 0.10523636613823462 -0.017321550558174758 -0.02254792843443287 -0.010368154095783335 0.0076642341236544381 0.0077867213891062298 0.0025362961367082302 -0.016354555173864239 0.024666660643280811 -0.029259185252302825 0.066983322543927526 0.017900671701248243 0.27387528448408627 0.0020221264276467782 -0.077981371059932775 0.25036034151397812 0.4941905229794829 -0.051867701538594893 -0.080672646556831706 0.47276011612918906 0.45021725218656633 0.9421993222166215 0.48384522263966229 0.49289598101409338 0.21115765798647851 0.94111914873526414 0.51630006629753766 0.95459898022409417 0.56743641489965047 0.95221311493790806 
</DataArray>
</PointData>
</Piece>
</UnstructuredGrid>
</VTKFile>
