<?xml version="1.0"?>
<VTKFile type="UnstructuredGrid" version="0.1" byte_order="LittleEndian">
<UnstructuredGrid>
<Piece NumberOfPoints="360" NumberOfCells="124">
<Points>
<DataArray type="Float64" NumberOfComponents="3" format="ascii">
0 0 0 0.084352422163911631 0.086451712656266194 0 0 0.12500000000034689 0 0 0 0 0.084352422163911631 0.086451712656266194 0 0.1249999999997554 0 0 0 0.12500000000034689 0 0.1008171452988615 0.18885703697250469 0 0 0.25 0 0.084352422163911631 0.086451712656266194 0 0 0.12500000000034689 0 0.1008171452988615 0.18885703697250469 0 0.084352422163911631 0.086451712656266194 0 0.1008171452988615 0.18885703697250469 0 0.18402761812864499 0.1117324051466445 0 0.1008171452988615 0.18885703697250469 0 0.2403886547178353 0.24188814792673841 0 0.1249999999997599 0.31249999999987998 0 0.1008171452988615 0.18885703697250469 0 0.2403886547178353 0.24188814792673841 0 0.18402761812864499 0.1117324051466445 0 0.2403886547178353 0.24188814792673841 0 0.18402761812864499 0.1117324051466445 0 0.31250000000020822 0.12500000000041631 0 0.1249999999997554 0 0 0.18402761812864499 0.1117324051466445 0 0.25 -0 0 0.18402761812864499 0.1117324051466445 0 0.25 -0 0 0.31250000000020822 0.12500000000041631 0 0.084352422163911631 0.086451712656266194 0 0.1249999999997554 0 0 0.18402761812864499 0.1117324051466445 0 0.25 -0 0 0.31250000000020822 0.12500000000041631 0 0.25 -0 0 0.31250000000020822 0.12500000000041631 0 0.43749999999913258 0 0 0.2403886547178353 0.24188814792673841 0 0.31250000000020822 0.12500000000041631 0 0.37500000000027761 0.25000000000055511 0 0.31250000000020822 0.12500000000041631 0 0.37500000000027761 0.25000000000055511 0 0.31250000000020822 0.12500000000041631 0 0.4287911518546233 0.15455445427966699 0 0.37500000000027761 0.25000000000055511 0 0.4287911518546233 0.15455445427966699 0 0.49457493289300231 0.26251703776555491 0 0.37500000000027761 0.25000000000055511 0 0.4287911518546233 0.15455445427966699 0 0.49457493289300231 0.26251703776555491 0 0.54475767668582953 0.1431838882066932 0 0.31250000000020822 0.12500000000041631 0 0.4287911518546233 0.15455445427966699 0 0.43749999999913258 0 0 0.4287911518546233 0.15455445427966699 0 0.43749999999913258 0 0 0.54475767668582953 0.1431838882066932 0 0.37499999999973488 0.43749999999986738 0 0.5 0.5 -0 0.43750000000006939 0.37500000000013878 0 0.37499999999973488 0.43749999999986738 0 0.5 0.5 -0 0.43750000000006939 0.37500000000013878 0 0.33819444444448321 0.33819444444456342 0 0.37499999999973488 0.43749999999986738 0 0.43750000000006939 0.37500000000013878 0 0.5 0.5 -0 0.43750000000006939 0.37500000000013878 0 0.49457493289300231 0.26251703776555491 0 0.37500000000027761 0.25000000000055511 0 0.43750000000006939 0.37500000000013878 0 0.37500000000027761 0.25000000000055511 0 0.43750000000006939 0.37500000000013878 0 0.37500000000027761 0.25000000000055511 0 0.33819444444448321 0.33819444444456342 0 0.2403886547178353 0.24188814792673841 0 0.33819444444448321 0.33819444444456342 0 0.24999999999960859 0.37499999999980432 0 0.2403886547178353 0.24188814792673841 0 0.37500000000027761 0.25000000000055511 0 0.33819444444448321 0.33819444444456342 0 0.33819444444448321 0.33819444444456342 0 0.37499999999973488 0.43749999999986738 0 0.24999999999960859 0.37499999999980432 0 0.37499999999973488 0.43749999999986738 0 0.24999999999960859 0.37499999999980432 0 0.37499999999973488 0.43749999999986738 0 0.24999999999960859 0.37499999999980432 0 0.26452443700674649 0.51563531581639865 0 0.14929124186975251 0.44582793568106382 0 0.24999999999960859 0.37499999999980432 0 0.26452443700674649 0.51563531581639865 0 0.14929124186975251 0.44582793568106382 0 0.24999999999960859 0.37499999999980432 0 0.1249999999997599 0.31249999999987998 0 0.2403886547178353 0.24188814792673841 0 0.24999999999960859 0.37499999999980432 0 0.1249999999997599 0.31249999999987998 0 0.24999999999960859 0.37499999999980432 0 0.1249999999997599 0.31249999999987998 0 0.1249999999997599 0.31249999999987998 0 0 0.25 0 0 0.43750000000034689 0 0.1008171452988615 0.18885703697250469 0 0.1249999999997599 0.31249999999987998 0 0 0.25 0 0.1249999999997599 0.31249999999987998 0 0 0.25 0 0.14929124186975251 0.44582793568106382 0 0 0.43750000000034689 0 0.13928587515912139 0.57339806105677438 0 0.14929124186975251 0.44582793568106382 0 0.1249999999997599 0.31249999999987998 0 0 0.43750000000034689 0 0 0.43750000000034689 0 0 0.62500000000069389 0 0.13928587515912139 0.57339806105677438 0 0 0.62500000000069389 0 0.13900789599611679 0.72618316107059999 0 0.13928587515912139 0.57339806105677438 0 0 0.62500000000069389 0 0.13900789599611679 0.72618316107059999 0 0 0.81250000000104083 0 0.13900789599611679 0.72618316107059999 0 0.13928587515912139 0.57339806105677438 0 0.27589467050686478 0.66058853156435704 0 0.13900789599611679 0.72618316107059999 0 0.27987960212930818 0.83442741470570525 0 0.27589467050686478 0.66058853156435704 0 0.13928587515912139 0.57339806105677438 0 0.26452443700674649 0.51563531581639865 0 0.27589467050686478 0.66058853156435704 0 0.14929124186975251 0.44582793568106382 0 0.13928587515912139 0.57339806105677438 0 0.26452443700674649 0.51563531581639865 0 0 1 0 0.12710107136012311 0.87094806618203435 0 0.1875000000005205 1 0 0 1 0 0 0.81250000000104083 0 0.12710107136012311 0.87094806618203435 0 0.13900789599611679 0.72618316107059999 0 0 0.81250000000104083 0 0.12710107136012311 0.87094806618203435 0 0.13900789599611679 0.72618316107059999 0 0.12710107136012311 0.87094806618203435 0 0.27987960212930818 0.83442741470570525 0 0.12710107136012311 0.87094806618203435 0 0.1875000000005205 1 0 0.27987960212930818 0.83442741470570525 0 0.27987960212930818 0.83442741470570525 0 0.44927105396715372 0.85565124085155886 0 0.37500000000069389 1 0 0.1875000000005205 1 0 0.27987960212930818 0.83442741470570525 0 0.37500000000069389 1 0 0.27987960212930818 0.83442741470570525 0 0.44927105396715372 0.85565124085155886 0 0.38136204680495073 0.74038592213831234 0 0.44927105396715372 0.85565124085155886 0 0.38136204680495073 0.74038592213831234 0 0.50145856933078625 0.73674663046504862 0 0.44927105396715372 0.85565124085155886 0 0.37500000000069389 1 0 0.56250000000086742 1 0 0.26452443700674649 0.51563531581639865 0 0.27589467050686478 0.66058853156435704 0 0.4139414069912184 0.60563252640100373 0 0.37499999999973488 0.43749999999986738 0 0.26452443700674649 0.51563531581639865 0 0.4139414069912184 0.60563252640100373 0 0.27987960212930818 0.83442741470570525 0 0.27589467050686478 0.66058853156435704 0 0.38136204680495073 0.74038592213831234 0 0.27589467050686478 0.66058853156435704 0 0.38136204680495073 0.74038592213831234 0 0.4139414069912184 0.60563252640100373 0 0.38136204680495073 0.74038592213831234 0 0.4139414069912184 0.60563252640100373 0 0.50145856933078625 0.73674663046504862 0 0.4139414069912184 0.60563252640100373 0 0.50145856933078625 0.73674663046504862 0 0.5625 0.625 0 0.37499999999973488 0.43749999999986738 0 0.4139414069912184 0.60563252640100373 0 0.5 0.5 -0 0.4139414069912184 0.60563252640100373 0 0.5 0.5 -0 0.5625 0.625 0 0.5 0.5 -0 0.5625 0.625 0 0.63236534182377013 0.50296756406332266 0 0.5 0.5 -0 0.5625 0.625 0 0.50145856933078625 0.73674663046504862 0 0.5625 0.625 0 0.625 0.75 0 0.5625 0.625 0 0.625 0.75 0 0.71259747807844409 0.63846691315701831 0 0.625 0.75 0 0.73857795170433571 0.77736788564284653 0 0.5625 0.625 0 0.71259747807844409 0.63846691315701831 0 0.625 0.75 0 0.71259747807844409 0.63846691315701831 0 0.63236534182377013 0.50296756406332266 0 0.75338430262320943 0.49294443423175599 0 0.5625 0.625 0 0.71259747807844409 0.63846691315701831 0 0.63236534182377013 0.50296756406332266 0 0.56250000000086742 1 0 0.56777512057187585 0.8470224641095303 0 0.6875 0.875 0 0.44927105396715372 0.85565124085155886 0 0.56250000000086742 1 0 0.56777512057187585 0.8470224641095303 0 0.44927105396715372 0.85565124085155886 0 0.50145856933078625 0.73674663046504862 0 0.56777512057187585 0.8470224641095303 0 0.50145856933078625 0.73674663046504862 0 0.56777512057187585 0.8470224641095303 0 0.625 0.75 0 0.625 0.75 0 0.73857795170433571 0.77736788564284653 0 0.6875 0.875 0 0.73857795170433571 0.77736788564284653 0 0.6875 0.875 0 0.80552984491000901 0.88711122872127413 0 0.625 0.75 0 0.6875 0.875 0 0.56777512057187585 0.8470224641095303 0 0.625 0.75 0 0.6875 0.875 0 0.56250000000086742 1 0 0.6875 0.875 0 0.75 1 0 0.6875 0.875 0 0.75 1 0 0.80552984491000901 0.88711122872127413 0 0.6875 0.875 0 0.75 1 0 0.75 1 0 0.80552984491000901 0.88711122872127413 0 0.875 1 0 0.80552984491000901 0.88711122872127413 0 0.90637953422180084 0.90208583328057301 0 0.875 1 0 0.80552984491000901 0.88711122872127413 0 0.85787927391517405 0.753532520882502 0 0.90637953422180084 0.90208583328057301 0 0.73857795170433571 0.77736788564284653 0 0.80552984491000901 0.88711122872127413 0 0.85787927391517405 0.753532520882502 0 0.85787927391517405 0.753532520882502 0 1 0.83333333333356463 0 1 0.66666666666736052 0 0.85787927391517405 0.753532520882502 0 1 0.83333333333356463 0 0.90637953422180084 0.90208583328057301 0 1 0.83333333333356463 0 0.90637953422180084 0.90208583328057301 0 1 1 0 0.90637953422180084 0.90208583328057301 0 1 1 0 0.875 1 0 0.71259747807844409 0.63846691315701831 0 0.86127466977819722 0.57948076978797636 0 0.75338430262320943 0.49294443423175599 0 0.71259747807844409 0.63846691315701831 0 0.85787927391517405 0.753532520882502 0 0.86127466977819722 0.57948076978797636 0 0.71259747807844409 0.63846691315701831 0 0.73857795170433571 0.77736788564284653 0 0.85787927391517405 0.753532520882502 0 0.85787927391517405 0.753532520882502 0 0.86127466977819722 0.57948076978797636 0 1 0.66666666666736052 0 0.86127466977819722 0.57948076978797636 0 1 0.66666666666736052 0 1 0.50000000000138767 0 1 0.50000000000138767 0 0.86569408477091048 0.40983673916766611 0 1 0.33333333333448978 0 0.86127466977819722 0.57948076978797636 0 1 0.50000000000138767 0 0.86569408477091048 0.40983673916766611 0 0.86127466977819722 0.57948076978797636 0 0.75338430262320943 0.49294443423175599 0 0.86569408477091048 0.40983673916766611 0 0.75338430262320943 0.49294443423175599 0 0.86569408477091048 0.40983673916766611 0 0.71826039492840632 0.34564020717216182 0 0.86087286690217635 0.25206523597959418 0 0.71508993406183785 0.15715956854777599 0 0.71826039492840632 0.34564020717216182 0 0.86569408477091048 0.40983673916766611 0 0.86087286690217635 0.25206523597959418 0 0.71826039492840632 0.34564020717216182 0 0.86087286690217635 0.25206523597959418 0 1 0.33333333333448978 0 1 0.16666666666736049 0 0.86569408477091048 0.40983673916766611 0 0.86087286690217635 0.25206523597959418 0 1 0.33333333333448978 0 0.86087286690217635 0.25206523597959418 0 1 0.16666666666736049 0 0.87698901648812122 0.1160638338657984 0 1 0 0 0.87698901648812122 0.1160638338657984 0 0.81249999999947953 0 0 1 0.16666666666736049 0 1 0 0 0.87698901648812122 0.1160638338657984 0 0.87698901648812122 0.1160638338657984 0 0.81249999999947953 0 0 0.71508993406183785 0.15715956854777599 0 0.86087286690217635 0.25206523597959418 0 0.87698901648812122 0.1160638338657984 0 0.71508993406183785 0.15715956854777599 0 0.71508993406183785 0.15715956854777599 0 0.62499999999895905 0 0 0.54475767668582953 0.1431838882066932 0 0.81249999999947953 0 0 0.71508993406183785 0.15715956854777599 0 0.62499999999895905 0 0 0.43749999999913258 0 0 0.62499999999895905 0 0 0.54475767668582953 0.1431838882066932 0 0.71508993406183785 0.15715956854777599 0 0.54475767668582953 0.1431838882066932 0 0.61108462585082757 0.25750599582343231 0 0.49457493289300231 0.26251703776555491 0 0.54475767668582953 0.1431838882066932 0 0.61108462585082757 0.25750599582343231 0 0.49457493289300231 0.26251703776555491 0 0.61108462585082757 0.25750599582343231 0 0.56986707178436635 0.37762093650871992 0 0.43750000000006939 0.37500000000013878 0 0.49457493289300231 0.26251703776555491 0 0.56986707178436635 0.37762093650871992 0 0.43750000000006939 0.37500000000013878 0 0.5 0.5 -0 0.56986707178436635 0.37762093650871992 0 0.5 0.5 -0 0.63236534182377013 0.50296756406332266 0 0.56986707178436635 0.37762093650871992 0 0.63236534182377013 0.50296756406332266 0 0.75338430262320943 0.49294443423175599 0 0.71826039492840632 0.34564020717216182 0 0.63236534182377013 0.50296756406332266 0 0.56986707178436635 0.37762093650871992 0 0.71826039492840632 0.34564020717216182 0 0.71508993406183785 0.15715956854777599 0 0.61108462585082757 0.25750599582343231 0 0.71826039492840632 0.34564020717216182 0 0.61108462585082757 0.25750599582343231 0 0.56986707178436635 0.37762093650871992 0 0.71826039492840632 0.34564020717216182 0 
</DataArray>
</Points>
<Cells>
<DataArray type="UInt32" Name="connectivity" format="ascii">
0 1 2 3 4 5 6 7 8 9 10 11 12 13 14 15 16 17 18 19 20 21 22 23 24 25 26 27 28 29 30 31 32 33 34 35 36 37 38 39 40 41 42 43 44 45 46 47 48 49 50 51 52 53 54 55 56 57 58 59 60 61 62 63 64 65 66 67 68 69 70 71 72 73 74 75 76 77 78 79 80 81 82 83 84 85 86 87 88 89 90 91 92 93 94 95 96 97 98 99 100 101 102 103 104 105 106 107 108 109 110 111 112 113 114 115 116 117 118 119 120 121 122 123 124 125 126 127 128 129 130 131 132 133 134 135 136 137 138 139 140 141 142 143 144 145 146 147 148 149 150 151 152 153 154 155 156 157 158 159 160 161 162 163 164 165 166 167 168 169 170 171 172 173 174 175 176 177 178 179 180 181 182 183 184 185 186 187 188 189 190 191 192 193 194 195 196 197 198 199 200 201 202 203 204 205 206 207 208 209 210 211 212 213 214 215 216 217 218 219 220 221 222 223 224 225 226 227 228 229 230 231 232 233 234 235 236 237 238 239 240 241 242 243 244 245 246 247 248 249 250 251 252 253 254 255 256 257 258 259 260 261 262 263 264 265 266 267 268 269 270 271 272 273 274 275 276 277 278 279 280 281 282 283 284 285 286 287 288 289 290 291 292 293 294 295 296 297 298 299 300 301 302 303 304 305 306 307 308 309 310 311 312 313 314 315 316 317 318 319 320 321 322 323 324 325 326 327 328 329 330 331 332 333 334 335 336 337 338 339 340 341 342 343 344 345 346 347 348 349 350 351 352 353 354 355 356 357 358 359 
</DataArray>
<DataArray type="UInt32" Name="offsets" format="ascii">
3 6 9 12 15 18 21 24 27 30 33 35 38 41 43 46 49 52 55 58 60 63 66 68 71 73 76 79 82 85 87 90 93 96 99 101 104 107 109 112 115 118 121 124 127 130 133 136 139 142 145 148 151 154 157 160 163 166 169 172 175 178 181 184 187 190 193 195 198 200 203 206 209 212 215 218 221 224 227 230 232 235 238 241 243 246 249 252 255 258 261 264 267 270 273 276 279 282 285 288 291 294 297 300 303 306 309 312 315 318 321 324 327 330 333 336 339 342 345 348 351 354 357 360 
</DataArray>
<DataArray type="UInt32" Name="types" format="ascii">
5 5 5 5 5 5 5 5 5 5 5 3 5 5 3 5 5 5 5 5 3 5 5 3 5 3 5 5 5 5 3 5 5 5 5 3 5 5 3 5 5 5 5 5 5 5 5 5 5 5 5 5 5 5 5 5 5 5 5 5 5 5 5 5 5 5 5 3 5 3 5 5 5 5 5 5 5 5 5 5 3 5 5 5 3 5 5 5 5 5 5 5 5 5 5 5 5 5 5 5 5 5 5 5 5 5 5 5 5 5 5 5 5 5 5 5 5 5 5 5 5 5 5 5 
</DataArray>
</Cells>
<PointData Scalars="age_conc,U235_conc," Vectors="" Tensors="">
<DataArray type="Float64" Name="age_conc" format="ascii">
299893.16069661931 300654.71714159101 300847.07277824666 300145.8481343257 301326.42546157923 300569.87051410816 305582.85820408829 302832.38003117696 261504.92189289385 300952.40125864418 300727.84519878629 300720.58282108471 300671.83147349302 300914.55308981094 303415.66499857197 301678.36811133032 316506.37495947944 247503.43415905052 300133.13172937161 310274.65991984087 303037.18665868777 315268.18013364007 304315.26496540353 251888.01655666041 303731.48022913298 304313.24325248285 265258.41489496327 310212.62877450942 265707.0693937614 254982.89388326072 301588.25704561727 300202.29085378378 302316.82957035687 264325.54359911336 249729.89271982937 300027.37918561418 300029.48088970181 299917.12314712099 324429.69980655878 251151.90349963418 237781.91225343413 252330.03496314661 232767.06210512214 300017.60848690628 299878.247567404 300011.01420878316 299897.77048931597 299717.70933209482 300069.7632543447 299937.5474306806 299412.78467353561 300648.0729946635 300045.1672195188 300147.48607027635 299848.0162557757 300384.89605470927 299656.89047289122 299921.77417144133 202148.62130776493 153855.73619987219 248770.69644858132 238172.02866981036 157424.78416668103 241629.01976237737 293220.96657001035 232786.77755439113 213143.40356362716 157610.75375163442 299605.88116190297 299827.22681161534 300060.08112768224 207570.43157369184 236155.34760404084 223226.9553501152 232613.27623777575 308433.14064915647 325927.49551370763 300640.45746500604 226675.89401262422 324185.41435141518 233042.73523374042 299571.50089098728 310969.27777159587 215020.72419370702 226106.68662810512 197390.20665047716 229928.45769765333 307939.44724191347 300232.32743200235 297373.01613371156 299997.13933120825 299909.90358131949 298951.79389162577 299996.86463988113 299777.92002689815 299971.05557474162 326690.64278377069 231837.63040758489 246457.69689162314 225913.61782584729 247708.67438652582 299918.21827600896 299995.84106412239 300113.2795865314 309216.67463109747 250287.56333517947 262221.57756423054 244716.12992841066 260944.93661670809 299502.05974704557 300570.36892567255 298917.44667820295 299669.48635973223 299938.87813691347 300161.3825836372 300883.97405781259 298051.38331977348 301219.46870691807 298801.68810552463 295790.95189941447 301903.43905465567 307126.23617295647 289225.11522793048 277754.82824519055 298138.71431794239 301378.47372951236 293138.40756971174 302602.02576792677 253869.73475101707 298976.99596004287 298560.74041841627 300822.75295011076 294888.82785276271 300249.99260268867 298130.83569702116 300184.34755056328 4455.5663034171339 253782.72378568581 3109.7370706583624 2439.2092158778396 307463.36624314846 240098.15086270485 300385.96956947976 280296.6262039977 214905.46772325382 322960.89242741046 201136.00167803382 263921.10622764973 211539.19053966782 6638.9890252445839 277821.7033647421 249029.6811593592 254551.83196986388 -383.04727756459943 6653.0714104390427 291258.65524819324 1725.3615810758274 242159.32853900729 239727.42905216961 305886.32185426407 214761.59080991504 280081.52722985443 305751.58599556034 268360.33061957825 -2718.8605935018795 645.09085006507212 300960.73122918856 294642.42874825373 304248.73736314307 307841.56959657406 295993.38075108681 312614.99888580519 241251.68247718894 311787.96277719142 295440.26652274153 295873.97003742406 278817.00611207163 307620.74026053288 271592.23116536363 318061.60002007411 298463.04530183255 351336.76350247621 323807.46025640285 139311.51339607788 307391.55572716246 334545.29494532925 210618.70169175815 354321.13119010342 210446.77571992693 153350.18263479692 300257.8128751273 296633.00141542917 303118.55834044697 160690.4255619355 116604.72786943053 344463.14773052576 139082.64806435266 113290.83432281425 120601.99348796907 73887.417597944077 298534.82917596685 290879.02657804417 283569.96966959612 300383.62973567034 296223.49560527282 290031.96212247113 308948.83263467689 304301.26281629968 267495.48811141099 296494.70458884211 299083.08896389423 303862.41747194825 27232.654651174074 234190.20324674394 161368.38192523911 237022.67967160794 33408.535451765136 225096.72922563518 213117.81999282484 315393.42037491797 224254.25430644074 323433.78360591677 282143.18959393154 117269.41009125247 291828.10508045193 298055.86419274501 205149.67119010171 309678.41886284278 204643.36178394785 212816.65992142161 77891.606582116277 30196.724718229583 294782.69019143342 122181.63353026489 115033.42509541949 31433.822296060403 168462.15862683952 -2677.741387307939 217554.23574206815 -1616.4339537532778 216169.65373294026 33519.547945465965 -3498.4100604448799 38.81848337795509 225680.37515963992 -740.15254662677853 210375.16592506832 205320.37542919777 -3756.6055989778579 233410.29297063776 263452.47699276812 191218.08807867541 289778.857311461 227805.82454376083 255641.74900334442 268175.55464607314 -79.366514122653825 1411.7527037595637 251116.1466351923 -3069.6514798122389 194954.29422605445 -2111.7115119105565 203840.12270415388 -2111.7115119087075 213369.18773561338 -2137.3462264291975 -1751.3600320255905 319626.53052027087 215554.80681487874 271610.15784075961 331192.62998824136 244424.65183624701 210965.67292951597 303473.93618182879 281760.89479924174 255078.72132429882 254846.18315668163 221046.92839140235 2922.8164345802652 256994.61057434173 1125.3763847845667 2015.0986208548175 347.83609579296808 252520.22900862945 1369.1801462237845 244924.82584780958 2944.480525930348 215495.08156194963 232682.46007806854 313735.47108772199 205289.37636896741 302217.90493611916 207677.40231280448 293545.30821050063 228920.74874527002 294167.09251608042 301013.80319790373 226156.97998478863 225968.60063069718 314033.5475881325 262331.44614726934 1146.5109866502107 3646.0153863651321 240749.78341642444 226809.23425809006 1705.8071336277208 251148.69991552617 2387.5802269739834 211969.77757956987 2151.3917243743635 231473.82490089393 311818.95481478225 2138.7822982286243 4600.6940127454136 244794.14852272131 215000.60239915072 274737.20651637693 310099.96667201375 239124.41687772164 208584.94850246358 329065.0873630842 292942.16410995484 301862.65599336021 298627.31591021724 272795.69606252806 298047.62665249541 307903.29632531072 300017.14013065922 300471.91073671659 298407.70194956951 289114.79120748321 302181.5175066255 301745.12767387292 299352.65615981229 300884.50026877184 299551.26605870848 300284.12627059995 298936.96963370545 298732.1687859536 299767.19860134315 300005.97557595343 298534.39245847234 299927.28427834384 301754.44698703068 297861.03698204149 302245.11232105712 299257.31552477885 297595.75578977179 298532.04681837611 283399.11342947104 293204.46593884536 295922.73534290597 300994.36356090422 292090.95649428468 288129.33959905326 304096.02722614555 294016.88206327404 299843.82458789024 299674.27756347507 293182.96569783933 
</DataArray>
<DataArray type="Float64" Name="U235_conc" format="ascii">
0.0032213293985237038 0.0039228669787662353 -0.0063204523702589284 0.0027842834998305561 0.0023856563664006033 -0.0051699398662311599 -0.027845962011120849 -0.01816060647289388 0.13303808398522846 0.004774762267575749 -0.0050673547189933896 0.00029259245141764089 0.0022463936750507264 0.0031573432484537376 -0.005403736923504464 -0.013330999357071025 -0.080758795002035533 0.19074256083623031 0.02299335435804736 -0.03638188371281291 0.013388529354765541 -0.073774293775937957 -0.022865513531341006 0.17465791957069576 -0.019988703662136786 -0.023552734221844014 0.12038893918153978 -0.046755016604626873 0.10937039877752647 0.15478454048005752 0.0056064804302494754 -0.0011158074394912983 -0.004490672990758178 0.10972842015584697 0.15764322705853162 -6.4609495107799923e-05 5.0411058875954028e-05 0.00012694547727905281 -0.10757406806294041 0.16471241805676617 0.21534034734412238 0.14821596804815224 0.21131701876647066 -6.9461137041851084e-05 0.00053197895092451275 -0.00027267531969411667 0.0004967106313020776 0.0006134718391767669 -0.00052208982380635928 0.00071905715852513491 0.002260062458293066 -0.0029791196168182008 -4.95555247365543e-05 -0.00026575549684166959 0.00046329317879410928 -0.0010078003777179848 0.001338101044448045 -0.00026027580075589884 0.31264369294751415 0.45895635344392394 0.15229167415828074 0.19535876863851093 0.45865559282207707 0.179912708553886 0.0023204607373113612 0.2173389083334604 0.27530695541084704 0.44683665620476781 0.0020819709363263743 -0.00021071292569255952 -0.00036415403090530099 0.29058017458326119 0.20050949808469637 0.24725815909084933 0.21908248605804384 -0.048444191212625755 -0.11266100863194423 -0.021944941215237941 0.26058600504822593 -0.10477392945696021 0.23702374381218025 -0.017091209226206345 -0.059725960293944627 0.27785839682224134 0.24029550632126648 0.32459869684937459 0.22013898277012939 -0.033964291493135519 0.001471750833157868 0.032492540659977649 -0.0059580263323849719 0.0066610393133953658 0.013995751170570388 -0.0034236326966642998 0.0078943846261903851 -0.0005175081571032504 -0.1182804661723254 0.23676411540655651 0.18107753506239532 0.23401389240624068 0.16309152398154725 0.00023307467185428089 0.00035178708674402358 -0.0005848617585983045 -0.043819540738999067 0.1707949099170615 0.11981069830429061 0.17439814702078518 0.1203677195449126 0.0026149238446587578 -0.0036951307370943426 0.0053977090431719579 0.0011483779408201179 -4.0381858501286803e-05 -0.00083033898706094569 -0.0031946097942008099 0.011028625803263211 -0.0078339177366591132 0.007350526805902609 0.00045455733370886411 -0.0068679778576882225 -0.029081089360592637 0.019508804867419384 0.068330636018592253 -0.013148331247305222 -0.0014085221552653498 0.026353071044643017 -0.037678218698486671 0.15314801854272375 -0.0077770076409202429 0.0071646295708083282 -0.0040228427724286787 0.018093669888939609 -0.0016415272902657733 0.0094186170965353082 -0.0018830355786519357 0.87836429639729741 0.24427216282345848 0.89940030961434891 0.91239189144220512 -0.045405729898583325 0.21973327107633817 -0.049634052963863529 0.051143430784921048 0.30032822233828105 -0.13890759262220928 0.33204132956416776 0.10354116711997473 0.28325197856255352 0.90398290879382248 0.086313495520818156 0.16154489355231899 0.15003118580472435 0.94098029934952232 0.87832072511130477 0.11446390747549134 0.91305371428403759 0.17406332851814699 0.18485391430280979 -0.06963632073591916 0.30656223952071798 0.060219984777158606 -0.078750161690633633 0.19460206184189588 0.90333860979530367 0.89932917043598615 0.00089399520096385154 0.018319495301408969 -0.019213490502372817 -0.012468181686493583 0.059897552814722088 -0.047429371128228509 0.20154548229211286 -0.059928225894472012 -0.012726475305159513 0.0086412741070693855 0.075789106520118915 -0.035144768873221745 0.11455280846340855 -0.072888549104167172 -0.032285198648911377 -0.22187322334303966 -0.12547588853150188 0.57298335461058436 -0.040673666225327226 -0.1749351999117002 0.34190483846667502 -0.24900187365802787 0.31804129219389293 0.52509708701478708 0.0013581906323025454 0.019263954977965993 -0.020622145610268539 0.44241448731088562 0.57279941992177741 -0.1836907355173576 0.53800975441675447 0.614176836589991 0.57072205115987518 0.70146897153156362 -0.0029278699317160633 0.01930390030184749 0.038925722943570593 -0.0041600249748187934 0.0060740045821933483 0.024001514818834016 -0.074071706529761291 -0.023002574804886204 0.12807311243665429 0.026277541739143248 -0.0079951794339811807 -0.018282362305162066 0.81542742429207649 0.21517795686056296 0.4640762770352635 0.22411856964123805 0.85520705873283775 0.21727416446099651 0.29971637864168532 -0.11243199485927227 0.21869008309376139 -0.12380249534104097 0.040776484842096727 0.58567027267428118 0.0040308501294207266 -0.035817760361238106 0.32515900030585787 -0.089220271628476289 0.30515747015096611 0.28417634285818799 0.70845159443423555 0.82812880419298041 0.017336682823593796 0.53183461233254203 0.58202255740913678 0.81266498275487142 0.49697329050856076 0.89527610454915019 0.26823078733721173 0.90702172893380895 0.30062620576638388 0.8471233093344015 0.91637676396708667 0.89179860381846976 0.33550808494004142 0.90319449485217884 0.292939891355052 0.33373290921984922 0.91071078690786622 0.17970321916801554 0.075442672136769445 0.34887543299154555 0.003488439776583474 0.22450741927302309 0.12114668525857462 0.19089644218208351 0.90958800515814286 0.89484535064949644 0.15789665101883765 0.92154889335542123 0.35998902762652479 0.89445398678567012 0.40781551932660209 0.89445398678569277 0.37723687020351115 0.8954609733195239 0.8943830083056622 -0.12688830308768617 0.30234040072850271 0.099280940349195115 -0.17291089121925279 0.16798617237842683 0.30084009048295957 -0.032004462070916749 0.042850641960160724 0.13386067277387481 0.1550756807330409 0.25811742655732134 0.920831516739401 0.23515878392528494 0.90321742668101479 0.88494513747171644 0.90200882081333267 0.24968964952442169 0.88737636824729671 0.1955751566263727 0.91294702986846699 0.2764128365872367 0.21143441038467967 -0.11207194145239843 0.30821553605455743 -0.060609082937700773 0.32933931192236021 0.0071049502865956488 0.24024582029717484 0.0048841136473777927 -0.034445234215749763 0.24325987108381747 0.22715688673104242 -0.094516030664984388 0.21444100351005213 0.90480239845035204 0.88339859103471341 0.20996032746113497 0.23626618476205996 0.91557705817234269 0.18346012983886101 0.90385857701708328 0.28155850589197207 0.91159000156882852 0.24674551507362608 -0.057700807218660471 0.90076978998909008 0.88034882199409037 0.27046263400860154 0.29303520700101204 0.074324046417067621 -0.086947330148863827 0.19777764395909431 0.2957172469227497 -0.1595288081125476 0.016873510137226107 -0.0097573082785333224 0.0077490287095752508 0.092436239628634037 -0.019695968365815934 -0.032247654565249577 0.00025228996408217243 -0.003466462512736441 0.0058165768499471044 0.034263904807958274 -0.0087062951758784101 -0.011352579288499458 0.0036526721779790994 -0.0027794558680086807 -0.00087321630997041913 -0.00080416368951054414 0.00013514019768763033 0.0032972705333664549 0.0013271104274586365 -0.0012933774106803784 0.0053031902213446867 0.00054674119666675016 -0.0093416044728581778 0.0095727046390809839 -0.010388224477788793 -0.00094777518331095548 0.011336990260272279 0.0050117352187959152 0.041610611051864019 0.0042899997447987011 0.015972715549642476 -0.0045555707220209154 0.011650593748372153 0.037761001221576183 -0.018771921541101702 0.0039299733123055926 -0.0029021571539091431 0.00066601915249101689 0.010845691280323474 
</DataArray>
</PointData>
</Piece>
</UnstructuredGrid>
</VTKFile>
