<?xml version="1.0"?>
<VTKFile type="UnstructuredGrid" version="0.1" byte_order="LittleEndian">
<UnstructuredGrid>
<Piece NumberOfPoints="10952" NumberOfCells="3652">
<Points>
<DataArray type="Float64" NumberOfComponents="3" format="ascii">
3.3300000000000001 3.3300000000000001 0 3.3300000000000001 3.3300000000000001 0.25 3.3300000000000001 3.3300000000000001 0.25 3.3300000000000001 3.3300000000000001 0.5 3.3300000000000001 3.3300000000000001 0.5 3.3300000000000001 3.3300000000000001 0.75 3.3300000000000001 3.3300000000000001 0.75 3.3300000000000001 3.3300000000000001 1 7.9493976625604148 5.2434171618158381 0 7.7395360729779341 5.2645132841475446 0 7.824754934300663 4.9640007223233917 0 7.7395360729779341 5.2645132841475446 0 7.5296744833954525 5.2856094064792511 0 7.6148933447181815 4.9850968446550983 0 7.824754934300663 4.9640007223233917 0 7.6148933447181815 4.9850968446550983 0 7.7001122060409113 4.6845842828309454 0 7.7395360729779341 5.2645132841475446 0 7.6148933447181815 4.9850968446550983 0 7.824754934300663 4.9640007223233917 0 7.5296744833954525 5.2856094064792511 0 7.319812893812971 5.3067055288109568 0 7.4050317551357008 5.0061929669868048 0 7.319812893812971 5.3067055288109568 0 7.1099513042304903 5.3278016511426634 0 7.1951701655532201 5.0272890893185114 0 7.4050317551357008 5.0061929669868048 0 7.1951701655532201 5.0272890893185114 0 7.2803890268759499 4.7267765274943585 0 7.319812893812971 5.3067055288109568 0 7.1951701655532201 5.0272890893185114 0 7.4050317551357008 5.0061929669868048 0 7.7001122060409113 4.6845842828309454 0 7.4902506164584306 4.705680405162652 0 7.5754694777811604 4.4051678433384991 0 7.4902506164584306 4.705680405162652 0 7.2803890268759499 4.7267765274943585 0 7.3656078881986797 4.4262639656702056 0 7.5754694777811604 4.4051678433384991 0 7.3656078881986797 4.4262639656702056 0 7.4508267495214087 4.1257514038460528 0 7.4902506164584306 4.705680405162652 0 7.3656078881986797 4.4262639656702056 0 7.5754694777811604 4.4051678433384991 0 7.5296744833954525 5.2856094064792511 0 7.4050317551357008 5.0061929669868048 0 7.6148933447181815 4.9850968446550983 0 7.4050317551357008 5.0061929669868048 0 7.2803890268759499 4.7267765274943585 0 7.4902506164584306 4.705680405162652 0 7.6148933447181815 4.9850968446550983 0 7.4902506164584306 4.705680405162652 0 7.7001122060409113 4.6845842828309454 0 7.4050317551357008 5.0061929669868048 0 7.4902506164584306 4.705680405162652 0 7.6148933447181815 4.9850968446550983 0 3.4924487633219119 5.5370583999662992 0 3.2235287685382543 5.5604010714321994 0 3.3776234088184234 5.3478434642481254 0 3.2235287685382543 5.5604010714321994 0 2.9546087737545967 5.5837437428980987 0 3.1087034140347658 5.3711861357140247 0 3.3776234088184234 5.3478434642481254 0 3.1087034140347658 5.3711861357140247 0 3.2627980543149344 5.1586285285299507 0 3.2235287685382543 5.5604010714321994 0 3.1087034140347658 5.3711861357140247 0 3.3776234088184234 5.3478434642481254 0 2.9546087737545967 5.5837437428980987 0 2.6856887789709392 5.607086414363998 0 2.8397834192511078 5.3945288071799249 0 2.6856887789709392 5.607086414363998 0 2.4167687841872811 5.6304290858298982 0 2.5708634244674498 5.4178714786458251 0 2.8397834192511078 5.3945288071799249 0 2.5708634244674498 5.4178714786458251 0 2.7249580647476188 5.2053138714617511 0 2.6856887789709392 5.607086414363998 0 2.5708634244674498 5.4178714786458251 0 2.8397834192511078 5.3945288071799249 0 3.2627980543149344 5.1586285285299507 0 2.9938780595312764 5.1819711999958509 0 3.1479726998114455 4.9694135928117769 0 2.9938780595312764 5.1819711999958509 0 2.7249580647476188 5.2053138714617511 0 2.8790527050277879 4.992756264277677 0 3.1479726998114455 4.9694135928117769 0 2.8790527050277879 4.992756264277677 0 3.0331473453079569 4.780198657093603 0 2.9938780595312764 5.1819711999958509 0 2.8790527050277879 4.992756264277677 0 3.1479726998114455 4.9694135928117769 0 2.9546087737545967 5.5837437428980987 0 2.8397834192511078 5.3945288071799249 0 3.1087034140347658 5.3711861357140247 0 2.8397834192511078 5.3945288071799249 0 2.7249580647476188 5.2053138714617511 0 2.9938780595312764 5.1819711999958509 0 3.1087034140347658 5.3711861357140247 0 2.9938780595312764 5.1819711999958509 0 3.2627980543149344 5.1586285285299507 0 2.8397834192511078 5.3945288071799249 0 2.9938780595312764 5.1819711999958509 0 3.1087034140347658 5.3711861357140247 0 1.3901804125063371 5.2698195875026137 0 1.3216773446587697 4.9901877054552051 0 1.5649086744784615 5.133337684570753 0 1.3216773446587697 4.9901877054552051 0 1.2531742768112024 4.7105558234077964 0 1.4964056066308942 4.8537058025233444 0 1.5649086744784615 5.133337684570753 0 1.4964056066308942 4.8537058025233444 0 1.7396369364505859 4.9968557816388923 0 1.3216773446587697 4.9901877054552051 0 1.4964056066308942 4.8537058025233444 0 1.5649086744784615 5.133337684570753 0 1.2531742768112024 4.7105558234077964 0 1.1846712089636351 4.4309239413603878 0 1.4279025387833268 4.5740739204759358 0 1.1846712089636351 4.4309239413603878 0 1.116168141116068 4.1512920593129792 0 1.3593994709357595 4.2944420384285271 0 1.4279025387833268 4.5740739204759358 0 1.3593994709357595 4.2944420384285271 0 1.6026308007554513 4.4375920175440751 0 1.1846712089636351 4.4309239413603878 0 1.3593994709357595 4.2944420384285271 0 1.4279025387833268 4.5740739204759358 0 1.7396369364505859 4.9968557816388923 0 1.6711338686030186 4.7172238995914837 0 1.9143651984227104 4.8603738787070316 0 1.6711338686030186 4.7172238995914837 0 1.6026308007554513 4.4375920175440751 0 1.845862130575143 4.5807419966596221 0 1.9143651984227104 4.8603738787070316 0 1.845862130575143 4.5807419966596221 0 2.0890934603948348 4.7238919757751701 0 1.6711338686030186 4.7172238995914837 0 1.845862130575143 4.5807419966596221 0 1.9143651984227104 4.8603738787070316 0 1.2531742768112024 4.7105558234077964 0 1.4279025387833268 4.5740739204759358 0 1.4964056066308942 4.8537058025233444 0 1.4279025387833268 4.5740739204759358 0 1.6026308007554513 4.4375920175440751 0 1.6711338686030186 4.7172238995914837 0 1.4964056066308942 4.8537058025233444 0 1.6711338686030186 4.7172238995914837 0 1.7396369364505859 4.9968557816388923 0 1.4279025387833268 4.5740739204759358 0 1.6711338686030186 4.7172238995914837 0 1.4964056066308942 4.8537058025233444 0 8.2339264020179428 4.3054516100716427 0 8.1627942171535608 4.5399429980076915 0 8.0381514888938099 4.2605265585152452 0 8.1627942171535608 4.5399429980076915 0 8.0916620322891788 4.7744343859437404 0 7.967019304029427 4.495017946451294 0 8.0381514888938099 4.2605265585152452 0 7.967019304029427 4.495017946451294 0 7.8423765757696753 4.2156015069588477 0 8.1627942171535608 4.5399429980076915 0 7.967019304029427 4.495017946451294 0 8.0381514888938099 4.2605265585152452 0 8.0916620322891788 4.7744343859437404 0 8.0205298474247968 5.0089257738797892 0 7.895887119165045 4.7295093343873429 0 8.0205298474247968 5.0089257738797892 0 7.9493976625604148 5.2434171618158381 0 7.824754934300663 4.9640007223233917 0 7.895887119165045 4.7295093343873429 0 7.824754934300663 4.9640007223233917 0 7.7001122060409113 4.6845842828309454 0 8.0205298474247968 5.0089257738797892 0 7.824754934300663 4.9640007223233917 0 7.895887119165045 4.7295093343873429 0 7.8423765757696753 4.2156015069588477 0 7.7712443909052933 4.4500928948948966 0 7.6466016626455424 4.1706764554024502 0 7.7712443909052933 4.4500928948948966 0 7.7001122060409113 4.6845842828309454 0 7.5754694777811604 4.4051678433384991 0 7.6466016626455424 4.1706764554024502 0 7.5754694777811604 4.4051678433384991 0 7.4508267495214087 4.1257514038460528 0 7.7712443909052933 4.4500928948948966 0 7.5754694777811604 4.4051678433384991 0 7.6466016626455424 4.1706764554024502 0 8.0916620322891788 4.7744343859437404 0 7.895887119165045 4.7295093343873429 0 7.967019304029427 4.495017946451294 0 7.895887119165045 4.7295093343873429 0 7.7001122060409113 4.6845842828309454 0 7.7712443909052933 4.4500928948948966 0 7.967019304029427 4.495017946451294 0 7.7712443909052933 4.4500928948948966 0 7.8423765757696753 4.2156015069588477 0 7.895887119165045 4.7295093343873429 0 7.7712443909052933 4.4500928948948966 0 7.967019304029427 4.495017946451294 0 5.505821406147934 5.5242641193523081 0 5.2489342464829098 5.4804311909027579 0 5.5198797485223494 5.2716696887141472 0 5.2489342464829098 5.4804311909027579 0 4.9920470868178857 5.4365982624532077 0 5.2629925888573252 5.227836760264597 0 5.5198797485223494 5.2716696887141472 0 5.2629925888573252 5.227836760264597 0 5.5339380908967648 5.0190752580759863 0 5.2489342464829098 5.4804311909027579 0 5.2629925888573252 5.227836760264597 0 5.5198797485223494 5.2716696887141472 0 4.9920470868178857 5.4365982624532077 0 4.7351599271528606 5.3927653340036574 0 5.0061054291923011 5.1840038318150468 0 4.7351599271528606 5.3927653340036574 0 4.4782727674878364 5.3489324055541072 0 4.749218269527276 5.1401709033654965 0 5.0061054291923011 5.1840038318150468 0 4.749218269527276 5.1401709033654965 0 5.0201637715667156 4.9314094011768859 0 4.7351599271528606 5.3927653340036574 0 4.749218269527276 5.1401709033654965 0 5.0061054291923011 5.1840038318150468 0 5.5339380908967648 5.0190752580759863 0 5.2770509312317397 4.9752423296264361 0 5.5479964332711802 4.7664808274378263 0 5.2770509312317397 4.9752423296264361 0 5.0201637715667156 4.9314094011768859 0 5.2911092736061551 4.7226478989882761 0 5.5479964332711802 4.7664808274378263 0 5.2911092736061551 4.7226478989882761 0 5.5620547756455947 4.5138863967996654 0 5.2770509312317397 4.9752423296264361 0 5.2911092736061551 4.7226478989882761 0 5.5479964332711802 4.7664808274378263 0 4.9920470868178857 5.4365982624532077 0 5.0061054291923011 5.1840038318150468 0 5.2629925888573252 5.227836760264597 0 5.0061054291923011 5.1840038318150468 0 5.0201637715667156 4.9314094011768859 0 5.2770509312317397 4.9752423296264361 0 5.2629925888573252 5.227836760264597 0 5.2770509312317397 4.9752423296264361 0 5.5339380908967648 5.0190752580759863 0
[...]
<CellData Scalars="pressure_p0,pressure_diff,velocity_diff," Vectors="velocity_p0,velocity_enr,velocity_reg,velocity_exact," Tensors="">
<DataArray type="Float64" Name="pressure_p0" format="ascii">
99.999999999473545 99.999999999473545 99.999999999473545 99.999999999473545 -42.661506343324874 -42.661506343324874 -42.661506343324874 -42.661506343324874 -42.661506343324874 -42.661506343324874 -42.661506343324874 -42.661506343324874 -42.661506343324874 -42.661506343324874 -42.661506343324874 -42.661506343324874 -42.661506343324874 -42.661506343324874 -42.661506343324874 -42.661506343324874 -19.72869326027574 -19.72869326027574 -19.72869326027574 -19.72869326027574 -19.72869326027574 -19.72869326027574 -19.72869326027574 -19.72869326027574 -19.72869326027574 -19.72869326027574 -19.72869326027574 -19.72869326027574 -19.72869326027574 -19.72869326027574 -19.72869326027574 -19.72869326027574 -23.230642060145556 -23.230642060145556 -23.230642060145556 -23.230642060145556 -23.230642060145556 -23.230642060145556 -23.230642060145556 -23.230642060145556 -23.230642060145556 -23.230642060145556 -23.230642060145556 -23.230642060145556 -23.230642060145556 -23.230642060145556 -23.230642060145556 -23.230642060145556 -44.252693870335939 -44.252693870335939 -44.252693870335939 -44.252693870335939 -44.252693870335939 -44.252693870335939 -44.252693870335939 -44.252693870335939 -44.252693870335939 -44.252693870335939 -44.252693870335939 -44.252693870335939 -44.252693870335939 -44.252693870335939 -44.252693870335939 -44.252693870335939 -27.211046687848516 -27.211046687848516 -27.211046687848516 -27.211046687848516 -27.211046687848516 -27.211046687848516 -27.211046687848516 -27.211046687848516 -27.211046687848516 -27.211046687848516 -27.211046687848516 -27.211046687848516 -27.211046687848516 -27.211046687848516 -27.211046687848516 -27.211046687848516 -20.263920777302339 -20.263920777302339 -20.263920777302339 -20.263920777302339 -20.263920777302339 -20.263920777302339 -20.263920777302339 -20.263920777302339 -20.263920777302339 -20.263920777302339 -20.263920777302339 -20.263920777302339 -20.263920777302339 -20.263920777302339 -20.263920777302339 -20.263920777302339 -39.422862229854914 -39.422862229854914 -39.422862229854914 -39.422862229854914 -39.422862229854914 -39.422862229854914 -39.422862229854914 -39.422862229854914 -39.422862229854914 -39.422862229854914 -39.422862229854914 -39.422862229854914 -39.422862229854914 -39.422862229854914 -39.422862229854914 -39.422862229854914 -44.534352983098564 -44.534352983098564 -44.534352983098564 -44.534352983098564 -44.534352983098564 -44.534352983098564 -44.534352983098564 -44.534352983098564 -44.534352983098564 -44.534352983098564 -44.534352983098564 -44.534352983098564 -44.534352983098564 -44.534352983098564 -44.534352983098564 -44.534352983098564 -42.402975232816893 -42.402975232816893 -42.402975232816893 -42.402975232816893 -42.402975232816893 -42.402975232816893 -42.402975232816893 -42.402975232816893 -42.402975232816893 -42.402975232816893 -42.402975232816893 -42.402975232816893 -42.402975232816893 -42.402975232816893 -42.402975232816893 -42.402975232816893 -41.504728900656374 -41.504728900656374 -41.504728900656374 -41.504728900656374 -41.504728900656374 -41.504728900656374 -41.504728900656374 -41.504728900656374 -41.504728900656374 -41.504728900656374 -41.504728900656374 -41.504728900656374 -41.504728900656374 -41.504728900656374 -41.504728900656374 -41.504728900656374 -15.068037345010032 -15.068037345010032 -15.068037345010032 -15.068037345010032 -15.068037345010032 -15.068037345010032 -15.068037345010032 -15.068037345010032 -15.068037345010032 -15.068037345010032 -15.068037345010032 -15.068037345010032 -15.068037345010032 -15.068037345010032 -15.068037345010032 -15.068037345010032 -42.245280269690412 -42.245280269690412 -42.245280269690412 -42.245280269690412 -42.245280269690412 -42.245280269690412 -42.245280269690412 -42.245280269690412 -42.245280269690412 -42.245280269690412 -42.245280269690412 -42.245280269690412 -42.245280269690412 -42.245280269690412 -42.245280269690412 -42.245280269690412 -42.878111673387338 -42.878111673387338 -42.878111673387338 -42.878111673387338 -42.878111673387338 -42.878111673387338 -42.878111673387338 -42.878111673387338 -42.878111673387338 -42.878111673387338 -42.878111673387338 -42.878111673387338 -42.878111673387338 -42.878111673387338 -42.878111673387338 -42.878111673387338 -32.004990267375788 -32.004990267375788 -32.004990267375788 -32.004990267375788 -32.004990267375788 -32.004990267375788 -32.004990267375788 -32.004990267375788 -32.004990267375788 -32.004990267375788 -32.004990267375788 -32.004990267375788 -32.004990267375788 -32.004990267375788 -32.004990267375788 -32.004990267375788 -44.251585514421897 -44.251585514421897 -44.251585514421897 -44.251585514421897 -44.251585514421897 -44.251585514421897 -44.251585514421897 -44.251585514421897 -44.251585514421897 -44.251585514421897 -44.251585514421897 -44.251585514421897 -44.251585514421897 -44.251585514421897 -44.251585514421897 -44.251585514421897 -17.261657556000777 -17.261657556000777 -17.261657556000777 -17.261657556000777 -17.261657556000777 -17.261657556000777 -17.261657556000777 -17.261657556000777 -17.261657556000777 -17.261657556000777 -17.261657556000777 -17.261657556000777 -17.261657556000777 -17.261657556000777 -17.261657556000777 -17.261657556000777 -36.860701284519962 -36.860701284519962 -36.860701284519962 -36.860701284519962 -36.860701284519962 -36.860701284519962 -36.860701284519962 -36.860701284519962 -36.860701284519962 -36.860701284519962 -36.860701284519962 -36.860701284519962 -36.860701284519962 -36.860701284519962 -36.860701284519962 -36.860701284519962 -35.560644880957803 -35.560644880957803 -35.560644880957803 -35.560644880957803 -35.560644880957803 -35.560644880957803 -35.560644880957803 -35.560644880957803 -35.560644880957803 -35.560644880957803 -35.560644880957803 -35.560644880957803 -35.560644880957803 -35.560644880957803 -35.560644880957803 -35.560644880957803 -35.229230781385169 -35.229230781385169 -35.229230781385169 -35.229230781385169 -35.229230781385169 -35.229230781385169 -35.229230781385169 -35.229230781385169 -35.229230781385169 -35.229230781385169 -35.229230781385169 -35.229230781385169 -35.229230781385169 -35.229230781385169 -35.229230781385169 -35.229230781385169 -36.684168036273675 -36.684168036273675 -36.684168036273675 -36.684168036273675 -36.684168036273675 -36.684168036273675 -36.684168036273675 -36.684168036273675 -36.684168036273675 -36.684168036273675 -36.684168036273675 -36.684168036273675 -36.684168036273675 -36.684168036273675 -36.684168036273675 -36.684168036273675 -42.193368246027639 -42.193368246027639 -42.193368246027639 -42.193368246027639 -42.193368246027639 -42.193368246027639 -42.193368246027639 -42.193368246027639 -42.193368246027639 -42.193368246027639 -42.193368246027639 -42.193368246027639 -42.193368246027639 -42.193368246027639 -42.193368246027639 -42.193368246027639 -41.684247431958703 -41.684247431958703 -41.684247431958703 -41.684247431958703 -41.684247431958703 -41.684247431958703 -41.684247431958703 -41.684247431958703 -41.684247431958703 -41.684247431958703 -41.684247431958703 -41.684247431958703 -41.684247431958703 -41.684247431958703 -41.684247431958703 -41.684247431958703 -44.258163326559306 -44.258163326559306 -44.258163326559306 -44.258163326559306 -44.258163326559306 -44.258163326559306 -44.258163326559306 -44.258163326559306 -44.258163326559306 -44.258163326559306 -44.258163326559306 -44.258163326559306 -44.258163326559306 -44.258163326559306 -44.258163326559306 -44.258163326559306 -28.925222339053402 -28.925222339053402 -28.925222339053402 -28.925222339053402 -28.925222339053402 -28.925222339053402 -28.925222339053402 -28.925222339053402 -28.925222339053402 -28.925222339053402 -28.925222339053402 -28.925222339053402 -28.925222339053402 -28.925222339053402 -28.925222339053402 -28.925222339053402 -44.140518511749214 -44.140518511749214 -44.140518511749214 -44.140518511749214 -44.140518511749214 -44.140518511749214 -44.140518511749214 -44.140518511749214 -44.140518511749214 -44.140518511749214 -44.140518511749214 -44.140518511749214 -44.140518511749214 -44.140518511749214 -44.140518511749214 -44.140518511749214 -43.76175794891931 -43.76175794891931 -43.76175794891931 -43.76175794891931 -43.76175794891931 -43.76175794891931 -43.76175794891931 -43.76175794891931 -43.76175794891931 -43.76175794891931 -43.76175794891931 -43.76175794891931 -43.76175794891931 -43.76175794891931 -43.76175794891931 -43.76175794891931 -29.70425238713252 -29.70425238713252 -29.70425238713252 -29.70425238713252 -29.70425238713252 -29.70425238713252 -29.70425238713252 -29.70425238713252 -29.70425238713252 -29.70425238713252 -29.70425238713252 -29.70425238713252 -29.70425238713252 -29.70425238713252 -29.70425238713252 -29.70425238713252 -31.211028464549624 -31.211028464549624 -31.211028464549624 -31.211028464549624 -31.211028464549624 -31.211028464549624 -31.211028464549624 -31.211028464549624 -31.211028464549624 -31.211028464549624 -31.211028464549624 -31.211028464549624 -31.211028464549624 -31.211028464549624 -31.211028464549624 -31.211028464549624 -26.333307714191264 -26.333307714191264 -26.333307714191264 -26.333307714191264 -26.333307714191264 -26.333307714191264 -26.333307714191264 -26.333307714191264 -26.333307714191264 -26.333307714191264 -26.333307714191264 -26.333307714191264 -26.333307714191264 -26.333307714191264 -26.333307714191264 -26.333307714191264 -41.737005498067127 -41.737005498067127 -41.737005498067127 -41.737005498067127 -41.737005498067127 -41.737005498067127 -41.737005498067127 -41.737005498067127 -41.737005498067127 -41.737005498067127 -41.737005498067127 -41.737005498067127 -41.737005498067127 -41.737005498067127 -41.737005498067127 -41.737005498067127 -28.311745372557969 -28.311745372557969 -28.311745372557969 -28.311745372557969 -28.311745372557969 -28.311745372557969 -28.311745372557969 -28.311745372557969 -28.311745372557969 -28.311745372557969 -28.311745372557969 -28.311745372557969 -28.311745372557969 -28.311745372557969 -28.311745372557969 -28.311745372557969 -28.289928539487175 -28.289928539487175 -28.289928539487175 -28.289928539487175 -28.289928539487175 -28.289928539487175 -28.289928539487175 -28.289928539487175 -28.289928539487175 -28.289928539487175 -28.289928539487175 -28.289928539487175 -28.289928539487175 -28.289928539487175 -28.289928539487175 -28.289928539487175 -40.038744563951006 -40.038744563951006 -40.038744563951006 -40.038744563951006 -40.038744563951006 -40.038744563951006 -40.038744563951006 -40.038744563951006 -40.038744563951006 -40.038744563951006 -40.038744563951006 -40.038744563951006 -40.038744563951006 -40.038744563951006 -40.038744563951006 -40.038744563951006 -44.161099142115809 -44.161099142115809 -44.161099142115809 -44.161099142115809 -44.161099142115809 -44.161099142115809 -44.161099142115809 -44.161099142115809 -44.161099142115809 -44.161099142115809 -44.161099142115809 -44.161099142115809 -44.161099142115809 -44.161099142115809 -44.161099142115809 -44.161099142115809 -44.031796786689142 -44.031796786689142 -44.031796786689142 -44.031796786689142 -44.031796786689142 -44.031796786689142 -44.031796786689142 -44.031796786689142 -44.031796786689142 -44.031796786689142 -44.031796786689142 -44.031796786689142 -44.031796786689142 -44.031796786689142 -44.031796786689142 -44.031796786689142 -44.049079673344991 -44.049079673344991 -44.049079673344991 -44.049079673344991 -44.049079673344991 -44.049079673344991 -44.049079673344991 -44.049079673344991 -44.049079673344991 -44.049079673344991 -44.049079673344991 -44.049079673344991 -44.049079673344991 -44.049079673344991 -44.049079673344991 -44.049079673344991 -38.742542430316902 -38.742542430316902 -38.742542430316902 -38.742542430316902 -38.742542430316902 -38.742542430316902 -38.742542430316902 -38.742542430316902 -38.742542430316902 -38.742542430316902 -38.742542430316902 -38.742542430316902 -38.742542430316902 -38.742542430316902 -38.742542430316902 -38.742542430316902 -38.762982797593153 -38.762982797593153 -38.762982797593153 -38.762982797593153 -38.762982797593153 -38.762982797593153 -38.762982797593153 -38.762982797593153 -38.762982797593153 -38.762982797593153 -38.762982797593153 -38.762982797593153 -38.762982797593153 -38.762982797593153 -38.762982797593153 -38.762982797593153 -21.327287846791847 -21.327287846791847 -21.327287846791847 -21.327287846791847 -21.327287846791847 -21.327287846791847 -21.327287846791847 -21.327287846791847 -21.327287846791847 -21.327287846791847 -21.327287846791847 -21.327287846791847 -21.327287846791847 -21.327287846791847 -21.327287846791847 -21.327287846791847 -15.984166275424228 -15.984166275424228 -15.984166275424228 -15.984166275424228 -15.984166275424228 -15.984166275424228 -15.984166275424228 -15.984166275424228 -15.984166275424228 -15.984166275424228 -15.984166275424228 -15.984166275424228 -15.984166275424228 -15.984166275424228 -15.984166275424228 -15.984166275424228 -35.097084660926761 -35.097084660926761 -35.097084660926761 -35.097084660926761 -35.097084660926761 -35.097084660926761 -35.097084660926761 -35.097084660926761 -35.097084660926761 -35.097084660926761 -35.097084660926761 -35.097084660926761 -35.097084660926761 -35.097084660926761 -35.097084660926761 -35.097084660926761 -41.849029557251107 -41.849029557251107 -41.849029557251107 -41.849029557251107 -41.849029557251107 -41.849029557251107 -41.849029557251107 -41.849029557251107 -41.849029557251107 -41.849029557251107 -41.849029557251107 -41.849029557251107 -41.849029557251107 -41.849029557251107 -41.849029557251107 -41.849029557251107 -37.144322413057658 -37.144322413057658 -37.144322413057658 -37.144322413057658 -37.144322413057658 -37.144322413057658 -37.144322413057658 -37.144322413057658 -37.144322413057658 -37.144322413057658 -37.144322413057658 -37.144322413057658 -37.144322413057658 -37.144322413057658 -37.144322413057658 -37.144322413057658 -32.781074811140634 -32.781074811140634 -32.781074811140634 -32.781074811140634 -32.781074811140634 -32.781074811140634 -32.781074811140634 -32.781074811140634 -32.781074811140634 -32.781074811140634 -32.781074811140634 -32.781074811140634 -32.781074811140634 -32.781074811140634 -32.781074811140634 -32.781074811140634 -36.29475753258486 -36.29475753258486 -36.29475753258486 -36.29475753258486 -36.29475753258486 -36.29475753258486 -36.29475753258486 -36.29475753258486 -36.29475753258486 -36.29475753258486 -36.29475753258486 -36.29475753258486 -36.29475753258486 -36.29475753258486 -36.29475753258486 -36.29475753258486 -42.80983132665358 -42.80983132665358 -42.80983132665358 -42.80983132665358 -42.80983132665358 -42.80983132665358 -42.80983132665358 -42.80983132665358 -42.80983132665358 -42.80983132665358 -42.80983132665358 -42.80983132665358 -42.80983132665358 -42.80983132665358 -42.80983132665358 -42.80983132665358 -21.249138432777393 -21.249138432777393 -21.249138432777393 -21.249138432777393 -21.249138432777393 -21.249138432777393 -21.249138432777393 -21.249138432777393 -21.249138432777393 -21.249138432777393 -21.249138432777393 -21.249138432777393 -21.249138432777393 -21.249138432777393 -21.249138432777393 -21.249138432777393 -16.198837229911522 -16.198837229911522 -16.198837229911522 -16.198837229911522 -16.198837229911522 -16.198837229911522 -16.198837229911522 -16.198837229911522 -16.198837229911522 -16.198837229911522 -16.198837229911522 -16.198837229911522 -16.198837229911522 -16.198837229911522 -16.198837229911522 -16.198837229911522 -31.230768802844047 -31.230768802844047 -31.230768802844047 -31.230768802844047 -31.230768802844047 -31.230768802844047 -31.230768802844047 -31.230768802844047 -31.230768802844047 -31.230768802844047 -31.230768802844047 -31.230768802844047 -31.230768802844047 -31.230768802844047 -31.230768802844047 -31.230768802844047 -41.906087360748096 -41.906087360748096 -41.906087360748096 -41.906087360748096 -41.906087360748096 -41.906087360748096 -41.906087360748096 -41.906087360748096 -41.906087360748096 -41.906087360748096 -41.906087360748096 -41.906087360748096 -41.906087360748096 -41.906087360748096 -41.906087360748096 -41.906087360748096 -26.921946568973258 -26.921946568973258 -26.921946568973258 -26.921946568973258 -26.921946568973258 -26.921946568973258 -26.921946568973258 -26.921946568973258 -26.921946568973258 -26.921946568973258 -26.921946568973258 -26.921946568973258 -26.921946568973258 -26.921946568973258 -26.921946568973258 -26.921946568973258 -44.016290170879081 -44.016290170879081 -44.016290170879081 -44.016290170879081 -44.016290170879081 -44.016290170879081 -44.016290170879081 -44.016290170879081 -44.016290170879081 -44.016290170879081 -44.016290170879081 -44.016290170879081 -44.016290170879081 -44.016290170879081 -44.016290170879081 -44.016290170879081 -27.969318723079507 -27.969318723079507 -27.969318723079507 -27.969318723079507 -27.969318723079507 -27.969318723079507 -27.969318723079507 -27.969318723079507 -27.969318723079507 -27.969318723079507 -27.969318723079507 -27.969318723079507 -27.969318723079507 -27.969318723079507 -27.969318723079507 -27.969318723079507 -42.716122594774795 -42.716122594774795 -42.716122594774795 -42.716122594774795 -42.716122594774795 -42.716122594774795 -42.716122594774795 -42.716122594774795 -42.716122594774795 -42.716122594774795 -42.716122594774795 -42.716122594774795 -42.716122594774795 -42.716122594774795 -42.716122594774795 -42.716122594774795 -43.946061195881029 -43.946061195881029 -43.946061195881029 -43.946061195881029 -43.946061195881029 -43.946061195881029 -43.946061195881029 -43.946061195881029 -43.946061195881029 -43.946061195881029 -43.946061195881029 -43.946061195881029 -43.946061195881029 -43.946061195881029 -43.946061195881029 -43.946061195881029 -36.250448961481972 -36.250448961481972 -36.250448961481972 -36.250448961481972 -36.250448961481972 -36.250448961481972 -36.250448961481972 -36.250448961481972 -36.250448961481972 -36.250448961481972 -36.250448961481972 -36.250448961481972 -36.250448961481972 -36.250448961481972 -36.250448961481972 -36.250448961481972 -35.219884519830941 -35.219884519830941 -35.219884519830941 -35.219884519830941 -35.219884519830941 -35.219884519830941 -35.219884519830941 -35.219884519830941 -35.219884519830941 -35.219884519830941 -35.219884519830941 -35.219884519830941 -35.219884519830941 -35.219884519830941 -35.219884519830941 -35.219884519830941 -18.033234456256018 -18.033234456256018 -18.033234456256018 -18.033234456256018 -18.033234456256018 -18.033234456256018 -18.033234456256018 -18.033234456256018 -18.033234456256018 -18.033234456256018 -18.033234456256018 -18.033234456256018 -18.033234456256018 -18.033234456256018 -18.033234456256018 -18.033234456256018 -31.275680651347439 -31.275680651347439 -31.275680651347439 -31.275680651347439 -31.275680651347439 -31.275680651347439 -31.275680651347439 -31.275680651347439 -31.275680651347439 -31.275680651347439 -31.275680651347439 -31.275680651347439 -31.275680651347439 -31.275680651347439 -31.275680651347439 -31.275680651347439 -42.74591518457872 -42.74591518457872 -42.74591518457872 -42.74591518457872 -42.74591518457872 -42.74591518457872 -42.74591518457872 -42.74591518457872 -42.74591518457872 -42.74591518457872 -42.74591518457872 -42.74591518457872 -42.74591518457872 -42.74591518457872 -42.74591518457872 -42.74591518457872 -41.965783817375467 -41.965783817375467 -41.965783817375467 -41.965783817375467 -41.965783817375467 -41.965783817375467 -41.965783817375467 -41.965783817375467 -41.965783817375467 -41.965783817375467 -41.965783817375467 -41.965783817375467 -41.965783817375467 -41.965783817375467 -41.965783817375467 -41.965783817375467 -41.896599817565793 -41.896599817565793 -41.896599817565793 -41.896599817565793 -41.896599817565793 -41.896599817565793 -41.896599817565793 -41.896599817565793 -41.896599817565793 -41.896599817565793 -41.896599817565793 -41.896599817565793 -41.896599817565793 -41.896599817565793 -41.896599817565793 -4