<?xml version="1.0"?>
<VTKFile type="UnstructuredGrid" version="0.1" byte_order="LittleEndian">
<UnstructuredGrid>
<Piece NumberOfPoints="69" NumberOfCells="124">
<Points>
<DataArray type="Float64" NumberOfComponents="3" format="ascii">
0 0 0 0.084352422163911631 0.086451712656266194 0 0.1249999999997554 0 0 0 0.12500000000034689 0 0.1008171452988615 0.18885703697250469 0 0.2403886547178353 0.24188814792673841 0 0.18402761812864499 0.1117324051466445 0 0.25 -0 0 0.31250000000020822 0.12500000000041631 0 0.4287911518546233 0.15455445427966699 0 0.43749999999913258 0 0 0.43750000000006939 0.37500000000013878 0 0.49457493289300231 0.26251703776555491 0 0.37500000000027761 0.25000000000055511 0 0.33819444444448321 0.33819444444456342 0 0.37499999999973488 0.43749999999986738 0 0.14929124186975251 0.44582793568106382 0 0.24999999999960859 0.37499999999980432 0 0.1249999999997599 0.31249999999987998 0 0 0.25 0 0 0.43750000000034689 0 0 0.62500000000069389 0 0.13900789599611679 0.72618316107059999 0 0.13928587515912139 0.57339806105677438 0 0 1 0 0 0.81250000000104083 0 0.12710107136012311 0.87094806618203435 0 0.1875000000005205 1 0 0.27987960212930818 0.83442741470570525 0 0.44927105396715372 0.85565124085155886 0 0.37500000000069389 1 0 0.26452443700674649 0.51563531581639865 0 0.27589467050686478 0.66058853156435704 0 0.38136204680495073 0.74038592213831234 0 0.4139414069912184 0.60563252640100373 0 0.5 0.5 -0 0.50145856933078625 0.73674663046504862 0 0.5625 0.625 0 0.71259747807844409 0.63846691315701831 0 0.63236534182377013 0.50296756406332266 0 0.56250000000086742 1 0 0.56777512057187585 0.8470224641095303 0 0.625 0.75 0 0.73857795170433571 0.77736788564284653 0 0.6875 0.875 0 0.75 1 0 0.80552984491000901 0.88711122872127413 0 0.85787927391517405 0.753532520882502 0 1 0.83333333333356463 0 0.90637953422180084 0.90208583328057301 0 1 1 0 0.875 1 0 0.86127466977819722 0.57948076978797636 0 1 0.66666666666736052 0 1 0.50000000000138767 0 0.75338430262320943 0.49294443423175599 0 0.86569408477091048 0.40983673916766611 0 0.86087286690217635 0.25206523597959418 0 1 0.33333333333448978 0 1 0.16666666666736049 0 1 0 0 0.87698901648812122 0.1160638338657984 0 0.81249999999947953 0 0 0.71508993406183785 0.15715956854777599 0 0.62499999999895905 0 0 0.54475767668582953 0.1431838882066932 0 0.61108462585082757 0.25750599582343231 0 0.56986707178436635 0.37762093650871992 0 0.71826039492840632 0.34564020717216182 0 
</DataArray>
</Points>
<Cells>
<DataArray type="UInt32" Name="connectivity" format="ascii">
0 1 3 0 1 2 3 4 19 1 3 4 1 4 6 4 5 18 4 5 6 5 6 8 2 6 7 6 7 8 1 2 6 7 8 7 8 10 5 8 13 8 13 8 9 13 9 12 13 9 12 65 8 9 10 9 10 65 15 35 11 15 35 11 14 15 11 35 11 12 13 11 13 11 13 14 5 14 17 5 13 14 14 15 17 15 17 15 17 31 16 17 31 16 17 18 5 17 18 17 18 18 19 20 4 18 19 18 19 16 20 23 16 18 20 20 21 23 21 22 23 21 22 25 22 23 32 22 28 32 23 31 32 16 23 31 24 26 27 24 25 26 22 25 26 22 26 28 26 27 28 28 29 30 27 28 30 28 29 33 29 33 36 29 30 40 31 32 34 15 31 34 28 32 33 32 33 34 33 34 36 34 36 37 15 34 35 34 35 37 35 37 39 35 37 36 37 42 37 42 38 42 43 37 38 42 38 39 55 37 38 39 40 41 44 29 40 41 29 36 41 36 41 42 42 43 44 43 44 46 42 44 41 42 44 40 44 45 44 45 46 44 45 45 46 51 46 49 51 46 47 49 43 46 47 47 48 53 47 48 49 48 49 50 49 50 51 38 52 55 38 47 52 38 43 47 47 52 53 52 53 54 54 56 58 52 54 56 52 55 56 55 56 68 57 63 68 56 57 68 57 58 59 56 57 58 57 59 61 60 61 62 59 60 61 61 62 63 57 61 63 63 64 65 62 63 64 10 64 65 63 65 66 12 65 66 12 66 67 11 12 67 11 35 67 35 39 67 39 55 68 39 67 68 63 66 68 66 67 68 
</DataArray>
<DataArray type="UInt32" Name="offsets" format="ascii">
3 6 9 12 15 18 21 24 27 30 33 35 38 41 43 46 49 52 55 58 60 63 66 68 71 73 76 79 82 85 87 90 93 96 99 101 104 107 109 112 115 118 121 124 127 130 133 136 139 142 145 148 151 154 157 160 163 166 169 172 175 178 181 184 187 190 193 195 198 200 203 206 209 212 215 218 221 224 227 230 232 235 238 241 243 246 249 252 255 258 261 264 267 270 273 276 279 282 285 288 291 294 297 300 303 306 309 312 315 318 321 324 327 330 333 336 339 342 345 348 351 354 357 360 
</DataArray>
<DataArray type="UInt32" Name="types" format="ascii">
5 5 5 5 5 5 5 5 5 5 5 3 5 5 3 5 5 5 5 5 3 5 5 3 5 3 5 5 5 5 3 5 5 5 5 3 5 5 3 5 5 5 5 5 5 5 5 5 5 5 5 5 5 5 5 5 5 5 5 5 5 5 5 5 5 5 5 3 5 3 5 5 5 5 5 5 5 5 5 5 3 5 5 5 3 5 5 5 5 5 5 5 5 5 5 5 5 5 5 5 5 5 5 5 5 5 5 5 5 5 5 5 5 5 5 5 5 5 5 5 5 5 5 5 
</DataArray>
</Cells>
<CellData Scalars="porosity,age_conc,U235_conc," Vectors="" Tensors="">
<DataArray type="Float64" Name="porosity" format="ascii">
0.25 0.25 0.25 0.25 0.25 0.25 0.25 0.25 0.25 0.25 0.25 0.25 0.25 0.25 0.25 0.25 0.25 0.25 0.25 0.25 0.25 0.25 0.25 0.25 0.25 0.25 0.25 0.25 0.25 0.25 0.25 0.25 0.25 0.25 0.25 0.25 0.25 0.25 0.25 0.25 0.25 0.25 0.25 0.25 0.25 0.25 0.25 0.25 0.25 0.25 0.25 0.25 0.25 0.25 0.25 0.25 0.25 0.25 0.25 0.25 0.25 0.25 0.25 0.25 0.25 0.25 0.25 0.25 0.25 0.25 0.25 0.25 0.25 0.25 0.25 0.25 0.25 0.25 0.25 0.25 0.25 0.25 0.25 0.25 0.25 0.25 0.25 0.25 0.25 0.25 0.25 0.25 0.25 0.25 0.25 0.25 0.25 0.25 0.25 0.25 0.25 0.25 0.25 0.25 0.25 0.25 0.25 0.25 0.25 0.25 0.25 0.25 0.25 0.25 0.25 0.25 0.25 0.25 0.25 0.25 0.25 0.25 0.25 0.25 
</DataArray>
<DataArray type="Float64" Name="age_conc" format="ascii">
0.34813715428355518 0.12830153088970861 0.83797668529590141 0.50022975302906481 0.079249369147171789 0.0046305279266294066 0.00032884332538146634 7.3648548197305825e-05 0.0023899377376516307 4.5978794307398814e-06 0.025314822197865471 0.99027238522941019 0.024976052088038415 0.0010315898755764445 0.99359691751199963 0.08130070049684289 0.027363536228098388 0.0017527870300337658 0.011645218452531452 0.00016098639529365068 0.95964959135432926 0.32935365806076156 0.079953164695157244 0.99421455924716184 0.090651315858754702 0.99413738157917853 0.070837891017295235 0.018646765106416573 0.010126113539629951 0.15338865278888478 0.84557810787084231 2.123158053465775e-06 3.5778289402764413e-06 2.5059728176421035e-07 0.053896635316306146 0.63072180491815111 3.1369203505485499e-07 0.021437279022424375 0.37723350735048472 4.2730354977498804e-05 3.7358054832727484e-06 0.00058170932599976855 0.0044766008606792005 0.027892626342836915 0.0041008901275022816 0.022537985362054151 0.00047429619739669402 6.2089714629980146e-05 0.91944015700732373 0.36722808150761738 0.12181412039997015 0.11851976391186811 0.35176846349619878 0.28304412577531124 0.74632070539743933 0.10511795792757822 0.024266889587678964 0.75789345239265893 0.00037412310459517169 2.8148108514514976e-05 0.021859935729269486 0.0030191357308294343 0.0042715388815934893 0.00062450926089015126 3.4993229873747453e-06 7.2148587353972656e-05 0.089418022229772645 0.99426316869673537 0.0043547780502004056 1.4876692237858546 0.087631364575388504 0.11142874425017663 0.0044446821847453763 0.045413255741977125 0.24881604797476606 0.25079308906728748 0.08411422564374646 0.022633174191377607 0.25331132829815739 0.37689195988242158 1.4975297725291008 0.078775319342419867 0.6887022135363744 0.70170191212984778 1.4994389438419822 1.1483114494434676 0.71509814318906761 0.31952660630718438 0.12486896627947723 0.24802770959164799 0.23361227190189054 0.60235927934467237 1.0995220803112524 0.0034082719598787798 0.012810325135679056 0.031036126139701893 0.10145214342832945 0.23153188295368254 0.20431172215041757 0.10087420795679827 0.011622953540194221 0.0028826332110960034 0.00090984655150653376 0.0044123200953067494 0.13850811241277672 0.088305286030417623 0.066437705019757154 0.018902759237204157 0.061279017303094582 0.0012084129041561235 0.0045123344770096998 1.1950868573575431e-06 0.00011668533989944957 5.3371083312285803e-06 1.7342195558974621e-05 0.00036255774725386253 0.0023364450434446814 0.027140269625779003 0.079027018769894111 0.034448912863269995 0.0008196735593889343 0.0015689280598556016 5.6360203710080064e-05 0.00032834811222767844 
</DataArray>
<DataArray type="Float64" Name="U235_conc" format="ascii">
0.34813715428355518 0.12830153088970861 0.83797668529590141 0.50022975302906481 0.079249369147171789 0.0046305279266294066 0.00032884332538146634 7.3648548197305825e-05 0.0023899377376516307 4.5978794307398814e-06 0.025314822197865471 0.99027238522941019 0.024976052088038415 0.0010315898755764445 0.99359691751199963 0.08130070049684289 0.027363536228098388 0.0017527870300337658 0.011645218452531452 0.00016098639529365068 0.95964959135432926 0.32935365806076156 0.079953164695157244 0.99421455924716184 0.090651315858754702 0.99413738157917853 0.070837891017295235 0.018646765106416573 0.010126113539629951 0.15338865278888478 0.84557810787084231 2.123158053465775e-06 3.5778289402764413e-06 2.5059728176421035e-07 0.053896635316306146 0.63072180491815111 3.1369203505485499e-07 0.021437279022424375 0.37723350735048472 4.2730354977498804e-05 3.7358054832727484e-06 0.00058170932599976855 0.0044766008606792005 0.027892626342836915 0.0041008901275022816 0.022537985362054151 0.00047429619739669402 6.2089714629980146e-05 0.91944015700732373 0.36722808150761738 0.12181412039997015 0.11851976391186811 0.35176846349619878 0.28304412577531124 0.74632070539743933 0.10511795792757822 0.024266889587678964 0.75789345239265893 0.00037412310459517169 2.8148108514514976e-05 0.021859935729269486 0.0030191357308294343 0.0042715388815934893 0.00062450926089015126 3.4993229873747453e-06 7.2148587353972656e-05 0.089418022229772645 0.99426316869673537 0.0043547780502004056 1.4876692237858546 0.087631364575388504 0.11142874425017663 0.0044446821847453763 0.045413255741977125 0.24881604797476606 0.25079308906728748 0.08411422564374646 0.022633174191377607 0.25331132829815739 0.37689195988242158 1.4975297725291008 0.078775319342419867 0.6887022135363744 0.70170191212984778 1.4994389438419822 1.1483114494434676 0.71509814318906761 0.31952660630718438 0.12486896627947723 0.24802770959164799 0.23361227190189054 0.60235927934467237 1.0995220803112524 0.0034082719598787798 0.012810325135679056 0.031036126139701893 0.10145214342832945 0.23153188295368254 0.20431172215041757 0.10087420795679827 0.011622953540194221 0.0028826332110960034 0.00090984655150653376 0.0044123200953067494 0.13850811241277672 0.088305286030417623 0.066437705019757154 0.018902759237204157 0.061279017303094582 0.0012084129041561235 0.0045123344770096998 1.1950868573575431e-06 0.00011668533989944957 5.3371083312285803e-06 1.7342195558974621e-05 0.00036255774725386253 0.0023364450434446814 0.027140269625779003 0.079027018769894111 0.034448912863269995 0.0008196735593889343 0.0015689280598556016 5.6360203710080064e-05 0.00032834811222767844 
</DataArray>
</CellData>
</Piece>
</UnstructuredGrid>
</VTKFile>
