<?xml version="1.0"?>
<VTKFile type="UnstructuredGrid" version="0.1" byte_order="LittleEndian">
<UnstructuredGrid>
<Piece NumberOfPoints="69" NumberOfCells="124">
<Points>
<DataArray type="Float64" NumberOfComponents="3" format="ascii">
0 0 0 0.084352422163911631 0.086451712656266194 0 0.1249999999997554 0 0 0 0.12500000000034689 0 0.1008171452988615 0.18885703697250469 0 0.2403886547178353 0.24188814792673841 0 0.18402761812864499 0.1117324051466445 0 0.25 -0 0 0.31250000000020822 0.12500000000041631 0 0.4287911518546233 0.15455445427966699 0 0.43749999999913258 0 0 0.43750000000006939 0.37500000000013878 0 0.49457493289300231 0.26251703776555491 0 0.37500000000027761 0.25000000000055511 0 0.33819444444448321 0.33819444444456342 0 0.37499999999973488 0.43749999999986738 0 0.14929124186975251 0.44582793568106382 0 0.24999999999960859 0.37499999999980432 0 0.1249999999997599 0.31249999999987998 0 0 0.25 0 0 0.43750000000034689 0 0 0.62500000000069389 0 0.13900789599611679 0.72618316107059999 0 0.13928587515912139 0.57339806105677438 0 0 1 0 0 0.81250000000104083 0 0.12710107136012311 0.87094806618203435 0 0.1875000000005205 1 0 0.27987960212930818 0.83442741470570525 0 0.44927105396715372 0.85565124085155886 0 0.37500000000069389 1 0 0.26452443700674649 0.51563531581639865 0 0.27589467050686478 0.66058853156435704 0 0.38136204680495073 0.74038592213831234 0 0.4139414069912184 0.60563252640100373 0 0.5 0.5 -0 0.50145856933078625 0.73674663046504862 0 0.5625 0.625 0 0.71259747807844409 0.63846691315701831 0 0.63236534182377013 0.50296756406332266 0 0.56250000000086742 1 0 0.56777512057187585 0.8470224641095303 0 0.625 0.75 0 0.73857795170433571 0.77736788564284653 0 0.6875 0.875 0 0.75 1 0 0.80552984491000901 0.88711122872127413 0 0.85787927391517405 0.753532520882502 0 1 0.83333333333356463 0 0.90637953422180084 0.90208583328057301 0 1 1 0 0.875 1 0 0.86127466977819722 0.57948076978797636 0 1 0.66666666666736052 0 1 0.50000000000138767 0 0.75338430262320943 0.49294443423175599 0 0.86569408477091048 0.40983673916766611 0 0.86087286690217635 0.25206523597959418 0 1 0.33333333333448978 0 1 0.16666666666736049 0 1 0 0 0.87698901648812122 0.1160638338657984 0 0.81249999999947953 0 0 0.71508993406183785 0.15715956854777599 0 0.62499999999895905 0 0 0.54475767668582953 0.1431838882066932 0 0.61108462585082757 0.25750599582343231 0 0.56986707178436635 0.37762093650871992 0 0.71826039492840632 0.34564020717216182 0 
</DataArray>
</Points>
<Cells>
<DataArray type="UInt32" Name="connectivity" format="ascii">
0 1 3 0 1 2 3 4 19 1 3 4 1 4 6 4 5 18 4 5 6 5 6 8 2 6 7 6 7 8 1 2 6 7 8 7 8 10 5 8 13 8 13 8 9 13 9 12 13 9 12 65 8 9 10 9 10 65 15 35 11 15 35 11 14 15 11 35 11 12 13 11 13 11 13 14 5 14 17 5 13 14 14 15 17 15 17 15 17 31 16 17 31 16 17 18 5 17 18 17 18 18 19 20 4 18 19 18 19 16 20 23 16 18 20 20 21 23 21 22 23 21 22 25 22 23 32 22 28 32 23 31 32 16 23 31 24 26 27 24 25 26 22 25 26 22 26 28 26 27 28 28 29 30 27 28 30 28 29 33 29 33 36 29 30 40 31 32 34 15 31 34 28 32 33 32 33 34 33 34 36 34 36 37 15 34 35 34 35 37 35 37 39 35 37 36 37 42 37 42 38 42 43 37 38 42 38 39 55 37 38 39 40 41 44 29 40 41 29 36 41 36 41 42 42 43 44 43 44 46 42 44 41 42 44 40 44 45 44 45 46 44 45 45 46 51 46 49 51 46 47 49 43 46 47 47 48 53 47 48 49 48 49 50 49 50 51 38 52 55 38 47 52 38 43 47 47 52 53 52 53 54 54 56 58 52 54 56 52 55 56 55 56 68 57 63 68 56 57 68 57 58 59 56 57 58 57 59 61 60 61 62 59 60 61 61 62 63 57 61 63 63 64 65 62 63 64 10 64 65 63 65 66 12 65 66 12 66 67 11 12 67 11 35 67 35 39 67 39 55 68 39 67 68 63 66 68 66 67 68 
</DataArray>
<DataArray type="UInt32" Name="offsets" format="ascii">
3 6 9 12 15 18 21 24 27 30 33 35 38 41 43 46 49 52 55 58 60 63 66 68 71 73 76 79 82 85 87 90 93 96 99 101 104 107 109 112 115 118 121 124 127 130 133 136 139 142 145 148 151 154 157 160 163 166 169 172 175 178 181 184 187 190 193 195 198 200 203 206 209 212 215 218 221 224 227 230 232 235 238 241 243 246 249 252 255 258 261 264 267 270 273 276 279 282 285 288 291 294 297 300 303 306 309 312 315 318 321 324 327 330 333 336 339 342 345 348 351 354 357 360 
</DataArray>
<DataArray type="UInt32" Name="types" format="ascii">
5 5 5 5 5 5 5 5 5 5 5 3 5 5 3 5 5 5 5 5 3 5 5 3 5 3 5 5 5 5 3 5 5 5 5 3 5 5 3 5 5 5 5 5 5 5 5 5 5 5 5 5 5 5 5 5 5 5 5 5 5 5 5 5 5 5 5 3 5 3 5 5 5 5 5 5 5 5 5 5 3 5 5 5 3 5 5 5 5 5 5 5 5 5 5 5 5 5 5 5 5 5 5 5 5 5 5 5 5 5 5 5 5 5 5 5 5 5 5 5 5 5 5 5 
</DataArray>
</Cells>
<CellData Scalars="porosity,age_conc,U235_conc," Vectors="" Tensors="">
<DataArray type="Float64" Name="porosity" format="ascii">
0.25 0.25 0.25 0.25 0.25 0.25 0.25 0.25 0.25 0.25 0.25 0.25 0.25 0.25 0.25 0.25 0.25 0.25 0.25 0.25 0.25 0.25 0.25 0.25 0.25 0.25 0.25 0.25 0.25 0.25 0.25 0.25 0.25 0.25 0.25 0.25 0.25 0.25 0.25 0.25 0.25 0.25 0.25 0.25 0.25 0.25 0.25 0.25 0.25 0.25 0.25 0.25 0.25 0.25 0.25 0.25 0.25 0.25 0.25 0.25 0.25 0.25 0.25 0.25 0.25 0.25 0.25 0.25 0.25 0.25 0.25 0.25 0.25 0.25 0.25 0.25 0.25 0.25 0.25 0.25 0.25 0.25 0.25 0.25 0.25 0.25 0.25 0.25 0.25 0.25 0.25 0.25 0.25 0.25 0.25 0.25 0.25 0.25 0.25 0.25 0.25 0.25 0.25 0.25 0.25 0.25 0.25 0.25 0.25 0.25 0.25 0.25 0.25 0.25 0.25 0.25 0.25 0.25 0.25 0.25 0.25 0.25 0.25 0.25 
</DataArray>
<DataArray type="Float64" Name="age_conc" format="ascii">
0.98650418785587846 1.0488042027860711 0.91946199583663102 0.68268065901294861 0.54028471173907389 0.66034257956903586 0.27318321774954063 0.29899525691632967 1.5260654956001882 0.48282678309348254 1.1190622049874737 1.4755175687131692 0.23078494828795693 0.66486232807350998 1.5189743726840041 0.35660896559518962 0.24600673740240045 0.093105273673030592 0.16302380915169468 0.061268344253564908 1.9864348781724166 1.4876037517925105 1.2743722331606087 1.8427990308602846 0.3539967134536785 1.6472765241613581 1.1397331715554597 0.88549931018905159 0.74504380317702457 1.2101087726267896 1.9859735441997599 0.28107101492895725 0.14678312945859096 0.23220049707117316 0.87435324344918297 1.981189118695593 0.13272494659033005 0.72878465036262341 1.9568447990074851 0.20999505535927812 0.11170758992655114 0.37385399959553856 0.66559899181097482 0.97689378935036408 0.70100703274892684 0.9619096394123543 0.37051087090513951 0.25346924170432528 1.5167918508186862 1.4326781156773822 1.23187469170455 1.2175083806901159 1.5050520649396333 1.5345967013852877 1.5722844767230579 1.2185888942559728 1.143209255347188 1.6807273155160485 0.43116507457575787 0.20707047625705985 1.0404479873234866 0.66223905770360325 0.78131854822427693 0.75065922595613888 0.44877167534365409 0.67861372474316539 0.74000080877409813 1.9864581697997281 1.1684360452078957 1.9930142316245301 1.1832599349550017 1.1698504324827992 0.64715675875178258 0.71864848685060401 1.7705988012619616 1.5272891637034076 1.2716220987987223 1.2831955601222913 1.4311295955390757 1.4409887852539471 1.9967734126990229 1.5643388226192791 1.9167792760427864 1.490176285173612 1.9988340188055542 1.5176660655401615 1.5790358843715844 1.497342358891069 1.4392696863991148 1.7557907353160662 1.6139757706208799 1.9281831502668876 1.7487539787592534 0.78138761356599096 1.0909733245386357 1.1287372134090441 1.355162427538624 1.6651685835244443 1.6447883736637634 1.1963635662879077 0.87004763915240002 0.50931289476776898 0.33114212334966403 0.66291620223331993 1.6290722410203511 1.1270292687365178 1.1391792132534295 0.96909969835160337 1.7097253679256457 0.45801841106375846 0.60865460888236822 0.070400682144888718 0.18467076713202155 0.034658941456534073 0.091803404872421071 0.084335331808689906 0.13435096826578607 0.26458607615386986 0.44346567662407343 0.38412480427531343 0.39456541148186725 0.29107931160242634 0.18828019717695671 0.15800916603262896 
</DataArray>
<DataArray type="Float64" Name="U235_conc" format="ascii">
0.98650418785587846 1.0488042027860711 0.91946199583663102 0.68268065901294861 0.54028471173907389 0.66034257956903586 0.27318321774954063 0.29899525691632967 1.5260654956001882 0.48282678309348254 1.1190622049874737 1.4755175687131692 0.23078494828795693 0.66486232807350998 1.5189743726840041 0.35660896559518962 0.24600673740240045 0.093105273673030592 0.16302380915169468 0.061268344253564908 1.9864348781724166 1.4876037517925105 1.2743722331606087 1.8427990308602846 0.3539967134536785 1.6472765241613581 1.1397331715554597 0.88549931018905159 0.74504380317702457 1.2101087726267896 1.9859735441997599 0.28107101492895725 0.14678312945859096 0.23220049707117316 0.87435324344918297 1.981189118695593 0.13272494659033005 0.72878465036262341 1.9568447990074851 0.20999505535927812 0.11170758992655114 0.37385399959553856 0.66559899181097482 0.97689378935036408 0.70100703274892684 0.9619096394123543 0.37051087090513951 0.25346924170432528 1.5167918508186862 1.4326781156773822 1.23187469170455 1.2175083806901159 1.5050520649396333 1.5345967013852877 1.5722844767230579 1.2185888942559728 1.143209255347188 1.6807273155160485 0.43116507457575787 0.20707047625705985 1.0404479873234866 0.66223905770360325 0.78131854822427693 0.75065922595613888 0.44877167534365409 0.67861372474316539 0.74000080877409813 1.9864581697997281 1.1684360452078957 1.9930142316245301 1.1832599349550017 1.1698504324827992 0.64715675875178258 0.71864848685060401 1.7705988012619616 1.5272891637034076 1.2716220987987223 1.2831955601222913 1.4311295955390757 1.4409887852539471 1.9967734126990229 1.5643388226192791 1.9167792760427864 1.490176285173612 1.9988340188055542 1.5176660655401615 1.5790358843715844 1.497342358891069 1.4392696863991148 1.7557907353160662 1.6139757706208799 1.9281831502668876 1.7487539787592534 0.78138761356599096 1.0909733245386357 1.1287372134090441 1.355162427538624 1.6651685835244443 1.6447883736637634 1.1963635662879077 0.87004763915240002 0.50931289476776898 0.33114212334966403 0.66291620223331993 1.6290722410203511 1.1270292687365178 1.1391792132534295 0.96909969835160337 1.7097253679256457 0.45801841106375846 0.60865460888236822 0.070400682144888718 0.18467076713202155 0.034658941456534073 0.091803404872421071 0.084335331808689906 0.13435096826578607 0.26458607615386986 0.44346567662407343 0.38412480427531343 0.39456541148186725 0.29107931160242634 0.18828019717695671 0.15800916603262896 
</DataArray>
</CellData>
</Piece>
</UnstructuredGrid>
</VTKFile>
