<?xml version="1.0"?>
<VTKFile type="UnstructuredGrid" version="0.1" byte_order="LittleEndian">
<UnstructuredGrid>
<Piece NumberOfPoints="3918" NumberOfCells="1306">
<Points>
<DataArray type="Float64" NumberOfComponents="3" format="ascii">
2.199999999999999e+00 1.000000000000000e+00 0.000000000000000e+00 2.167042760209688e+00 9.180909330202516e-01 0.000000000000000e+00 2.276253312368741e+00 8.960026502048396e-01 0.000000000000000e+00 4.794660531865603e+00 4.928781786967001e-01 0.000000000000000e+00 4.895148782943732e+00 5.622595023726160e-01 0.000000000000000e+00 4.773700345920383e+00 5.924187786805324e-01 0.000000000000000e+00 2.543072460766750e+00 7.257064952909391e-01 0.000000000000000e+00 2.612778635682587e+00 6.379739460669237e-01 0.000000000000000e+00 2.649888912334054e+00 7.569619856190068e-01 0.000000000000000e+00 1.948052693999185e+00 1.289873040940654e-01 0.000000000000000e+00 1.894432874635162e+00 7.551835003504323e-02 0.000000000000000e+00 1.999999999995511e+00 0.000000000000000e+00 0.000000000000000e+00 4.558741850192379e+00 1.706710584301058e-01 0.000000000000000e+00 4.482003026509532e+00 2.394413792785933e-01 0.000000000000000e+00 4.451469977250477e+00 1.357957442429618e-01 0.000000000000000e+00 3.299999999999999e+00 1.000000000000000e+00 0.000000000000000e+00 3.204890379983837e+00 9.254368576810614e-01 0.000000000000000e+00 3.273830491511281e+00 8.834576202305108e-01 0.000000000000000e+00 3.299999999999999e+00 1.000000000000000e+00 0.000000000000000e+00 3.273830491511281e+00 8.834576202305108e-01 0.000000000000000e+00 3.353422182013107e+00 9.028315595988372e-01 0.000000000000000e+00 4.111703902366866e+00 1.331175536465074e-01 0.000000000000000e+00 4.099999999998633e+00 0.000000000000000e+00 0.000000000000000e+00 4.182764237453481e+00 8.084782043728693e-02 0.000000000000000e+00 4.699999999999545e+00 0.000000000000000e+00 0.000000000000000e+00 4.776755050008729e+00 9.373387207737824e-02 0.000000000000000e+00 4.690158205531358e+00 1.364814217295172e-01 0.000000000000000e+00 1.948052693999185e+00 1.289873040940654e-01 0.000000000000000e+00 1.999999999995511e+00 0.000000000000000e+00 0.000000000000000e+00 2.049999999995552e+00 8.978335458097943e-02 0.000000000000000e+00 2.612778635682587e+00 6.379739460669237e-01 0.000000000000000e+00 2.680790723483929e+00 5.770944853520404e-01 0.000000000000000e+00 2.721274941296599e+00 6.860745476515622e-01 0.000000000000000e+00 2.217157304231143e+00 1.490340955835976e-01 0.000000000000000e+00 2.263108527926066e+00 7.883543312226374e-02 0.000000000000000e+00 2.320771471773918e+00 1.774611341310380e-01 0.000000000000000e+00 6.201761285132973e-01 8.145180217066926e-01 0.000000000000000e+00 5.107672864112288e-01 8.169186336319382e-01 0.000000000000000e+00 5.291217175395199e-01 7.399324289248853e-01 0.000000000000000e+00 2.764640797973617e+00 6.197673077442869e-01 0.000000000000000e+00 2.721274941296599e+00 6.860745476515622e-01 0.000000000000000e+00 2.680790723483929e+00 5.770944853520404e-01 0.000000000000000e+00 3.000000000000007e-01 1.000000000000000e+00 0.000000000000000e+00 2.235202862591317e-01 8.887389633270458e-01 0.000000000000000e+00 3.153592145619369e-01 8.815404533065442e-01 0.000000000000000e+00 2.299999999999999e+00 1.000000000000000e+00 0.000000000000000e+00 2.199999999999999e+00 1.000000000000000e+00 0.000000000000000e+00 2.276253312368741e+00 8.960026502048396e-01 0.000000000000000e+00 1.299999999999999e+00 1.000000000000000e+00 0.000000000000000e+00 1.246238897717278e+00 9.001620782265900e-01 0.000000000000000e+00 1.325594839248253e+00 8.832813258746552e-01 0.000000000000000e+00 1.299999999999999e+00 1.000000000000000e+00 0.000000000000000e+00 1.325594839248253e+00 8.832813258746552e-01 0.000000000000000e+00 1.386478687610004e+00 9.220875103295796e-01 0.000000000000000e+00 3.099999999999999e+00 1.000000000000000e+00 0.000000000000000e+00 3.138079516399413e+00 8.908467724822530e-01 0.000000000000000e+00 3.204890379983837e+00 9.254368576810614e-01 0.000000000000000e+00 1.599999999996661e+00 0.000000000000000e+00 0.000000000000000e+00 1.679983210048711e+00 8.220201556683318e-02 0.000000000000000e+00 1.609545399082946e+00 1.308291592921435e-01 0.000000000000000e+00 1.061007011519329e+00 5.618772874050625e-01 0.000000000000000e+00 1.160572984923127e+00 6.015530474704378e-01 0.000000000000000e+00 1.050000000000000e+00 6.706367924525535e-01 0.000000000000000e+00 6.215262983536076e-01 7.328515730233995e-01 0.000000000000000e+00 6.201761285132973e-01 8.145180217066926e-01 0.000000000000000e+00 5.291217175395199e-01 7.399324289248853e-01 0.000000000000000e+00 1.948052693999185e+00 1.289873040940654e-01 0.000000000000000e+00 2.049999999995552e+00 8.978335458097943e-02 0.000000000000000e+00 2.057936946544583e+00 1.849235821189668e-01 0.000000000000000e+00 2.091091774288676e+00 8.874649005201438e-01 0.000000000000000e+00 1.981107049933336e+00 8.600018538720656e-01 0.000000000000000e+00 2.085258760309228e+00 8.052686384966041e-01 0.000000000000000e+00 1.039491394416145e+00 8.340298301149526e-01 0.000000000000000e+00 9.354088824890808e-01 8.828123294523768e-01 0.000000000000000e+00 9.137231126914012e-01 8.048617635747636e-01 0.000000000000000e+00 1.981107049933336e+00 8.600018538720656e-01 0.000000000000000e+00 1.996885229669902e+00 7.683000423456376e-01 0.000000000000000e+00 2.085258760309228e+00 8.052686384966041e-01 0.000000000000000e+00 2.299999999999999e+00 1.000000000000000e+00 0.000000000000000e+00 2.276253312368741e+00 8.960026502048396e-01 0.000000000000000e+00 2.395017918255099e+00 9.023368606738377e-01 0.000000000000000e+00 4.399999999999088e+00 0.000000000000000e+00 0.000000000000000e+00 4.443360971034338e+00 6.001006090376452e-02 0.000000000000000e+00 4.340464407462508e+00 1.058022966868348e-01 0.000000000000000e+00 7.543413513517198e-01 1.288879963162577e-01 0.000000000000000e+00 6.466910199083232e-01 1.799054750174742e-01 0.000000000000000e+00 6.626722243468293e-01 7.849715957809261e-02 0.000000000000000e+00 9.999999999992801e-02 0.000000000000000e+00 0.000000000000000e+00 2.066914384950196e-01 8.554607894793897e-02 0.000000000000000e+00 8.279903559142687e-02 8.279903559151081e-02 0.000000000000000e+00 3.431815931955504e-01 3.314386771104964e-01 0.000000000000000e+00 2.371857680100064e-01 3.586554844111011e-01 0.000000000000000e+00 2.478307344467225e-01 2.478307344464838e-01 0.000000000000000e+00 1.039491394416145e+00 8.340298301149526e-01 0.000000000000000e+00 1.035017143854235e+00 9.257730596464975e-01 0.000000000000000e+00 9.354088824890808e-01 8.828123294523768e-01 0.000000000000000e+00 1.763223103020597e+00 6.969213383069597e-01 0.000000000000000e+00 1.659764170257915e+00 7.783869792876411e-01 0.000000000000000e+00 1.641237689750194e+00 6.703960699373966e-01 0.000000000000000e+00 2.171230381509611e+00 6.460806590265337e-01 0.000000000000000e+00 2.235035871331497e+00 5.528935828550036e-01 0.000000000000000e+00 2.240765570563543e+00 6.710361137189144e-01 0.000000000000000e+00 3.099999999999999e+00 1.000000000000000e+00 0.000000000000000e+00 3.204890379983837e+00 9.254368576810614e-01 0.000000000000000e+00 3.199999999999998e+00 1.000000000000000e+00 0.000000000000000e+00 4.689375887502736e+00 8.629982390821114e-01 0.000000000000000e+00 4.559658010798574e+00 8.268398885804081e-01 0.000000000000000e+00 4.659699064592896e+00 7.795622692497817e-01 0.000000000000000e+00 2.217157304231143e+00 1.490340955835976e-01 0.000000000000000e+00 2.320771471773918e+00 1.774611341310380e-01 0.000000000000000e+00 2.244951071131736e+00 2.260199244934647e-01 0.000000000000000e+00 3.859396958574677e-01 4.484332494195724e-01 0.000000000000000e+00 2.998774732159264e-01 4.343088009374657e-01 0.000000000000000e+00 3.431815931955504e-01 3.314386771104964e-01 0.000000000000000e+00 1.948052693999185e+00 1.289873040940654e-01 0.000000000000000e+00 2.057936946544583e+00 1.849235821189668e-01 0.000000000000000e+00 1.949071218763063e+00 2.055183505669977e-01 0.000000000000000e+00 4.558741850192379e+00 1.706710584301058e-01 0.000000000000000e+00 4.451469977250477e+00 1.357957442429618e-01 0.000000000000000e+00 4.536544111235556e+00 7.547590122663222e-02 0.000000000000000e+00 2.764640797973617e+00 6.197673077442869e-01 0.000000000000000e+00 2.748586785039362e+00 5.211021237021853e-01 0.000000000000000e+00 2.861122426073405e+00 5.967442355315300e-01 0.000000000000000e+00 9.849196667091529e-01 7.457027191416240e-01 0.000000000000000e+00 1.039491394416145e+00 8.340298301149526e-01 0.000000000000000e+00 9.137231126914012e-01 8.048617635747636e-01 0.000000000000000e+00 2.171230381509611e+00 6.460806590265337e-01 0.000000000000000e+00 2.122199951799849e+00 5.850416005702397e-01 0.000000000000000e+00 2.235035871331497e+00 5.528935828550036e-01 0.000000000000000e+00 1.948411343815324e+00 5.977864372950021e-01 0.000000000000000e+00 1.831604818415202e+00 5.415700660643472e-01 0.000000000000000e+00 1.949496869330408e+00 5.032480558805372e-01 0.000000000000000e+00 9.555466748202026e-01 6.138712331357172e-01 0.000000000000000e+00 9.543842823432471e-01 5.002189144552502e-01 0.000000000000000e+00 1.061007011519329e+00 5.618772874050625e-01 0.000000000000000e+00 3.211383243381871e+00 8.238513614296178e-01 0.000000000000000e+00 3.287305785442545e+00 7.342276537100590e-01 0.000000000000000e+00 3.314972634714863e+00 8.093336828947851e-01 0.000000000000000e+00 1.399999999999999e+00 1.000000000000000e+00 0.000000000000000e+00 1.463012078585596e+00 8.920964591701215e-01 0.000000000000000e+00 1.500000000000000e+00 1.000000000000000e+00 0.000000000000000e+00 3.699999999998025e+00 0.000000000000000e+00 0.000000000000000e+00 3.799999999998176e+00 0.000000000000000e+00 0.000000000000000e+00 3.736690596671465e+00 1.064195787014745e-01 0.000000000000000e+00 3.099999999997114e+00 0.000000000000000e+00 0.000000000000000e+00 3.199999999997265e+00 0.000000000000000e+00 0.000000000000000e+00 3.138143461708514e+00 1.082496513635721e-01 0.000000000000000e+00 3.287305785442545e+00 7.342276537100590e-01 0.000000000000
[...]
<PointData Scalars="A_conc," Vectors="" Tensors="">
<DataArray type="Float64" Name="A_conc" format="ascii">
8.936636958568654e-06 6.388126860760606e-06 1.398107972094873e-05 3.431829932519983e-02 5.119204753041493e-02 3.151969140546783e-02 2.172748732166148e-05 3.886410904327019e-05 4.867643892807591e-05 3.097110896784901e-06 2.352753679616456e-06 6.515721345474573e-06 2.025985222991469e-02 1.426207934601508e-02 1.213624132089752e-02 4.112904251956358e-04 2.114269750183413e-04 3.536585407298187e-04 3.575536769284044e-04 2.975128579129104e-04 4.924590853156957e-04 4.582165450711520e-03 4.348374603306202e-03 6.679101751620664e-03 2.663937109032751e-02 3.683865182632665e-02 2.535001426295431e-02 2.267370901903063e-06 5.813384848901165e-06 5.769670387437638e-06 2.755655573739795e-05 4.836955124329376e-05 6.225052180420032e-05 7.507529697919724e-06 1.101372930358528e-05 1.618982158062556e-05 5.519836493263332e-08 2.544122739696855e-08 2.699886913227298e-08 7.047639681230996e-05 5.382941129066195e-05 3.921415234131931e-05 2.377293801179684e-06 -9.959915663960211e-07 -1.222389587527938e-06 1.485929370005085e-05 7.018040502848342e-06 1.237995046298875e-05 3.209071687280460e-06 -6.635777030966992e-07 -1.043774595965903e-06 3.177596226360939e-06 -1.179850763309654e-06 -2.519652225664181e-07 1.562331323756076e-04 2.093931386469122e-04 3.108146753588858e-04 2.818689673702460e-06 1.041982716694722e-06 9.001658997935221e-08 1.467878538643236e-07 2.997090462426594e-07 1.324445422764382e-07 4.817992488387411e-08 5.138482283868684e-08 2.079465617087562e-08 2.405321212915858e-06 5.948983568979408e-06 6.377099471832304e-06 7.091255489307386e-06 2.713335531101702e-06 6.921190013012378e-06 2.526531912568547e-07 -1.300934640921669e-07 2.215169983446276e-07 3.540741981831416e-06 4.070049481495040e-06 7.410032473842711e-06 1.175552350192307e-05 9.391056297168159e-06 2.135906470513199e-05 1.182427958783498e-02 1.431836029815886e-02 8.357909604948512e-03 -7.363449037026679e-08 2.686253614491602e-07 -1.949908710788935e-07 1.635624930009386e-06 -3.364249989717242e-07 -4.218174396406910e-07 1.349360045026396e-08 4.930171663687204e-09 1.256909555724673e-08 3.986066282475141e-07 -3.872628042522035e-07 -1.134382399531031e-08 2.479500672426881e-06 1.219541964244125e-06 1.037530005028654e-06 6.664325999552991e-06 1.098801709482554e-05 1.158582062174352e-05 1.363246834541003e-04 2.968681435063344e-04 2.917395321678347e-04 2.886622202314022e-02 1.521769824853271e-02 2.565526347246046e-02 7.844264843743158e-06 1.625285930839878e-05 9.988872504807983e-06 1.834452097509051e-08 8.946168443157919e-09 1.302975904521772e-08 3.114453025045768e-06 6.809551888300642e-06 3.296145277424005e-06 1.971574515997033e-02 1.137162462975554e-02 1.804385349366606e-02 5.629339454193405e-05 4.836125732243093e-05 1.022964182044172e-04 1.162917736480988e-07 2.626273101343098e-07 9.092991020155575e-08 8.113069351222178e-06 5.237695285517155e-06 1.220566992127434e-05 4.347022536375365e-06 1.478753534971538e-06 4.371036830610285e-06 9.834456316977394e-08 9.637451581219741e-08 2.108258069739958e-07 2.118350666088125e-04 3.698215571238655e-04 4.340721898350449e-04 2.891246515661786e-06 -1.457312699942503e-06 3.187609357663579e-06 1.173752500226764e-03 2.105408820746135e-03 1.432205823639069e-03 1.635542092598600e-04 3.112623960359765e-04 2.026806352326583e-04 4.083033598420996e-04 2.572943282259315e-04 2.205182505698279e-04 2.457443038064513e-02 4.175158047153530e-02 2.669773075371070e-02 -1.321989910835645e-08 1.488523833693809e-07 4.760073711801662e-08 4.159264191738184e-05 8.285986345652824e-05 5.629746933711567e-05 2.943699178797156e-02 2.046353546465727e-02 1.625303477522921e-02 2.883701312564863e-02 2.756647673540346e-02 2.099807475664140e-02 3.179136059902199e-02 4.904999969608502e-02 4.927047341092620e-02 9.620520306373415e-08 2.772567133202661e-07 2.774928546047453e-07 5.136326857188720e-03 3.462675491269477e-03 4.908144010758959e-03 7.521623589129981e-03 1.004119693023876e-02 1.278108823012558e-02 1.357102381780708e-06 1.566964491656879e-06 -7.010109747147227e-07 6.069769211195360e-05 1.302912115185949e-04 1.264615546397905e-04 5.867622895243216e-03 3.200561998244012e-03 5.948661984853243e-03 9.043959709059783e-04 4.256028662897949e-04 9.305523945813537e-04 1.125745213167571e-06 2.379514643590254e-06 1.107100010289741e-06 7.297727198151206e-08 1.842547831738941e-07 1.957463608436132e-07 3.843774187635998e-04 3.782714848472732e-04 7.054703665337962e-04 1.704519446676207e-03 8.507785652047519e-04 1.706843682069903e-03 5.769266011146279e-07 1.176998828088474e-06 5.605392987933858e-07 2.301145140599910e-02 3.502648630166129e-02 4.086670670986073e-02 8.565473055463043e-03 6.567914048291109e-03 1.101221871560001e-02 3.623885851346143e-08 1.786042303424033e-08 1.511995660563789e-08 2.818139577467784e-05 9.929155814178828e-06 2.386173033241176e-05 8.200128147760847e-06 8.739147782068765e-06 3.950646104915396e-06 3.387994611724345e-06 -1.717167212926654e-08 -8.861145450517767e-07 1.230693075380010e-03 1.935252579978612e-03 2.196382828622997e-03 2.831918650837473e-04 3.222876356308089e-04 1.686504255644891e-04 6.846941880999462e-07 3.493701933169982e-07 3.434294843026047e-07 2.093312915697017e-04 4.317171674518262e-04 3.876645355480034e-04 1.530867178198249e-03 2.903861719981072e-03 2.626089971837808e-03 3.226379628713791e-08 3.365441418862619e-08 1.114615170737654e-08 9.145865064304069e-06 1.944101848811506e-05 2.040810242761839e-05 1.868593703234911e-04 3.993120841105409e-04 2.237252309212078e-04 2.916967761022354e-05 1.651267324303419e-05 1.207371525892925e-05 9.367496910277387e-05 9.627046988601988e-05 3.901029012170489e-05 1.311529996045705e-03 1.016104070069275e-03 6.817180602411586e-04 2.682377319756439e-07 6.401640985901441e-07 6.289673228541874e-07 2.318108734494696e-04 2.527124145580917e-04 4.225856490834047e-04 1.639681286055729e-03 1.781400623914534e-03 2.831773672596888e-03 2.196009583512515e-06 1.214890589711618e-06 8.231503803458905e-07 1.612067760376364e-06 7.743195055772579e-07 7.677674049806370e-07 8.541171584868740e-05 1.910414570643926e-04 1.798972376463736e-04 5.914960209091795e-04 1.374618530509617e-03 1.268907606534690e-03 4.208528388410420e-03 8.687893248044599e-03 8.083588615929969e-03 1.197846495035115e-03 5.836174955451233e-04 8.648742348360769e-04 3.177373888400200e-04 3.866735360023837e-04 1.619857777319992e-04 2.889655546428569e-06 2.159617680180265e-07 8.156528007279813e-07 1.200550537521802e-03 8.068859868682094e-04 5.991563860776395e-04 7.891217634610342e-03 5.337936060902121e-03 4.115792773870371e-03 2.749277956827717e-05 2.313122873048107e-05 4.372191040567570e-05 7.725635489542186e-03 1.281459208194067e-02 9.463490308761716e-03 8.432883363084939e-06 7.616580367715449e-06 3.532603336623499e-06 7.568587617484126e-07 1.663257303854473e-06 1.260423193025450e-06 1.402828131094274e-06 2.002884113478990e-06 9.807184962791541e-07 8.138571741656754e-04 1.135797571349612e-03 6.467874492621899e-04 3.191745182270431e-07 7.150424874566365e-07 5.668926167234432e-07 2.722972113641957e-03 1.566369888404615e-03 1.708255019406315e-03 -2.260804615601825e-07 2.923541376915679e-07 -6.627367613138544e-08 7.826567028487269e-03 1.404193168602128e-02 1.439627146332742e-02 6.470222422744418e-07 3.101385119357303e-07 4.147088134524016e-07 2.841743648066203e-03 2.513056610264919e-03 1.456303697183608e-03 2.472499225983596e-08 2.322594945168481e-08 5.105335204134945e-08 -9.906127138253199e-10 3.939215319255742e-08 -2.469420445851063e-08 1.659080811560755e-08 -2.671056686867965e-08 3.556572206924377e-08 2.288517081395353e-06 2.170325536116052e-06 9.257037411508078e-07 6.996881984600437e-08 -7.412876024516046e-08 4.605846309884072e-08 7.822498898948970e-03 3.919517338826852e-03 6.122055831841792e-03 2.002665842666534e-06 -1.193644788203543e-06 -1.131980719721072e-07 1.579329374247358e-08 1.018252071342720e-08 2.076860893882863e-08 5.849390440641963e-07 2.795729645654619e-07 3.182913188292335e-07 9.032312311677396e-03 1.085825388822442e-02 1.467524280909728e-02 5.148333873873164e-07 2.323838095552645e-07 6.314342805907501e-07 1.786731109798842e-06 4.544682748925476e-06 2.533494914434599e-06 2.124499337565484e-05 1.745978275208643e-05 3.032800931038924e-05 -2.724262226560676e-07 1.528575665421094e-07 1.698250291332274e-07 1.015964868623872e-02 7.799392407276096e-03 1.194576678172083e-02 1.149072078782350e-07 8.107621691327671e-08 4.805364169034613e-08 4.036405550855665e-05 2.998867218613946e-05 6.333264054765960e-05 1.502888543135164e-07 1.738628689887141e-07 5.995039545028683e-08 6.620618709084767e-03 5.026228614791612e-03 9.234374832461480e-03 4.676321186888076e-03 2.881729134721850e-03 2.521113066466066e-03 2.961740734238101e-04 1.763271448494661e-04 3.453047461164924e-04 5.421032809991894e-07 2.341327692419567e-07 4.539572216268467e-07 1.972026015507712e-03 3.287447921570973e-03 2.272172608719295e-03 2.236299247063669e-03 4.176951291868072e-03 4.463051465450517e-03 6.299231981075600e-04 6.794539454424344e-04 3.160817427444776e-04 4.409927566186478e-08 4.775613052212537e-08 1.781430449379505e-08 2.388732651446905e-06 -1.328846206464702e-06 -6.683923094723672e-07 5.049449565827922e-02 4.137423668298906e-02 3.017435900269251e-02 1.348864518279689e-03 1.819875962831092e-03 8.965720719634547e-04 6.717138085386067e-04 3.708380340904440e-04 4.870472027458221e-04 1.146360708876057e-07 5.041756199686706e-08 7.459875294618361e-08 1.325971298985651e-02 7.544450949118910e-03 9.869761082881611e-03 2.161451971092649e-06 7.372927571219139e-07 1.331618440674347e-06 1.814472932840396e-06 1.505120228838487e-06 3.348253845494694e-06 1.763219375045618e-04 1.026941504445422e-04 1.045376404706292e-04 1.257035429955411e-04 1.239239434675327e-04 7.192349945148648e-05 1.272715226136847e-03 1.975524922482853e-03 2.426727724931369e-03 8.083201567278210e-07 5.140534623150422e-07 3.673817446239811e-07 4.976313679511035e-04 2.588094857778219e-04 3.378248322135917e-04 1.734243299172770e-03 2.561715958782504e-03 2.203493249385372e-03 6.099806882821249e-07 3.673797915172122e-07 4.687987176984937e-07 3.850702439751017e-04 3.083951238459817e-04 2.538633297271478e-04 3.165759175845358e-04 6.423167464575985e-04 6.665097561981874e-04 1.809653736465853e-03 1.002878033378175e-03 1.026013974796513e-03 4.262639130834515e-07 1.089052521086269e-06 1.078171876860517e-06 1.249866499231410e-04 1.189931781835787e-04 5.739111824616766e-05 1.893387834755184e-07 1.234476695482734e-07 7.127582123339703e-08 4.997115046903529e-03 6.833384699194122e-03 9.178161349667225e-03 1.803768560727547e-06 4.194946410269531e-06 4.365806498197697e-06 1.394324646103642e-04 7.403426456550140e-05 7.221580946278907e-05 2.757341551100469e-06 -1.811190444025889e-06 2.762683185580525e-06 3.835290436776796e-03 2.158039359374770e-03 2.884833319268182e-03 1.331180569301387e-05 2.111726406885167e-05 2.474961977289688e-05 1.513743969097021e-05 3.812201810917199e-05 3.099957164959847e-05 8.889317659579473e-06 4.303750769818034e-06 4.772980892471234e-06 2.705777870482726e-08 6.906947342979582e-08 -6.436244383784330e-08 -5.410439502914435e-08 5.799523416096591e-08 4.536399410031239e-08 1.841222017061400e-06 3.527687763623062e-06 5.113346867381617e-06 1.636675647307980e-06 5.048102371487281e-06 4.132461125701040e-06 1.427135418659796e-04 7.081545487636576e-05 7.517896984428387e-05 -8.497843445537399e-08 2.766176541538927e-07 -6.002464997717192e-08 9.095312192204187e-09 1.064353845437447e-08 2.219014359436937e-08 1.350885367293157e-04 6.103650454606469e-05 1.243998941191747e-04 7.372614652887292e-05 8.405266269998397e-05 1.331643912022390e-04 4.215556838311630e-08 6.548177023836488e-08 9.620058591717612e-08 9.708694018676229e-04 4.938936257971975e-04 5.871310295201726e-04 6.194528347751100e-03 3.428070254771147e-03 3.989098853807189e-03 1.659658917799188e-05 2.594079254409122e-05 3.891708258426413e-05 8.559550613024949e-06 1.451867969682658e-05 8.733547204322631e-06 2.023520571616538e-07 1.911607778721578e-07 4.435894740667566e-07 9.026716751166066e-04 5.006278197933425e-04 9.041591936333380e-04 5.813500393854529e-03 3.524209081242055e-03 5.909231412534244e-03 1.565384876084424e-02 2.366318999733519e-02 1.617992965669944e-02 1.726036139461289e-06 3.170216363162053e-06 2.915322926533836e-06 1.051171705947634e-05 1.067775560467928e-05 5.347148224110862e-06 9.880087266069708e-08 1.644563816189843e-07 2.166845242976661e-07 8.366220933163888e-08 2.169485019470919e-07 2.380590303977082e-07 2.406579104349997e-06 2.673403327450210e-06 4.042058490254447e-06 4.755507708837605e-05 4.262094949415222e-05 2.278974762763309e-05 6.154044082834208e-09 1.564278356597749e-08 1.183124619026424e-08 1.113998789426972e-05 7.232733316666979e-06 6.662134347764779e-06 3.013527419434419e-08 -1.140988013576408e-08 2.233617094634689e-08 2.928782890409769e-06 -4.895051656838158e-07 3.943427133549829e-07 -4.622737939396907e-07 2.377509598819613e-07 2.477055794528635e-07 1.521759530671942e-07 2.076463638748632e-07 -5.952718113288102e-08 3.547382562947333e-08 1.782217813966445e-08 2.063892147909939e-08 -2.350863991171350e-07 7.600831922341440e-07 -1.735857216834013e-07 -4.859451064585691e-08 2.076413146646929e-07 1.207404970855415e-07 1.251740276232470e-05 2.002565092770671e-05 9.237755574142290e-06 7.972242140425218e-06 1.934095971652154e-05 1.700831679093851e-05 -3.943661337616193e-08 5.802890439087894e-08 -8.401157970911108e-09 8.475619295740563e-07 2.227085532954805e-06 2.073189648070458e-06 6.492862998088383e-02 6.492862998088383e-02 4.190619389826565e-02 2.868536249254937e-06 3.278103808377774e-06 6.138222384519310e-06 9.843737097933387e-04 5.076674112563235e-04 5.591137070027495e-04 6.264184521629572e-03 3.623915309672776e-03 3.789501392024867e-03 1.237693116022263e-06 2.736371824412497e-06 3.227149131027576e-06 1.496212355492257e-06 6.377143654715995e-07 1.430628971091998e-06 4.176020491816469e-06 6.521272180800764e-06 1.949376491544610e-06 1.644463947033995e-02 2.372295846413287e-02 2.425003676400015e-02 7.385467321471343e-08 1.966269376932788e-07 1.832103659210488e-07 5.036646446940483e-05 2.721818965906545e-05 2.488197356095841e-05 7.126299755637262e-04 4.425658609035964e-04 3.597303466447232e-04 1.301496621601102e-05 5.117244363597661e-06 9.961172876475323e-06 2.834111445947226e-06 -1.751128617262496e-06 -1.517513848702030e-07 4.162355449291964e-06 1.928350660879955e-06 4.296312100681744e-06 -2.415367171549332e-07 6.836750938225030e-08 1.731692077726829e-07 4.665310731464401e-06 2.504472002590719e-06 1.980120338440125e-06 1.628955977403910e-07 9.572990952902413e-08 -2.586255072694154e-07 3.187271850621655e-04 2.240581927347811e-04 2.028924208662843e-04 1.499752046587782e-04 2.368440763443720e-04 2.572089600636154e-04 1.584863464697155e-02 9.852920346574106e-03 1.377353404988741e-02 2.275944259200806e-08 1.417952602088374e-08 2.545339632625288e-08 4.077393233695873e-06 7.989753644185940e-06 4.612131826289691e-06 5.522181702760294e-06 7.831514370211626e-06 3.797887207120366e-06 6.693381913105809e-02 4.508548633231269e-02 4.486007614783817e-02 -7.643759015892431e-08 2.807846496248308e-07 -5.562288334023754e-08 4.999987121228013e-06 4.547508472975700e-06 8.936956370637258e-06 9.419017540873683e-05 6.596224482573239e-05 4.730180398504294e-05 3.187845465370641e-08 1.569461310565151e-08 3.631190628238122e-08 2.405260110442105e-08 2.878242994960659e-08 4.963604568317078e-08 1.704415198977237e-07 -3.366898391125976e-08 1.065543842990694e-07 -2.460290736081691e-07 3.108315306296172e-07 -6.480245702144841e-08 5.128315950986339e-06 2.022107745403603e-06 3.402846898007036e-06 4.223507858361347e-04 5.905832123102550e-04 7.988767141681475e-04 8.211368134523216e-04 1.098705312579195e-03 1.510748088212449e-03 1.645268032748544e-03 1.150581793942843e-03 1.918146346879694e-03 5.502762330135614e-04 4.381452112755149e-04 3.368377439114804e-04 1.284929070299925e-09 -5.136621032745149e-08 1.148458951568096e-07 8.401623305323184e-05 1.010720300774362e-04 5.428538146431031e-05 1.311818626695757e-03 2.430622574636922e-03 1.844352803075382e-03 8.105027494095646e-07 3.593805015512794e-07 5.252005386631679e-07 4.987301988153431e-04 3.445913193772491e-04 2.548520642493472e-04 1.511382463224064e-06 1.483645505224778e-06 5.750282381702535e-07 1.019116767644201e-04 1.055658629938534e-04 1.961233917432155e-04 7.550961882492972e-04 7.272351547974819e-04 1.371414254034961e-03 5.075304861324815e-03 4.908493931182300e-03 8.633825956202625e-03 9.008691320407553e-05 4.900971137366252e-05 9.424422525551362e-05 2.900416868061367e-06 2.901212545532508e-06 -2.108862953304466e-06 7.327315657788919e-05 9.268710221585164e-05 4.513915739703288e-05 6.394939042755810e-07 1.505208647852498e-06 1.487584292874315e-06 1.354369369205359e-07 2.907871582941008e-07 1.477290676091226e-07 1.929352920619244e-04 9.967942736092420e-05 1.037165127287621e-04 1.315790454484158e-03 7.360952297378386e-04 7.636658926300468e-04 4.995100382728141e-03 5.079573836032250e-03 8.338251165944647e-03 6.937557817824107e-03 6.315090066675406e-03 3.882067123417268e-03 4.685152560271936e-07 -2.964592458847738e-07 -1.720560101424203e-07 1.516202422719649e-05 9.785886929035095e-06 9.162314715443018e-06 2.796253959979438e-06 -9.440756911458578e-07 2.557837724240655e-06 8.095104417639021e-05 3.998614331123756e-05 5.901527916202031e-05 2.566971063891728e-06 1.578806959427647e-06 1.520424366259726e-06 1.220631789075714e-05 9.984249840621225e-06 5.975989504177350e-06 1.515483586888559e-03 1.080418417074899e-03 8.794882919822123e-04 6.538440177772549e-04 1.045051836144761e-03 1.238219817731101e-03 3.107026731549800e-08 8.941562671182056e-09 1.672985286569015e-08 3.673990792941165e-06 7.553021300698657e-08 2.905885653172747e-06 5.008254394849057e-06 4.056117643196300e-06 1.805154775258049e-06 -3.507614864296637e-07 5.013123432664244e-07 -1.505508568367612e-07 5.208678327138788e-06 7.564481023560670e-06 1.136530723972352e-05 4.690614059121195e-05 9.649505545330032e-05 8.517267897275983e-05 3.990782975618012e-07 7.020644701323145e-07 8.624613547590879e-07 4.623971529432174e-07 3.690999129883714e-07 6.092639417557912e-07 2.261473917928724e-03 2.553495979941914e-03 1.719672949622824e-03 2.543017040054907e-04 3.057239324795253e-04 3.848389184626396e-04 5.238964921332867e-05 6.635956126292239e-05 3.228492810628834e-05 5.004986121858864e-06 3.251023918771824e-06 1.614969380536432e-06 4.794161743049790e-05 2.101915550177769e-05 3.780338831238208e-05 4.810243640744955e-07 -1.496995415155779e-07 -3.313248225589175e-07 1.044138031705089e-08 6.761165129669993e-09 1.944100626865192e-08 4.730625319996945e-09 1.799433492951182e-08 1.787826982223665e-08 3.643528684881877e-07 4.186100762209126e-07 1.450053230188070e-07 1.730478435679654e-03 3.362682100815167e-03 3.124288420427753e-03 2.395961935455439e-06 4.690944159130965e-06 2.024067660887421e-06 3.052658640110677e-06 -1.159664726173137e-06 -1.639098695968520e-06 1.222300715187706e-02 8.698933851984808e-03 1.453918135861698e-02 1.248648341978983e-07 1.061067975109569e-07 1.875396959043614e-07 8.146423104487832e-08 3.847528205444519e-08 4.627176952281688e-09 5.285192273527489e-08 4.388591884217972e-08 2.122354642711600e-08 3.230560701870437e-04 6.642736026203647e-04 6.367865180944318e-04 1.800846460548747e-03 1.072021768816806e-03 9.969853131323698e-04 4.420892777186743e-07 1.053697941968882e-06 1.093041114618262e-06 3.610924030747315e-07 8.031035914898054e-07 5.179862133650287e-07 3.593904409289655e-06 7.235901583495583e-06 8.225838353919889e-06 1.142693317591478e-05 6.583991249032512e-06 5.536227341624456e-06 1.914101722367291e-04 1.402506411390492e-04 2.425222264482027e-04 2.263471090410185e-09 5.542121080352791e-09 7.225854065183968e-09 1.584854025126500e-06 1.031441258482691e-06 6.902136423991360e-07 2.121939742088599e-06 -5.135633482965175e-07 -1.176304590349244e-06 5.361129269547537e-05 5.826482469333506e-05 9.742071756029749e-05 6.992644158338408e-06 1.510131603510935e-05 1.332626251157506e-05 9.526660834595347e-05 1.466