<?xml version="1.0"?>
<VTKFile type="UnstructuredGrid" version="0.1" byte_order="LittleEndian">
<UnstructuredGrid>
<Piece NumberOfPoints="3918" NumberOfCells="1306">
<Points>
<DataArray type="Float64" NumberOfComponents="3" format="ascii">
2.199999999999999e+00 1.000000000000000e+00 0.000000000000000e+00 2.167042760209688e+00 9.180909330202516e-01 0.000000000000000e+00 2.276253312368741e+00 8.960026502048396e-01 0.000000000000000e+00 4.794660531865603e+00 4.928781786967001e-01 0.000000000000000e+00 4.895148782943732e+00 5.622595023726160e-01 0.000000000000000e+00 4.773700345920383e+00 5.924187786805324e-01 0.000000000000000e+00 2.543072460766750e+00 7.257064952909391e-01 0.000000000000000e+00 2.612778635682587e+00 6.379739460669237e-01 0.000000000000000e+00 2.649888912334054e+00 7.569619856190068e-01 0.000000000000000e+00 1.948052693999185e+00 1.289873040940654e-01 0.000000000000000e+00 1.894432874635162e+00 7.551835003504323e-02 0.000000000000000e+00 1.999999999995511e+00 0.000000000000000e+00 0.000000000000000e+00 4.558741850192379e+00 1.706710584301058e-01 0.000000000000000e+00 4.482003026509532e+00 2.394413792785933e-01 0.000000000000000e+00 4.451469977250477e+00 1.357957442429618e-01 0.000000000000000e+00 3.299999999999999e+00 1.000000000000000e+00 0.000000000000000e+00 3.204890379983837e+00 9.254368576810614e-01 0.000000000000000e+00 3.273830491511281e+00 8.834576202305108e-01 0.000000000000000e+00 3.299999999999999e+00 1.000000000000000e+00 0.000000000000000e+00 3.273830491511281e+00 8.834576202305108e-01 0.000000000000000e+00 3.353422182013107e+00 9.028315595988372e-01 0.000000000000000e+00 4.111703902366866e+00 1.331175536465074e-01 0.000000000000000e+00 4.099999999998633e+00 0.000000000000000e+00 0.000000000000000e+00 4.182764237453481e+00 8.084782043728693e-02 0.000000000000000e+00 4.699999999999545e+00 0.000000000000000e+00 0.000000000000000e+00 4.776755050008729e+00 9.373387207737824e-02 0.000000000000000e+00 4.690158205531358e+00 1.364814217295172e-01 0.000000000000000e+00 1.948052693999185e+00 1.289873040940654e-01 0.000000000000000e+00 1.999999999995511e+00 0.000000000000000e+00 0.000000000000000e+00 2.049999999995552e+00 8.978335458097943e-02 0.000000000000000e+00 2.612778635682587e+00 6.379739460669237e-01 0.000000000000000e+00 2.680790723483929e+00 5.770944853520404e-01 0.000000000000000e+00 2.721274941296599e+00 6.860745476515622e-01 0.000000000000000e+00 2.217157304231143e+00 1.490340955835976e-01 0.000000000000000e+00 2.263108527926066e+00 7.883543312226374e-02 0.000000000000000e+00 2.320771471773918e+00 1.774611341310380e-01 0.000000000000000e+00 6.201761285132973e-01 8.145180217066926e-01 0.000000000000000e+00 5.107672864112288e-01 8.169186336319382e-01 0.000000000000000e+00 5.291217175395199e-01 7.399324289248853e-01 0.000000000000000e+00 2.764640797973617e+00 6.197673077442869e-01 0.000000000000000e+00 2.721274941296599e+00 6.860745476515622e-01 0.000000000000000e+00 2.680790723483929e+00 5.770944853520404e-01 0.000000000000000e+00 3.000000000000007e-01 1.000000000000000e+00 0.000000000000000e+00 2.235202862591317e-01 8.887389633270458e-01 0.000000000000000e+00 3.153592145619369e-01 8.815404533065442e-01 0.000000000000000e+00 2.299999999999999e+00 1.000000000000000e+00 0.000000000000000e+00 2.199999999999999e+00 1.000000000000000e+00 0.000000000000000e+00 2.276253312368741e+00 8.960026502048396e-01 0.000000000000000e+00 1.299999999999999e+00 1.000000000000000e+00 0.000000000000000e+00 1.246238897717278e+00 9.001620782265900e-01 0.000000000000000e+00 1.325594839248253e+00 8.832813258746552e-01 0.000000000000000e+00 1.299999999999999e+00 1.000000000000000e+00 0.000000000000000e+00 1.325594839248253e+00 8.832813258746552e-01 0.000000000000000e+00 1.386478687610004e+00 9.220875103295796e-01 0.000000000000000e+00 3.099999999999999e+00 1.000000000000000e+00 0.000000000000000e+00 3.138079516399413e+00 8.908467724822530e-01 0.000000000000000e+00 3.204890379983837e+00 9.254368576810614e-01 0.000000000000000e+00 1.599999999996661e+00 0.000000000000000e+00 0.000000000000000e+00 1.679983210048711e+00 8.220201556683318e-02 0.000000000000000e+00 1.609545399082946e+00 1.308291592921435e-01 0.000000000000000e+00 1.061007011519329e+00 5.618772874050625e-01 0.000000000000000e+00 1.160572984923127e+00 6.015530474704378e-01 0.000000000000000e+00 1.050000000000000e+00 6.706367924525535e-01 0.000000000000000e+00 6.215262983536076e-01 7.328515730233995e-01 0.000000000000000e+00 6.201761285132973e-01 8.145180217066926e-01 0.000000000000000e+00 5.291217175395199e-01 7.399324289248853e-01 0.000000000000000e+00 1.948052693999185e+00 1.289873040940654e-01 0.000000000000000e+00 2.049999999995552e+00 8.978335458097943e-02 0.000000000000000e+00 2.057936946544583e+00 1.849235821189668e-01 0.000000000000000e+00 2.091091774288676e+00 8.874649005201438e-01 0.000000000000000e+00 1.981107049933336e+00 8.600018538720656e-01 0.000000000000000e+00 2.085258760309228e+00 8.052686384966041e-01 0.000000000000000e+00 1.039491394416145e+00 8.340298301149526e-01 0.000000000000000e+00 9.354088824890808e-01 8.828123294523768e-01 0.000000000000000e+00 9.137231126914012e-01 8.048617635747636e-01 0.000000000000000e+00 1.981107049933336e+00 8.600018538720656e-01 0.000000000000000e+00 1.996885229669902e+00 7.683000423456376e-01 0.000000000000000e+00 2.085258760309228e+00 8.052686384966041e-01 0.000000000000000e+00 2.299999999999999e+00 1.000000000000000e+00 0.000000000000000e+00 2.276253312368741e+00 8.960026502048396e-01 0.000000000000000e+00 2.395017918255099e+00 9.023368606738377e-01 0.000000000000000e+00 4.399999999999088e+00 0.000000000000000e+00 0.000000000000000e+00 4.443360971034338e+00 6.001006090376452e-02 0.000000000000000e+00 4.340464407462508e+00 1.058022966868348e-01 0.000000000000000e+00 7.543413513517198e-01 1.288879963162577e-01 0.000000000000000e+00 6.466910199083232e-01 1.799054750174742e-01 0.000000000000000e+00 6.626722243468293e-01 7.849715957809261e-02 0.000000000000000e+00 9.999999999992801e-02 0.000000000000000e+00 0.000000000000000e+00 2.066914384950196e-01 8.554607894793897e-02 0.000000000000000e+00 8.279903559142687e-02 8.279903559151081e-02 0.000000000000000e+00 3.431815931955504e-01 3.314386771104964e-01 0.000000000000000e+00 2.371857680100064e-01 3.586554844111011e-01 0.000000000000000e+00 2.478307344467225e-01 2.478307344464838e-01 0.000000000000000e+00 1.039491394416145e+00 8.340298301149526e-01 0.000000000000000e+00 1.035017143854235e+00 9.257730596464975e-01 0.000000000000000e+00 9.354088824890808e-01 8.828123294523768e-01 0.000000000000000e+00 1.763223103020597e+00 6.969213383069597e-01 0.000000000000000e+00 1.659764170257915e+00 7.783869792876411e-01 0.000000000000000e+00 1.641237689750194e+00 6.703960699373966e-01 0.000000000000000e+00 2.171230381509611e+00 6.460806590265337e-01 0.000000000000000e+00 2.235035871331497e+00 5.528935828550036e-01 0.000000000000000e+00 2.240765570563543e+00 6.710361137189144e-01 0.000000000000000e+00 3.099999999999999e+00 1.000000000000000e+00 0.000000000000000e+00 3.204890379983837e+00 9.254368576810614e-01 0.000000000000000e+00 3.199999999999998e+00 1.000000000000000e+00 0.000000000000000e+00 4.689375887502736e+00 8.629982390821114e-01 0.000000000000000e+00 4.559658010798574e+00 8.268398885804081e-01 0.000000000000000e+00 4.659699064592896e+00 7.795622692497817e-01 0.000000000000000e+00 2.217157304231143e+00 1.490340955835976e-01 0.000000000000000e+00 2.320771471773918e+00 1.774611341310380e-01 0.000000000000000e+00 2.244951071131736e+00 2.260199244934647e-01 0.000000000000000e+00 3.859396958574677e-01 4.484332494195724e-01 0.000000000000000e+00 2.998774732159264e-01 4.343088009374657e-01 0.000000000000000e+00 3.431815931955504e-01 3.314386771104964e-01 0.000000000000000e+00 1.948052693999185e+00 1.289873040940654e-01 0.000000000000000e+00 2.057936946544583e+00 1.849235821189668e-01 0.000000000000000e+00 1.949071218763063e+00 2.055183505669977e-01 0.000000000000000e+00 4.558741850192379e+00 1.706710584301058e-01 0.000000000000000e+00 4.451469977250477e+00 1.357957442429618e-01 0.000000000000000e+00 4.536544111235556e+00 7.547590122663222e-02 0.000000000000000e+00 2.764640797973617e+00 6.197673077442869e-01 0.000000000000000e+00 2.748586785039362e+00 5.211021237021853e-01 0.000000000000000e+00 2.861122426073405e+00 5.967442355315300e-01 0.000000000000000e+00 9.849196667091529e-01 7.457027191416240e-01 0.000000000000000e+00 1.039491394416145e+00 8.340298301149526e-01 0.000000000000000e+00 9.137231126914012e-01 8.048617635747636e-01 0.000000000000000e+00 2.171230381509611e+00 6.460806590265337e-01 0.000000000000000e+00 2.122199951799849e+00 5.850416005702397e-01 0.000000000000000e+00 2.235035871331497e+00 5.528935828550036e-01 0.000000000000000e+00 1.948411343815324e+00 5.977864372950021e-01 0.000000000000000e+00 1.831604818415202e+00 5.415700660643472e-01 0.000000000000000e+00 1.949496869330408e+00 5.032480558805372e-01 0.000000000000000e+00 9.555466748202026e-01 6.138712331357172e-01 0.000000000000000e+00 9.543842823432471e-01 5.002189144552502e-01 0.000000000000000e+00 1.061007011519329e+00 5.618772874050625e-01 0.000000000000000e+00 3.211383243381871e+00 8.238513614296178e-01 0.000000000000000e+00 3.287305785442545e+00 7.342276537100590e-01 0.000000000000000e+00 3.314972634714863e+00 8.093336828947851e-01 0.000000000000000e+00 1.399999999999999e+00 1.000000000000000e+00 0.000000000000000e+00 1.463012078585596e+00 8.920964591701215e-01 0.000000000000000e+00 1.500000000000000e+00 1.000000000000000e+00 0.000000000000000e+00 3.699999999998025e+00 0.000000000000000e+00 0.000000000000000e+00 3.799999999998176e+00 0.000000000000000e+00 0.000000000000000e+00 3.736690596671465e+00 1.064195787014745e-01 0.000000000000000e+00 3.099999999997114e+00 0.000000000000000e+00 0.000000000000000e+00 3.199999999997265e+00 0.000000000000000e+00 0.000000000000000e+00 3.138143461708514e+00 1.082496513635721e-01 0.000000000000000e+00 3.287305785442545e+00 7.342276537100590e-01 0.000000000000
[...]
<PointData Scalars="A_conc," Vectors="" Tensors="">
<DataArray type="Float64" Name="A_conc" format="ascii">
9.485025949513728e-05 7.787571168215548e-05 1.403895731869756e-04 8.842413835646018e-02 1.115866060851530e-01 8.417895321990573e-02 2.301915984413600e-04 3.453039000465792e-04 4.112573002149065e-04 4.311501959393918e-05 3.240783650454675e-05 6.461531921553425e-05 5.707507338873180e-02 4.580418169977608e-02 4.163917599265794e-02 2.537233852109975e-03 1.600031016635475e-03 2.261865658581616e-03 2.337674549730107e-03 2.054692217280012e-03 2.936315913403621e-03 1.906591849689996e-02 1.842404351444639e-02 2.443206648273283e-02 7.316177835802380e-02 8.871083129876732e-02 7.118203358389386e-02 3.628526163276617e-05 5.848913141278755e-05 6.774038944881242e-05 2.827803062250558e-04 4.180829007762297e-04 5.072549499360466e-04 8.895121992715628e-05 1.167093644754763e-04 1.576628583085254e-04 8.621590778133951e-07 4.418956007541952e-07 5.117929281809247e-07 5.661523603905187e-04 4.617423234452748e-04 3.692540869607721e-04 6.180995824221233e-06 -2.300519121603356e-06 -2.710174747706776e-06 1.456398479287151e-04 8.202343352711541e-05 1.295055861869122e-04 1.237163225149341e-05 2.526948090535367e-06 4.124480039615197e-06 1.150535055887800e-05 3.169111621497793e-06 7.407254421772290e-06 1.223297786931545e-03 1.483901381995580e-03 1.987177361205236e-03 1.888795256990799e-05 2.101423387544077e-05 1.272679402018623e-05 2.606975749727900e-06 4.626384386279369e-06 2.416098684788569e-06 8.155601133154032e-07 8.027434907223355e-07 4.247067024295425e-07 3.486153810913218e-05 6.680492746589759e-05 6.990100486406443e-05 7.733342946683955e-05 3.882345450706460e-05 7.571100058392617e-05 3.244819844288409e-06 1.057089965218953e-06 1.924093851848051e-06 4.510070535340899e-05 4.992134182077498e-05 7.951183819173936e-05 1.249457029761629e-04 1.085415429015698e-04 2.006654831070180e-04 3.896797675048789e-02 4.414009167374772e-02 3.173280799035034e-02 5.768302317508112e-07 1.006205343133032e-06 -1.176254773600889e-07 4.438648736281319e-06 -4.085002737340226e-07 -6.947411377206273e-07 3.285640898443387e-07 1.663158744301840e-07 2.054784179881061e-07 3.150269772874082e-06 1.486012445668926e-06 9.364054400637678e-07 3.029624668716705e-05 1.727536743137571e-05 1.541517408018355e-05 7.944651140115429e-05 1.144257828496837e-04 1.193929106793680e-04 1.143964015875907e-03 1.927771816145943e-03 1.911779571003074e-03 7.444414468261285e-02 5.153560342806295e-02 6.912412838587755e-02 9.116852473290145e-05 1.581280506189211e-04 1.086254400835501e-04 3.708320316273704e-07 2.086900441017669e-07 2.885921939238886e-07 4.022256934514382e-05 7.352443975870124e-05 4.193437159953798e-05 5.637568238599088e-02 4.068927745764612e-02 5.322034697829774e-02 4.938730039770052e-04 4.441869361599930e-04 7.727377246961285e-04 2.293210861010730e-06 3.299048589986823e-06 1.446294880386812e-06 8.956066819010969e-05 6.560085744805060e-05 1.231559541512861e-04 5.026440364749265e-05 2.332382678180322e-05 5.044465760889557e-05 1.833018120951983e-06 1.796707857246506e-06 3.372715000598662e-06 1.617347337492797e-03 2.352578939030334e-03 2.649172638981577e-03 1.242086361734740e-05 6.482008303862342e-06 1.785421032210336e-05 6.521885365270682e-03 9.699455968934506e-03 7.410790734327394e-03 1.263065469550576e-03 1.998234021210272e-03 1.447263457770748e-03 2.500883805954921e-03 1.787638495417752e-03 1.611110011486522e-03 7.054463188883972e-02 9.650179048287937e-02 7.387712067390596e-02 8.999994898858271e-07 1.441525263671032e-06 6.179546687064018e-07 3.951640090994301e-04 6.515592334536057e-04 4.799332707911034e-04 7.507279139427699e-02 5.993563639684666e-02 5.261811517859092e-02 7.514545483434520e-02 7.317776004528996e-02 6.252290683262240e-02 8.661227791543910e-02 1.097677746528073e-01 1.101487299963905e-01 1.995040326943797e-06 4.360688560365535e-06 4.360939660802606e-06 2.011549879022198e-02 1.562707645691520e-02 1.948353212772858e-02 2.905528402555684e-02 3.456210387740048e-02 4.042941479935564e-02 3.912300799938422e-06 4.436468239570501e-06 -1.064218115556210e-06 5.661875078866605e-04 9.618753817599404e-04 9.394060798460036e-04 2.225588652179653e-02 1.528972292069358e-02 2.249734481648544e-02 4.902448894709638e-03 2.992058431115719e-03 5.008925843801983e-03 1.622254008548272e-05 2.920233412749078e-05 1.604444149645906e-05 1.517082015559808e-06 3.026625529995549e-06 3.182233410692630e-06 2.550244613711519e-03 2.522872891130839e-03 3.937139735898618e-03 8.247411684248994e-03 5.258188184204407e-03 8.256750440823130e-03 8.923865995210606e-06 1.565627835113700e-05 8.711709821679665e-06 6.915149713107432e-02 8.713179294252510e-02 9.566928037811967e-02 3.062310982317075e-02 2.605489562849437e-02 3.604343904493400e-02 6.910371141057273e-07 3.874623889713023e-07 3.411626826821233e-07 2.560346495939959e-04 1.224874848919360e-04 2.246869419643714e-04 8.806095668239881e-05 9.282816354164088e-05 5.206299972000220e-05 1.406480854067807e-05 6.513576073796004e-06 8.119261261998033e-06 6.896108753939560e-03 9.249392463783803e-03 1.010768400557600e-02 1.884842133966458e-03 2.062408680946702e-03 1.313864044622213e-03 9.365277579693193e-06 5.448327464864130e-06 5.715329594157096e-06 1.609158905629511e-03 2.639406857925682e-03 2.437392942794211e-03 8.358804141616393e-03 1.266096204939162e-02 1.180299182992898e-02 6.282899697096603e-07 6.524971064882968e-07 2.829123261422348e-07 1.082292490725689e-04 1.878639919167927e-04 1.944789902487908e-04 1.419409864157349e-03 2.447226024631185e-03 1.600791307104014e-03 2.623967641962967e-04 1.689163963868396e-04 1.360815230724230e-04 7.256490174147765e-04 7.415271557724392e-04 3.978288300318880e-04 6.606874633358165e-03 5.508238776689015e-03 4.237740515623366e-03 4.902937294037870e-06 9.269964393486431e-06 8.718235861172183e-06 1.672198507418554e-03 1.770374744052667e-03 2.572017982716519e-03 8.487727243230424e-03 8.949827679434487e-03 1.230691035602071e-02 2.706598045742683e-05 1.665486970005546e-05 1.329581462830771e-05 2.072017472809799e-05 1.164693406578924e-05 1.153650623953797e-05 7.649338621173595e-04 1.330757341965781e-03 1.269169358783104e-03 3.976637571479563e-03 6.884905429451998e-03 6.495932588279408e-03 1.933669140392638e-02 3.007291861069418e-02 2.869460639367448e-02 6.113464097768308e-03 3.745613560998913e-03 4.838976199463970e-03 2.070786160958487e-03 2.393801634781421e-03 1.322019440229552e-03 2.074573803139016e-05 1.466717198084284e-05 1.164514943514748e-05 6.122465080853806e-03 4.605020444149939e-03 3.793351189156303e-03 2.773511447758131e-02 2.134642443102334e-02 1.820736167678562e-02 2.627831730579134e-04 2.325739266815572e-04 3.734969393090098e-04 2.940429625973313e-02 4.042085237412031e-02 3.331071506985813e-02 8.972365660974411e-05 8.288109137393866e-05 4.770427683826029e-05 1.177877127632302e-05 2.113026715468084e-05 1.753171908663586e-05 1.876720301389423e-05 2.489633517301952e-05 1.503115842995214e-05 4.628390109770308e-03 5.868313607285495e-03 3.979825187716041e-03 5.254358675594860e-06 9.875600735388337e-06 8.509097146623575e-06 1.192224545392521e-02 8.183105448763129e-03 8.652409239008885e-03 1.799391263180837e-06 2.103458365992778e-06 5.877904814894178e-07 3.099486275926746e-02 4.376484906069716e-02 4.456166541397472e-02 9.298074051691467e-06 5.272891901319021e-06 6.194577581595995e-06 1.242698318310613e-02 1.140343345400508e-02 8.051232967210883e-03 5.232118330865562e-07 4.975342703773186e-07 9.425068405905507e-07 1.653887111116903e-07 2.782458071256807e-07 1.838151332896869e-08 1.499324144885661e-07 2.993369316654857e-08 2.824092517940058e-07 2.852912083398088e-05 2.733155928326485e-05 1.467925038609023e-05 8.441221040054546e-07 2.414776817091499e-07 4.445245556143720e-07 2.759161080612102e-02 1.785561777012304e-02 2.340499539278064e-02 5.377567222688843e-06 -2.643954419510756e-06 2.675257614141491e-09 3.302156592989113e-07 2.442673786447756e-07 4.205034069211203e-07 8.415964131019370e-06 4.709026749168177e-06 5.169786306619797e-06 3.313940136788687e-02 3.702812229665621e-02 4.485728723301682e-02 7.662319913529292e-06 4.269437031081721e-06 9.048018011652722e-06 2.673750922451572e-05 5.204832128523305e-05 3.165801023950895e-05 2.080103412924979e-04 1.811662367085211e-04 2.733423623266281e-04 -5.901669552266198e-07 5.747765654150212e-07 6.776833324517797e-07 3.473831662580130e-02 2.960168520040675e-02 3.858200839895054e-02 1.958284395364817e-06 1.471179035256325e-06 9.921453338921504e-07 3.648557077218577e-04 2.962232911270867e-04 5.136735124972147e-04 2.153842523974959e-06 2.989889230955511e-06 1.432651758665538e-06 2.517994337760157e-02 2.128863471572918e-02 3.135977568654785e-02 1.834303387102450e-02 1.320442776234981e-02 1.215897802244270e-02 1.952262351261140e-03 1.372749861863994e-03 2.186882287068041e-03 7.900913052214587e-06 4.178819119200359e-06 6.848581134419112e-06 9.869419898663901e-03 1.390926651158982e-02 1.080176413657144e-02 1.154958662691881e-02 1.705295597677572e-02 1.785977089403012e-02 3.649593937987985e-03 3.852542885332073e-03 2.309586340637678e-03 8.336163352632215e-07 8.956011068286875e-07 4.211579572020611e-07 6.121297620740860e-06 -2.952152846779119e-06 -1.093572281897125e-06 1.110194714241841e-01 9.869728512736949e-02 8.313650508612035e-02 6.973513221671876e-03 8.608168452114359e-03 5.351692178336734e-03 3.798904596219459e-03 2.507892452071490e-03 3.016030278092778e-03 1.963254306650372e-06 1.019841444231453e-06 1.386494716624318e-06 4.148223918827074e-02 2.914508993198030e-02 3.429712934164863e-02 2.646866806013045e-05 1.237808818016990e-05 1.991649905902971e-05 2.440166243930881e-05 2.133909140525314e-05 3.952586096873796e-05 1.232155421693030e-03 8.291012195631045e-04 8.376474077273143e-04 9.349639653465579e-04 9.266473124130290e-04 6.318694785736913e-04 7.128803947680252e-03 9.449276311076027e-03 1.091043982717819e-02 1.124800243642494e-05 7.812251026007975e-06 6.102030689389170e-06 2.955338566920717e-03 1.861615032224164e-03 2.227942763949368e-03 8.857704838560737e-03 1.148590337660286e-02 1.035453267171383e-02 8.807466432895870e-06 5.936337160911192e-06 7.146473145214805e-06 2.404329194541922e-03 2.045324348703071e-03 1.790618297423027e-03 2.310836754135721e-03 3.696666915394105e-03 3.799584070442124e-03 8.546471685167673e-03 5.672801143753831e-03 5.753865063389663e-03 7.405907141733741e-06 1.477380286632638e-05 1.464450723835292e-05 9.270320139606782e-04 8.939125938944888e-04 5.401313641136741e-04 3.032877273490725e-06 2.185292079294847e-06 1.419662480710881e-06 2.123884073226100e-02 2.571340270999483e-02 3.125481774367937e-02 2.647441477105312e-05 4.877313645467400e-05 5.040595972983174e-05 1.006327413359874e-03 6.298412553893050e-04 6.187844261344791e-04 1.238377712326925e-05 1.158487928390061e-06 9.688765906556858e-06 1.575549222115857e-02 1.078596695595420e-02 1.294705524970403e-02 1.460036802610073e-04 2.036406538588989e-04 2.296953105058264e-04 1.717601452326810e-04 3.324110544413920e-04 2.832085382308323e-04 9.324190809126520e-05 5.345132846212410e-05 5.755091416154474e-05 3.932163639908867e-07 4.570032454546371e-07 -4.940823541467985e-08 1.312769787092920e-08 4.541192397480183e-07 3.110883833098078e-07 2.686520760224007e-05 4.276038059862023e-05 5.745271062262980e-05 2.520497997680485e-05 5.694311313474431e-05 4.845251169335026e-05 1.027210001908685e-03 6.120709723676308e-04 6.383238053242130e-04 1.180917669990454e-06 2.052111948782386e-06 4.489244194099091e-07 2.985050108254356e-07 1.751710022648766e-07 3.341078973491159e-07 9.907782725860968e-04 5.699242437220252e-04 9.289203264600202e-04 6.304874501854634e-04 6.890834830620779e-04 9.711630235210444e-04 8.739961828599438e-07 1.216745148755162e-06 1.669670015730065e-06 5.131609327352760e-03 3.200306124953992e-03 3.580125620044728e-03 2.292061207110012e-02 1.554248795086039e-02 1.707671063892948e-02 1.805104733234314e-04 2.468196363183007e-04 3.371129258566863e-04 9.616112456731506e-05 1.437812878244777e-04 9.731026732151787e-05 3.507509975326153e-06 3.353680657451943e-06 6.557353235738832e-06 4.909521103359159e-03 3.310422718380376e-03 4.910682491351502e-03 2.217160535058718e-02 1.620072689606517e-02 2.240384515082275e-02 4.974303581148948e-02 6.412369100904222e-02 5.078875579765749e-02 2.421182002186675e-05 3.820265229526972e-05 3.563346769196314e-05 1.097529638630173e-04 1.108628188204736e-04 6.705931634932920e-05 1.859002742518860e-06 2.875207229584312e-06 3.432495075105557e-06 1.877642241335905e-06 3.464754436804276e-06 2.933850806211582e-06 3.141447542576268e-05 3.407246339901079e-05 4.697056974336358e-05 4.044412488083151e-04 3.718591870659124e-04 2.391686483425428e-04 1.577172838394608e-07 3.288809433696984e-07 2.531144136274978e-07 1.140654090286096e-04 8.196085503583168e-05 7.698622019651738e-05 1.627518595089313e-07 5.186581778927491e-08 2.012892470163265e-07 1.386543111552466e-05 8.703861988418213e-06 6.279549109272433e-06 -6.708987721723175e-07 1.228989917125710e-06 9.845441943068602e-07 1.658561175170241e-06 2.330431407895564e-06 7.573038609377171e-07 6.764474597959087e-07 3.871758838448932e-07 4.400943907120227e-07 2.013518683534881e-06 5.706340655561672e-06 4.433892108266358e-06 6.364370385519725e-07 2.007084493667908e-06 1.194333283773700e-06 1.319117157219913e-04 1.897462680557386e-04 1.063676390295788e-04 9.796438079153310e-05 1.852213704106329e-04 1.674178543323256e-04 7.571076101748315e-08 3.684961217959317e-07 1.006647815786710e-07 1.371245196183410e-05 2.779003658968547e-05 2.625157230176680e-05 1.332156864398663e-01 1.332156864398663e-01 1.055273600144237e-01 3.755652282481418e-05 4.133073819077743e-05 6.742199187089171e-05 5.186200118764614e-03 3.254506763099647e-03 3.465632940366115e-03 2.312377129505895e-02 1.610419153211847e-02 1.653289824706786e-02 1.903554502555933e-05 3.367514573615705e-05 3.854364782407463e-05 1.960561255119277e-05 1.043908087120265e-05 1.894470243932617e-05 4.029520383695462e-05 6.504133277096832e-05 3.312860551960086e-05 5.270943430438643e-02 6.524976649325798e-02 6.613871081239878e-02 1.532448522003489e-06 3.198487674896964e-06 3.017260636452185e-06 4.211681595613359e-04 2.640187793149108e-04 2.485015151254534e-04 3.974801453073632e-03 2.817304624561993e-03 2.457549845594586e-03 1.317275819311526e-04 6.701239264631753e-05 1.034998397122976e-04 7.331010884355384e-06 -3.589691022781309e-06 1.010608394074059e-07 4.860871038945654e-05 2.770875701529106e-05 4.981920641347457e-05 -5.153692066672387e-07 2.715612952471728e-07 6.289581465735536e-07 5.292908249636127e-05 3.248963034101928e-05 2.737425173640285e-05 4.450883493633326e-07 1.187708937328764e-07 -5.295180354101549e-07 2.042328694095181e-03 1.580335572616243e-03 1.476857379266950e-03 1.176321863607785e-03 1.613724660734007e-03 1.714563293221275e-03 4.781722206950335e-02 3.581876337063754e-02 4.370265112952861e-02 4.596186896302754e-07 3.204084809330169e-07 5.107698964309674e-07 5.094619075690747e-05 8.523387934396417e-05 5.547808043305112e-05 6.360639651141245e-05 8.393460674273661e-05 4.869931673152467e-05 1.343866690287808e-01 1.076037357137193e-01 1.072179416786822e-01 5.400450390065178e-07 2.402416569253610e-06 1.552012320770101e-06 5.948109144429213e-05 5.623815349495976e-05 9.371277900285021e-05 7.215302523166489e-04 5.526290209496116e-04 4.375148500720229e-04 6.199370536394419e-07 3.672477086875200e-07 7.091036742892932e-07 5.084894933104642e-07 6.019769748785640e-07 9.186480418701731e-07 1.874203835870413e-06 9.969428585273565e-07 1.154108056543037e-06 -6.446483295863261e-07 8.944723444328276e-07 -8.839388580868775e-08 5.768931171475503e-05 2.898115663443526e-05 4.144027151913765e-05 2.829291407867957e-03 3.520832834331659e-03 4.393506730066138e-03 4.897826924059595e-03 5.905610652456340e-03 7.417298669899494e-03 8.130708048154712e-03 6.444660840563873e-03 9.067257456313203e-03 3.236142375214922e-03 2.739800103969314e-03 2.296464400293692e-03 2.187196512391875e-07 2.481003348613182e-07 7.711393828352891e-07 6.698169868316313e-04 7.719114184212090e-04 4.946282909817253e-04 7.225269555173976e-03 1.091750931437390e-02 9.004291939088452e-03 1.123715781873437e-05 6.012542887308537e-06 8.020384226606845e-06 2.956893080687549e-03 2.260306372285421e-03 1.846433050343523e-03 1.976074247587580e-05 1.947202465672824e-05 9.748542747657114e-06 8.312020952370143e-04 8.532870564124361e-04 1.344379063695537e-03 4.472566423442819e-03 4.369776624163826e-03 6.807941494036390e-03 2.091865965123713e-02 2.052754212837558e-02 2.967430214882225e-02 7.056007860974399e-04 4.608984091052353e-04 7.310159501883423e-04 1.109265602365053e-05 9.166691910529066e-06 -6.853728343414940e-07 6.028305583991302e-04 7.127480693198986e-04 4.242097277627388e-04 1.047897953097167e-05 1.969695767915633e-05 1.952673599087496e-05 2.448666936352693e-06 4.498392412467473e-06 2.612572429868803e-06 1.326500223308455e-03 8.164348550154292e-04 8.397620258890672e-04 6.590777643394883e-03 4.387798554287853e-03 4.497923321712687e-03 2.066934981920555e-02 2.091700171140971e-02 2.893264004632399e-02 2.529208002426489e-02 2.376538614905311e-02 1.757926547247239e-02 1.417438467050916e-06 -5.933084822676955e-07 -1.704220200441201e-08 1.495794295031582e-04 1.070249598439331e-04 1.019044239519705e-04 1.750480261744840e-05 6.904355918452038e-06 1.208079401838075e-05 6.376695182785211e-04 3.830248086561272e-04 4.979342763615552e-04 3.143021107044511e-05 2.147220719659641e-05 2.093203057553371e-05 1.241271285075604e-04 1.060993366305438e-04 7.315326239202206e-05 7.439136001508467e-03 5.856373172090362e-03 5.121335712686083e-03 4.113746843471426e-03 5.598776129860619e-03 6.315341903619134e-03 4.726388282679235e-07 2.167418958330695e-07 4.010166954139086e-07 2.836295484292703e-05 1.811029514890241e-05 1.775787586043901e-05 5.670793276287391e-05 4.847048949930094e-05 2.710252323159071e-05 -7.621917713021449e-07 1.037359744782138e-06 -2.751679734799946e-07 6.466122664265500e-05 8.430638466363806e-05 1.159915246887423e-04 4.455135488227770e-04 7.421363282524802e-04 6.751172784210857e-04 6.657199699542995e-06 1.012362477933208e-05 1.196866560448444e-05 7.053546001344712e-06 5.954369508426187e-06 8.795877024025085e-06 1.054748025079468e-02 1.146450219319612e-02 8.819878360784116e-03 1.791168479527063e-03 2.033115670282294e-03 2.401935716455177e-03 4.524909241491836e-04 5.341758801662301e-04 3.175094148372053e-04 4.660452231866648e-05 2.750467392800345e-05 3.383162639096778e-05 4.036341700089042e-04 2.224491091119865e-04 3.408222324802205e-04 9.949723485043972e-07 -3.164064706591451e-07 -6.785658778452520e-07 1.800615197247410e-07 2.103118038083023e-07 2.996883159414030e-07 1.764444487708074e-07 3.392871922081351e-07 2.687904394152003e-07 5.592757108380239e-06 6.268752870893293e-06 2.843426958834237e-06 9.312014141915475e-03 1.425522229306683e-02 1.352780981049501e-02 3.135645266889564e-05 5.311002984863610e-05 2.781071145072329e-05 7.590558788468283e-06 -1.837733852909531e-06 -3.488333034935209e-06 3.996935978594414e-02 3.263411732970872e-02 4.470437886155144e-02 2.154675861443553e-06 1.998037810010284e-06 3.136599603579491e-06 8.875343614544361e-07 9.619742128219755e-07 4.651168606475380e-07 9.945977201000170e-07 8.325867519173848e-07 4.934978040131287e-07 2.338592777858676e-03 3.789718131910639e-03 3.672947925822528e-03 8.517671098967183e-03 5.928658567363145e-03 5.661187869809383e-03 7.589114440068536e-06 1.442205037523682e-05 1.480185115300884e-05 6.014568765703740e-06 1.116432727243378e-05 7.855588408539176e-06 4.792539997495710e-05 7.954642634445840e-05 8.776881578131569e-05 1.164420252705935e-04 7.573023047645898e-05 6.715286677213984e-05 1.367079310727073e-03 1.098596723528851e-03 1.620794520100710e-03 6.537257790267495e-08 1.279566611115148e-07 1.607639304087243e-07 2.045233707358454e-05 1.448991485577652e-05 1.081829832301051e-05 5.527600007178579e-06 -7.327803150116795e-07 -2.656321857687761e-06 4.781341141926749e-04 5.065751872557094e-04 7.431682798045995e-04 8.542139379842651e-05 1.496550144246426e-04 1.355363010372796e-04 8.101344603644082e-04 1.086593160026396e-03 1.345937969058909e-0