<?xml version="1.0"?>
<VTKFile type="UnstructuredGrid" version="0.1" byte_order="LittleEndian">
<UnstructuredGrid>
<Piece NumberOfPoints="3918" NumberOfCells="1306">
<Points>
<DataArray type="Float64" NumberOfComponents="3" format="ascii">
2.199999999999999e+00 1.000000000000000e+00 0.000000000000000e+00 2.167042760209688e+00 9.180909330202516e-01 0.000000000000000e+00 2.276253312368741e+00 8.960026502048396e-01 0.000000000000000e+00 4.794660531865603e+00 4.928781786967001e-01 0.000000000000000e+00 4.895148782943732e+00 5.622595023726160e-01 0.000000000000000e+00 4.773700345920383e+00 5.924187786805324e-01 0.000000000000000e+00 2.543072460766750e+00 7.257064952909391e-01 0.000000000000000e+00 2.612778635682587e+00 6.379739460669237e-01 0.000000000000000e+00 2.649888912334054e+00 7.569619856190068e-01 0.000000000000000e+00 1.948052693999185e+00 1.289873040940654e-01 0.000000000000000e+00 1.894432874635162e+00 7.551835003504323e-02 0.000000000000000e+00 1.999999999995511e+00 0.000000000000000e+00 0.000000000000000e+00 4.558741850192379e+00 1.706710584301058e-01 0.000000000000000e+00 4.482003026509532e+00 2.394413792785933e-01 0.000000000000000e+00 4.451469977250477e+00 1.357957442429618e-01 0.000000000000000e+00 3.299999999999999e+00 1.000000000000000e+00 0.000000000000000e+00 3.204890379983837e+00 9.254368576810614e-01 0.000000000000000e+00 3.273830491511281e+00 8.834576202305108e-01 0.000000000000000e+00 3.299999999999999e+00 1.000000000000000e+00 0.000000000000000e+00 3.273830491511281e+00 8.834576202305108e-01 0.000000000000000e+00 3.353422182013107e+00 9.028315595988372e-01 0.000000000000000e+00 4.111703902366866e+00 1.331175536465074e-01 0.000000000000000e+00 4.099999999998633e+00 0.000000000000000e+00 0.000000000000000e+00 4.182764237453481e+00 8.084782043728693e-02 0.000000000000000e+00 4.699999999999545e+00 0.000000000000000e+00 0.000000000000000e+00 4.776755050008729e+00 9.373387207737824e-02 0.000000000000000e+00 4.690158205531358e+00 1.364814217295172e-01 0.000000000000000e+00 1.948052693999185e+00 1.289873040940654e-01 0.000000000000000e+00 1.999999999995511e+00 0.000000000000000e+00 0.000000000000000e+00 2.049999999995552e+00 8.978335458097943e-02 0.000000000000000e+00 2.612778635682587e+00 6.379739460669237e-01 0.000000000000000e+00 2.680790723483929e+00 5.770944853520404e-01 0.000000000000000e+00 2.721274941296599e+00 6.860745476515622e-01 0.000000000000000e+00 2.217157304231143e+00 1.490340955835976e-01 0.000000000000000e+00 2.263108527926066e+00 7.883543312226374e-02 0.000000000000000e+00 2.320771471773918e+00 1.774611341310380e-01 0.000000000000000e+00 6.201761285132973e-01 8.145180217066926e-01 0.000000000000000e+00 5.107672864112288e-01 8.169186336319382e-01 0.000000000000000e+00 5.291217175395199e-01 7.399324289248853e-01 0.000000000000000e+00 2.764640797973617e+00 6.197673077442869e-01 0.000000000000000e+00 2.721274941296599e+00 6.860745476515622e-01 0.000000000000000e+00 2.680790723483929e+00 5.770944853520404e-01 0.000000000000000e+00 3.000000000000007e-01 1.000000000000000e+00 0.000000000000000e+00 2.235202862591317e-01 8.887389633270458e-01 0.000000000000000e+00 3.153592145619369e-01 8.815404533065442e-01 0.000000000000000e+00 2.299999999999999e+00 1.000000000000000e+00 0.000000000000000e+00 2.199999999999999e+00 1.000000000000000e+00 0.000000000000000e+00 2.276253312368741e+00 8.960026502048396e-01 0.000000000000000e+00 1.299999999999999e+00 1.000000000000000e+00 0.000000000000000e+00 1.246238897717278e+00 9.001620782265900e-01 0.000000000000000e+00 1.325594839248253e+00 8.832813258746552e-01 0.000000000000000e+00 1.299999999999999e+00 1.000000000000000e+00 0.000000000000000e+00 1.325594839248253e+00 8.832813258746552e-01 0.000000000000000e+00 1.386478687610004e+00 9.220875103295796e-01 0.000000000000000e+00 3.099999999999999e+00 1.000000000000000e+00 0.000000000000000e+00 3.138079516399413e+00 8.908467724822530e-01 0.000000000000000e+00 3.204890379983837e+00 9.254368576810614e-01 0.000000000000000e+00 1.599999999996661e+00 0.000000000000000e+00 0.000000000000000e+00 1.679983210048711e+00 8.220201556683318e-02 0.000000000000000e+00 1.609545399082946e+00 1.308291592921435e-01 0.000000000000000e+00 1.061007011519329e+00 5.618772874050625e-01 0.000000000000000e+00 1.160572984923127e+00 6.015530474704378e-01 0.000000000000000e+00 1.050000000000000e+00 6.706367924525535e-01 0.000000000000000e+00 6.215262983536076e-01 7.328515730233995e-01 0.000000000000000e+00 6.201761285132973e-01 8.145180217066926e-01 0.000000000000000e+00 5.291217175395199e-01 7.399324289248853e-01 0.000000000000000e+00 1.948052693999185e+00 1.289873040940654e-01 0.000000000000000e+00 2.049999999995552e+00 8.978335458097943e-02 0.000000000000000e+00 2.057936946544583e+00 1.849235821189668e-01 0.000000000000000e+00 2.091091774288676e+00 8.874649005201438e-01 0.000000000000000e+00 1.981107049933336e+00 8.600018538720656e-01 0.000000000000000e+00 2.085258760309228e+00 8.052686384966041e-01 0.000000000000000e+00 1.039491394416145e+00 8.340298301149526e-01 0.000000000000000e+00 9.354088824890808e-01 8.828123294523768e-01 0.000000000000000e+00 9.137231126914012e-01 8.048617635747636e-01 0.000000000000000e+00 1.981107049933336e+00 8.600018538720656e-01 0.000000000000000e+00 1.996885229669902e+00 7.683000423456376e-01 0.000000000000000e+00 2.085258760309228e+00 8.052686384966041e-01 0.000000000000000e+00 2.299999999999999e+00 1.000000000000000e+00 0.000000000000000e+00 2.276253312368741e+00 8.960026502048396e-01 0.000000000000000e+00 2.395017918255099e+00 9.023368606738377e-01 0.000000000000000e+00 4.399999999999088e+00 0.000000000000000e+00 0.000000000000000e+00 4.443360971034338e+00 6.001006090376452e-02 0.000000000000000e+00 4.340464407462508e+00 1.058022966868348e-01 0.000000000000000e+00 7.543413513517198e-01 1.288879963162577e-01 0.000000000000000e+00 6.466910199083232e-01 1.799054750174742e-01 0.000000000000000e+00 6.626722243468293e-01 7.849715957809261e-02 0.000000000000000e+00 9.999999999992801e-02 0.000000000000000e+00 0.000000000000000e+00 2.066914384950196e-01 8.554607894793897e-02 0.000000000000000e+00 8.279903559142687e-02 8.279903559151081e-02 0.000000000000000e+00 3.431815931955504e-01 3.314386771104964e-01 0.000000000000000e+00 2.371857680100064e-01 3.586554844111011e-01 0.000000000000000e+00 2.478307344467225e-01 2.478307344464838e-01 0.000000000000000e+00 1.039491394416145e+00 8.340298301149526e-01 0.000000000000000e+00 1.035017143854235e+00 9.257730596464975e-01 0.000000000000000e+00 9.354088824890808e-01 8.828123294523768e-01 0.000000000000000e+00 1.763223103020597e+00 6.969213383069597e-01 0.000000000000000e+00 1.659764170257915e+00 7.783869792876411e-01 0.000000000000000e+00 1.641237689750194e+00 6.703960699373966e-01 0.000000000000000e+00 2.171230381509611e+00 6.460806590265337e-01 0.000000000000000e+00 2.235035871331497e+00 5.528935828550036e-01 0.000000000000000e+00 2.240765570563543e+00 6.710361137189144e-01 0.000000000000000e+00 3.099999999999999e+00 1.000000000000000e+00 0.000000000000000e+00 3.204890379983837e+00 9.254368576810614e-01 0.000000000000000e+00 3.199999999999998e+00 1.000000000000000e+00 0.000000000000000e+00 4.689375887502736e+00 8.629982390821114e-01 0.000000000000000e+00 4.559658010798574e+00 8.268398885804081e-01 0.000000000000000e+00 4.659699064592896e+00 7.795622692497817e-01 0.000000000000000e+00 2.217157304231143e+00 1.490340955835976e-01 0.000000000000000e+00 2.320771471773918e+00 1.774611341310380e-01 0.000000000000000e+00 2.244951071131736e+00 2.260199244934647e-01 0.000000000000000e+00 3.859396958574677e-01 4.484332494195724e-01 0.000000000000000e+00 2.998774732159264e-01 4.343088009374657e-01 0.000000000000000e+00 3.431815931955504e-01 3.314386771104964e-01 0.000000000000000e+00 1.948052693999185e+00 1.289873040940654e-01 0.000000000000000e+00 2.057936946544583e+00 1.849235821189668e-01 0.000000000000000e+00 1.949071218763063e+00 2.055183505669977e-01 0.000000000000000e+00 4.558741850192379e+00 1.706710584301058e-01 0.000000000000000e+00 4.451469977250477e+00 1.357957442429618e-01 0.000000000000000e+00 4.536544111235556e+00 7.547590122663222e-02 0.000000000000000e+00 2.764640797973617e+00 6.197673077442869e-01 0.000000000000000e+00 2.748586785039362e+00 5.211021237021853e-01 0.000000000000000e+00 2.861122426073405e+00 5.967442355315300e-01 0.000000000000000e+00 9.849196667091529e-01 7.457027191416240e-01 0.000000000000000e+00 1.039491394416145e+00 8.340298301149526e-01 0.000000000000000e+00 9.137231126914012e-01 8.048617635747636e-01 0.000000000000000e+00 2.171230381509611e+00 6.460806590265337e-01 0.000000000000000e+00 2.122199951799849e+00 5.850416005702397e-01 0.000000000000000e+00 2.235035871331497e+00 5.528935828550036e-01 0.000000000000000e+00 1.948411343815324e+00 5.977864372950021e-01 0.000000000000000e+00 1.831604818415202e+00 5.415700660643472e-01 0.000000000000000e+00 1.949496869330408e+00 5.032480558805372e-01 0.000000000000000e+00 9.555466748202026e-01 6.138712331357172e-01 0.000000000000000e+00 9.543842823432471e-01 5.002189144552502e-01 0.000000000000000e+00 1.061007011519329e+00 5.618772874050625e-01 0.000000000000000e+00 3.211383243381871e+00 8.238513614296178e-01 0.000000000000000e+00 3.287305785442545e+00 7.342276537100590e-01 0.000000000000000e+00 3.314972634714863e+00 8.093336828947851e-01 0.000000000000000e+00 1.399999999999999e+00 1.000000000000000e+00 0.000000000000000e+00 1.463012078585596e+00 8.920964591701215e-01 0.000000000000000e+00 1.500000000000000e+00 1.000000000000000e+00 0.000000000000000e+00 3.699999999998025e+00 0.000000000000000e+00 0.000000000000000e+00 3.799999999998176e+00 0.000000000000000e+00 0.000000000000000e+00 3.736690596671465e+00 1.064195787014745e-01 0.000000000000000e+00 3.099999999997114e+00 0.000000000000000e+00 0.000000000000000e+00 3.199999999997265e+00 0.000000000000000e+00 0.000000000000000e+00 3.138143461708514e+00 1.082496513635721e-01 0.000000000000000e+00 3.287305785442545e+00 7.342276537100590e-01 0.000000000000
[...]
<PointData Scalars="A_conc," Vectors="" Tensors="">
<DataArray type="Float64" Name="A_conc" format="ascii">
1.230946083215880e-03 1.084613693488493e-03 1.632246350449178e-03 2.011464948653436e-01 2.281400776231087e-01 1.957438716775532e-01 2.648678366594665e-03 3.439857197476342e-03 3.889737718037553e-03 6.542574300937786e-04 5.333585677111526e-04 8.489843347284959e-04 1.491242250257608e-01 1.318146772364316e-01 1.251495394567102e-01 1.613205934123792e-02 1.207220160693541e-02 1.494723071864144e-02 1.553063087255501e-02 1.432726619418671e-02 1.800572766384634e-02 7.293391775461526e-02 7.136169368249252e-02 8.430909356715760e-02 1.783818187020020e-01 1.981344408808589e-01 1.758556962855930e-01 5.988767938596822e-04 7.980672255250427e-04 9.129806793810713e-04 3.122429981291979e-03 4.014021714066786e-03 4.588825907810909e-03 1.212323017785857e-03 1.451262604956729e-03 1.794960872610355e-03 2.221118850592208e-05 1.342361391806096e-05 1.478038806625639e-05 5.022742147962672e-03 4.365368012138949e-03 3.777208579668101e-03 2.312272409494697e-05 -2.931247648117924e-07 1.880203827504245e-06 1.690854644407835e-03 1.144869766744971e-03 1.557203346824560e-03 1.395200956493923e-04 9.692486740889112e-05 1.378319782753477e-04 1.285718059529235e-04 1.272050949886178e-04 1.682401787855870e-04 9.729865716203238e-03 1.096253004198599e-02 1.331294936122280e-02 2.812562694051622e-04 3.596239321890546e-04 2.631996388011935e-04 6.264189677611833e-05 9.603309864673022e-05 5.940646848461985e-05 2.144555791009748e-05 2.110553461804379e-05 1.331624133612135e-05 5.837868964283670e-04 9.015913821362998e-04 9.298174471938153e-04 1.011788929423317e-03 6.385193715426338e-04 9.963449295368957e-04 6.979473605938009e-05 4.288194756177280e-05 4.116040121474142e-05 6.872647763023288e-04 7.360185806938415e-04 1.026091302368320e-03 1.556768599588645e-03 1.419950866449313e-03 2.173524286392993e-03 1.173529801303838e-01 1.262066613674027e-01 1.050748451019557e-01 2.935700354560757e-05 1.978384355142975e-05 1.867783230011299e-05 1.607624985423302e-05 5.943872992198348e-06 2.574336217484829e-06 1.027572215069010e-05 6.220243235211305e-06 6.657233214870962e-06 6.639982556872140e-05 6.300984308762172e-05 3.848988073157547e-05 4.625958891708071e-04 3.073825494884014e-04 2.846420130543986e-04 1.098791208724333e-03 1.406175519898213e-03 1.448034467420443e-03 9.471675254022996e-03 1.310924098730165e-02 1.303556859291895e-02 1.774134589196405e-01 1.457412252458621e-01 1.701234291116078e-01 1.227668569062281e-03 1.798981555104971e-03 1.378565572327355e-03 1.117617694140998e-05 7.290381948578723e-06 9.270576035284611e-06 6.258213740348833e-04 9.602701870250500e-04 6.425064961426021e-04 1.486087696176950e-01 1.244557928086120e-01 1.436700471665986e-01 4.692006225566227e-03 4.391107478640454e-03 6.369956772018019e-03 5.481377982966062e-05 6.928638970705366e-05 3.822746371011850e-05 1.168721915905763e-03 9.521062986502994e-04 1.467991041419703e-03 7.105261271689676e-04 4.257803743761522e-04 7.123998543877001e-04 4.664957262599257e-05 4.595328428172963e-05 7.347742955956480e-05 1.221700937869968e-02 1.540356816110399e-02 1.665914963243738e-02 1.580009925165020e-04 1.905078638191366e-04 2.381121174832338e-04 3.414944824832161e-02 4.356392761428432e-02 3.701680504074453e-02 9.894239983091687e-03 1.333976438597093e-02 1.083266615834112e-02 1.586778604798920e-02 1.273711580348327e-02 1.193642967747015e-02 1.755957126547945e-01 2.082915178658646e-01 1.799472772896337e-01 2.936147985396405e-05 3.127284529588666e-05 1.770495792435703e-05 3.993877824995886e-03 5.579237542302519e-03 4.544301873509688e-03 1.777973306519762e-01 1.568113584618730e-01 1.463784888908294e-01 1.793377488544594e-01 1.768158107677822e-01 1.625231227501251e-01 2.004877887932517e-01 2.270859737292359e-01 2.276045345982537e-01 5.367045848735048e-05 9.233961266915418e-05 9.227813114015207e-05 7.424956762476639e-02 6.413658131315352e-02 7.268940070786176e-02 9.870819006231488e-02 1.086572130451776e-01 1.189579789158502e-01 1.468657811390190e-05 1.826623883754299e-05 4.468808430260390e-06 5.453035931769916e-03 7.650428441130575e-03 7.516885095248438e-03 7.943218927479290e-02 6.428106222829487e-02 8.004356070917031e-02 2.661256539689056e-02 1.977930314028562e-02 2.698960689085407e-02 2.932121789815043e-04 4.490383364999296e-04 2.911637798488343e-04 4.194719734495998e-05 6.793396029220158e-05 7.060252912083825e-05 1.688009597579398e-02 1.677891085947678e-02 2.233427428788264e-02 3.905094291386713e-02 2.993163658601192e-02 3.910821662456689e-02 1.774015152607228e-04 2.674946528845540e-04 1.744363807097649e-04 1.749291335836152e-01 1.974112644075055e-01 2.078808276792363e-01 1.001752016500106e-01 9.158402989525827e-02 1.100597618604057e-01 1.900245321021038e-05 1.221405028038858e-05 1.117623523855555e-05 2.658370790627791e-03 1.638552660254982e-03 2.423443394077563e-03 1.132195430958317e-03 1.175145313026684e-03 7.956469441780438e-04 1.707963420359652e-04 1.493798919539521e-04 2.023687756545266e-04 3.604373424065328e-02 4.268363773844926e-02 4.527023757193875e-02 1.294631727989427e-02 1.380370203619496e-02 1.038734263624599e-02 1.731704294297380e-04 1.163428733347561e-04 1.213514789802073e-04 1.221127360044225e-02 1.663380448737229e-02 1.577863396837156e-02 4.164902599265259e-02 5.317412684435887e-02 5.093154060338171e-02 1.771612171674470e-05 1.826076070963774e-05 1.008495588815171e-05 1.452959226797992e-03 2.090149051747695e-03 2.144596424242949e-03 1.092246041478326e-02 1.556522730478619e-02 1.175498960943149e-02 2.697816723282016e-03 1.977489107385631e-03 1.720604192129717e-03 6.130745960824428e-03 6.225956464760701e-03 4.185451259041260e-03 3.301569202896226e-02 2.940495414648989e-02 2.512604365684437e-02 1.117638366314941e-04 1.743147154834757e-04 1.652428170853863e-04 1.224466951635696e-02 1.270085474685946e-02 1.620120493923041e-02 4.128543679561772e-02 4.264242917807816e-02 5.180582900979458e-02 4.212696756901913e-04 2.941148801911535e-04 2.552531859356424e-04 3.378180101682966e-04 2.220601752995552e-04 2.207573475944251e-04 6.923320899840208e-03 9.817845988966937e-03 9.535458540528421e-03 2.454968749729536e-02 3.404685225307431e-02 3.287842774308430e-02 7.612067693594711e-02 9.732467079438042e-02 9.489175790714659e-02 3.111121739213212e-02 2.298635152102586e-02 2.679677570359197e-02 1.396748601862764e-02 1.538109512013934e-02 1.060688391621959e-02 3.019332922798289e-04 2.840803460214334e-04 2.207163444442671e-04 3.114003374711498e-02 2.593091840228694e-02 2.310313596302022e-02 9.181136178361911e-02 7.855294752012383e-02 7.188983036536140e-02 2.819582211182744e-03 2.600322926811900e-03 3.591316661079763e-03 9.907158903060997e-02 1.186634234652082e-01 1.064673815976062e-01 1.141534788413433e-03 1.077650096782953e-03 7.457574226140104e-04 2.295306050429411e-04 3.450658474611230e-04 3.023731407420676e-04 3.215279595735385e-04 3.950502031380467e-04 2.776885852609935e-04 2.600248413458503e-02 3.022516965397850e-02 2.373389696931039e-02 1.165514350217498e-04 1.823429735382980e-04 1.642090202501463e-04 5.060918420959952e-02 4.020564247923949e-02 4.161558218520914e-02 6.564240517506623e-05 4.782633301766521e-05 4.074512920611634e-05 1.044463016480952e-01 1.258815157799075e-01 1.273922408920153e-01 1.735527534358032e-04 1.150512903261386e-04 1.274384078073183e-04 5.243123373326425e-02 4.969561142829235e-02 4.058831116811958e-02 1.589307450316548e-05 1.532464892094485e-05 2.480693991221553e-05 6.605729971942881e-06 6.251151197044585e-06 4.081394846586994e-06 4.222057622107879e-06 4.537251966759089e-06 6.656355479134916e-06 4.449861663551540e-04 4.311949402726682e-04 2.826982057866491e-04 2.177612338906910e-05 1.610275824768531e-05 1.280254716785417e-05 9.161498608854027e-02 7.146984443844036e-02 8.305941432660759e-02 2.206940944223248e-05 8.913220713008786e-07 5.179327349175717e-06 1.034698938976053e-05 8.377772614179854e-06 1.249818505437088e-05 1.591934174698878e-04 1.041709480220776e-04 1.110943059263885e-04 1.074407058335577e-01 1.142342085402807e-01 1.273233981767345e-01 1.499591590353054e-04 1.003435661442239e-04 1.699619800566810e-04 4.550207113021136e-04 7.249569480802884e-04 5.025231264817950e-04 2.322913269501004e-03 2.120649461108878e-03 2.809919237380587e-03 3.887312356878583e-06 7.232912295631893e-06 9.824978808886515e-06 1.088206742798312e-01 9.962978691691289e-02 1.155828841350396e-01 4.647135497850939e-05 3.739089691569619e-05 2.834235564875136e-05 3.652316665744552e-03 3.190920230553924e-03 4.623917663038009e-03 5.079871314767602e-05 6.680276809377722e-05 3.937903921385157e-05 8.789453199213883e-02 7.996492441289850e-02 9.987219297901076e-02 6.872541624312967e-02 5.633615647066213e-02 5.379761125575858e-02 1.335969650422999e-02 1.073200512684892e-02 1.440395069508266e-02 1.518980422326009e-04 9.688672149441279e-05 1.365321566765091e-04 4.610251418925294e-02 5.666751841092924e-02 4.856206539382724e-02 5.290094414468663e-02 6.595752863622065e-02 6.799536373983271e-02 2.135932197225233e-02 2.217628467099272e-02 1.619849703729053e-02 2.262883889741575e-05 2.395624219212304e-05 1.396133968376635e-05 2.215238208194586e-05 6.745889081731095e-07 7.965145213579773e-06 2.279074584622770e-01 2.137007862335513e-01 1.953297889262179e-01 3.505005611430877e-02 4.001791817093174e-02 2.997370155995498e-02 2.185233292252626e-02 1.680416146746782e-02 1.880418464407098e-02 4.661171655142781e-05 2.878716627802195e-05 3.581267657912269e-05 1.207975850797687e-01 9.894022864445576e-02 1.083891327500656e-01 4.145050563529968e-04 2.460671973375459e-04 3.409646432551462e-04 4.068457857631904e-04 3.719252325849589e-04 5.773335338914774e-04 9.207459973922520e-03 7.066576946877961e-03 7.123274813496006e-03 7.510015393047361e-03 7.454443194329243e-03 5.831911977985255e-03 3.695065646118192e-02 4.357652575916607e-02 4.763099890964220e-02 2.035374199809493e-04 1.552963193257323e-04 1.309684370393714e-04 1.803882924918103e-02 1.340925645437700e-02 1.499500712454458e-02 4.253655161869438e-02 4.970282510437905e-02 4.664096629286654e-02 1.669275634068762e-04 1.256311846835320e-04 1.430925757715510e-04 1.552713509945015e-02 1.395991442472693e-02 1.285463288852158e-02 1.620031987147040e-02 2.156143372532674e-02 2.194955652800562e-02 3.971034253387802e-02 3.076675745958933e-02 3.100955825378526e-02 1.602815350157816e-04 2.576353768822721e-04 2.558360303588650e-04 7.420438880230426e-03 7.239156649598215e-03 5.255327789368662e-03 6.713045760582426e-05 5.259321075032582e-05 3.880577415985973e-05 7.990638913839132e-02 8.900892884109433e-02 9.974683995629421e-02 4.603236412304620e-04 6.957502922718906e-04 7.119419938637777e-04 7.838891409318946e-03 5.718494884944817e-03 5.656426594744029e-03 1.514396185804244e-04 1.017527489441189e-04 1.029613797506851e-04 6.195299549021881e-02 4.946339190578000e-02 5.499533912980708e-02 1.806959262274968e-03 2.251938554665664e-03 2.450309331674235e-03 2.120468130113544e-03 3.280304673190602e-03 2.928263090380104e-03 1.168806169578939e-03 7.889840053696136e-04 8.290555230311392e-04 1.171476451209221e-05 9.558326040678538e-06 5.751664340263742e-06 6.758647037167864e-06 1.030620133428217e-05 6.917428028203510e-06 4.652380987229086e-04 6.342729149169998e-04 7.869061346309260e-04 4.511801104661659e-04 7.826918314743522e-04 6.951488473072757e-04 7.961230577310002e-03 5.632598967536831e-03 5.770725768325838e-03 4.080959184047547e-05 4.035841110704690e-05 2.255352519583382e-05 9.804560021375063e-06 6.011578750683490e-06 9.678297115457291e-06 7.806596899334504e-03 5.483390285067140e-03 7.469894665195879e-03 5.733164013806611e-03 6.070776759115381e-03 7.645166601062788e-03 2.523705456358483e-05 3.190241285644743e-05 4.057639384141089e-05 2.722748769355251e-02 2.020542703312977e-02 2.164353785418031e-02 8.035594559044615e-02 6.391304878794765e-02 6.749854480430513e-02 2.169304524148549e-03 2.658789218867193e-03 3.306397594343079e-03 1.260093712097110e-03 1.669423421236774e-03 1.269519492935483e-03 8.099767508521147e-05 7.847090523687606e-05 1.287534145048122e-04 2.666839065541169e-02 2.099052420599013e-02 2.666962745692443e-02 7.937964325176650e-02 6.639524952703432e-02 7.983558601491855e-02 1.397533558563284e-01 1.609228989360132e-01 1.414903494643291e-01 4.144785305214904e-04 5.684507021704940e-04 5.401051870861059e-04 1.353576253447328e-03 1.362772799836227e-03 9.721431296877564e-04 4.824245074323239e-05 6.611716741413371e-05 7.496035294820876e-05 4.880149267924538e-05 7.522335638252018e-05 6.385372287946596e-05 5.034361112944752e-04 5.324343035853500e-04 6.701453612907251e-04 3.852027566756743e-03 3.631156181424105e-03 2.726718329103562e-03 5.876886798699673e-06 1.010518845210412e-05 8.200089985430395e-06 1.384438364916966e-03 1.096399337318029e-03 1.052270076304087e-03 3.443434364939419e-06 3.204430232367061e-06 5.196809988442049e-06 1.806887022718086e-04 1.980297713435328e-04 1.304940258956467e-04 1.368034877399717e-05 2.370828745286476e-05 1.620739320436052e-05 3.679840182640152e-05 4.941343056194020e-05 3.075866044065710e-05 1.871534762173087e-05 1.230325101889449e-05 1.352141576809439e-05 7.290011385537894e-05 1.027955639712818e-04 1.145223212261180e-04 2.548925290507608e-05 4.216573843837682e-05 2.744314328462878e-05 1.610993867129079e-03 2.083442063159628e-03 1.399242577653087e-03 1.344900765728916e-03 2.054255644313719e-03 1.911956506952216e-03 7.498344272800405e-06 7.674121475570176e-06 5.502006023078129e-06 2.685827138116596e-04 4.349266153364402e-04 4.170133453651008e-04 2.554911886931985e-01 2.554911886931986e-01 2.259091611798244e-01 5.920439607024889e-04 6.307996522954885e-04 8.965653504336726e-04 2.744169047219833e-02 2.043145016529610e-02 2.120048941921949e-02 8.086566987337013e-02 6.533040681198483e-02 6.622476980677024e-02 3.507969658657225e-04 5.150908782816770e-04 5.687185561537422e-04 3.262781598960924e-04 2.113806266885464e-04 3.180331242200286e-04 5.914455311523523e-04 8.537404388976557e-04 5.457988367387579e-04 1.462588575718138e-01 1.640278602236400e-01 1.652453622278004e-01 4.226253668912349e-05 7.092773729827967e-05 6.781031666453988e-05 3.943867134472228e-03 2.856400343634229e-03 2.747470807374875e-03 2.252156833315929e-02 1.800309943011676e-02 1.659655591083272e-02 1.556668150278870e-03 9.843686993135049e-04 1.297325769882244e-03 3.165898252166372e-05 5.375929056695270e-06 1.047328868147033e-05 6.938157485313485e-04 4.742781733099284e-04 7.066000428591105e-04 4.643090315462374e-06 5.084513150824819e-06 7.956948265014742e-06 7.338663409912607e-04 5.155180727062014e-04 4.600689011658806e-04 1.111765697922266e-05 5.665671977012604e-06 7.270669119603428e-06 1.365672271613266e-02 1.153481203077018e-02 1.106933513581383e-02 9.433665678447983e-03 1.152819126651396e-02 1.198672957004101e-02 1.333161502042823e-01 1.136875337228521e-01 1.266806708275661e-01 1.367001556386012e-05 1.053438004162992e-05 1.485882114465973e-05 7.565534363409203e-04 1.087726764808287e-03 8.015616548105305e-04 8.820716067028101e-04 1.076754800163755e-03 7.380504297554386e-04 2.558022772378186e-01 2.268735806674596e-01 2.263534452714661e-01 2.776284409555391e-05 4.771373751582190e-05 4.929119389038630e-05 8.494836503281058e-04 8.203681951131158e-04 1.175021052837518e-03 6.064990513014175e-03 5.048771327189052e-03 4.350310234051959e-03 1.764864393302879e-05 1.216947727252877e-05 1.963889555516680e-05 1.563618116553895e-05 1.769456045599625e-05 2.434197738697250e-05 4.023994133725312e-05 3.434543023653617e-05 2.735878281410745e-05 3.162261050685649e-06 9.810683569906600e-06 7.621482204156885e-06 7.894976876267506e-04 4.892097092922532e-04 6.204965567965513e-04 1.848512552177937e-02 2.111031508480041e-02 2.435953512700157e-02 2.781990205447982e-02 3.110528018727413e-02 3.592172382441268e-02 3.906442886926188e-02 3.401463468807996e-02 4.180980244684172e-02 1.941505345708953e-02 1.744128036468636e-02 1.562751089831772e-02 8.878272237609355e-06 1.419253716272288e-05 1.541693373884994e-05 5.832858075049363e-03 6.421085576774549e-03 4.793096779430757e-03 3.712234563869039e-02 4.764421155844938e-02 4.225695484518737e-02 2.031931706582189e-04 1.299047067438130e-04 1.585346650200559e-04 1.803691603916736e-02 1.512767935452633e-02 1.336266365351864e-02 3.282216247344711e-04 3.244881618281690e-04 2.025220196142104e-04 7.130188421168266e-03 7.254716832676715e-03 9.826838735321020e-03 2.574094570081729e-02 2.541070658819913e-02 3.357978344786340e-02 7.817319443305487e-02 7.743055701155147e-02 9.599818211673504e-02 6.030740644848014e-03 4.578507833249321e-03 6.166309724116724e-03 1.169455879499013e-04 8.020206121621243e-05 7.697137343855969e-05 5.348847345431606e-03 6.024984816195889e-03 4.288632683354362e-03 2.124123248904922e-04 3.276273890345260e-04 3.256417356596924e-04 5.984125347840305e-05 9.382055534739704e-05 6.261096298773149e-05 9.720169148469449e-03 7.029508670309024e-03 7.166228152629343e-03 3.281748251459946e-02 2.541381946284816e-02 2.579783336596300e-02 7.754818168899393e-02 7.816716719877900e-02 9.444068304458793e-02 8.652911661551488e-02 8.352388389650049e-02 7.036178155633589e-02 2.272434237199276e-05 1.241849422073612e-05 2.110729298549978e-05 1.725860362290436e-03 1.364369901414250e-03 1.321685432935847e-03 2.447548414390862e-04 1.820350579430560e-04 1.638629200322234e-04 5.505181001691869e-03 3.925014673181682e-03 4.638146638431749e-03 4.802609114015063e-04 3.650620133264104e-04 3.587029336830534e-04 1.485848451174535e-03 1.328831646821626e-03 1.036290942655776e-03 3.601765788336466e-02 3.100559758033797e-02 2.858014699151736e-02 2.463820109836588e-02 2.961162119637490e-02 3.200347111296707e-02 1.297005015581600e-05 7.697577576395190e-06 1.232569503913229e-05 3.996168092584372e-04 3.409617159004911e-04 2.643336999150519e-04 7.810487113987263e-04 6.973346318439908e-04 4.734430084024671e-04 6.417696107448201e-06 9.777432966919842e-06 1.137228303600919e-05 9.346764971046807e-04 1.114020455791641e-03 1.399106278226476e-03 4.469944418001458e-03 6.226302384957617e-03 5.831001390143737e-03 1.422026599958153e-04 1.900823327980821e-04 2.153414890905800e-04 1.416442172966657e-04 1.258002813910614e-04 1.667072977178091e-04 4.722331820516935e-02 4.966268246702266e-02 4.246558457699488e-02 1.285082560311970e-02 1.391400367477295e-02 1.551411943987528e-02 4.261877729719608e-03 4.798862017856677e-03 3.403142662207293e-03 6.399971233476394e-04 4.264243050892326e-04 5.452708818435658e-04 3.835719568695032e-03 2.586314033186510e-03 3.396006227408651e-03 9.587340412873025e-06 8.639210744941531e-06 1.129476972041744e-05 5.999630312303751e-06 7.158605057103731e-06 8.808149355369727e-06 6.475102272370758e-06 9.958458278490247e-06 8.170978916616990e-06 1.145271667058095e-04 1.248825138507469e-04 7.191717528426492e-05 4.519914360496217e-02 5.792823869800627e-02 5.604300412239410e-02 5.031444657580976e-04 7.355241647375148e-04 4.642332372676822e-04 3.073120182608978e-05 1.394089650361788e-05 4.208982834087176e-06 1.194509978039918e-01 1.069407097644822e-01 1.273673480714394e-01 5.237461922481953e-05 5.005621157123564e-05 6.982414733979068e-05 2.176622859463065e-05 2.619540277812196e-05 1.600256752107317e-05 2.619567827685899e-05 2.280318841628134e-05 1.577474745807701e-05 1.630246984940511e-02 2.191946459000922e-02 2.144953115071100e-02 3.961493499757218e-02 3.158099808064283e-02 3.075402161372407e-02 1.627910410878750e-04 2.530836794554912e-04 2.579493116277347e-04 1.296029802624714e-04 2.021042821697224e-04 1.557588853821168e-04 7.444319987424365e-04 1.043810813288908e-03 1.121581422059032e-03 1.402596347003219e-03 1.033365627318653e-03 9.533356897158193e-04 1.022208992070341e-02 8.895620041271297e-03 1.143506001782316e-02 2.807210108192366e-06 4.524075196093230e-06 5.420208502913288e-06 3.348448701518712e-04 2.600676454156533e-04 2.131010487712833e-04 2.151199908877328e-05 8.242166887847779e-06 5.473466527090697e-08 4.606531252227328e-03 4.777609183928856e-03 6.199683062477850e-03 1.188130984156613e-03 1.731058996037400e-03 1.613954438248447e-03 7.100810047312361e-03 8.551337959347805e-03 9.872617470893874e-03 5.726176838660513e-04 8.8