<?xml version="1.0"?>
<VTKFile type="UnstructuredGrid" version="0.1" byte_order="LittleEndian">
<UnstructuredGrid>
<Piece NumberOfPoints="3162" NumberOfCells="1054">
<Points>
<DataArray type="Float64" NumberOfComponents="3" format="ascii">
0.39507969989512881 0.74417394063201048 0 0.42715538333808079 0.70077759375307946 0 0.44764943295894188 0.73752415265401661 0 0.74417394063200648 0.6049203001048884 0 0.70087539567735502 0.57165914616526226 0 0.73752415265401194 0.55235056704108476 0 0.25582605936799319 0.39507969989513358 0 0.2963043386970643 0.4298320229681446 0 0.26247584734598628 0.44764943295894732 0 0.60492030010488373 0.25582605936799729 0 0.57188338999077359 0.29874123486230147 0 0.55175647814720108 0.26104505532086641 0 0.56566515596461675 0.63670464971409091 0 0.61233489393901674 0.60846740003560018 0 0.60879112811253555 0.66592422311595834 0 0.6519524273377173 0.64249931920594539 0 0.60879112811253555 0.66592422311595834 0 0.61233489393901674 0.60846740003560018 0 0.640156794425081 0.43301393728221721 0 0.60122390529523662 0.39097801071820221 0 0.66346942254826746 0.391530810754116 0 0.6424993192059415 0.3480475726622802 0 0.66346942254826746 0.391530810754116 0 0.60122390529523662 0.39097801071820221 0 0.74198804864688339 0.90892718720327403 0 0.77688977118331393 0.94706199857866258 0 0.71789175274016548 0.95136708251202151 0 0.091072812796719582 0.74198804864687795 0 0.052938001421335763 0.77688977118331159 0 0.04863291748797445 0.71789175274016204 0 0.89586000931544074 0.25714619498770419 0 0.94465622530468663 0.23167460333446291 0 0.94915666091748963 0.28320804985299752 0 0.25714619498771307 0.1041399906845497 0 0.23167460333446299 0.05534377469531044 0 0.28320804985300141 0.050843339082505573 0 0.89999999999958358 1 0 0.84999999999965292 1 0 0.90554214442080472 0.95994154153067524 0 0 0.89999999999958358 0 0 0.84999999999965292 0 0.040058458469322648 0.90554214442079806 0 0.040058458469319477 0.094457855579157729 0 0 0.15000000000062411 0 0 0.10000000000041601 0 0.094457855579188163 0.95994154153068711 0 0.15000000000062411 1 0 0.10000000000041601 1 0 0.90554214442081604 0.040058458469347469 0 0.84999999999960507 0 0 0.89999999999973679 0 0 0.95994154153065969 0.90554214442078618 0 1 0.84999999999960507 0 1 0.89999999999973679 0 1 0.099999999999814668 0 1 0.14999999999970359 0 0.95994154153057998 0.094457855579277675 0 0.099999999999814668 0 0 0.14999999999970359 0 0 0.094457855579284614 0.040058458469418363 0 1 0.19999999999955789 0 0.94465622530468663 0.23167460333446291 0 0.96080966346491015 0.18035159017841959 0 0.19999999999955789 0 0 0.23167460333446299 0.05534377469531044 0 0.18035159017842109 0.039190336535090492 0 0.79999999999999982 1 0 0.77688977118331393 0.94706199857866258 0 0.82675923981951416 0.95611053755456221 0 0 0.79999999999999982 0 0.052938001421335763 0.77688977118331159 0 0.043889462445437968 0.82675923981951283 0 1 0.79999999999947335 0 0.96071093996985157 0.81954008780615684 0 0.9442075111696665 0.76777356182390766 0 0.79999999999947335 0 0 0.82050174006822896 0.038839999600956771 0 0.76543419162344684 0.056452228708420968 0 0.20000000000083221 1 0 0.18045991219397989 0.960710939969875 0 0.23222643817617661 0.94420751116970569 0 0 0.20000000000083221 0 0.038839999600931263 0.17949825993190149 0 0.056452228708379938 0.23456580837661581 0 0.50000000000002642 0.7803135888501761 0 0.53770425635794761 0.80104587463999666 0 0.49771727055908782 0.83998685797641781 0 0.2196864111498267 0.50000000000003153 0 0.1989632851005598 0.53769147668950479 0 0.16001314202358469 0.49771727055909287 0 0.78031358885017377 0.49999999999997569 0 0.80106707846564795 0.46230714888029367 0 0.83998574657308889 0.50228528270184081 0 0.49999999999997108 0.21968641114982909 0 0.46229330881044273 0.19890916456654811 0 0.50228272944093777 0.16001314202359701 0 0.79999999999999982 1 0 0.75000000000034661 1 0 0.77688977118331393 0.94706199857866258 0 0 0.79999999999999982 0 0 0.75000000000034661 0 0.052938001421335763 0.77688977118331159 0 1 0.19999999999955789 0 1 0.24999999999941211 0 0.94465622530468663 0.23167460333446291 0 0.19999999999955789 0 0 0.24999999999941211 0 0 0.23167460333446299 0.05534377469531044 0 1 0.74999999999934175 0 1 0.79999999999947335 0 0.9442075111696665 0.76777356182390766 0 0.74999999999934175 0 0 0.79999999999947335 0 0 0.76543419162344684 0.056452228708420968 0 0.25000000000104028 1 0 0.20000000000083221 1 0 0.23222643817617661 0.94420751116970569 0 0 0.25000000000104028 0 0 0.20000000000083221 0 0.056452228708379938 0.23456580837661581 0 1 0.74999999999934175 0 0.9442075111696665 0.76777356182390766 0 0.94635952848698612 0.71209247961721311 0 0.74999999999934175 0 0 0.76543419162344684 0.056452228708420968 0 0.71174922810186925 0.053730171687687178 0 0.25000000000104028 1 0 0.23222643817617661 0.94420751116970569 0 0.28790752038294382 0.94635952848702642 0 0 0.25000000000104028 0 0.056452228708379938 0.23456580837661581 0 0.053730171687646627 0.28825077189828552 0 0.8289812646369813 0.82898126463698818 0 0.87660297360393757 0.8104127896505644 0 0.88962265630811221 0.85311725681459705 0 0.17101873536300011 0.82898126463696109 0 0.18958721034944021 0.87660297360394568 0 0.14688274318541941 0.88962265630811932 0 0.39507969989512881 0.74417394063201048 0 0.44764943295894188 0.73752415265401661 0 0.43306783640023289 0.78031198216144404 0 0.74417394063200648 0.6049203001048884 0 0.73752415265401194 0.55235056704108476 0 0.78031198216143516 0.56693216359979737 0 0.25582605936799319 0.39507969989513358 0 0.26247584734598628 0.44764943295894732 0 0.21968801783855879 0.43306783640023788 0 0.60492030010488373 0.25582605936799729 0 0.55175647814720108 0.26104505532086641 0 0.56683314878414581 0.21944955250104689 0 0.90554214442080472 0.95994154153067524 0 0.84999999999965292 1 0 0.86696410734367158 0.94753096683315619 0 0.040058458469322648 0.90554214442079806 0 0 0.84999999999965292 0 0.052469033166843738 0.86696410734366991 0 0.054872692726595548 0.13410685639845171 0 0 0.15000000000062411 0 0.040058458469319477 0.094457855579157729 0 0.13834721989462789 0.94095916274077984 0 0.15000000000062411 1 0 0.094457855579188163 0.95994154153068711 0 0.86589314360155567 0.054872692726639853 0 0.84999999999960507 0 0 0.90554214442081604 0.040058458469347469 0 0.94095916274074942 0.86165278010542579 0 1 0.84999999999960507 0 0.95994154153065969 0.90554214442078618 0 0.95994154153057998 0.094457855579277675 0 1 0.14999999999970359 0 0.94100406608115506 0.1383574446607955 0 0.094457855579284614 0.040058458469418363 0 0.14999999999970359 0 0 0.1383574446607988 0.058995933918849157 0 0.1104775404132264 0.2631175359816938 0 0.099694771212264055 0.22074048840547039 0 0.15899695163321451 0.22783674912227669 0 0.73688246401832591 0.11047754041323141 0 0.77925951159456153 0.09969477121230251 0 0.77216325087772952 0.15899695163319821 0 0.88949062093135778 0.73694585442531257 0 0.9041449437197947 0.7786886066890556 0 0.839908789927305 0.77106070975262608 0 0.26305414557470391 0.88949062093136155 0 0.22131139331094829 0.9041449437198319 0 0.22893929024737289 0.83990878992727813 0 0.74198804864688339 0.90892718720327403 0 0.71789175274016548 0.95136708251202151 0 0.70475631558365914 0.90098127745102974 0 0.091072812796719582 0.74198804864687795 0 0.04863291748797445 0.71789175274016204 0 0.099018722548963364 0.70475631558365193 0 0.89586000931544074 0.25714619498770419 0 0.94915666091748963 0.28320804985299752 0 0.89886191075654698 0.29506339503703172 0 0.25714619498771307 0.1041399906845497 0 0.28320804985300141 0.050843339082505573 0 0.29506339503703888 0.1011380892434444 0 0.65773042910151891 0.073296788161472337 0 0.62160809078275991 0.1093532031139005 0 0.6048537357103756 0.060530514380187868 0 0.92670321183853355 0.65773042910151081 0 0.89064679688610338 0.6216080907827598 0 0.93946948561981514 0.60485373571037115 0 0.073296788161418117 0.34226957089850552 0 0.10935320311385981 0.37839190921727089 0 0.06053051438015096 0.39514626428972788 0 0.3422695708985129 0.92670321183858773 0 0.37839190921727062 0.89064679688614412 0 0.39514626428973221 0.93946948561985189 0 0.49771727055908782 0.83998685797641781 0 0.53770425635794761 0.80104587463999666 0 0.54047998161173716 0.84333512669480526 0 0.16001314202358469 0.49771727055909287 0 0.1989632851005598 0.53769147668950479 0 0.1566648733051971 0.54047998161174216 0 0.83998574657308889 0.50228528270184081 0 0.80106707846564795 0.46230714888029367 0 0.84333218736938698 0.4595365182652234 0 0.50228272944093777 0.16001314202359701 0 0.46229330881044273 0.19890916456654811 0 0.45952001838826873 0.15666487330524251 0 0.8289812646369813 0.82898126463698818 0 0.88962265630811221 0.85311725681459705 0 0.85174853583809862 0.87705234031428159 0 0.17101873536300011 0.82898126463696109 0 0.14688274318541941 0.88962265630811932 0 0.1229476596857173 0.85174853583809695 0 0.83199780613337848 0.1690131600686714 0 0.8517485358380722 0.12294765968568611 0 0.88777909259956078 0.1484760565886154 0 0.16901316006868169 0.16800219386663079 0 0.12294765968567151 0.14825146416195439 0 0.1484760565886207 0.1122209074004519 0 0.15899695163321451 0.22783674912227669 0 0.099694771212264055 0.22074048840547039 0 0.12587517708284679 0.1889683322666954 0 0.77216325087772952 0.15899695163319821 0 0.77925951159456153 0.09969477121230251 0 0.8110316677333288 0.125875177082863 0 0.83199780613337848 0.1690131600686714 0 0.88777909259956078 0.1484760565886154 0 0.87355793346388477 0.18922011052113649 0 0.16901316006868169 0.16800219386663079 0 0.1484760565886207 0.1122209074004519 0 0.18922011052115781 0.12644206653611201 0 0.32191828326940508 0.76395804595204586 0 0.34270280102445921 0.71672416762035873 0 0.35837423432538362 0.77730446904312345 0 0.76395804595204597 0.67808171673060369 0 0.71518943060973483 0.65679402931717101 0 0.77730446904309636 0.64162576567462737 0 0.2360419540479583 0.32191828326940741 0 0.28473805236128291 0.34355768118673757 0 0.22269553095687891 0.35837423432538801
[...]
<PointData Scalars="" Vectors="displacement," Tensors="">
<DataArray type="Float64" Name="displacement" NumberOfComponents="3" format="ascii">
-0.00025718535411379644 -0.0023901256560623653 0 -0.00017896144628578954 -0.0022302604708243994 0 -0.00012873752005961424 -0.0023633544528555077 0 0.00058399441171866242 -0.0019110067688622113 0 0.00048082630790256174 -0.0017815185059088759 0 0.0005629904142756538 -0.0017231282762345092 0 -0.00053377418155840296 -0.0011722523768506301 0 -0.00045839094520400212 -0.0012782865341311304 0 -0.00054004737408075768 -0.0013537706210710074 0 0.00018086262495765052 -0.00065960119991185086 0 0.0001358163957001181 -0.00079581660237621876 0 8.9864916201220948e-05 -0.00067226711106879733 0 0.00016063089682165 -0.001995798337431358 0 0.00027312278375260469 -0.0018975729569919561 0 0.00026603643873577708 -0.0021061023952650094 0 0.00036958860591644317 -0.0020264411892424207 0 0.00026603643873577708 -0.0021061023952650094 0 0.00027312278375260469 -0.0018975729569919561 0 0.00031688496896544697 -0.001270659361920302 0 0.00022046856985439555 -0.0011143384208660574 0 0.00035629749156557529 -0.0011304985144408447 0 0.00029493358651674684 -0.0009739036831770048 0 0.00035629749156557529 -0.0011304985144408447 0 0.00022046856985439555 -0.0011143384208660574 0 0.00057447575751073563 -0.0029852131045046567 0 0.00064977315918585425 -0.003117582052286981 0 0.00051648266829846178 -0.0031360191054124456 0 -0.00094027483051368978 -0.0024132349198558696 0 -0.0010132855472650853 -0.002531544423927232 0 -0.001021702494215633 -0.002336935567349607 0 0.00071939107262873495 -0.00080829024709316518 0 0.00077212036055282582 -0.00078551173971774617 0 0.00085209175361699772 -0.00095294207135419049 0 -0.00020388686170528259 -0.00023796813976135656 0 -0.00012536008740709082 -0.00011935345919088862 0 -9.1582041515803631e-05 -0.00010480085295441405 0 0.00090004870167994632 -0.0032827452699809171 0 0.00080004370492460649 -0.0032920929455829157 0 0.00091879742892454026 -0.0031466048950069291 0 -0.0011020705369446295 -0.0029352798919548254 0 -0.0011072775320997252 -0.0027714799863557517 0 -0.0010298624013081129 -0.00295761050903386 0 -0.00045585019372460818 -0.0003499675584495298 0 -0.00069999308900571663 -0.00063246561653773972 0 -0.00054826133240001309 -0.00046782837428467036 0 -0.00091920215366287522 -0.0031465721329492543 0 -0.00080031509591744912 -0.0032921488376614558 0 -0.00090038947245508507 -0.0032827465138846814 0 0.00015657086423922578 -9.6264551599317056e-05 0 2.6915094566405995e-08 -1.0903027927634814e-07 0 6.3143313224013317e-08 -1.4395923297899257e-07 0 0.0010296978988906624 -0.0029576073924112889 0 0.0011071951844930155 -0.002771606343086843 0 0.0011018779675738759 -0.002935284079855798 0 0.00054887558042329644 -0.00046747783334576782 0 0.00070136196346777362 -0.00063157836068001823 0 0.00045652955578753986 -0.00034972545791152597 0 -6.312726496724631e-08 -1.4540514723931301e-07 0 -2.6770870585427e-08 -1.0757863751931536e-07 0 -0.00015676714263116847 -9.6781041215249225e-05 0 0.0008087334597872126 -0.0007777545464299851 0 0.00077212036055282582 -0.00078551173971774617 0 0.00070315928078017328 -0.00064844201418664637 0 -3.8070894102794195e-08 -1.2341703185706098e-07 0 -0.00012536008740709082 -0.00011935345919088862 0 -0.00010813625130782483 -8.7260626377669e-05 0 0.00069447895559004709 -0.0032995948273267322 0 0.00064977315918585425 -0.003117582052286981 0 0.00075716916682867428 -0.0031444491410659819 0 -0.0011091286638979445 -0.0026075517521824427 0 -0.0010132855472650853 -0.002531544423927232 0 -0.0010285128214108583 -0.0026964677098421227 0 0.0011089824900406837 -0.0026078915227668296 0 0.0010371021630993116 -0.0026726974871324727 0 0.0010078523683286452 -0.0025014396019425499 0 3.74399217625726e-08 -1.2345150010811147e-07 0 0.00010734472197768145 -8.7106954907829136e-05 0 0.00012729441776004253 -0.00012128085594543906 0 -0.00069494863365201468 -0.003299518600980727 0 -0.00074147096005794172 -0.003161236522691113 0 -0.00063031028151942575 -0.0031080831808278282 0 -0.00080903879881497217 -0.00077786309542593902 0 -0.00070157954746128174 -0.00064571545959090488 0 -0.0007756670293642316 -0.00079305427547947784 0 -1.0272602027884159e-07 -0.0025186727437416408 0 9.224709351442331e-05 -0.0025945090356716224 0 -5.7198211695567512e-06 -0.0027359314083368592 0 -0.00064968435881524746 -0.0015543650367439688 0 -0.00070279941169709129 -0.0016933725442084427 0 -0.00077782863644058756 -0.0015725336386234884 0 0.00064938837956754437 -0.0015544078593925351 0 0.00068402369564217393 -0.0014329648106722662 0 0.00077875819793435613 -0.0015883258440486255 0 -1.4205782970563462e-07 -0.00054233009646307759 0 -5.2860388963931653e-05 -0.00048138851507520945 0 3.3595504638700917e-06 -0.00036939054715577846 0 0.00069447895559004709 -0.0032995948273267322 0 0.00058489971835391373 -0.0033053148718584897 0 0.00064977315918585425 -0.003117582052286981 0 -0.0011091286638979445 -0.0026075517521824427 0 -0.0011100840663983945 -0.0024436479712667222 0 -0.0010132855472650853 -0.002531544423927232 0 0.0008087334597872126 -0.0007777545464299851 0 0.0008917727670861524 -0.00092223832734564172 0 0.00077212036055282582 -0.00078551173971774617 0 -3.8070894102794195e-08 -1.2341703185706098e-07 0 -2.1057833048602508e-08 -1.1647151402185895e-07 0 -0.00012536008740709082 -0.00011935345919088862 0 0.00110991584367492 -0.002443760085449827 0 0.0011089824900406837 -0.0026078915227668296 0 0.0010078523683286452 -0.0025014396019425499 0 2.2549256468985379e-08 -1.1504517562735458e-07 0 3.74399217625726e-08 -1.2345150010811147e-07 0 0.00012729441776004253 -0.00012128085594543906 0 -0.00058509183916362383 -0.0033053297546288708 0 -0.00069494863365201468 -0.003299518600980727 0 -0.00063031028151942575 -0.0031080831808278282 0 -0.00089254181530644308 -0.00092216796229204346 0 -0.00080903879881497217 -0.00077786309542593902 0 -0.0007756670293642316 -0.00079305427547947784 0 0.00110991584367492 -0.002443760085449827 0 0.0010078523683286452 -0.0025014396019425499 0 0.001011931130759639 -0.0023173252031489077 0 2.2549256468985379e-08 -1.1504517562735458e-07 0 0.00012729441776004253 -0.00012128085594543906 0 9.5174198915815535e-05 -0.00011105820824700595 0 -0.00058509183916362383 -0.0033053297546288708 0 -0.00063031028151942575 -0.0031080831808278286 0 -0.00050400257033740591 -0.0031186075130944257 0 -0.00089254181530644308 -0.00092216796229204346 0 -0.0007756670293642316 -0.00079305427547947784 0 -0.00085316262711767211 -0.00096521622064370553 0 0.00077236892852408179 -0.0027054014498498384 0 0.00087309454867164429 -0.0026418667483363817 0 0.00089751499551792024 -0.0027872666267395505 0 -0.00077268633490297381 -0.0027052812154227759 0 -0.00072948516874198652 -0.0028703763538078806 0 -0.00081988100081077414 -0.0029133284456599952 0 -0.00025718535411379644 -0.0023901256560623653 0 -0.00012873752005961424 -0.0023633544528555077 0 -0.00016420634451427981 -0.0025198426932463115 0 0.00058399441171866242 -0.0019110067688622113 0 0.0005629904142756538 -0.0017231282762345092 0 0.00066166368495914761 -0.0017879709713858212 0 -0.00053377418155840296 -0.0011722523768506301 0 -0.00054004737408075768 -0.0013537706210710074 0 -0.00062875605482679432 -0.0013215088660956181 0 0.00018086262495765052 -0.00065960119991185086 0 8.9864916201220935e-05 -0.00067226711106879722 0 0.00010256065147050033 -0.00054246933394499217 0 0.00091879742892454026 -0.0031466048950069291 0 0.00080004370492460649 -0.0032920929455829157 0 0.00084242269422682913 -0.003110327388732364 0 -0.0010298624013081129 -0.00295761050903386 0 -0.0011072775320997252 -0.0027714799863557517 0 -0.0010096410974624204 -0.002830390228734379 0 -0.00055231217182799346 -0.00046128201358067714 0 -0.00069999308900571663 -0.00063246561653773972 0 -0.00045585019372460818 -0.0003499675584495298 0 -0.00083266973283508067 -0.0030884989343973371 0 -0.00080031509591744912 -0.0032921488376614558 0 -0.00091920215366287522 -0.0031465721329492543 0 0.00017831646790299443 -0.00013495414998105276 0 2.6915094566405664e-08 -1.0903027927634755e-07 0 0.00015657086423922578 -9.6264551599317056e-05 0 0.00099779219301200802 -0.0028132867421873644 0 0.0011071951844930155 -0.002771606343086843 0 0.0010296978988906624 -0.0029576073924112889 0 0.00045652955578753986 -0.00034972545791152597 0 0.00070136196346777362 -0.00063157836068001834 0 0.00055804933160198331 -0.00046864678671443792 0 -0.00015676714263116847 -9.6781041215249225e-05 0 -2.6770870585421706e-08 -1.075786375193121e-07 0 -0.00018997512916953658 -0.00014439435281329683 0 -0.00071618236213894686 -0.00082090821126964508 0 -0.00066898903067501595 -0.00069079334807525545 0 -0.00057091463904710739 -0.00065980280604860842 0 0.00021002530981559033 -0.00025181142992046929 0 0.00022956996241680055 -0.00023688751204118096 0 0.00033951305941023655 -0.00040101997946303961 0 0.00090198718485478527 -0.0023944387764172586 0 0.00092936713263297921 -0.0025357280655639055 0 0.00079820879336566322 -0.0025064892108480901 0 -0.00056470839289847789 -0.00291670182955946 0 -0.00065746265930338504 -0.0029673662310399102 0 -0.00064483094473514709 -0.0027422116066329874 0 0.00057447575751073563 -0.0029852131045046567 0 0.00051648266829846178 -0.0031360191054124456 0 0.00048949637786349144 -0.0029575481320272871 0 -0.00094027483051368978 -0.0024132349198558696 0 -0.001021702494215633 -0.002336935567349607 0 -0.00092481824827844456 -0.0022880163010530652 0 0.00071939107262873495 -0.00080829024709316518 0 0.00085209175361699772 -0.00095294207135419049 0 0.0007725206945931334 -0.00093621108839132806 0 -0.00020388686170528259 -0.00023796813976135656 0 -9.1582041515803631e-05 -0.00010480085295441405 0 -0.00016623190118899564 -0.0002256073349879418 0 9.3885100892282105e-05 -0.00015374459126121453 0 0.00010359677265798774 -0.00024064021078138283 0 5.0836397300422371e-05 -0.00012400541690346756 0 0.00097333066716519831 -0.0021356928344488865 0 0.00090045211019545556 -0.0020081282629421369 0 0.00099333705110883652 -0.0019648695360288105 0 -0.00087123531491143031 -0.0011159806664835287 0 -0.00082871924505457787 -0.0012037728167699612 0 -0.00093107231931485919 -0.0012943563796728576 0 -0.00037845289164170279 -0.0030498807536753435 0 -0.00029410212703725438 -0.0029204893448340355 0 -0.00025231395211730659 -0.0030961069879361048 0 -5.7198211695567512e-06 -0.0027359314083368592 0 9.224709351442331e-05 -0.0025945090356716224 0 9.8602894687834156e-05 -0.0027482619151283157 0 -0.00077782863644058756 -0.0015725336386234884 0 -0.00070279941169709118 -0.0016933725442084427 0 -0.00079326023621993137 -0.0017192386345414527 0 0.00077875819793435613 -0.0015883258440486255 0 0.00068402369564217382 -0.001432964810672266 0 0.00077226363596052039 -0.0014450908710169383 0 3.3595504638700917e-06 -0.00036939054715577846 0 -5.2860388963931659e-05 -0.0004813885150752095 0 -4.5908925183085323e-05 -0.00036295409781792663 0 0.00077236892852408179 -0.0027054014498498384 0 0.00089751499551792035 -0.0027872666267395505 0 0.00081801027896695455 -0.0028700654358797323 0 -0.00077268633490297381 -0.0027052812154227759 0 -0.00081988100081077414 -0.0029133284456599952 0 -0.00087237237073093906 -0.0027827066783437885 0 0.00044894542987714377 -0.00046118607225119183 0 0.00036801671992242922 -0.00032691921069323272 0 0.00049210980206605736 -0.00043369919606677383 0 -0.00044579251899444771 -0.0004573010180475054 0 -0.00047246755095952531 -0.00042378564759435806 0 -0.00034215256974296372 -0.00029480239143933417 0 -0.00057091463904710739 -0.00065980280604860842 0 -0.00066898903067501595 -0.00069079334807525545 0 -0.00056114738094257069 -0.00055743356674618587 0 0.00033951305941023655 -0.00040101997946303961 0 0.00022956996241680055 -0.00023688751204118096 0 0.0003214604763270785 -0.00031825982287867681 0 0.00044894542987714377 -0.00046118607225119183 0 0.00049210980206605736 -0.00043369919606677383 0 0.00056011371287112042 -0.00055715960934257889 0 -0.00044579251899444771 -0.0004573010180475054 0 -0.00034215256974296372 -0.00029480239143933417 0 -0.00032258160926667786 -0.0003203219186443214 0 -0.0004325737126989803 -0.0024671896480539099 0 -0.00038363973127116896 -0.0022952325112282055 0 -0.00034535344704648079 -0.002512644818080759 0 0.00063172874204687948 -0.0021736145970083728 0 0.00051952038840505854 -0.0020887085309692056 0 0.00066102559655315581 -0.0020480831029422359 0 -0.00052885998299390059 -0.00092974344148866552 0 -0.00044438448768005859 -0.0009813653939888796 0 -0.00058277664271425792 -0.0010613578538921846 0 0.00029327270531357346 -0.00061255970848548365 0 0.00029163640074129953 -0.00076429846072835798 0 0.00022101252091230237 -0.00056187296283112032 0 -0.00056470839289847789 -0.00291670182955946 0 -0.00050400257033740591 -0.0031186075130944257 0 -0.00063031028151942575 -0.0031080831808278282 0 -0.00071618236213894686 -0.00082090821126964508 0 -0.000853162627117672 -0.00096521622064370542 0 -0.0007756670293642316 -0.00079305427547947784 0 0.00090198718485478527 -0.0023944387764172586 0 0.001011931130759639 -0.0023173252031489077 0 0.0010078523683286452 -0.0025014396019425499 0 0.00021002530981559033 -0.00025181142992046929 0 9.5174198915815535e-05 -0.00011105820824700595 0 0.00012729441776004253 -0.00012128085594543906 0 -0.00064483094473514709 -0.0027422116066329874 0 -0.00065746265930338504 -0.0029673662310399102 0 -0.00072948516874198652 -0.002870376353807881 0 0.00079820879336566322 -0.0025064892108480901 0 0.00092936713263297921 -0.0025357280655639055 0 0.00087309454867164429 -0.0026418667483363817 0 -0.00034535344704648079 -0.002512644818080759 0 -0.00038363973127116896 -0.0022952325112282055 0 -0.00025718535411379644 -0.0023901256560623653 0 0.00066102559655315581 -0.0020480831029422359 0 0.00051952038840505854 -0.0020887085309692056 0 0.00058399441171866242 -0.0019110067688622113 0 -0.00058277664271425792 -0.0010613578538921846 0 -0.00044438448768005859 -0.0009813653939888796 0 -0.00053377418155840296 -0.0011722523768506301 0 0.00022101252091230237 -0.00056187296283112032 0 0.00029163640074129953 -0.00076429846072835798 0 0.00018086262495765052 -0.00065960119991185086 0 0.00018152720794690336 -0.0018056797773772215 0 8.6226021311618022e-05 -0.0018644555578555566 0 7.4273044033912623e-05 -0.0016880965521232441 0 0.0011009577504074533 -0.0019613672452520395 0 0.00099333705110883652 -0.0019648695360288105 0 0.0010178985756899629 -0.0018244404703377005 0 1.23437356176264e-08 -1.1710642033244773e-07 0 5.0836397300422371e-05 -0.00012400541690346756 0 2.1808581052400854e-05 -8.5816846646678404e-05 0 -0.00023902333747273844 -0.0033136023068240823 0 -0.00025231395211730659 -0.0030961069879361048 0 -0.00014437271974668015 -0.0031571296550734641 0 -0.0010376074510709096 -0.0013503796807351307 0 -0.00093107231931485919 -0.0012943563796728576 0 -0.00098405663869589573 -0.001445443896842701 0 -0.00015543041054501427 -0.0029642440082074872 0 -3.2337549225726516e-05 -0.0030804629590149464 0 -0.00014437271974668015 -0.0031571296550734641 0 -0.00088408764565869348 -0.0014003729682785036 0 -0.0009630380469301613 -0.0015817027807173039 0 -0.00098405663869589573 -0.001445443896842701 0 0.00091845379466708773 -0.0018207724437724359 0 0.000969940393073193 -0.0016672615018716026 0 0.0010178985756899629 -0.0018244404703377005 0 4.872254178428978e-05 -0.00020710535032236423 0 6.907022826948702e-06 -0.00013134671622922462 0 2.1808581052400854e-05 -8.5816846646678404e-05 0 0.00017717097253866666 -0.0016558330254566531 0 0.00018152720794690336 -0.0018056797773772215 0 7.4273044033912623e-05 -0.0016880965521232441 0 0.0011081763383958305 -0.00228077715671254 0 0.00110991584367492 -0.002443760085449827 0 0.001011931130759639 -0.0023173252031489077 0 1.3748422251634203e-08 -1.2325431571502586e-07 0 2.2549256468985379e-08 -1.1504517562735458e-07 0 9.5174198915815535e-05 -0.00011105820824700595 0 -0.00047184406169200325 -0.0033090260991842269 0 -0.00058509183916362383 -0.0033053297546288708 0 -0.00050400257033740591 -0.0031186075130944257 0 -0.00095317508978688898 -0.0010651646841643605 0 -0.00089254181530644308 -0.00092216796229204346 0 -0.00085316262711767211 -0.00096521622064370553 0 0.00091845379466708773 -0.0018207724437724359 0 0.00081779134033050955 -0.0019075670618878713 0 0.00082010322076005952 -0.0017446480090633314 0 -0.00015543041054501427 -0.0029642440082074872 0 -0.00023162171134828106 -0.0027781346803692829 0 -0.00011336813558251589 -0.0027925285068787285 0 4.872254178428978e-05 -0.00020710535032236423 0 0.00010444274927275167 -0.00034158852675584818 0 5.1135807758842226e-05 -0.00032802662702727849 0 -0.00088408764565869348 -0.0014003729682785036 0 -0.00076578937598236212 -0.0012644790043274123 0 -0.00079625385818967722 -0.001430862274099551 0 0.00091845379466708773 -0.0018207724437724359 0 0.00090045211019545556 -0.0020081282629421369 0 0.00081779134033050955 -0.0019075670618878713 0 4.872254178428978e-05 -0.00020710535032236423 0 0.00010359677265798774 -0.0002406402107813828 0 0.00010444274927275167 -0.00034158852675584818 0 -0.00015543041054501427 -0.0029642440082074872 0 -0.00029410212703725438 -0.0029204893448340355 0 -0.00023162171134828106 -0.0027781346803692829 0 -0.00088408764565869348 -0.0014003729682785036 0 -0.00082871924505457787 -0.0012037728167699612 0 -0.00076578937598236212 -0.0012644790043274123 0 0.00058399441171866242 -0.0019110067688622113 0 0.00046524951601890023 -0.0019242342380299932 0 0.00048082630790256174 -0.0017815185059088762 0 -0.00025718535411379644 -0.0023901256560623653 0 -0.00027804331456014666 -0.0022046018587660089 0 -0.00017896144628578954 -0.0022302604708243994 0 0.00018086262495765052 -0.00065960119991185086 0 0.00021598034391155703 -0.00082970183958749021 0 0.0001358163957001181 -0.00079581660237621876 0 -0.00053377418155840296 -0.0011722523768506301 0 -0.00042413446405095934 -0.0011470410784674447 0 -0.00045839094520400212 -0.0012782865341311304 0 3.6415588558125802e-05 -0.0022145997803567621 0 0.00017301326004816547 -0.0022150995030081823 0 0.00010954493051026805 -0.0023983256813467249 0 -0.00046472940610549351 -0.0015777187734819361 0 -0.00046882612205134319 -0.0017712469647283801 0 -0.00058418320334468869 -0.0016985475515187212 0 0.00046577095418752159 -0.0014714343986079615 0 0.00044152439551300678 -0.0012783176828370536 0 0.00056405862847680812 -0.0013845245226574549 0 -3.1355780351067476e-05 -0.00078838588664664224 0 -0.000133243333265009 -0.0008126822994194698 0 -7.5882266899035821e-05 -0.00064469102589387501 0 0.00062752230662682326 -0.00058358525623580662 0 0.00070315928078017328 -0.00064844201418664637 0 0.00077212036055282582 -0.00078551173971774617 0 -0.000221382950670696 -0.00019304964013916896 0 -0.00010813625130782483 -8.7260626377669e-05 0 -0.00012536008740709082 -0.00011935345919088862 0 0.00074080261423048509 -0.002996737122821589 0 0.00075716916682867428 -0.0031444491410659819 0 0.00064977315918585425 -0.003117582052286981 0 -0.00094687541105418669 -0.0026652665822520685 0 -0.0010285128214108583 -0.0026964677098421227 0 -0.0010132855472650853 -0.002531544423927232 0 0.00095673593564262447 -0.0026691683937645674 0 0.0010078523683286452 -0.0025014396019425499 0 0.0010371021630993116 -0.0026726974871324727 0 0.00023016423526307217 -0.00019664649178976299 0 0.00012729441776004253 -0.00012128085594543906 0 0.00010734472197768145 -8.7106954907829136e-05 0 -0.00074318945612704835 -0.0030147952813132589 0 -0.00063031028151942575 -0.0031080831808278282 0 -0.00074147096005794172 -0.003161236522691113 0 -0.00061842277516934992 -0.00057104735844197921 0 -0.0007756670293642316 -0.00079305427547947784 0 -0.00070157954746128174 -0.00064571545959090488 0 0.00024050104245922627 -0.0023883166316170032 0 0.00010954493051026805 -0.0023983256813467249 0 0.00017301326004816547 -0.0022150995030081823 0 -0.00058239163620122834 -0.0018873047223576123 0 -0.00058418320334468869 -0.0016985475515187212 0 -0.00046882612205134319 -0.0017712469647283801 0 0.00053585263586684948 -0.0011956619726356226 0 0.00056405862847680812 -0.001384