<?xml version="1.0"?>
<VTKFile type="UnstructuredGrid" version="0.1" byte_order="LittleEndian">
<UnstructuredGrid>
<Piece NumberOfPoints="192" NumberOfCells="831">
<Points>
<DataArray type="Float64" NumberOfComponents="3" format="ascii">
0.000000000000000e+00 0.000000000000000e+00 0.000000000000000e+00 1.000000000000000e+00 0.000000000000000e+00 0.000000000000000e+00 1.000000000000000e+00 1.000000000000000e+00 0.000000000000000e+00 0.000000000000000e+00 1.000000000000000e+00 0.000000000000000e+00 0.000000000000000e+00 1.000000000000000e+00 1.000000000000000e+00 1.000000000000000e+00 1.000000000000000e+00 1.000000000000000e+00 0.000000000000000e+00 0.000000000000000e+00 1.000000000000000e+00 1.000000000000000e+00 0.000000000000000e+00 1.000000000000000e+00 5.000000000000000e-01 5.000000000000000e-01 0.000000000000000e+00 5.000000000000000e-01 5.000000000000000e-01 1.000000000000000e+00 0.000000000000000e+00 7.500000000003469e-01 0.000000000000000e+00 0.000000000000000e+00 5.000000000013878e-01 0.000000000000000e+00 0.000000000000000e+00 2.500000000010408e-01 0.000000000000000e+00 1.666666666663036e-01 1.666666666663036e-01 0.000000000000000e+00 3.333333333329494e-01 3.333333333329494e-01 0.000000000000000e+00 3.333333333335068e-01 6.666666666664932e-01 0.000000000000000e+00 1.666666666669558e-01 8.333333333330442e-01 0.000000000000000e+00 2.499999999993999e-01 1.000000000000000e+00 0.000000000000000e+00 4.999999999990217e-01 1.000000000000000e+00 0.000000000000000e+00 7.499999999993374e-01 1.000000000000000e+00 0.000000000000000e+00 8.333333333333334e-01 8.333333333333334e-01 0.000000000000000e+00 6.666666666666666e-01 6.666666666666666e-01 0.000000000000000e+00 6.666666666664932e-01 3.333333333335068e-01 0.000000000000000e+00 8.333333333330442e-01 1.666666666669558e-01 0.000000000000000e+00 1.000000000000000e+00 2.499999999993999e-01 0.000000000000000e+00 1.000000000000000e+00 4.999999999990217e-01 0.000000000000000e+00 1.000000000000000e+00 7.499999999993374e-01 0.000000000000000e+00 7.500000000003469e-01 0.000000000000000e+00 0.000000000000000e+00 5.000000000013878e-01 0.000000000000000e+00 0.000000000000000e+00 2.500000000010408e-01 0.000000000000000e+00 0.000000000000000e+00 0.000000000000000e+00 0.000000000000000e+00 2.499999999993999e-01 0.000000000000000e+00 0.000000000000000e+00 4.999999999990217e-01 0.000000000000000e+00 0.000000000000000e+00 7.499999999993374e-01 0.000000000000000e+00 2.499999999993999e-01 1.000000000000000e+00 0.000000000000000e+00 4.999999999990217e-01 1.000000000000000e+00 0.000000000000000e+00 7.499999999993374e-01 1.000000000000000e+00 0.000000000000000e+00 1.000000000000000e+00 2.499999999993999e-01 0.000000000000000e+00 1.000000000000000e+00 4.999999999990217e-01 0.000000000000000e+00 1.000000000000000e+00 7.499999999993374e-01 1.666666666663036e-01 1.666666666663036e-01 1.000000000000000e+00 3.333333333329494e-01 3.333333333329494e-01 1.000000000000000e+00 3.333333333335068e-01 6.666666666664932e-01 1.000000000000000e+00 1.666666666669558e-01 8.333333333330442e-01 1.000000000000000e+00 2.499999999993999e-01 1.000000000000000e+00 1.000000000000000e+00 4.999999999990217e-01 1.000000000000000e+00 1.000000000000000e+00 7.499999999993374e-01 1.000000000000000e+00 1.000000000000000e+00 8.333333333333334e-01 8.333333333333334e-01 1.000000000000000e+00 6.666666666666666e-01 6.666666666666666e-01 1.000000000000000e+00 6.666666666664932e-01 3.333333333335068e-01 1.000000000000000e+00 8.333333333330442e-01 1.666666666669558e-01 1.000000000000000e+00 1.000000000000000e+00 2.499999999993999e-01 1.000000000000000e+00 1.000000000000000e+00 4.999999999990217e-01 1.000000000000000e+00 1.000000000000000e+00 7.499999999993374e-01 1.000000000000000e+00 7.500000000003469e-01 0.000000000000000e+00 1.000000000000000e+00 5.000000000013878e-01 0.000000000000000e+00 1.000000000000000e+00 2.500000000010408e-01 0.000000000000000e+00 1.000000000000000e+00 1.000000000000000e+00 1.000000000000000e+00 7.500000000003469e-01 1.000000000000000e+00 1.000000000000000e+00 5.000000000013878e-01 1.000000000000000e+00 1.000000000000000e+00 2.500000000010408e-01 1.000000000000000e+00 0.000000000000000e+00 2.499999999993999e-01 1.000000000000000e+00 0.000000000000000e+00 4.999999999990217e-01 1.000000000000000e+00 0.000000000000000e+00 7.499999999993374e-01 5.000000000000000e-01 5.000000000000000e-01 7.500000000003469e-01 5.000000000000000e-01 5.000000000000000e-01 5.000000000013878e-01 5.000000000000000e-01 5.000000000000000e-01 2.500000000010408e-01 2.379245660390611e-01 2.379245660390611e-01 2.162358951242244e-01 2.380991584657879e-01 2.380991584657879e-01 7.803088543618493e-01 3.653953988185751e-01 3.653953988185751e-01 3.749806181900907e-01 3.654893131679817e-01 3.654893131679817e-01 6.217831714226325e-01 2.033996654263802e-01 2.033996654263802e-01 4.980176865105043e-01 1.088439618285938e-01 1.088439618285938e-01 6.737960461898667e-01 1.086599905363383e-01 1.086599905363383e-01 3.235800389049144e-01 3.872982309022571e-01 3.872982309022571e-01 8.303182816207765e-01 3.872403566557978e-01 3.872403566557978e-01 1.680449343555243e-01 1.027193562910071e-01 1.027193562910072e-01 8.408489714923724e-01 1.025501277357185e-01 1.025501277357185e-01 1.575259589564332e-01 7.637000155078905e-01 7.637000155078905e-01 7.809050039047323e-01 7.621221404738692e-01 7.621221404738692e-01 2.164093449356935e-01 6.349571452012427e-01 6.349571452012428e-01 3.748697400518411e-01 6.353659200568351e-01 6.353659200568351e-01 6.220284160230994e-01 7.976498841762479e-01 7.976498841762479e-01 4.983766703815347e-01 8.928637350804595e-01 8.928637350804594e-01 6.743671149974113e-01 8.914426558807437e-01 8.914426558807437e-01 3.236982673685562e-01 6.133634390026289e-01 6.133634390026289e-01 8.305301125217698e-01 6.127934358543176e-01 6.127934358543176e-01 1.680413733238825e-01 8.985741839682366e-01 8.985741839682365e-01 8.412797890647278e-01 8.973898125026393e-01 8.973898125026393e-01 1.575790459931176e-01 2.382701894435121e-01 7.617298105564879e-01 7.809291450038474e-01 2.379827985599809e-01 7.620172014400191e-01 2.169258959641029e-01 3.654977260546857e-01 6.345022739453143e-01 3.756698240940143e-01 3.656426418390417e-01 6.343573581609584e-01 6.224372907088122e-01 2.034164719467638e-01 7.965835280532363e-01 4.984730391358363e-01 1.089613818578917e-01 8.910386181421083e-01 6.741808913809411e-01 1.086345562064005e-01 8.913654437935996e-01 3.234086554074086e-01 3.873262422521789e-01 6.126737577478212e-01 8.305617061604627e-01 3.872729077802760e-01 6.127270922197241e-01 1.683685409073324e-01 1.028043779130879e-01 8.971956220869122e-01 8.410959780252162e-01 1.025606944805126e-01 8.974393055194874e-01 1.576336350373474e-01 7.633845793447680e-01 2.366154206552319e-01 7.814854151005195e-01 7.621188429194914e-01 2.378811570805086e-01 2.171386250930564e-01 6.347499996936812e-01 3.652500003063188e-01 3.756574500121480e-01 6.353332215211832e-01 3.646667784788167e-01 6.224967417247160e-01 7.976652396941899e-01 2.023347603058101e-01 4.987244863377491e-01 8.927202114787717e-01 1.072797885212283e-01 6.746546529658062e-01 8.915286724413353e-01 1.084713275586647e-01 3.237612062854899e-01 6.132514557302692e-01 3.867485442697308e-01 8.307917042507544e-01 6.127541013622068e-01 3.872458986377932e-01 1.684110920395303e-01 8.984543598850183e-01 1.015456401149817e-01 8.414876118240658e-01 8.974686139699366e-01 1.025313860300635e-01 1.577658260313863e-01 6.500176425443139e-01 1.488917180207868e-01 1.000000000000000e+00 3.500001415888463e-01 1.489787069412839e-01 1.000000000000000e+00 5.000176532664731e-01 2.442059449269561e-01 1.000000000000000e+00 8.510284147647655e-01 3.499885688154717e-01 1.000000000000000e+00 8.510284147648555e-01 6.500114311839064e-01 1.000000000000000e+00 7.558049186214014e-01 4.999999999997691e-01 1.000000000000000e+00 3.500001415882293e-01 8.510212930584533e-01 1.000000000000000e+00 6.500176425436531e-01 8.511082819792821e-01 1.000000000000000e+00 5.000176532660147e-01 7.557940550729428e-01 1.000000000000000e+00 1.489787069412844e-01 3.500001415879341e-01 1.000000000000000e+00 1.488917180207898e-01 6.500176425435159e-01 1.000000000000000e+00 2.442059449269596e-01 5.000176532658115e-01 1.000000000000000e+00 3.500001415882293e-01 8.510212930584533e-01 0.000000000000000e+00 6.500176425436531e-01 8.511082819792821e-01 0.000000000000000e+00 5.000176532660147e-01 7.557940550729428e-01 0.000000000000000e+00 8.511082819791936e-01 3.499823574557175e-01 0.000000000000000e+00 8.510212930585458e-01 6.499998584111548e-01 0.000000000000000e+00 7.557940550729467e-01 4.999823467335326e-01 0.000000000000000e+00 6.499998584117949e-01 1.489787069415259e-01 0.000000000000000e+00 3.499823574563490e-01 1.488917180205500e-01 0.000000000000000e+00 4.999823467339848e-01 2.442059449269613e-01 0.000000000000000e+00 1.489715852352121e-01 6.500114311845560e-01 0.000000000000000e+00 1.489715852349735e-01 3.499885688160941e-01 0.000000000000000e+00 2.441950813785003e-01 5.000000000002356e-01 0.000000000000000e+00 0.000000000000000e+00 3.772016377408031e-01 2.542204333646548e-01 0.000000000000000e+00 6.404426065308156e-01 7.840733683099962e-01 0.000000000000000e+00 8.084143123223765e-01 3.766800342375862e-01 0.000000000000000e+00 1.773701474104074e-01 6.180654142330894e-01 0.000000000000000e+00 8.089833307550802e-01 6.237810364794917e-01 0.000000000000000e+00 5.700208022812604e-01 5.007935636879599e-01 0.000000000000000e+00 1.766695653062093e-01 3.835805503084682e-01 0.000000000000000e+00 3.774551236714481e-01 7.471574804051241e-01 0.000000000000000e+00 6.402329172809760e-01 2.167447801926948e-01 0.000000000000000e+00 1.611771326479784e-01 1.775327441898394e-01 0.000000000000000e+00 1.614643944056941e-01 8.232157496164640e-01 0.000000000000000e+00 8.395324934900396e-01 8.314990813233726e-01 0.000000000000000e+00 8.392962971408795e-01 1.687256697727582e-01 0.000000000000000e+00 3.365445099179724e-01 5.009431866166841e-01 7.838128218423600e-01 1.000000000000000e+00 3.59876976720636
[...]
<PointData Scalars="pressure_nodes_[L]," Vectors="">
<DataArray type="Float64" Name="pressure_nodes_[L]" format="ascii">
-1.685808063684729e-02 8.558101184916207e-01 8.566243479623077e-01 -1.618586556276369e-02 -8.553665669370837e-01 1.567653773346902e-02 -8.550756272604032e-01 1.651692973051458e-02 4.256169442033890e-01 -4.251681354168961e-01 -1.948894572103811e-02 -8.571002601055193e-03 -2.377358718601555e-02 9.121895993882090e-02 2.510059589122499e-01 2.509323324442953e-01 8.719969226885126e-02 1.699729664494575e-01 4.472522339602207e-01 7.156485176610973e-01 7.767782989534869e-01 6.340363226342173e-01 6.338327105898678e-01 7.758677630560307e-01 9.016006826194124e-01 8.903704076841171e-01 9.016958397038788e-01 7.132732730791136e-01 4.464874079874663e-01 1.696780526229018e-01 -2.012569031966962e-01 -4.355744141908217e-01 -6.988945368335279e-01 -8.947761062777941e-01 -8.793387038663140e-01 -8.987672067512706e-01 -1.996900116876331e-01 -4.311199160551538e-01 -6.961985258071864e-01 -7.779121112079527e-01 -6.334820788895104e-01 -6.334245014787231e-01 -7.781120798135822e-01 -7.147656068462397e-01 -4.510462501790735e-01 -1.721971712754896e-01 -8.756735841313762e-02 -2.500656036017433e-01 -2.502640354392268e-01 -8.405038439497529e-02 1.500133917149559e-02 -8.336854341830464e-03 1.513147976176739e-02 -2.071301183242904e-01 -4.392294978625363e-01 -7.116082571508808e-01 1.986217498031265e-01 4.349029180859824e-01 7.011124289055933e-01 6.976312538422230e-01 4.332450542353357e-01 2.006905200224172e-01 -2.386167380730172e-01 1.004136348828979e-03 2.396199471878356e-01 7.187956289397186e-03 -5.657751436722347e-01 -6.688683896589086e-02 -3.301610918000303e-01 -3.436997414268262e-01 -6.033949160729688e-01 -2.175037878349003e-01 -4.797102267627710e-01 1.950672135329605e-01 -7.686907542565682e-01 -3.958386670750218e-02 1.557270348462091e-02 5.851749085486964e-01 3.562162247955930e-01 1.180447726236204e-01 3.418945512152239e-01 2.133203766702745e-01 5.975429282849801e-01 -1.567313432762831e-01 5.064478821553529e-01 4.412018132012799e-02 7.673733318835273e-01 -5.692307662077755e-01 -5.370875667086420e-03 -1.074904111124011e-01 -3.443791012477060e-01 -3.345486933327989e-01 -6.015758478731618e-01 -2.143748768156686e-01 -5.189823585643307e-01 1.660818466029257e-01 -7.691274257394952e-01 -4.416188692313317e-02 8.218470748841935e-03 5.717046166797596e-01 3.554669489876203e-01 7.574474616027446e-02 3.253536270122825e-01 2.151970527384965e-01 5.932228210202688e-01 -1.701197025289021e-01 4.979174459488583e-01 6.225762327981735e-02 7.662877216393427e-01 -2.591830786888538e-01 -5.912723646286308e-01 -4.148607406806451e-01 -5.725124987679960e-02 -5.699264176293074e-02 -1.038533639880746e-01 -5.930386391059719e-01 -2.617321914902631e-01 -4.157488662695271e-01 -7.919289520541846e-01 -7.953997398708100e-01 -7.160946565680585e-01 2.618412125555289e-01 5.965906150410769e-01 4.202264493187129e-01 7.973141312953445e-01 7.976685869101449e-01 7.223531102190113e-01 5.912861507683779e-01 2.618474382623606e-01 4.068666042581480e-01 5.720028099464975e-02 4.409100484477002e-02 1.093600927963828e-01 -1.528019169517529e-01 -7.070850469863321e-01 -3.354695589043529e-01 -5.886507585395236e-01 -5.937706640746681e-01 -4.144925024945411e-01 -3.414953868525101e-01 -6.658816209234524e-01 -1.430265928523146e-01 -1.201896443363715e-01 -7.929422709925912e-01 -7.981667033781141e-01 -1.138391092972013e-01 -4.340730621755590e-01 3.919778227920874e-01 -3.522722816227372e-01 -2.364831708492111e-01 1.922262612048898e-01 4.022185976565378e-01 1.803606871289972e-02 1.144996348793464e-01 -4.719972602280210e-01 -1.290938401829895e-01 6.539221990262448e-01 -3.923975587598657e-02 -6.481501804667116e-01 3.609418804053553e-02 -2.037401098173900e-01 5.915085001216813e-01 3.184028433603845e-01 7.171681189725392e-02 7.435365774594517e-01 7.108350091408130e-01 4.859488976222029e-01 3.187422615554605e-01 7.138233968933183e-02 5.912406043480490e-01 7.980270457004518e-01 1.087984534477736e-01 1.084987473022768e-01 7.977927256990479e-01 2.118809042884077e-01 -3.798259001171834e-01 2.061659949449734e-01 1.507108399306581e-01 4.069623439629322e-01 1.457706706302055e-01 -1.301086680376416e-01 -1.807528828404840e-01 3.609206869819581e-01 -4.427113811321330e-01 -2.144322096840304e-01 3.473760582247949e-02 -3.249953442117637e-02 6.466426068623506e-01 -6.503790090969667e-01 1.891321319792696e-02 -1.932290394370993e-02 4.436618458106217e-02 
</DataArray>
</PointData>
<CellData Scalars="pressure_elements_[L],piezo_head_elements_[L]," Vectors="velocity_elements_[L/T],">
<DataArray type="Float64" Name="pressure_elements_[L]" format="ascii">
-3.749998118187436e-01 -1.249996185201729e-01 1.250002436069013e-01 3.750000683517303e-01 -4.266091029396728e-01 -5.043925224888297e-01 -1.560883036765842e-01 -3.582368871732976e-01 -4.749774855542853e-01 -2.717789387560660e-01 -1.995280685547706e-01 -3.225143310866843e-01 -6.957560077054037e-01 1.591315821745552e-01 -7.349136033453527e-02 -3.280792249083596e-01 -4.997712481869442e-01 2.212392557792158e-01 -2.215824622688239e-01 -5.699668833335665e-01 3.177744744484350e-01 2.936783343164230e-02 -6.114495876902030e-01 -8.323351337831033e-01 -4.293779091274967e-01 -1.047186100600587e-01 -1.045888652451428e-01 -8.607396540109568e-01 -7.198703184327843e-01 -4.855251318149026e-01 3.370368209268765e-02 -5.887810870605553e-01 1.537854066128654e-01 -6.372718825457836e-01 5.982869353438696e-03 4.061395922775983e-02 -1.837201449071951e-01 -6.948384960977091e-01 -2.703945389728513e-02 1.080801220808646e-01 1.602706419611492e-01 2.036051539552800e-01 4.301229737932346e-01 4.773175169739081e-01 3.608331650678049e-01 2.755486924400631e-01 5.077374802555185e-01 7.468696091940473e-02 -1.575071609545206e-01 6.966771896548462e-01 3.235732399244947e-01 6.123540417512355e-01 -2.204656248410773e-01 5.000592497740910e-01 2.238710302485831e-01 -3.168905855718344e-01 5.702013251569813e-01 3.291956615169622e-01 -3.863622242201466e-02 7.213813704720328e-01 8.328724283094476e-01 -3.292047135059788e-02 -2.432726900728140e-03 6.397437943402177e-01 8.612429645485564e-01 -1.513497650453931e-01 5.900056057512223e-01 4.879092875428536e-01 4.307788924253118e-01 1.855950280607896e-01 6.962807352776064e-01 1.053489716365437e-01 -4.270793608730614e-01 -5.047873327628666e-01 -1.567284431971194e-01 -3.583438935090251e-01 -4.752223179682044e-01 -2.723395598760024e-01 -1.998713559672376e-01 -3.227125813402212e-01 -6.958724236704574e-01 1.588679105648604e-01 -7.374501545627041e-02 -3.280329817484430e-01 -4.998187914952995e-01 2.210705881462237e-01 -2.220124669335677e-01 -5.699963250283516e-01 3.176050184705483e-01 2.908766589167201e-02 -6.115391828905125e-01 -8.323865237647464e-01 -4.296081483489941e-01 -1.049311854585479e-01 -1.046234727711280e-01 -8.607878664116727e-01 -7.200519455563286e-01 -4.858755557717784e-01 3.366513420909518e-02 -5.889399648365563e-01 1.533643998092081e-01 -6.375657961966799e-01 5.328580733453165e-03 4.020897513714183e-02 -1.837037758258121e-01 -6.949832108978404e-01 -2.746636083287823e-02 1.075377207067089e-01 1.596868838551212e-01 2.030597621079794e-01 4.295229636780606e-01 4.772160098528072e-01 3.605853604041986e-01 2.749740113566101e-01 5.074138838233936e-01 7.452432062471633e-02 -1.578355127019019e-01 6.964879244177767e-01 3.233143817372994e-01 6.123533543387960e-01 -2.206116996996284e-01 5.000028001619791e-01 2.234251351253453e-01 -3.170553838289560e-01 5.701473995361068e-01 7.211409429143681e-01 3.290672059455709e-01 -3.894701520056822e-02 6.394827859606715e-01 8.328344353026211e-01 -3.303222294766880e-02 -3.057506654597365e-03 8.612136964587007e-01 -1.518290543968068e-01 5.897446374515455e-01 4.873650598626585e-01 4.304495999557895e-01 1.853591922303630e-01 6.962396444216097e-01 1.052442940081237e-01 8.957382913054664e-02 7.859701489610252e-02 -8.177579528893529e-01 9.589221987868597e-02 -2.929914187524778e-01 3.557992206038260e-01 -5.545214458051992e-01 6.593069468032338e-01 2.326330884068780e-01 1.873621996898352e-01 -6.635498859465805e-01 -6.071457624134701e-01 -4.445244424309605e-01 -2.707541067121774e-01 -2.751920862296148e-01 -1.439133491500735e-01 -1.936083652853176e-01 -9.412333385336109e-02 5.179792909228106e-01 -2.597671257395797e-01 -1.589621574045892e-01 1.959052231032004e-01 3.293416640510468e-02 -5.914906530783480e-02 -1.002189138616405e-01 2.700951254873316e-01 5.008875026887811e-01 -5.530481587823580e-02 5.806918169319069e-01 -7.833721431766081e-01 5.601251535233742e-02 -2.978789525223580e-02 1.085353696273259e-01 4.028243022044600e-01 2.342893803681007e-01 -2.316780484943175e-01 -3.999969168749647e-02 3.345190788568759e-01 -6.583300997892075e-01 3.960754776605861e-01 -1.729079227232120e-01 2.189669326655663e-01 4.298640822337856e-01 -3.566882579743182e-01 -2.170230418604483e-01 -3.207582499974318e-01 -1.225378068220592e-01 -2.649710588824303e-01 -3.804574286557735e-01 -1.694204950973215e-02 4.932997538179729e-01 -5.245422186788665e-01 -4.046331104879453e-01 5.789057349262245e-01 -2.331774429059119e-01 -5.151701838200166e-01 -4.152204999843310e-01 -5.040278442748374e-01 -3.395968548429056e-01 -3.852754195258721e-01 -4.624475918320973e-01 -2.777886050237612e-01 -7.729107524031760e-02 1.127388132581876e-01 3.848385846216134e-01 2.973438163806544e-01 2.517151882370917e-01 -5.091784761057847e-01 -4.541210743315714e-02 -3.532154920005104e-01 8.177549354082216e-02 2.736812711079471e-01 -1.103516614302396e-01 6.278789708336628e-02 1.595221592148837e-01 -7.376449782787722e-01 -6.735959095208300e-01 -5.677311829381704e-02 -1.487752583486124e-01 -1.452959651229001e-01 -2.402349120280884e-01 5.366162204477067e-01 -6.585408943194688e-01 -3.127389468033203e-01 4.202776612945172e-01 -1.529353911751141e-02 -1.427109519750700e-01 3.953316515399896e-01 2.002527938654822e-02 -5.278487157814577e-02 5.229215934286288e-01 -1.022285049646298e-01 -5.597839676179811e-01 -5.203070215308546e-01 2.466114230636526e-01 1.998488780968460e-01 6.386315676788322e-02 -5.410021277343191e-01 -5.986716481971710e-01 1.139495700863154e-01 2.420277872088440e-01 1.502081935462517e-01 2.968069185394366e-01 -1.466349502117021e-01 -2.703006095379996e-01 6.071392462165852e-01 3.065888300895708e-01 3.570429724624889e-01 1.463140182396649e-01 -3.948798157825919e-01 5.072715285045156e-01 7.258982710792093e-02 2.820638865106939e-01 -7.406212425723464e-02 7.504445460248028e-02 -1.092190862792881e-01 -4.066808611734279e-03 -2.806750276011520e-01 1.029782962951025e-01 5.204320940957996e-01 3.054385752352433e-01 5.523444695673828e-02 -6.513164341791265e-02 -1.118809040215688e-01 7.189588821991386e-01 -1.945341171891106e-01 -3.177759567695840e-01 -1.953991482639711e-01 -3.553501135782386e-01 -3.895942341871270e-01 -5.600476062842420e-01 -5.718456735715560e-01 6.728771008318546e-01 -2.452066243642741e-01 -7.788925753442946e-01 6.575327560276966e-01 -1.530731740600295e-01 2.008561029375082e-01 -4.354536990185099e-01 1.469759147837265e-01 -7.208354638169948e-01 -6.122105451681927e-01 -3.859401249634604e-01 1.240364645800099e-01 6.642076737767502e-02 6.190612577058964e-01 1.977540650437845e-01 1.970208058718944e-01 -1.415152754186240e-01 5.624337365392369e-01 5.596311360232000e-01 2.387330753747101e-01 3.216741812230696e-01 1.266153538386511e-01 5.617381751935708e-01 -2.355598189477382e-02 4.129576020333663e-02 1.483119125840123e-01 -1.470454363653838e-01 7.772542455811520e-01 4.160135901725117e-01 8.182085027443302e-01 6.621644360209175e-01 -2.641551839114355e-01 4.234145503169862e-02 1.480066300388940e-01 2.711471374535477e-01 2.779857732502190e-01 3.540756133442049e-01 7.362196692873100e-01 -1.802256139876783e-01 1.009671318987684e-01 -2.410729905157773e-01 -4.418299810761067e-02 4.141224707112992e-01 3.222327786790922e-01 -5.548149738897927e-01 2.677205553606739e-01 7.819306155990270e-01 -2.123636726356427e-01 6.512862140132912e-02 8.442769550327256e-01 6.898069949046168e-01 6.292010473738048e-01 -1.377866263310299e-01 5.730285840904497e-01 1.313413723601765e-01 6.641460684376901e-01 5.370988551870726e-01 8.875145969502874e-01 3.080942062295628e-01 7.149399617013172e-01 6.286184127641092e-01 7.841489177315560e-01 7.531309967824671e-01 2.287141921540290e-01 7.780759723404669e-01 3.662207093121914e-01 6.138550586055898e-02 2.632521256141177e-01 8.798715584401717e-01 2.331683668560675e-01 7.115656517511413e-01 6.803237131905018e-01 2.163744670378855e-01 9.020663674963806e-01 1.963869015232689e-01 3.507325197985758e-01 5.876537760639359e-01 7.273269933121664e-01 9.086289064552966e-01 4.762478410838812e-01 -4.719534196029232e-02 5.372356005780784e-01 7.114258980576126e-01 5.216040904194871e-02 5.678772517760901e-01 8.687105585283207e-01 5.127834935636696e-01 3.407540501906840e-02 1.926892710096438e-01 9.924616302080011e-03 2.634919177939371e-01 5.892462019981203e-01 5.934626039457105e-01 -8.070876159086875e-03 -3.221446211022377e-02 6.464905545508122e-02 6.284849214853971e-01 -4.736175838362301e-02 -1.280135968576617e-01 -2.122322497678606e-01 2.435150117125378e-01 2.803420909740624e-02 -8.176273022745296e-02 8.443688164832481e-01 5.563108878863462e-01 1.921732072701653e-01 2.440444122423985e-01 8.800845290253182e-01 4.943429914448864e-01 4.631470768608487e-02 -2.918944496777869e-02 9.181603117831230e-01 3.754267583408596e-02 -2.864513004531958e-01 6.602551632625646e-01 -1.560274230257351e-02 1.234261356783314e-01 7.534358086780822e-01 7.835792800928559e-01 3.745392505372966e-01 3.829124349262780e-01 5.123444737773639e-01 5.349997817171382e-01 -1.218560755288368e-02 -3.229246999722751e-02 5.366159638115711e-01 2.972054041937813e-01 1.175697838489164e-01 6.823485909608098e-01 7.672228099588920e-01 6.906504071881048e-01 6.599023109550324e-01 4.901925869063644e-01 2.950707237548568e-01 5.560442199942179e-01 3.785275072008746e-01 1.008067436763912e-02 5.681470470800498e-01 7.491386927541916e-01 6.797458107903440e-01 2.282388063166754e-01 7.951356837255585e-01 4.135481369701368e-01 4.885756256423141e-01 4.671132676581846e-02 7.777598549771290e-01 3.077871312396979e-01 1.464110207670875e-01 4.760206382163047e-01 1.966305987263621e-01 1.288511223696278e-01 7.268719540327268e-01 3.565031211231641e-01 4.579241443763345e-02 -8.623112929724709e-03 2.819697104603929e-02 -1.284029378624674e-01 1.459410437421727e-01 8.874575201505603e-01 -3.081447751010482e-02 7.954558022140114e-01 6.292842986602594e-01 8.685894967610415e-01 7.492383558846941e-01 1.289955634445701e-01 7.152173842073170e-01 3.831677465061045e-01 6.806288008987892e-01 1.123910363318414e-01 -1.209941260909772e-02 2.363556094979835e-01 1.089024428697194e-01 7.017369855224049e-01 6.153662635300757e-02 6.412012719478413e-01 5.336431731466478e-01 6.352316145100243e-01 4.940510048901225e-01 -1.526702346415362e-02 7.665133660635006e-01 8.610112463867396e-01 -1.723846685180986e-01 8.504543975542771e-01 8.608380551412380e-01 2.729114386106027e-01 2.159159076981498e-01 2.733906879443158e-01 7.349558728672604e-01 5.935142562653407e-01 7.020193874852521e-01 6.790772098572574e-01 9.085952586483544e-01 3.567033987040162e-01 1.129194221707944e-01 4.904036157789449e-01 -2.310775549461191e-01 9.019753105509650e-01 2.359143832144434e-01 9.180320752811938e-01 4.607738231982154e-02 6.787770129558958e-02 1.095019425446291e-01 6.835065187866276e-01 -2.863199748606708e-01 4.137089599267861e-01 4.519355674435423e-01 3.174088733994770e-01 3.741443362437469e-01 5.239207973865953e-02 6.000320026681758e-01 -8.146421274588508e-02 -1.380583116691503e-01 3.509004858903111e-01 -3.312782329045181e-01 -1.421365850404540e-01 -3.519053508447350e-01 1.506794301767983e-01 1.256630416830930e-01 -1.242222609240086e-01 5.671853445544195e-01 -1.023238031867334e-01 -8.274516310449960e-03 3.006017096543302e-01 1.074909204573030e-01 -6.579197057597125e-01 -3.268591164084247e-01 -5.234933270311378e-01 2.324669903280570e-01 -3.487248457481081e-01 -5.843268116483136e-01 4.048082709921482e-02 6.592742612674831e-01 -6.065564645115484e-01 -3.929361716148699e-01 -8.799822605795594e-02 -7.004935596538416e-02 -5.800025149742823e-01 2.463115140769487e-01 -6.786460113576917e-02 -2.648357892031055e-01 6.653371229783253e-02 -7.745311512226831e-02 5.964141863774794e-01 6.342005570214095e-02 2.700189091877429e-02 6.655028684794428e-01 8.200357928724990e-02 -4.300721288495141e-02 1.380342901666069e-01 3.952572170187367e-01 -1.548267569074783e-01 3.357876067633679e-01 7.286145889493807e-02 6.406434302149379e-02 2.335109920095375e-01 3.528518193010871e-01 4.160670569221209e-01 5.196601966808161e-01 1.976513188724739e-01 -4.111855826245098e-01 -3.950073506315330e-01 1.156852469200548e-01 1.485611576301546e-01 2.639955270174870e-01 3.639865757136834e-02 -4.150800243227467e-01 5.602799587190663e-01 3.976264971502225e-01 2.381181683021763e-01 2.696344058303262e-01 6.103568495785680e-01 -3.360184770931010e-02 6.761812642327504e-01 -3.952904321497375e-02 5.640389497777979e-02 -5.216408585677109e-01 -5.201306248420589e-01 -1.432815749471043e-01 -2.675954332753245e-01 -1.113771708179429e-01 -3.895676975231154e-01 -3.223486854991403e-01 -3.847521034550340e-01 1.465902287085133e-01 -1.540687312505924e-01 -3.269193519652716e-01 1.737703169085915e-01 -5.041656206280903e-01 -5.098666733503895e-01 6.607437479994100e-01 -9.994999468052344e-02 -2.313167485241328e-01 -6.618726456668783e-01 -5.608554449754489e-01 -7.777812531285334e-01 -8.178924102249304e-01 4.042203801659190e-01 -7.198854576455401e-01 -6.235468988177414e-01 3.220043942779680e-01 3.557099990962823e-01 -5.593118743251573e-01 -7.368522571621132e-01 -3.189159354666261e-01 -4.193127711476838e-01 -9.600617843638974e-02 2.726286046830106e-01 -1.512987363418962e-01 7.850822167209058e-01 -5.663342523186281e-01 -2.716187695810637e-01 4.335065293101220e-01 3.846101853890994e-01 1.074674397143327e-01 -2.364681116401016e-01 -1.715647446871641e-01 -2.986616452899485e-01 -2.739784897026538e-01 2.114702887029209e-01 -1.809706363715125e-01 -1.542306648860718e-01 -3.759211890221549e-01 -2.733139184699821e-01 5.398921124389091e-01 1.007152526491039e-01 -1.135964657406339e-01 -2.064828930130932e-01 5.613836770183005e-01 -3.558746699380084e-01 -2.258223995818947e-01 -3.573067002191635e-01 -2.863340353221703e-01 -2.442884922140171e-01 7.804457675127707e-01 6.237661446978477e-01 -6.729766465377937e-01 -6.586786935257700e-01 5.578895656597927e-02 2.740841621519884e-01 3.073195852358396e-01 4.164059322699399e-01 2.833690199483065e-01 -1.415215670840240e-01 -2.068376183668666e-01 -5.932847669021972e-02 1.015411138599373e-01 1.029170071321141e-01 -6.457342278650979e-02 9.640651124088710e-02 7.220474467411246e-01 2.322755530906052e-01 8.182690739949676e-01 5.264516690312657e-01 4.739476915018127e-01 5.259856702103445e-01 -1.508078488863560e-02 5.207532510297849e-01 2.087533234438835e-01 1.108303303061824e-01 2.817613319243726e-01 -4.285050645017591e-01 -1.443815382724503e-01 1.548239974604770e-01 5.121316529719723e-01 3.290907891341646e-01 5.822873777098172e-01 7.393397224307201e-01 4.433823708422182e-01 -9.845708089871469e-02 8.713692247756867e-03 3.113788852971236e-01 2.749162956462288e-01 2.376118988915377e-02 3.474378885548181e-01 5.311760336390697e-02 -6.653216197592628e-02 -1.025778213306299e-01 -5.648143169550268e-02 1.418103816571854e-01 -5.677956006140730e-02 -7.826191407689718e-01 1.733805404163183e-01 -1.992999210690340e-01 5.510362830754379e-01 -4.979026421243478e-01 -5.367415071680189e-01 2.002387139453194e-01 1.386654707915341e-01 -7.110790452259725e-01 -7.766232286583444e-02 3.083350185490463e-02 -8.646654066380330e-01 -3.621790068379634e-02 1.383881425272739e-01 -7.091261786082731e-01 -4.773942224628312e-02 -3.504389991019120e-01 -1.972309474510751e-01 -2.930424152026954e-01 -5.037976218624439e-01 -8.422434854857492e-01 -4.496651179640527e-01 2.317861945033733e-01 -5.997651601521280e-01 1.731664701657792e-01 -4.882283312511135e-01 -8.303774434158060e-01 1.075262546742608e-02 -3.779882045518288e-01 -6.285299767528808e-01 -7.535968619987133e-01 -6.031951899877159e-01 -1.307787034598792e-