<?xml version="1.0"?>
<VTKFile type="UnstructuredGrid" version="0.1" byte_order="LittleEndian">
<UnstructuredGrid>
<Piece NumberOfPoints="192" NumberOfCells="831">
<Points>
<DataArray type="Float64" NumberOfComponents="3" format="ascii">
0.000000000000000e+00 0.000000000000000e+00 0.000000000000000e+00 1.000000000000000e+00 0.000000000000000e+00 0.000000000000000e+00 1.000000000000000e+00 1.000000000000000e+00 0.000000000000000e+00 0.000000000000000e+00 1.000000000000000e+00 0.000000000000000e+00 0.000000000000000e+00 1.000000000000000e+00 1.000000000000000e+00 1.000000000000000e+00 1.000000000000000e+00 1.000000000000000e+00 0.000000000000000e+00 0.000000000000000e+00 1.000000000000000e+00 1.000000000000000e+00 0.000000000000000e+00 1.000000000000000e+00 5.000000000000000e-01 5.000000000000000e-01 0.000000000000000e+00 5.000000000000000e-01 5.000000000000000e-01 1.000000000000000e+00 0.000000000000000e+00 7.500000000003469e-01 0.000000000000000e+00 0.000000000000000e+00 5.000000000013878e-01 0.000000000000000e+00 0.000000000000000e+00 2.500000000010408e-01 0.000000000000000e+00 1.666666666663036e-01 1.666666666663036e-01 0.000000000000000e+00 3.333333333329494e-01 3.333333333329494e-01 0.000000000000000e+00 3.333333333335068e-01 6.666666666664932e-01 0.000000000000000e+00 1.666666666669558e-01 8.333333333330442e-01 0.000000000000000e+00 2.499999999993999e-01 1.000000000000000e+00 0.000000000000000e+00 4.999999999990217e-01 1.000000000000000e+00 0.000000000000000e+00 7.499999999993374e-01 1.000000000000000e+00 0.000000000000000e+00 8.333333333333334e-01 8.333333333333334e-01 0.000000000000000e+00 6.666666666666666e-01 6.666666666666666e-01 0.000000000000000e+00 6.666666666664932e-01 3.333333333335068e-01 0.000000000000000e+00 8.333333333330442e-01 1.666666666669558e-01 0.000000000000000e+00 1.000000000000000e+00 2.499999999993999e-01 0.000000000000000e+00 1.000000000000000e+00 4.999999999990217e-01 0.000000000000000e+00 1.000000000000000e+00 7.499999999993374e-01 0.000000000000000e+00 7.500000000003469e-01 0.000000000000000e+00 0.000000000000000e+00 5.000000000013878e-01 0.000000000000000e+00 0.000000000000000e+00 2.500000000010408e-01 0.000000000000000e+00 0.000000000000000e+00 0.000000000000000e+00 0.000000000000000e+00 2.499999999993999e-01 0.000000000000000e+00 0.000000000000000e+00 4.999999999990217e-01 0.000000000000000e+00 0.000000000000000e+00 7.499999999993374e-01 0.000000000000000e+00 2.499999999993999e-01 1.000000000000000e+00 0.000000000000000e+00 4.999999999990217e-01 1.000000000000000e+00 0.000000000000000e+00 7.499999999993374e-01 1.000000000000000e+00 0.000000000000000e+00 1.000000000000000e+00 2.499999999993999e-01 0.000000000000000e+00 1.000000000000000e+00 4.999999999990217e-01 0.000000000000000e+00 1.000000000000000e+00 7.499999999993374e-01 1.666666666663036e-01 1.666666666663036e-01 1.000000000000000e+00 3.333333333329494e-01 3.333333333329494e-01 1.000000000000000e+00 3.333333333335068e-01 6.666666666664932e-01 1.000000000000000e+00 1.666666666669558e-01 8.333333333330442e-01 1.000000000000000e+00 2.499999999993999e-01 1.000000000000000e+00 1.000000000000000e+00 4.999999999990217e-01 1.000000000000000e+00 1.000000000000000e+00 7.499999999993374e-01 1.000000000000000e+00 1.000000000000000e+00 8.333333333333334e-01 8.333333333333334e-01 1.000000000000000e+00 6.666666666666666e-01 6.666666666666666e-01 1.000000000000000e+00 6.666666666664932e-01 3.333333333335068e-01 1.000000000000000e+00 8.333333333330442e-01 1.666666666669558e-01 1.000000000000000e+00 1.000000000000000e+00 2.499999999993999e-01 1.000000000000000e+00 1.000000000000000e+00 4.999999999990217e-01 1.000000000000000e+00 1.000000000000000e+00 7.499999999993374e-01 1.000000000000000e+00 7.500000000003469e-01 0.000000000000000e+00 1.000000000000000e+00 5.000000000013878e-01 0.000000000000000e+00 1.000000000000000e+00 2.500000000010408e-01 0.000000000000000e+00 1.000000000000000e+00 1.000000000000000e+00 1.000000000000000e+00 7.500000000003469e-01 1.000000000000000e+00 1.000000000000000e+00 5.000000000013878e-01 1.000000000000000e+00 1.000000000000000e+00 2.500000000010408e-01 1.000000000000000e+00 0.000000000000000e+00 2.499999999993999e-01 1.000000000000000e+00 0.000000000000000e+00 4.999999999990217e-01 1.000000000000000e+00 0.000000000000000e+00 7.499999999993374e-01 5.000000000000000e-01 5.000000000000000e-01 7.500000000003469e-01 5.000000000000000e-01 5.000000000000000e-01 5.000000000013878e-01 5.000000000000000e-01 5.000000000000000e-01 2.500000000010408e-01 2.379245660390611e-01 2.379245660390611e-01 2.162358951242244e-01 2.380991584657879e-01 2.380991584657879e-01 7.803088543618493e-01 3.653953988185751e-01 3.653953988185751e-01 3.749806181900907e-01 3.654893131679817e-01 3.654893131679817e-01 6.217831714226325e-01 2.033996654263802e-01 2.033996654263802e-01 4.980176865105043e-01 1.088439618285938e-01 1.088439618285938e-01 6.737960461898667e-01 1.086599905363383e-01 1.086599905363383e-01 3.235800389049144e-01 3.872982309022571e-01 3.872982309022571e-01 8.303182816207765e-01 3.872403566557978e-01 3.872403566557978e-01 1.680449343555243e-01 1.027193562910071e-01 1.027193562910072e-01 8.408489714923724e-01 1.025501277357185e-01 1.025501277357185e-01 1.575259589564332e-01 7.637000155078905e-01 7.637000155078905e-01 7.809050039047323e-01 7.621221404738692e-01 7.621221404738692e-01 2.164093449356935e-01 6.349571452012427e-01 6.349571452012428e-01 3.748697400518411e-01 6.353659200568351e-01 6.353659200568351e-01 6.220284160230994e-01 7.976498841762479e-01 7.976498841762479e-01 4.983766703815347e-01 8.928637350804595e-01 8.928637350804594e-01 6.743671149974113e-01 8.914426558807437e-01 8.914426558807437e-01 3.236982673685562e-01 6.133634390026289e-01 6.133634390026289e-01 8.305301125217698e-01 6.127934358543176e-01 6.127934358543176e-01 1.680413733238825e-01 8.985741839682366e-01 8.985741839682365e-01 8.412797890647278e-01 8.973898125026393e-01 8.973898125026393e-01 1.575790459931176e-01 2.382701894435121e-01 7.617298105564879e-01 7.809291450038474e-01 2.379827985599809e-01 7.620172014400191e-01 2.169258959641029e-01 3.654977260546857e-01 6.345022739453143e-01 3.756698240940143e-01 3.656426418390417e-01 6.343573581609584e-01 6.224372907088122e-01 2.034164719467638e-01 7.965835280532363e-01 4.984730391358363e-01 1.089613818578917e-01 8.910386181421083e-01 6.741808913809411e-01 1.086345562064005e-01 8.913654437935996e-01 3.234086554074086e-01 3.873262422521789e-01 6.126737577478212e-01 8.305617061604627e-01 3.872729077802760e-01 6.127270922197241e-01 1.683685409073324e-01 1.028043779130879e-01 8.971956220869122e-01 8.410959780252162e-01 1.025606944805126e-01 8.974393055194874e-01 1.576336350373474e-01 7.633845793447680e-01 2.366154206552319e-01 7.814854151005195e-01 7.621188429194914e-01 2.378811570805086e-01 2.171386250930564e-01 6.347499996936812e-01 3.652500003063188e-01 3.756574500121480e-01 6.353332215211832e-01 3.646667784788167e-01 6.224967417247160e-01 7.976652396941899e-01 2.023347603058101e-01 4.987244863377491e-01 8.927202114787717e-01 1.072797885212283e-01 6.746546529658062e-01 8.915286724413353e-01 1.084713275586647e-01 3.237612062854899e-01 6.132514557302692e-01 3.867485442697308e-01 8.307917042507544e-01 6.127541013622068e-01 3.872458986377932e-01 1.684110920395303e-01 8.984543598850183e-01 1.015456401149817e-01 8.414876118240658e-01 8.974686139699366e-01 1.025313860300635e-01 1.577658260313863e-01 6.500176425443139e-01 1.488917180207868e-01 1.000000000000000e+00 3.500001415888463e-01 1.489787069412839e-01 1.000000000000000e+00 5.000176532664731e-01 2.442059449269561e-01 1.000000000000000e+00 8.510284147647655e-01 3.499885688154717e-01 1.000000000000000e+00 8.510284147648555e-01 6.500114311839064e-01 1.000000000000000e+00 7.558049186214014e-01 4.999999999997691e-01 1.000000000000000e+00 3.500001415882293e-01 8.510212930584533e-01 1.000000000000000e+00 6.500176425436531e-01 8.511082819792821e-01 1.000000000000000e+00 5.000176532660147e-01 7.557940550729428e-01 1.000000000000000e+00 1.489787069412844e-01 3.500001415879341e-01 1.000000000000000e+00 1.488917180207898e-01 6.500176425435159e-01 1.000000000000000e+00 2.442059449269596e-01 5.000176532658115e-01 1.000000000000000e+00 3.500001415882293e-01 8.510212930584533e-01 0.000000000000000e+00 6.500176425436531e-01 8.511082819792821e-01 0.000000000000000e+00 5.000176532660147e-01 7.557940550729428e-01 0.000000000000000e+00 8.511082819791936e-01 3.499823574557175e-01 0.000000000000000e+00 8.510212930585458e-01 6.499998584111548e-01 0.000000000000000e+00 7.557940550729467e-01 4.999823467335326e-01 0.000000000000000e+00 6.499998584117949e-01 1.489787069415259e-01 0.000000000000000e+00 3.499823574563490e-01 1.488917180205500e-01 0.000000000000000e+00 4.999823467339848e-01 2.442059449269613e-01 0.000000000000000e+00 1.489715852352121e-01 6.500114311845560e-01 0.000000000000000e+00 1.489715852349735e-01 3.499885688160941e-01 0.000000000000000e+00 2.441950813785003e-01 5.000000000002356e-01 0.000000000000000e+00 0.000000000000000e+00 3.772016377408031e-01 2.542204333646548e-01 0.000000000000000e+00 6.404426065308156e-01 7.840733683099962e-01 0.000000000000000e+00 8.084143123223765e-01 3.766800342375862e-01 0.000000000000000e+00 1.773701474104074e-01 6.180654142330894e-01 0.000000000000000e+00 8.089833307550802e-01 6.237810364794917e-01 0.000000000000000e+00 5.700208022812604e-01 5.007935636879599e-01 0.000000000000000e+00 1.766695653062093e-01 3.835805503084682e-01 0.000000000000000e+00 3.774551236714481e-01 7.471574804051241e-01 0.000000000000000e+00 6.402329172809760e-01 2.167447801926948e-01 0.000000000000000e+00 1.611771326479784e-01 1.775327441898394e-01 0.000000000000000e+00 1.614643944056941e-01 8.232157496164640e-01 0.000000000000000e+00 8.395324934900396e-01 8.314990813233726e-01 0.000000000000000e+00 8.392962971408795e-01 1.687256697727582e-01 0.000000000000000e+00 3.365445099179724e-01 5.009431866166841e-01 7.838128218423600e-01 1.000000000000000e+00 3.59876976720636
[...]
<PointData Scalars="pressure_p1," Vectors="">
<DataArray type="Float64" Name="pressure_p1" format="ascii">
-1.685808063698176e-02 8.558101184896090e-01 8.566243479635612e-01 -1.618586556215929e-02 -8.553665669367428e-01 1.567653773437433e-02 -8.550756272611257e-01 1.651692973151633e-02 4.256169442025899e-01 -4.251681354159854e-01 -1.948894571971830e-02 -8.571002598872035e-03 -2.377358717793851e-02 9.121895993870180e-02 2.510059589054933e-01 2.509323324497326e-01 8.719969227378080e-02 1.699729664550516e-01 4.472522339662844e-01 7.156485176773336e-01 7.767782989617876e-01 6.340363226409229e-01 6.338327105821357e-01 7.758677630465078e-01 9.016006826146726e-01 8.903704076843468e-01 9.016958397014946e-01 7.132732730738756e-01 4.464874079800907e-01 1.696780526164385e-01 -2.012569031989333e-01 -4.355744141955694e-01 -6.988945368334855e-01 -8.947761062803657e-01 -8.793387038678262e-01 -8.987672067530791e-01 -1.996900116861373e-01 -4.311199160529971e-01 -6.961985258064469e-01 -7.779121112094226e-01 -6.334820788927658e-01 -6.334245014744991e-01 -7.781120798115707e-01 -7.147656068434562e-01 -4.510462501736779e-01 -1.721971712726173e-01 -8.756735841033203e-02 -2.500656035967891e-01 -2.502640354393301e-01 -8.405038439207710e-02 1.500133917180182e-02 -8.336854341880872e-03 1.513147976019685e-02 -2.071301183212607e-01 -4.392294978598580e-01 -7.116082571495732e-01 1.986217498058725e-01 4.349029180874720e-01 7.011124289063108e-01 6.976312538380086e-01 4.332450542310174e-01 2.006905200251819e-01 -2.386167380699435e-01 1.004136351413642e-03 2.396199471884455e-01 7.187956261461078e-03 -5.657751436818544e-01 -6.688683900998971e-02 -3.301610918223919e-01 -3.436997414501556e-01 -6.033949160769848e-01 -2.175037878425665e-01 -4.797102267730046e-01 1.950672135061773e-01 -7.686907542586090e-01 -3.958386670614945e-02 1.557270349839337e-02 5.851749085656228e-01 3.562162248208214e-01 1.180447726507600e-01 3.418945512299131e-01 2.133203766756969e-01 5.975429282903413e-01 -1.567313432572007e-01 5.064478821748470e-01 4.412018132306915e-02 7.673733318895086e-01 -5.692307662016703e-01 -5.370875651691470e-03 -1.074904110875528e-01 -3.443791012227960e-01 -3.345486933213895e-01 -6.015758478733596e-01 -2.143748768127725e-01 -5.189823585523157e-01 1.660818466237559e-01 -7.691274257385872e-01 -4.416188691855196e-02 8.218470747417312e-03 5.717046166612114e-01 3.554669489566552e-01 7.574474614742885e-02 3.253536269987157e-01 2.151970527378513e-01 5.932228210105776e-01 -1.701197025325767e-01 4.979174459281713e-01 6.225762328307297e-02 7.662877216305222e-01 -2.591830786843121e-01 -5.912723646257174e-01 -4.148607406801954e-01 -5.725124987682921e-02 -5.699264176366207e-02 -1.038533639881536e-01 -5.930386390903968e-01 -2.617321914805650e-01 -4.157488662488518e-01 -7.919289520614210e-01 -7.953997398755136e-01 -7.160946565759349e-01 2.618412125702047e-01 5.965906150604541e-01 4.202264493422100e-01 7.973141312910641e-01 7.976685869111566e-01 7.223531102188362e-01 5.912861507504453e-01 2.618474382383028e-01 4.068666042294139e-01 5.720028099791791e-02 4.409100485582968e-02 1.093600928036376e-01 -1.528019169421948e-01 -7.070850470037942e-01 -3.354695589084859e-01 -5.886507585466384e-01 -5.937706640897840e-01 -4.144925025048504e-01 -3.414953868497975e-01 -6.658816209383613e-01 -1.430265928492548e-01 -1.201896443236459e-01 -7.929422709992148e-01 -7.981667033836514e-01 -1.138391092964378e-01 -4.340730621852815e-01 3.919778228117778e-01 -3.522722815977107e-01 -2.364831708324831e-01 1.922262612344765e-01 4.022185976872815e-01 1.803606874903305e-02 1.144996349028693e-01 -4.719972602068314e-01 -1.290938401596813e-01 6.539221990428028e-01 -3.923975586845709e-02 -6.481501804593235e-01 3.609418805268117e-02 -2.037401097690051e-01 5.915085001255270e-01 3.184028433566831e-01 7.171681189642054e-02 7.435365774546839e-01 7.108350091421656e-01 4.859488976158209e-01 3.187422615545176e-01 7.138233968940148e-02 5.912406043417483e-01 7.980270457013745e-01 1.087984534460213e-01 1.084987473036950e-01 7.977927256913049e-01 2.118809042861031e-01 -3.798259001236018e-01 2.061659948956559e-01 1.507108399269317e-01 4.069623439279973e-01 1.457706705528357e-01 -1.301086680869876e-01 -1.807528828406234e-01 3.609206869647863e-01 -4.427113811400847e-01 -2.144322097166794e-01 3.473760580644637e-02 -3.249953441695101e-02 6.466426068490547e-01 -6.503790090951157e-01 1.891321319001700e-02 -1.932290399840940e-02 4.436618464178563e-02 
</DataArray>
</PointData>
<CellData Scalars="pressure_p0,piezo_head_p0," Vectors="velocity_p0,">
<DataArray type="Float64" Name="pressure_p0" format="ascii">
-3.749998118183848e-01 -1.249996185200960e-01 1.250002436068263e-01 3.750000683513627e-01 -4.266091029451766e-01 -5.043925224906374e-01 -1.560883036831964e-01 -3.582368871753150e-01 -4.749774855559153e-01 -2.717789387603982e-01 -1.995280685617290e-01 -3.225143310895033e-01 -6.957560077068833e-01 1.591315821716100e-01 -7.349136033239030e-02 -3.280792249102352e-01 -4.997712481934787e-01 2.212392557785341e-01 -2.215824622673868e-01 -5.699668833360587e-01 3.177744744475486e-01 2.936783342468952e-02 -6.114495876892764e-01 -8.323351337819738e-01 -4.293779091382594e-01 -1.047186100705495e-01 -1.045888652471937e-01 -8.607396540106558e-01 -7.198703184331857e-01 -4.855251318253692e-01 3.370368209086818e-02 -5.887810870665177e-01 1.537854066100290e-01 -6.372718825449157e-01 5.982869348598527e-03 4.061395922637628e-02 -1.837201449140161e-01 -6.948384960950922e-01 -2.703945389257632e-02 1.080801220875360e-01 1.602706419695785e-01 2.036051539607007e-01 4.301229737977541e-01 4.773175169728425e-01 3.608331650690882e-01 2.755486924457642e-01 5.077374802555449e-01 7.468696093186949e-02 -1.575071609494041e-01 6.966771896559475e-01 3.235732399348754e-01 6.123540417496425e-01 -2.204656248335160e-01 5.000592497791945e-01 2.238710302584381e-01 -3.168905855683401e-01 5.702013251592103e-01 3.291956615203085e-01 -3.863622240775634e-02 7.213813704703708e-01 8.328724283080746e-01 -3.292047134887376e-02 -2.432726885952664e-03 6.397437943369535e-01 8.612429645477785e-01 -1.513497650355001e-01 5.900056057578326e-01 4.879092875537019e-01 4.307788924360206e-01 1.855950280693672e-01 6.962807352743646e-01 1.053489716400339e-01 -4.270793608654727e-01 -5.047873327543952e-01 -1.567284431965860e-01 -3.583438935067750e-01 -4.752223179632583e-01 -2.723395598688207e-01 -1.998713559688638e-01 -3.227125813283280e-01 -6.958724236670600e-01 1.588679105630170e-01 -7.374501544753001e-02 -3.280329817480102e-01 -4.998187914930098e-01 2.210705881452115e-01 -2.220124669202019e-01 -5.699963250268546e-01 3.176050184699105e-01 2.908766588773211e-02 -6.115391828868718e-01 -8.323865237622519e-01 -4.296081483428565e-01 -1.049311854632357e-01 -1.046234727710878e-01 -8.607878664098882e-01 -7.200519455501448e-01 -4.858755557648723e-01 3.366513420793390e-02 -5.889399648321876e-01 1.533643998070184e-01 -6.375657961865937e-01 5.328580730654612e-03 4.020897513678643e-02 -1.837037758272226e-01 -6.949832108903822e-01 -2.746636083317125e-02 1.075377207070368e-01 1.596868838417280e-01 2.030597621001232e-01 4.295229636629125e-01 4.772160098436178e-01 3.605853603963263e-01 2.749740113370834e-01 5.074138838114208e-01 7.452432060630063e-02 -1.578355127023791e-01 6.964879244141420e-01 3.233143817192936e-01 6.123533543340458e-01 -2.206116997065830e-01 5.000028001538982e-01 2.234251351032089e-01 -3.170553838316281e-01 5.701473995330183e-01 7.211409429087902e-01 3.290672059472536e-01 -3.894701521427143e-02 6.394827859512491e-01 8.328344352979051e-01 -3.303222294694798e-02 -3.057506666674664e-03 8.612136964567932e-01 -1.518290544018873e-01 5.897446374456720e-01 4.873650598511293e-01 4.304495999420804e-01 1.853591922391916e-01 6.962396444119436e-01 1.052442940123974e-01 8.957382897512092e-02 7.859701479640555e-02 -8.177579528886699e-01 9.589221987074234e-02 -2.929914187863904e-01 3.557992205857893e-01 -5.545214458059270e-01 6.593069467921314e-01 2.326330883863920e-01 1.873621995971704e-01 -6.635498859460752e-01 -6.071457624130676e-01 -4.445244424408467e-01 -2.707541067180844e-01 -2.751920862506640e-01 -1.439133491522643e-01 -1.936083652933057e-01 -9.412333386166785e-02 5.179792909127300e-01 -2.597671257581590e-01 -1.589621574207313e-01 1.959052230947820e-01 3.293416625026628e-02 -5.914906534816924e-02 -1.002189139674525e-01 2.700951254431735e-01 5.008875026580255e-01 -5.530481586948752e-02 5.806918169262264e-01 -7.833721431763565e-01 5.601251532919757e-02 -2.978789538276715e-02 1.085353695148449e-01 4.028243021904420e-01 2.342893803090157e-01 -2.316780484904932e-01 -3.999969171107791e-02 3.345190788125960e-01 -6.583300997889995e-01 3.960754776102856e-01 -1.729079227511165e-01 2.189669326233554e-01 4.298640822115165e-01 -3.566882579914726e-01 -2.170230418698953e-01 -3.207582499982078e-01 -1.225378068429461e-01 -2.649710588779388e-01 -3.804574286533283e-01 -1.694204951184935e-02 4.932997538010043e-01 -5.245422186813711e-01 -4.046331104978816e-01 5.789057349204230e-01 -2.331774429046764e-01 -5.151701838159923e-01 -4.152204999870683e-01 -5.040278442752482e-01 -3.395968548590494e-01 -3.852754195330006e-01 -4.624475918379770e-01 -2.777886050518978e-01 -7.729107530137776e-02 1.127388132355231e-01 3.848385846085831e-01 2.973438163465134e-01 2.517151881855404e-01 -5.091784761014251e-01 -4.541210743073168e-02 -3.532154920053285e-01 8.177549349070827e-02 2.736812710609480e-01 -1.103516615420993e-01 6.278789707065024e-02 1.595221591997470e-01 -7.376449782767459e-01 -6.735959095165710e-01 -5.677311833724758e-02 -1.487752583391406e-01 -1.452959651916985e-01 -2.402349120409162e-01 5.366162204434589e-01 -6.585408943135261e-01 -3.127389468341594e-01 4.202776612817791e-01 -1.529353911659197e-02 -1.427109519662204e-01 3.953316515247795e-01 2.002527936307318e-02 -5.278487158648672e-02 5.229215934087817e-01 -1.022285049757600e-01 -5.597839676159900e-01 -5.203070215295694e-01 2.466114230212410e-01 1.998488780866302e-01 6.386315669429804e-02 -5.410021277364778e-01 -5.986716481970767e-01 1.139495700911145e-01 2.420277871635467e-01 1.502081935213897e-01 2.968069184797499e-01 -1.466349502242657e-01 -2.703006095656743e-01 6.071392461948770e-01 3.065888300494935e-01 3.570429724444313e-01 1.463140182098510e-01 -3.948798157811944e-01 5.072715284675212e-01 7.258982710704696e-02 2.820638864601230e-01 -7.406212428901253e-02 7.504445460295563e-02 -1.092190862777540e-01 -4.066808690798990e-03 -2.806750275986611e-01 1.029782962904840e-01 5.204320940797844e-01 3.054385751960142e-01 5.523444695222215e-02 -6.513164342085496e-02 -1.118809040297737e-01 7.189588821942460e-01 -1.945341171837450e-01 -3.177759567661158e-01 -1.953991482604539e-01 -3.553501135763879e-01 -3.895942341855396e-01 -5.600476062854309e-01 -5.718456735682167e-01 6.728771008116506e-01 -2.452066243630298e-01 -7.788925753442325e-01 6.575327560072104e-01 -1.530731741266427e-01 2.008561028431767e-01 -4.354536990295270e-01 1.469759147739608e-01 -7.208354638154043e-01 -6.122105451649679e-01 -3.859401249717392e-01 1.240364645431648e-01 6.642076737899143e-02 6.190612576966181e-01 1.977540649241654e-01 1.970208058653607e-01 -1.415152755052341e-01 5.624337365092423e-01 5.596311360066808e-01 2.387330752964780e-01 3.216741812151931e-01 1.266153537256719e-01 5.617381751678895e-01 -2.355598192921602e-02 4.129576017002237e-02 1.483119125478476e-01 -1.470454363736278e-01 7.772542455783658e-01 4.160135901441314e-01 8.182085027407616e-01 6.621644360126446e-01 -2.641551839367551e-01 4.234145503585082e-02 1.480066300401987e-01 2.711471374530402e-01 2.779857732434609e-01 3.540756133168491e-01 7.362196692762274e-01 -1.802256140544254e-01 1.009671318847313e-01 -2.410729905618082e-01 -4.418299809988029e-02 4.141224706784333e-01 3.222327786725342e-01 -5.548149738829041e-01 2.677205552835495e-01 7.819306155951415e-01 -2.123636726364108e-01 6.512862139941088e-02 8.442769550303481e-01 6.898069949003899e-01 6.292010473716628e-01 -1.377866263299945e-01 5.730285840966431e-01 1.313413723609289e-01 6.641460684387990e-01 5.370988551822418e-01 8.875145969469614e-01 3.080942062287215e-01 7.149399616914131e-01 6.286184127650072e-01 7.841489177361680e-01 7.531309967783546e-01 2.287141921533018e-01 7.780759723410721e-01 3.662207093074230e-01 6.138550586104629e-02 2.632521256147645e-01 8.798715584369681e-01 2.331683668464263e-01 7.115656517523028e-01 6.803237131839880e-01 2.163744670369311e-01 9.020663674941053e-01 1.963869015271628e-01 3.507325197983313e-01 5.876537760743926e-01 7.273269933151700e-01 9.086289064528992e-01 4.762478410825518e-01 -4.719534196043187e-02 5.372356005786338e-01 7.114258980551383e-01 5.216040904196905e-02 5.678772517652326e-01 8.687105585223365e-01 5.127834935740866e-01 3.407540501896656e-02 1.926892710092930e-01 9.924616302119639e-03 2.634919177940258e-01 5.892462019868576e-01 5.934626039338408e-01 -8.070876160559917e-03 -3.221446211169993e-02 6.464905545604904e-02 6.284849214843073e-01 -4.736175838363824e-02 -1.280135968559796e-01 -2.122322497676665e-01 2.435150116996516e-01 2.803420909878929e-02 -8.176273022814194e-02 8.443688164835018e-01 5.563108878903500e-01 1.921732072699359e-01 2.440444122437585e-01 8.800845290259959e-01 4.943429914496988e-01 4.631470769140364e-02 -2.918944497031919e-02 9.181603117835551e-01 3.754267583717652e-02 -2.864513004535380e-01 6.602551632637776e-01 -1.560274230012542e-02 1.234261356781396e-01 7.534358086785695e-01 7.835792800836293e-01 3.745392505369924e-01 3.829124349224135e-01 5.123444737656462e-01 5.349997817141410e-01 -1.218560755194002e-02 -3.229246999711872e-02 5.366159638058249e-01 2.972054041886004e-01 1.175697838475474e-01 6.823485909532382e-01 7.672228099645326e-01 6.906504071885246e-01 6.599023109493887e-01 4.901925869032303e-01 2.950707237516180e-01 5.560442199823106e-01 3.785275071967300e-01 1.008067436701506e-02 5.681470470917966e-01 7.491386927489027e-01 6.797458107904508e-01 2.282388063108363e-01 7.951356837107975e-01 4.135481369656404e-01 4.885756256565511e-01 4.671132676062376e-02 7.777598549589750e-01 3.077871312282017e-01 1.464110207642244e-01 4.760206382137512e-01 1.966305987279977e-01 1.288511223705706e-01 7.268719540276397e-01 3.565031211097451e-01 4.579241443740865e-02 -8.623112930232326e-03 2.819697104176659e-02 -1.284029378648323e-01 1.459410437446717e-01 8.874575201437795e-01 -3.081447750868357e-02 7.954558022151336e-01 6.292842986609709e-01 8.685894967493406e-01 7.492383558860093e-01 1.289955634446626e-01 7.152173842128873e-01 3.831677465035195e-01 6.806288009073548e-01 1.123910363329101e-01 -1.209941260958301e-02 2.363556094977674e-01 1.089024428674641e-01 7.017369855207772e-01 6.153662635179634e-02 6.412012719413933e-01 5.336431731523488e-01 6.352316145049530e-01 4.940510048744909e-01 -1.526702346639669e-02 7.665133660589127e-01 8.610112463875395e-01 -1.723846685174519e-01 8.504543975543697e-01 8.608380551424939e-01 2.729114386034767e-01 2.159159076984242e-01 2.733906879448365e-01 7.349558728652978e-01 5.935142562665862e-01 7.020193874851296e-01 6.790772098539253e-01 9.085952586441172e-01 3.567033986998144e-01 1.129194221691083e-01 4.904036157777800e-01 -2.310775549443562e-01 9.019753105469690e-01 2.359143832136232e-01 9.180320752799972e-01 4.607738231929626e-02 6.787770129596737e-02 1.095019425453893e-01 6.835065187933023e-01 -2.863199748596427e-01 4.137089599225819e-01 4.519355674427204e-01 3.174088733860387e-01 3.741443362179785e-01 5.239207973734390e-02 6.000320026697915e-01 -8.146421274722324e-02 -1.380583116686799e-01 3.509004858900512e-01 -3.312782328523630e-01 -1.421365850206102e-01 -3.519053508228618e-01 1.506794301912001e-01 1.256630417207258e-01 -1.242222608773417e-01 5.671853445797750e-01 -1.023238031842208e-01 -8.274516257038610e-03 3.006017096905542e-01 1.074909205113607e-01 -6.579197057473350e-01 -3.268591164055048e-01 -5.234933270169244e-01 2.324669903356377e-01 -3.487248456926909e-01 -5.843268116442633e-01 4.048082711067465e-02 6.592742612816318e-01 -6.065564644990030e-01 -3.929361715745386e-01 -8.799822600130999e-02 -7.004935594614557e-02 -5.800025149708772e-01 2.463115140924535e-01 -6.786460111873983e-02 -2.648357891682475e-01 6.653371231280861e-02 -7.745311505070548e-02 5.964141863811008e-01 6.342005570408067e-02 2.700189097360116e-02 6.655028684840051e-01 8.200357935777437e-02 -4.300721281887717e-02 1.380342901707743e-01 3.952572170291760e-01 -1.548267568659540e-01 3.357876067934519e-01 7.286145894491747e-02 6.406434308895778e-02 2.335109920718934e-01 3.528518193197140e-01 4.160670569365807e-01 5.196601966904396e-01 1.976513188768725e-01 -4.111855826134164e-01 -3.950073506238298e-01 1.156852469906746e-01 1.485611576497982e-01 2.639955270205378e-01 3.639865759314964e-02 -4.150800243049420e-01 5.602799587336976e-01 3.976264971888963e-01 2.381181683362582e-01 2.696344058577001e-01 6.103568495931951e-01 -3.360184769712731e-02 6.761812642574053e-01 -3.952904319220753e-02 5.640389500109380e-02 -5.216408585583897e-01 -5.201306248327421e-01 -1.432815749408869e-01 -2.675954332703852e-01 -1.113771708108404e-01 -3.895676975163657e-01 -3.223486854802321e-01 -3.847521034101503e-01 1.465902287797465e-01 -1.540687312385750e-01 -3.269193519444819e-01 1.737703169314951e-01 -5.041656205945095e-01 -5.098666733100818e-01 6.607437480212029e-01 -9.994999458434266e-02 -2.313167485149606e-01 -6.618726456646760e-01 -5.608554449510978e-01 -7.777812531276278e-01 -8.178924102235061e-01 4.042203801753433e-01 -7.198854576423371e-01 -6.235468988126617e-01 3.220043942843594e-01 3.557099991146788e-01 -5.593118743119434e-01 -7.368522571572896e-01 -3.189159354506308e-01 -4.193127711348613e-01 -9.600617839088781e-02 2.726286046942468e-01 -1.512987363304780e-01 7.850822167329580e-01 -5.663342522989702e-01 -2.716187695018917e-01 4.335065293185087e-01 3.846101854006627e-01 1.074674397501594e-01 -2.364681115747102e-01 -1.715647446310781e-01 -2.986616452443396e-01 -2.739784896893671e-01 2.114702887469772e-01 -1.809706363463648e-01 -1.542306647937579e-01 -3.759211890065861e-01 -2.733139184321576e-01 5.398921124552162e-01 1.007152527188009e-01 -1.135964657073109e-01 -2.064828929883812e-01 5.613836770470111e-01 -3.558746699306095e-01 -2.258223995171915e-01 -3.573067001867055e-01 -2.863340352756943e-01 -2.442884921983788e-01 7.804457675160157e-01 6.237661447088523e-01 -6.729766465261634e-01 -6.586786935143074e-01 5.578895656953749e-02 2.740841622171938e-01 3.073195852922203e-01 4.164059323104921e-01 2.833690200083383e-01 -1.415215670031695e-01 -2.068376183633923e-01 -5.932847660470181e-02 1.015411138718804e-01 1.029170071350353e-01 -6.457342278408712e-02 9.640651128047895e-02 7.220474467591251e-01 2.322755531144216e-01 8.182690740065531e-01 5.264516690674803e-01 4.739476915473204e-01 5.259856702452155e-01 -1.508078485279682e-02 5.207532510394537e-01 2.087533234787333e-01 1.108303303114139e-01 2.817613319532475e-01 -4.285050644765088e-01 -1.443815382113239e-01 1.548239974848751e-01 5.121316529890908e-01 3.290907891439064e-01 5.822873777153966e-01 7.393397224697342e-01 4.433823708656679e-01 -9.845708083746600e-02 8.713692274789051e-03 3.113788853441501e-01 2.749162957008812e-01 2.376118990601086e-02 3.474378885913771e-01 5.311760344433911e-02 -6.653216189685612e-02 -1.025778213241030e-01 -5.648143168201596e-02 1.418103816870672e-01 -5.677956005900380e-02 -7.826191407668314e-01 1.733805404633578e-01 -1.992999210657934e-01 5.510362830774231e-01 -4.979026421124378e-01 -5.367415071650841e-01 2.002387139538033e-01 1.386654707974492e-01 -7.110790452353443e-01 -7.766232286473347e-02 3.083350186020532e-02 -8.646654066421996e-01 -3.621790067921756e-02 1.383881425292674e-01 -7.091261786188281e-01 -4.773942222530130e-02 -3.504389991023289e-01 -1.972309474513780e-01 -2.930424152021089e-01 -5.037976218839594e-01 -8.422434854867230e-01 -4.496651179759641e-01 2.317861945080259e-01 -5.997651601599192e-01 1.731664701701638e-01 -4.882283312610118e-01 -8.303774434198595e-01 1.075262548056443e-02 -3.779882045515081e-01 -6.285299767576726e-01 -7.535968620057161e-01 -6.031951900057676e-01 -1.307787034595653e-01 -2.726698045176167e-01 -1.076056568871155e-01 -2.6945