<?xml version="1.0"?>
<VTKFile type="UnstructuredGrid" version="0.1" byte_order="LittleEndian">
<UnstructuredGrid>
<Piece NumberOfPoints="3240" NumberOfCells="1080">
<Points>
<DataArray type="Float64" NumberOfComponents="3" format="ascii">
2.179690854119185e-02 1.185794897852074e-01 0.000000000000000e+00 0.000000000000000e+00 1.111111111109777e-01 0.000000000000000e+00 0.000000000000000e+00 1.333333333332549e-01 0.000000000000000e+00 9.788431651098607e-01 8.049154383573708e-02 0.000000000000000e+00 1.000000000000000e+00 8.888888888903346e-02 0.000000000000000e+00 1.000000000000000e+00 6.666666666675342e-02 0.000000000000000e+00 9.619095609780270e-01 1.469647442901770e-01 0.000000000000000e+00 9.561458207326632e-01 1.229301525610412e-01 0.000000000000000e+00 9.446844990568195e-01 1.365972544162028e-01 0.000000000000000e+00 9.561458207326632e-01 1.229301525610412e-01 0.000000000000000e+00 9.619095609780270e-01 1.469647442901770e-01 0.000000000000000e+00 9.753425766502124e-01 1.329145145357886e-01 0.000000000000000e+00 3.828765699483880e-02 5.304505000823728e-02 0.000000000000000e+00 4.409363782274157e-02 7.706114571179593e-02 0.000000000000000e+00 5.559994773146819e-02 6.339045909604388e-02 0.000000000000000e+00 4.409363782274157e-02 7.706114571179593e-02 0.000000000000000e+00 3.828765699483880e-02 5.304505000823728e-02 0.000000000000000e+00 2.477335597731323e-02 6.708142153103731e-02 0.000000000000000e+00 9.550725189111069e-01 4.829411318820009e-02 0.000000000000000e+00 9.789099483921270e-01 5.208622344314002e-02 0.000000000000000e+00 9.679759360039387e-01 3.254350244928760e-02 0.000000000000000e+00 9.852025569480262e-01 3.297143324608116e-02 0.000000000000000e+00 9.679759360039387e-01 3.254350244928760e-02 0.000000000000000e+00 9.789099483921270e-01 5.208622344314002e-02 0.000000000000000e+00 1.000000000000000e+00 4.444444444448301e-02 0.000000000000000e+00 9.852025569480262e-01 3.297143324608116e-02 0.000000000000000e+00 9.789099483921270e-01 5.208622344314002e-02 0.000000000000000e+00 2.085901357486063e-02 3.347530932066585e-02 0.000000000000000e+00 0.000000000000000e+00 2.222222222217273e-02 0.000000000000000e+00 0.000000000000000e+00 4.444444444434547e-02 0.000000000000000e+00 1.000000000000000e+00 2.222222222224152e-02 0.000000000000000e+00 9.852025569480262e-01 3.297143324608116e-02 0.000000000000000e+00 1.000000000000000e+00 4.444444444448301e-02 0.000000000000000e+00 9.792123917142351e-01 1.665277592732634e-01 0.000000000000000e+00 1.000000000000000e+00 1.777777777778356e-01 0.000000000000000e+00 1.000000000000000e+00 1.555555555556712e-01 0.000000000000000e+00 2.085901357486063e-02 3.347530932066585e-02 0.000000000000000e+00 3.828765699483880e-02 5.304505000823728e-02 0.000000000000000e+00 4.395097424174637e-02 3.288070253644709e-02 0.000000000000000e+00 9.792123917142351e-01 1.665277592732634e-01 0.000000000000000e+00 9.619095609780270e-01 1.469647442901770e-01 0.000000000000000e+00 9.562058539142814e-01 1.671301644007421e-01 0.000000000000000e+00 2.073418664683830e-02 8.645182449452284e-02 0.000000000000000e+00 4.409363782274157e-02 7.706114571179593e-02 0.000000000000000e+00 2.477335597731323e-02 6.708142153103731e-02 0.000000000000000e+00 9.793636967455461e-01 1.135425195315997e-01 0.000000000000000e+00 9.561458207326632e-01 1.229301525610412e-01 0.000000000000000e+00 9.753425766502124e-01 1.329145145357886e-01 0.000000000000000e+00 9.789099483921270e-01 5.208622344314002e-02 0.000000000000000e+00 1.000000000000000e+00 6.666666666675342e-02 0.000000000000000e+00 1.000000000000000e+00 4.444444444448301e-02 0.000000000000000e+00 1.000000000000000e+00 6.666666666675342e-02 0.000000000000000e+00 9.789099483921270e-01 5.208622344314002e-02 0.000000000000000e+00 9.788431651098607e-01 8.049154383573708e-02 0.000000000000000e+00 1.035551545049920e-01 3.618647793308308e-02 0.000000000000000e+00 9.618914270776220e-02 5.697243691702588e-02 0.000000000000000e+00 1.211119433954548e-01 4.844499445275665e-02 0.000000000000000e+00 2.070317797483978e-01 1.178091145093580e-01 0.000000000000000e+00 2.168388896782212e-01 1.000000000000000e-01 0.000000000000000e+00 1.972011010366781e-01 1.002115461984506e-01 0.000000000000000e+00 2.168388896782212e-01 1.000000000000000e-01 0.000000000000000e+00 2.021483297087887e-01 7.699474322060029e-02 0.000000000000000e+00 1.972011010366781e-01 1.002115461984506e-01 0.000000000000000e+00 6.325759310354312e-01 7.026396842973263e-02 0.000000000000000e+00 6.356681316088502e-01 4.619464755185967e-02 0.000000000000000e+00 6.137135296600879e-01 5.923923478665676e-02 0.000000000000000e+00 6.356697321454025e-01 1.538055969815540e-01 0.000000000000000e+00 6.328111874952534e-01 1.256166141791064e-01 0.000000000000000e+00 6.133213345751599e-01 1.416284482082639e-01 0.000000000000000e+00 3.676342218244493e-01 1.360641150748462e-01 0.000000000000000e+00 3.674443000888042e-01 1.527014440714697e-01 0.000000000000000e+00 3.893259863673771e-01 1.421635684244698e-01 0.000000000000000e+00 3.674465843820001e-01 4.713905381424529e-02 0.000000000000000e+00 3.676342217843908e-01 6.393588484626157e-02 0.000000000000000e+00 3.894837065875830e-01 5.924533576931833e-02 0.000000000000000e+00 5.102457943773800e-01 5.260948399200950e-02 0.000000000000000e+00 5.085295751046749e-01 2.540532046752223e-02 0.000000000000000e+00 4.894597309299598e-01 3.655092592592592e-02 0.000000000000000e+00 5.085295751029876e-01 1.745946795324778e-01 0.000000000000000e+00 5.102457943763188e-01 1.473905160079905e-01 0.000000000000000e+00 4.894597309285084e-01 1.634490740740741e-01 0.000000000000000e+00 4.741267444728235e-01 1.543553225584215e-01 0.000000000000000e+00 4.684063266565393e-01 1.750187005880394e-01 0.000000000000000e+00 4.894597309285084e-01 1.634490740740741e-01 0.000000000000000e+00 4.684063266582298e-01 2.498129941196055e-02 0.000000000000000e+00 4.741267444740512e-01 4.564467744157848e-02 0.000000000000000e+00 4.894597309299598e-01 3.655092592592592e-02 0.000000000000000e+00 1.183733259857045e-01 7.116885251089573e-02 0.000000000000000e+00 1.211119433954548e-01 4.844499445275665e-02 0.000000000000000e+00 9.618914270776220e-02 5.697243691702588e-02 0.000000000000000e+00 9.352850814676027e-01 4.287915471819994e-02 0.000000000000000e+00 9.435310768418372e-01 6.246374006343971e-02 0.000000000000000e+00 9.550725189111069e-01 4.829411318820009e-02 0.000000000000000e+00 7.942139693228059e-02 3.754246087862223e-02 0.000000000000000e+00 9.618914270776220e-02 5.697243691702588e-02 0.000000000000000e+00 1.035551545049920e-01 3.618647793308308e-02 0.000000000000000e+00 1.020569493188440e-01 1.521532026904773e-01 0.000000000000000e+00 8.277531846929394e-02 1.659099040050232e-01 0.000000000000000e+00 1.059561196782290e-01 1.726640099290462e-01 0.000000000000000e+00 4.881435964943197e-01 5.744412919386780e-02 0.000000000000000e+00 5.102457943773800e-01 5.260948399200950e-02 0.000000000000000e+00 4.894597309299598e-01 3.655092592592592e-02 0.000000000000000e+00 4.741267444740512e-01 4.564467744157848e-02 0.000000000000000e+00 4.881435964943197e-01 5.744412919386780e-02 0.000000000000000e+00 4.894597309299598e-01 3.655092592592592e-02 0.000000000000000e+00 5.102457943763188e-01 1.473905160079905e-01 0.000000000000000e+00 4.881435964933576e-01 1.425558708061322e-01 0.000000000000000e+00 4.894597309285084e-01 1.634490740740741e-01 0.000000000000000e+00 4.881435964933576e-01 1.425558708061322e-01 0.000000000000000e+00 4.741267444728235e-01 1.543553225584215e-01 0.000000000000000e+00 4.894597309285084e-01 1.634490740740741e-01 0.000000000000000e+00 9.202742311744310e-01 6.304724904173428e-02 0.000000000000000e+00 9.435310768418372e-01 6.246374006343971e-02 0.000000000000000e+00 9.352850814676027e-01 4.287915471819994e-02 0.000000000000000e+00 9.311369351563222e-01 1.216872542520513e-01 0.000000000000000e+00 9.446844990568195e-01 1.365972544162028e-01 0.000000000000000e+00 9.561458207326632e-01 1.229301525610412e-01 0.000000000000000e+00 9.440822297766122e-01 1.044866432311947e-01 0.000000000000000e+00 9.311369351563222e-01 1.216872542520513e-01 0.000000000000000e+00 9.561458207326632e-01 1.229301525610412e-01 0.000000000000000e+00 6.942865083870305e-02 7.810901213359711e-02 0.000000000000000e+00 5.559994773146819e-02 6.339045909604388e-02 0.000000000000000e+00 4.409363782274157e-02 7.706114571179593e-02 0.000000000000000e+00 5.587596540385175e-02 9.544964978545428e-02 0.000000000000000e+00 6.942865083870305e-02 7.810901213359711e-02 0.000000000000000e+00 4.409363782274157e-02 7.706114571179593e-02 0.000000000000000e+00 9.383149197178707e-01 8.083033390936589e-02 0.000000000000000e+00 9.440822297766122e-01 1.044866432311947e-01 0.000000000000000e+00 9.564339645724994e-01 8.784519757399348e-02 0.000000000000000e+00 6.437537668157559e-02 1.198167832100239e-01 0.000000000000000e+00 5.587596540385175e-02 9.544964978545428e-02 0.000000000000000e+00 4.380144473816400e-02 1.121383540808015e-01 0.000000000000000e+00 5.997194079032258e-02 4.512095697672458e-02 0.000000000000000e+00 4.395097424174637e-02 3.288070253644709e-02 0.000000000000000e+00 3.828765699483880e-02 5.304505000823728e-02 0.000000000000000e+00 5.559994773146819e-02 6.339045909604388e-02 0.000000000000000e+00 5.997194079032258e-02 4.512095697672458e-02 0.000000000000000e+00 3.828765699483880e-02 5.304505000823728e-02 0.000000000000000e+00 9.404756991568505e-01 1.549621963185481e-01 0.000000000000000e+00 9.562058539142814e-01 1.671301644007421e-01 0.000000000000000e+00 9.619095609780270e-01 1.469647442901770e-01 0.000000000000000e+00 9.446844990568195e-01 1.365972544162028e-01 0.000000000000000e+00 9.404756991568505e-01 1.549621963185481e-01 0.000000000000000e+00 9.619095609780270e-01 1.469647442901770e-01 0.000000000000000e+00 9.105972683830624e-01 1.544218397638132e-01 0.000000000000000e+00 8.927034528382922e-01 1.455120327258070e-01 0.000000000000000e+00 8.960075181349753e-01 1.728216891542547e-01 0.000000000000000e+00 7.412240007220265e-02 5.848278876839397e-02 0.000000000000
[...]
<PointData Scalars="A_conc," Vectors="" Tensors="">
<DataArray type="Float64" Name="A_conc" format="ascii">
3.399579348918477e+00 3.153603244893845e+00 3.153563747367349e+00 6.167141201927505e-01 -1.079753883416233e-01 -1.079753883416206e-01 1.966945063992367e+00 2.475142505546307e+00 3.512600346003744e+00 2.475966546068102e+00 1.979712577072783e+00 8.885125863218623e-01 3.596578043842050e+00 3.666309139165684e+00 3.805281459911663e+00 3.665645228844587e+00 3.596367258578268e+00 3.436514314813422e+00 2.556660357932572e+00 6.331780916565357e-01 1.478440273789975e+00 3.137364042693867e-01 1.474529932817406e+00 7.012833188823960e-01 -2.229050443611298e-01 3.726189497416407e-01 7.084666375023942e-01 3.388953681042440e+00 3.153709117434689e+00 3.153570358679092e+00 -5.829094013030894e-02 3.194336923212016e-01 -5.829094013029887e-02 5.973540538486626e-01 -1.048413610307840e-01 -1.048413610307816e-01 3.390861018108498e+00 3.596139061762691e+00 3.663604328728967e+00 5.863418875047417e-01 1.976321257819555e+00 2.473202344008327e+00 3.390014762769425e+00 3.663952701402612e+00 3.436826608469625e+00 6.181807845516012e-01 2.436282120821229e+00 9.278703454901186e-01 6.131945391475341e-01 -1.074066151400499e-01 -1.074066151400249e-01 -2.875930376577915e-01 7.179642749001965e-01 7.226347608366691e-01 4.409727461445789e+00 4.315214045183433e+00 4.635892891970416e+00 5.753791473457436e+00 5.878710641851742e+00 5.628114918576956e+00 5.878905266458631e+00 5.691395878238694e+00 5.628017670193819e+00 9.491918771563391e+00 9.528642271487215e+00 9.276238456523448e+00 9.528450086926258e+00 9.494631558046134e+00 9.271943113084872e+00 7.497413803331194e+00 7.495601150033702e+00 7.675334044140014e+00 7.495782254451325e+00 7.497402669988733e+00 7.676501272900118e+00 8.444220971407121e+00 8.433651307589034e+00 8.319030290783354e+00 8.433719623387933e+00 8.444193841380283e+00 8.319059684835009e+00 8.228749652297028e+00 8.194728589931293e+00 8.319539814583507e+00 8.194674860867107e+00 8.228741640468373e+00 8.319499479634311e+00 4.600999503798022e+00 4.636417061331768e+00 4.314879002810711e+00 4.384692678554402e+00 3.625448406773006e+00 2.570305943963729e+00 4.102019892880178e+00 4.314983928916276e+00 4.409032768911572e+00 4.390265601286785e+00 4.144285839976199e+00 4.440152300542697e+00 8.311680812988675e+00 8.443563259663923e+00 8.319372811537026e+00 8.228709748696259e+00 8.311682454982702e+00 8.319357108945740e+00 8.443539372694056e+00 8.311654994987958e+00 8.319396555891480e+00 8.311656455488166e+00 8.228713263507503e+00 8.319381048050058e+00 5.735907888200044e+00 3.641988154419062e+00 4.391083917535183e+00 4.763550305816026e+00 3.519577370579357e+00 2.471868649849208e+00 3.574743147677663e+00 4.759195257231298e+00 2.466934169426272e+00 3.975539669955838e+00 3.805963403469748e+00 3.666171359002548e+00 3.809293141311682e+00 3.975557657600052e+00 3.666260489343174e+00 4.105694689572223e+00 3.574384358530386e+00 2.441993378713218e+00 3.913443334036078e+00 3.809385075462861e+00 3.662546378787310e+00 3.858251478156565e+00 3.664646846277635e+00 3.596580237453703e+00 3.805832199022599e+00 3.859051694748477e+00 3.596121942218874e+00 3.897789058934279e+00 2.470611578445942e+00 1.960664264655030e+00 3.520839822051953e+00 3.904726526294862e+00 1.951176954580484e+00 6.590412639468128e+00 7.889299347746104e+00 7.659751915374864e+00 4.035671642909809e+00 4.314049440770210e+00 4.102273031915088e+00 6.542448728404544e+00 5.260805431306909e+00 6.696576543644648e+00 5.233564149442450e+00 6.553547237047405e+00 5.231887062901682e+00 4.129269152435074e+00 4.019719790298383e+00 3.875034256394337e+00 2.469925140186216e+00 1.494325893800005e+00 3.569168020781356e+00 1.491304307297296e+00 2.444211999876728e+00 3.573175742661312e+00 3.666217998767326e+00 3.530165049470789e+00 3.808027704532309e+00 3.530205461573623e+00 3.662560330128859e+00 3.808283254299920e+00 2.579823178672789e+00 2.289382555851278e+00 5.894116321962130e-01 2.252207600454491e+00 6.783705008550092e-01 6.732155675214687e-01 8.167951324943788e+00 8.274067829752187e+00 8.256985408774003e+00 8.388076914666676e+00 8.311394952578178e+00 8.443823197483875e+00 8.387850409102830e+00 8.273978078539171e+00 8.311508429219082e+00 8.274110760720090e+00 8.167948946592755e+00 8.256943385232782e+00 8.311409801466654e+00 8.388076568068620e+00 8.443839231416382e+00 8.273968396643086e+00 8.387840927633889e+00 8.311525239136985e+00 4.117388390495685e+00 4.144684217635062e+00 4.389364391931093e+00 3.913920368508060e+00 4.144271438157880e+00 4.117096913861894e+00 5.759087673504102e+00 6.260639356324297e+00 7.468063533240393e+00 4.420813367435943e+00 6.250496345068374e+00 5.730990088967321e+00 6.793818991375263e-01 1.472162094323954e+00 3.154802224917900e-01 7.821147536219788e+00 7.872276996940431e+00 7.751555043852738e+00 7.462807905503005e+00 7.496614323631406e+00 7.317957211487548e+00 7.496760086009592e+00 7.446024282653506e+00 7.317756624232032e+00 9.582289426489714e+00 9.494241696353193e+00 9.747452382530433e+00 9.494035704941968e+00 9.582548117301011e+00 9.747179213161107e+00 9.227180646235396e+00 9.273658787896839e+00 9.488852026200000e+00 9.278075433035468e+00 9.252015442548155e+00 9.487242918616831e+00 6.021564401871475e+00 5.878213442040982e+00 6.125087942624559e+00 5.878237100367565e+00 6.022780845219413e+00 5.691593008392880e+00 6.022679141996713e+00 5.926421849456481e+00 5.691895491863882e+00 5.878189559367182e+00 6.020149048939508e+00 6.125073015433967e+00 6.020949210394972e+00 5.878126241353017e+00 5.753805629925946e+00 5.901384268343853e+00 6.021067960912513e+00 5.753934597768399e+00 8.050990372341602e+00 8.078426746993710e+00 7.948595068425957e+00 8.050737456850911e+00 7.968511516667562e+00 8.117888520409680e+00 7.913866611836289e+00 7.968372801225756e+00 8.051943486261544e+00 7.948221974021974e+00 7.913876323385526e+00 8.052520202291310e+00 8.078351991879353e+00 8.051019833268994e+00 7.948531976075339e+00 7.991506756713052e+00 8.050639625388868e+00 8.117542319491818e+00 7.991626947044022e+00 7.914052537024579e+00 8.051719597845725e+00 7.913887239359186e+00 7.948172128566975e+00 8.052515367418474e+00 6.369801418579272e+00 6.468326640150905e+00 6.225185331786294e+00 6.468109149359437e+00 6.398056015168110e+00 6.225250846200863e+00 6.236045029959355e+00 6.398008245650447e+00 6.501641225876332e+00 1.110079175498994e+01 1.116209556057044e+01 1.099619882234258e+01 1.110369959175825e+01 1.098489385698771e+01 1.117046283103833e+01 1.116061560328708e+01 1.111263674529564e+01 1.099821719911084e+01 1.102659176321067e+01 1.111575816348286e+01 1.117961050251090e+01 1.099669633273598e+01 1.090349776866254e+01 1.111649261413807e+01 1.089920130714268e+01 1.097164954046216e+01 1.111710538771895e+01 5.162216120973513e+00 5.064467432103031e+00 5.335181850885530e+00 5.064493522433279e+00 5.169112732579480e+00 5.335187263040979e+00 1.007832628239490e+01 1.017761118899218e+01 9.892249973067935e+00 1.017761860071766e+01 1.007846053069079e+01 9.892249811677134e+00 5.946955343675098e-01 -1.044099641832540e-01 -1.044099641832550e-01 -2.193168795830510e-01 6.883512038545795e-01 3.728504891749588e-01 6.904933689846358e-01 6.836778307117187e-01 -2.760601643790857e-01 7.914345869872158e+00 7.949339498836376e+00 7.809897338664421e+00 7.914205189666655e+00 7.813097106276294e+00 7.969818768899474e+00 7.752537033462392e+00 7.812813005271305e+00 7.916516877354867e+00 7.809579672025146e+00 7.752601819640030e+00 7.916122957981174e+00 7.949292634732378e+00 7.914350892554700e+00 7.809861379267454e+00 7.834570885345457e+00 7.914107301284865e+00 7.993402813598741e+00 7.834598457328354e+00 7.751176123406319e+00 7.915951000559898e+00 7.751035107685842e+00 7.809508669447126e+00 7.916502187323098e+00 9.256817542351811e+00 7.942223770587579e+00 8.513824558261232e+00 9.034561590513414e+00 9.149624866939709e+00 8.995076866551280e+00 9.224338868630989e+00 9.152171556056459e+00 9.033894130341357e+00 9.149950188433515e+00 9.035015897111906e+00 8.995155914394365e+00 9.152124650610075e+00 9.248293716867565e+00 9.034408412359276e+00 6.770069090362433e+00 6.841329564975144e+00 7.031826124115734e+00 6.836869462765567e+00 6.769996814449212e+00 7.040231024677313e+00 8.587666291726626e+00 9.433045712817915e+00 9.705885198297823e+00 9.251956512493345e+00 8.563762222756520e+00 9.704522397271326e+00 1.060079457729837e+01 1.049384954257584e+01 1.031629358185369e+01 1.040354241328607e+01 1.049372972649689e+01 1.069434208881702e+01 1.040350948827153e+01 1.021712825665124e+01 1.049434243455830e+01 1.021685952208476e+01 1.031602875056113e+01 1.049441793462589e+01 1.049693797642739e+01 1.060014012210728e+01 1.031575462513961e+01 1.049720145259967e+01 1.040248767978232e+01 1.071389761728189e+01 1.021747255214853e+01 1.040249091543113e+01 1.049780482216639e+01 1.031547060337604e+01 1.021720832627816e+01 1.049754318117023e+01 1.106214630998813e+01 1.111421165518887e+01 1.119131482874127e+01 8.444341738717606e+00 8.388079206002763e+00 8.538893498642443e+00 8.576358450562433e+00 8.433938825776401e+00 8.444625471215707e+00 8.434008745046439e+00 8.576395712483816e+00 8.444596261569403e+00 8.388078299839577e+00 8.444326730839320e+00 8.547607434814251e+00 7.129564982084534e+00 5.947395834775943e+00 7.520237647157813e+00 4.390138385252456e+00 4.531511206512778e+00 4.653780149862515e+00 1.112593149090695e+01 1.112035256649968e+01 1.100079807142018e+01 1.091178494032676e+01 1.099798547625400e+01 1.113429361082346e+01 1.106203058071385e+01 1.110017616118716e+01 1.098339392627621e+01 1.098330700818283e+01 1.087593000416862e+01 1.106939379212401e+01 4.654182695547491e+00 4.816000028477982e+00 4.920371720764982e+00 4.654181034262272e+00 4.531535716454806e+00 4.815649479145874e+00 9.407414240475479e+00 9.351161257620600e+00 1.018517115728281e+01 8.566698621415743e+00 9.326841132346090e+00 9.387581815769334e+00 1.078774219307394e+01 1.097013700286499e+01 1.057994369869871e+01 4.816050182443827e+00 4.939238209351757e+00 5.115942768498486e+00 8.320945666307132e+00 8.443495002646582e+00 8.321643525654363e+00 8.444039370568731e+00 8.320673112086517e+00 8.433565246266637e+00 8.320946120730655e+00 8.319336587086338e+00 8.433153101851836e+00 8.320963645593070e+00 8.200776455543924e+00 8.321550163036342e+00 8.200692843209577e+00 8.321238012936634e+00 8.194732351585220e+00 8.321025028289998e+00 8.319415515091922e+00 8.194798362171573e+00 8.573691146329978e+00 8.680156568561875e+00 8.714894402721338e+00 8.736405713672641e+00 8.680353331373079e+00 8.578133892056629e+00 1.002780699562345e+01 1.021693836081916e+01 1.031493457921494e+01 1.002779792822047e+01 9.891842450069040e+00 1.021500406259042e+01 8.680762003873722e+00 8.738475031878757e+00 8.830942834753575e+00 9.750778400851827e+00 9.891693589027527e+00 1.002571742105578e+01 8.194862334245984e+00 8.229054829969984e+00 8.116642609922511e+00 8.116667794620399e+00 8.050643265148965e+00 8.195849543397907e+00 1.119136483920052e+01 1.116101879669845e+01 1.119479875823312e+01 1.117747682497076e+01 1.113827693612777e+01 1.119000937521903e+01 7.319976562304866e+00 7.172651288486998e+00 7.124890285912319e+00 8.443371306209412e+00 8.320945116219360e+00 8.321528637233129e+00 8.320674612122493e+00 8.443915172300366e+00 8.433660977119244e+00 8.319389469541848e+00 8.320985598131243e+00 8.433234705854684e+00 8.229045721779368e+00 8.194810376695321e+00 8.116630867800286e+00 8.050596261567977e+00 8.116652949769041e+00 8.195796413123901e+00 7.172354396268688e+00 7.320054295349143e+00 7.124965236178644e+00 1.117803208139550e+01 1.118655638375744e+01 1.118894440877236e+01 1.113184777536227e+01 1.117210855519006e+01 1.119236907386188e+01 8.200878764716464e+00 8.320967016397688e+00 8.321664008092982e+00 8.321224106113315e+00 8.200787314813939e+00 8.194665133319191e+00 8.319362598375371e+00 8.320985276727979e+00 8.194758431143351e+00 8.680201402165171e+00 8.573550304937624e+00 8.714758426986068e+00 8.680424443782552e+00 8.736440283075135e+00 8.578172302667614e+00 8.738509046338232e+00 8.680832909279633e+00 8.831021511219371e+00 1.021659654360903e+01 1.002827651921626e+01 1.031548856941509e+01 9.891478145713645e+00 1.002821249253011e+01 1.021466913364559e+01 9.891358059960371e+00 9.751098535522873e+00 1.002611607023153e+01 1.073313366556945e+01 1.042551914534469e+01 1.019374995542516e+01 4.315231718165037e+00 4.289478889356289e+00 4.600101558793807e+00 4.289060356738814e+00 4.582370654853920e+00 4.600896478029959e+00 6.711026639345228e+00 7.905859110699322e+00 6.562099472152995e+00 6.777686930359367e+00 8.508888460677648e+00 7.898803226422470e+00 2.282932168776426e+00 2.576714102244269e+00 3.618610838288607e+00 2.290736293494482e+00 2.461049807463509e+00 5.959862797746762e-01 2.454322239484105e+00 2.283347459063601e+00 4.099799217017693e+00 4.103860936388084e+00 2.277177984029508e+00 3.624289877938184e+00 3.647183292346140e+00 3.662063806187718e+00 3.401520142633215e+00 3.662855779185323e+00 3.647851601111577e+00 3.912300179679725e+00 5.493457680091907e+00 4.760292888150864e+00 3.591266378558756e+00 4.763260447228892e+00 5.226028772766301e+00 3.532358992098063e+00 4.786510211236650e+00 6.710481857923277e+00 5.237185582843751e+00 4.111160103978084e+00 5.495994929204227e+00 3.584137181404702e+00 5.738043249171133e+00 4.112597739354121e+00 3.638195165813642e+00 4.076151180048842e+00 3.976946955008606e+00 3.809251675832624e+00 3.977092243244930e+00 4.076880628829042e+00 4.288019586896077e+00 3.976842728003810e+00 4.035191783936290e+00 3.805907474986697e+00 3.914161704818300e+00 4.075848512023348e+00 3.809482944494273e+00 1.526279841140681e+00 6.454797907787360e-01 2.437629961450857e+00 5.925944453274908e-01 1.525771630191733e+00 2.464873462778354e+00 3.530136224289182e+00 3.402028440085856e+00 3.661425572153411e+00 3.389503116845489e+00 3.530133647086428e+00 3.665209433778074e+00 2.454579547833008e+00 1.347928327103875e+00 6.140944144161639e-01 6.042750986145957e-01 1.349616619424980e+00 2.205641317994378e+00 3.663075521944111e+00 3.502806119925912e+00 3.391240368164893e+00 3.385672445280941e+00 3.502830391115702e+00 3.625560946104975e+00 5.228209792349002e+00 3.908812979657974e+00 3.525900640509617e+00 3.924268937090660e+00 3.908542536139839e+00 5.225441880515877e+00 3.904192859502020e+00 3.921093700501557e+00 2.463282315015609e+00 5.221502292120784e+00 3.919181022172450e+00 5.223610731953608e+00 4.034670451028348e+00 3.859788075629349e+00 3.806202169975585e+00 3.862150073298014e+00 3.859858336786586e+00 4.100804138260718e+00 3.859497560419597e+00 3.861784966495729e+00 3.664392491540146e+00 4.101751418407945e+00 3.859583955136880e+00 4.035477226744995e+00 8.384691610928099e+00 9.341308507344522e+00 8.534658226921374e+00 4.173334007244807e+00 3.914020166224674e+00 4.117103219676536e+00 3.914053337665118e+00 4.173147036742008e+00 4.076854806171873e+00 8.849927423114462e+00 8.252778242083625e+00 7.564862979089609e+00 7.183695567825276e+00 8.243331342835518e+00 8.360054268077157e+00 8.253102873104003e+00 7.147675669014009e+00 7.524597206926581e+00 9.386295178797358e+00 1.003737124387295e+01 1.016349037029001e+01 5.035003164688994e+00 4.920512559139739e+00 5.187505212257628e+00 8.884175371353775e+00 8.833349626711136e+00 8.738051029879458e+00 8.833420671821807e+00 8.886324464651201e+00 8.738059428024110e+00 1.100288598046600e+01 1.107062921214409e+01 1.115718432484162e+01 8.522669903975292e+00 7.509411354473929e+00 8.364637451417941e+00 7.485002433522126e+00 8.538911676189574e+00 7.470521678591354e+00 7.481312008400736e+00 7.149259028360085e+00 8.375256636176491e+00 5.929250698707059e+00 6.580610076411722e+00 7.526837693913047e+00 8.910118782777419e+00 9.874857880436837e+00 8.873795533407222e+00 9.849017226289989e+00 8.961659487980031e+00 9.851591144806433e+00 6.003158366776217e+00 4.142457972801002e+00 5.728320521348017e+00 4.135817047665193e+00 6.002796538044229e+00 5.491545882161942e+00 7.966587644488643e+00 7.871303277496952e+00 7.821032482302364e+00 1.119768540257569e+01 1.107608469948317e+01 1.105878778838378e+01 1.108327385822266e+01 1.118166793344463e+01 1.119985064254436e+01 1.111175716931735e+01 1.119279475591748e+01 1.105993356873553e+01 1.117838681627335e+01 1.111511470878732e+01 1.120382631124139e+01 5.926402019659617e+00 6.205798626931118e+00 6.095891448034623e+00 6.206366493427906e+00 5.926127122879124e+00 6.021670676039543e+00 5.901322809272021e+00 6.183538458529863e+00 6.020255149915299e+00 1.098656602954668e+01 1.083440376845833e+01 1.106758475629085e+01 1.081471544255939e+01 1.098875545226982e+01 1.058105985558583e+01 6.594469393362963e+00 6.467267290222551e+00 6.700224390870804e+00 6.467079696386111e+00 6.595441933208155e+00 6.397732872051465e+00 6.467337247811901e+00 6.593123421317109e+00 6.700314364967685e+00 6.594285603151717e+00 6.467210355164412e+00 6.369664462441876e+00 4.582684989745586e+00 4.584313143341042e+00 4.786572416612030e+00 4.584239836548321e+00 4.718033258347307e+00 4.786813547048812e+00 1.117702377437070e+01 1.119071380961698e+01 1.116286604130352e+01 6.124312127504391e+00 6.280996170931721e+00 6.021489546879734e+00 6.280375111993880e+00 6.124292996631966e+00 6.020083275883610e+00 8.131659131362680e+00 8.077621258272625e+00 8.201421027379013e+00 8.131790271434191e+00 8.195539030662358e+00 8.050792322756442e+00 8.194812397386903e+00 8.131674676178781e+00 8.200791285524303e+00 8.077549260131917e+00 8.132025975678106e+00 8.050601475568657e+00 8.077699073405695e+00 8.131679759489376e+00 8.201512684056045e+00 8.195475432747592e+00 8.131806221641463e+00 8.050758007755771e+00 8.131692979473565e+00 8.194747137780800e+00 8.200883916289881e+00 8.132044607026797e+00 8.077626199080877e+00 8.050567545967303e+00 1.090541051281335e+01 1.090136327061135e+01 1.069304949523899e+01 9.381526170312499e+00 9.324864313838564e+00 8.422072358274432e+00 8.539419382961814e+00 8.573253475102133e+00 8.443988305720378e+00 8.433845711625661e+00 8.538598767949463e+00 8.444435363296764e+00 8.573110968414886e+00 8.539446961770599e+00 8.443848158229361e+00 8.538639337219408e+00 8.433943221361144e+00 8.444309249997604e+00 9.529356779609625e+00 9.313280879010593e+00 9.579489969893459e+00 9.313190622703839e+00 9.529409002213932e+00 9.579396546172424e+00 5.064929380076051e+00 5.897878989218309e+00 4.085534838848348e+00 8.598411594470551e+00 8.522551758537803e+00 8.681590162388561e+00 8.598254579514400e+00 8.697115655915342e+00 8.540865410550945e+00 8.522857942198531e+00 8.587756005551466e+00 8.681430538861299e+00 5.251617920055422e+00 5.187489597125143e+00 5.453683065730996e+00 8.764904725276203e+00 8.848704141726234e+00 8.699688092881447e+00 3.987142041480053e+00 4.129131912725795e+00 3.875075755361638e+00 7.835722803695028e+00 7.816749385010077e+00 7.671940697677760e+00 7.817515362747137e+00 7.749294603548583e+00 7.671137493555835e+00 1.059004922585238e+01 1.087838836373160e+01 1.094987972524883e+01 1.098824202175868e+01 1.088341512096831e+01 1.060097576750431e+01 1.089077487895995e+01 1.055942268711811e+01 1.056123019685219e+01 5.628124329660744e+00 5.473179680747422e+00 5.754355713990148e+00 9.747352242187535e+00 9.892243012778872e+00 1.007539554935922e+01 9.892412820289850e+00 9.789285663390832e+00 1.007593880210676e+01 5.226324321614440e+00 7.133228964772844e+00 6.256819565255842e+00 8.817442543991435e+00 8.715721131285541e+00 8.873340336623993e+00 8.817189421323571e+00 8.832399509542576e+00 8.679589617147414e+00 8.716268996900954e+00 8.815516961737110e+00 8.680798162504853e+00 8.715848941465763e+00 8.817466225219412e+00 8.873450994582543e+00 8.832313667085824e+00 8.817196306121714e+00 8.679553622833316e+00 8.815534435126857e+00 8.716402773387886e+00 8.680755633811645e+00 6.739739230397135e+00 7.188527459570900e+00 8.533498365062728e+00 8.172489160963780e+00 8.167864216880472e+00 8.274384872055698e+00 8.167854900061423e+00 8.172483160649977e+00 8.274371841555913e+00 8.940680622952879e+00 8.875461395159848e+00 9.052770464556096e+00 8.875565263770911e+00 8.940693585346549e+00 9.052847905972014e+00 8.562367230579209e+00 8.578187916398706e+00 8.443778670065290e+00 8.5402970434