<?xml version="1.0"?>
<VTKFile type="UnstructuredGrid" version="0.1" byte_order="LittleEndian">
<UnstructuredGrid>
<Piece NumberOfPoints="146" NumberOfCells="250">
<Points>
<DataArray type="Float64" NumberOfComponents="3" format="ascii">
0 0 0 0 0.019999999999964969 0 0.019975621301087348 0.019975621301087241 0 0.020000000000056421 0 0 0 0.039999999999912002 0 0.01599428114451272 0.035979655978051417 0 0.03410052910054278 0.034100529100513637 0 0.03597965597803196 0.015994281144453341 0 0.040000000000109559 0 0 0.060000000000166982 0 0 0.070808811536407681 0.014087862271636799 0 0.051983700828965813 0.019639343895885879 0 0.052595270959361867 0.040076686712600347 0 0.066613199614409674 0.043730230641593627 0 0.071857977472121179 0.030226786183146951 0 0.086419313189640481 0.036075599299210392 0 0.09222440822109973 0.022002001641829139 0 0.080000000000220062 0 0 0.082157965005245637 0.096785507894302375 0 0.099512697461400831 0.081726867903980149 0 0.096303395921925133 0.062011087727510378 0 0.080102740243863796 0.053611136565579059 0 0.086602787456448366 0.071968641114981413 0 0.068763304434006883 0.06985362220166029 0 0.059261209390895853 0.057038550926508211 0 0.065693759248522596 0.087175268186957339 0 0.043937282229965249 0.09999999999999501 0 0.049895798006680668 0.076940978322620077 0 0.033298039321482238 0.0883115494703587 0 0.039746940675641759 0.054441235132351197 0 0.030226786183215369 0.071857977472130907 0 0.019607939511472602 0.052159506940598482 0 0.01351633412664599 0.069999999999823148 0 0 0.059999999999854559 0 0.017073730510092019 0.086687157257312242 0 0 0.07999999999979171 0 0 0.099999999999736994 0 0.022002001641830519 0.1077755917789029 0 0 0.1199999999997885 0 0 0.1399999999998395 0 0.019639343895887191 0.1480162991710359 0 0.01408786227163787 0.1291911884635974 0 0.030226786183148311 0.1281420225278786 0 0.040076686712601783 0.14740472904063939 0 0.043730230641595397 0.133386800385591 0 0.036075599299211711 0.1135806868103599 0 0.019999999999964969 0.20000000000000001 0 0 0.20000000000000001 0 0 0.1799999999999457 0 0.019975621301087331 0.18002437869891261 0 0.01599428114445468 0.16402034402196761 0 0 0.15999999999989481 0 0.034100529100514178 0.16589947089945739 0 0.035979655978051528 0.18400571885548739 0 0.039999999999912002 0.20000000000000001 0 0.059999999999854559 0.20000000000000001 0 0.052159506940598767 0.1803920604885276 0 0.069999999999823148 0.18648366587335419 0 0.071857977472130796 0.1697732138167847 0 0.054441235132353362 0.16025305932435871 0 0.076940978322619979 0.15010420199331961 0 0.099999999999994912 0.156062717770035 0 0.088169194010125948 0.16670640874876949 0 0.086679021504087447 0.18293503277283291 0 0.099999999999736994 0.20000000000000001 0 0.07999999999979171 0.20000000000000001 0 0.071968641114981441 0.1133972125435517 0 0.059813214636516537 0.1028063474692443 0 0.053558626171880022 0.1197318819744901 0 0.057038550926508953 0.14073879060910441 0 0.071500136158805516 0.13039048546753859 0 0.088260250094999312 0.13323467294533781 0 0.090033175805883547 0.1151701382544357 0 0.1153975229780182 0.10925072708938829 0 0.102806347469244 0.1401867853634837 0 0.1197318819744897 0.14644137382812031 0 0.1133972125435514 0.12803135888501871 0 0.13039048546753829 0.12849986384119461 0 0.14073879060910319 0.14296144907349179 0 0.13323467294533761 0.11173974990500091 0 0.1199999999997885 0.20000000000000001 0 0.1078447254601128 0.1780724198342406 0 0.11358068681035979 0.1639244007007884 0 0.1333868003855895 0.15626976935840539 0 0.14740472904063701 0.159923313287399 0 0.12814202252787851 0.16977321381685179 0 0.1292004062877585 0.18592206059183841 0 0.14801629917103479 0.18036065610411309 0 0.1399999999998395 0.20000000000000001 0 0.15999999999989481 0.20000000000000001 0 0.16402034402196669 0.18400571885554479 0 0.16589947089945481 0.16589947089948659 0 0.20000000000000001 0.16000000000011061 0 0.18400571885548209 0.16402034402194759 0 0.180024378698912 0.18002437869891219 0 0.20000000000000001 0.18000000000005531 0 0.20000000000000001 0.20000000000000001 0 0.1799999999999457 0.20000000000000001 0 0.1668398726151045 0.11179964214599961 0 0.15606271777003489 0.10000000000000531 0 0.1501042019933182 0.1230590216773806 0 0.16025305932435471 0.14555876486764999 0 0.1697732138167827 0.12814202252786891 0 0.18656026320984881 0.12992044717944171 0 0.1803920604885241 0.14784049305940711 0 0.20000000000000001 0.14000000000016591 0 0.20000000000000001 0.12000000000022119 0 0.18282753508517591 0.1134208382576654 0 0.20000000000000001 0.1000000000002737 0 0.20000000000000001 0.080000000000220062 0 0.17799799835817101 0.092224408221099841 0 0.16392440070078981 0.086419313189640551 0 0.15992331328740039 0.052595270959364268 0 0.156269769358407 0.066613199614411131 0 0.1697732138168532 0.071857977472121345 0 0.1803606561041145 0.05198370082896691 0 0.1859121377283634 0.070808811536407862 0 0.20000000000000001 0.060000000000166982 0 0.20000000000000001 0.040000000000109559 0 0.18400571885554631 0.035979655978032918 0 0.20000000000000001 0 0 0.20000000000000001 0.020000000000056421 0 0.1800243786989123 0.019975621301087931 0 0.18000000000005531 0 0 0.16402034402194751 0.015994281144518039 0 0.16000000000011061 0 0 0.16589947089948709 0.034100529100545347 0 0.14555876486765201 0.039746940675645749 0 0.12814202252786869 0.030226786183217471 0 0.14000000000016591 0 0 0.14784049305940741 0.019607939511476179 0 0.12990604777744541 0.013426572202853629 0 0.12000000000022119 0 0 0.1133128427426932 0.017073730510091079 0 0.1000000000002737 0 0 0.1230590216773805 0.049895798006682077 0 0.11168845052964139 0.03329803932148117 0 0.1000000000000052 0.043937282229965298 0 0.1117397499050006 0.066765327054662732 0 0.10000000000000001 0.099999999999999992 0 0.1117880444743706 0.089981045072954138 0 0.12803135888501879 0.086602787456448713 0 0.14018678536348361 0.097193652530756194 0 0.14659818468118249 0.080187526587562397 0 0.14296144907349251 0.05926120939089706 0 0.13014637779834001 0.068763304434007466 0 
</DataArray>
</Points>
<Cells>
<DataArray type="UInt32" Name="connectivity" format="ascii">
1 2 0 0 2 3 4 31 5 1 4 5 1 5 2 6 2 5 6 5 31 6 31 29 6 12 11 6 29 12 8 3 7 3 2 7 6 7 2 6 11 7 8 7 11 9 11 10 9 8 11 17 9 10 14 10 11 14 11 12 24 13 12 14 12 13 14 13 15 16 14 15 21 15 13 137 15 21 137 16 15 134 17 16 17 10 16 16 10 14 22 25 18 139 19 18 22 18 19 22 20 21 22 19 20 137 21 20 22 21 23 24 23 21 24 21 13 24 12 29 24 27 23 25 23 27 22 23 25 25 67 18 26 67 25 26 25 27 26 27 28 30 28 27 30 34 28 37 26 28 30 27 29 24 29 27 30 29 31 30 31 32 33 35 32 33 32 31 33 31 4 37 28 34 36 37 34 30 32 34 35 34 32 35 36 34 36 38 37 37 41 42 38 41 37 38 39 41 39 40 41 39 51 40 42 41 40 42 44 45 42 40 43 69 44 43 42 43 44 68 45 44 26 45 68 37 45 26 37 42 45 47 46 49 47 49 48 52 50 49 51 48 50 48 49 50 51 50 40 52 40 50 52 43 40 52 59 43 52 56 59 52 49 53 52 53 56 54 56 53 46 54 53 46 53 49 55 65 57 54 55 56 55 57 56 58 56 57 58 59 56 58 60 59 69 59 60 58 62 60 61 60 62 61 62 81 58 63 62 58 57 63 81 62 63 64 81 63 65 64 63 65 63 57 66 68 70 66 18 67 66 67 68 26 68 67 69 70 68 69 68 44 69 43 59 69 60 70 71 72 70 71 76 72 71 70 60 71 61 74 71 60 61 66 70 72 66 72 18 139 18 72 139 72 73 76 73 72 76 77 73 71 74 76 61 75 74 76 74 75 76 75 77 78 77 75 78 75 83 78 84 101 78 100 77 79 77 100 79 141 73 99 79 100 99 142 79 79 73 77 80 86 81 64 80 81 81 86 85 81 85 82 61 81 82 61 82 75 75 82 83 85 84 83 78 83 84 85 87 84 85 83 82 85 86 87 88 87 86 88 89 87 80 88 86 97 94 90 89 97 90 89 90 87 91 87 90 91 90 94 91 84 87 91 101 84 91 104 101 91 93 104 92 104 93 95 93 94 95 92 93 91 94 93 96 95 94 96 94 97 102 107 98 99 98 110 99 100 98 102 98 100 78 101 100 102 100 101 102 101 104 102 104 103 92 105 104 105 103 104 105 106 103 106 107 103 102 103 107 108 110 107 110 98 107 106 108 107 108 109 110 109 116 110 114 110 116 99 110 111 114 111 110 143 111 113 99 111 143 144 113 112 114 112 113 114 113 111 114 115 112 114 116 115 109 117 116 117 115 116 117 118 115 118 119 115 121 122 119 118 121 119 126 119 122 126 115 119 120 122 121 120 123 122 123 125 124 123 124 122 126 122 124 126 124 130 125 130 124 126 112 115 126 130 127 126 127 112 128 127 130 128 135 127 144 127 135 125 129 130 129 131 130 128 130 131 129 132 131 132 133 131 128 131 133 16 136 133 134 16 133 132 134 133 128 136 135 128 133 136 137 136 16 137 135 136 138 135 137 138 137 20 138 145 135 138 141 145 138 20 19 138 19 140 139 73 140 139 140 19 141 140 73 138 140 141 141 143 145 79 142 141 141 142 143 99 143 142 144 145 143 144 143 113 144 112 127 144 135 145 
</DataArray>
<DataArray type="UInt32" Name="offsets" format="ascii">
3 6 9 12 15 18 21 24 27 30 33 36 39 42 45 48 51 54 57 60 63 66 69 72 75 78 81 84 87 90 93 96 99 102 105 108 111 114 117 120 123 126 129 132 135 138 141 144 147 150 153 156 159 162 165 168 171 174 177 180 183 186 189 192 195 198 201 204 207 210 213 216 219 222 225 228 231 234 237 240 243 246 249 252 255 258 261 264 267 270 273 276 279 282 285 288 291 294 297 300 303 306 309 312 315 318 321 324 327 330 333 336 339 342 345 348 351 354 357 360 363 366 369 372 375 378 381 384 387 390 393 396 399 402 405 408 411 414 417 420 423 426 429 432 435 438 441 444 447 450 453 456 459 462 465 468 471 474 477 480 483 486 489 492 495 498 501 504 507 510 513 516 519 522 525 528 531 534 537 540 543 546 549 552 555 558 561 564 567 570 573 576 579 582 585 588 591 594 597 600 603 606 609 612 615 618 621 624 627 630 633 636 639 642 645 648 651 654 657 660 663 666 669 672 675 678 681 684 687 690 693 696 699 702 705 708 711 714 717 720 723 726 729 732 735 738 741 744 747 750 
</DataArray>
<DataArray type="UInt32" Name="types" format="ascii">
5 5 5 5 5 5 5 5 5 5 5 5 5 5 5 5 5 5 5 5 5 5 5 5 5 5 5 5 5 5 5 5 5 5 5 5 5 5 5 5 5 5 5 5 5 5 5 5 5 5 5 5 5 5 5 5 5 5 5 5 5 5 5 5 5 5 5 5 5 5 5 5 5 5 5 5 5 5 5 5 5 5 5 5 5 5 5 5 5 5 5 5 5 5 5 5 5 5 5 5 5 5 5 5 5 5 5 5 5 5 5 5 5 5 5 5 5 5 5 5 5 5 5 5 5 5 5 5 5 5 5 5 5 5 5 5 5 5 5 5 5 5 5 5 5 5 5 5 5 5 5 5 5 5 5 5 5 5 5 5 5 5 5 5 5 5 5 5 5 5 5 5 5 5 5 5 5 5 5 5 5 5 5 5 5 5 5 5 5 5 5 5 5 5 5 5 5 5 5 5 5 5 5 5 5 5 5 5 5 5 5 5 5 5 5 5 5 5 5 5 5 5 5 5 5 5 5 5 5 5 5 5 5 5 5 5 5 5 5 5 5 5 5 5 5 5 5 5 5 5 
</DataArray>
</Cells>
<CellData Scalars="pressure_p0," Vectors="velocity_p0," Tensors="">
<DataArray type="Float64" Name="pressure_p0" format="ascii">
0.00066585404336879186 0.0013325207100375585 0.0011867406885256795 0.00053314270481484159 0.0011989967481840034 0.0023356810515324507 0.0023234249918737929 0.0031151803095709344 0.0046226500296229151 0.0042147580245044895 0.0031993218659394041 0.0025318425759709952 0.0030018602126515204 0.0040687961969139725 0.0042654452269024323 0.0060930837455190588 0.0050661233609745216 0.0070269603845615576 0.0064883496612539717 0.0058812316420165899 0.0059489893321526457 0.0063688816015323455 0.0074963496758798376 0.0083500566294386382 0.0077711751016047784 0.0088840684477923728 0.0092881240470341891 0.0090741469407232718 0.0081011073252645043 0.0078297065743304587 0.0078151503903519954 0.0093890220822231106 0.0089424483307764605 0.0087669641207500613 0.0094139626946663502 0.0092135378722010778 0.0078489610711550209 0.0069375751356307745 0.0068659049749763114 0.0050534473675162787 0.0059306770610497465 0.0061450953896482023 0.0073686617046488448 0.0069221646296864182 0.005648141870504414 0.0053175613161703938 0.0042377039852561664 0.0037806874503491157 0.0026866185337963721 0.0033079107730991501 0.0039956508288166359 0.0049634649357523531 0.0029860555456466035 0.0021117019940135014 0.00045054447087943352 0.0011041424545885283 0.00065359798370907807 0.0024124590490959895 0.001302524405052461 0.0020272283606299077 0.0010196688211997792 0.00056912435032540026 0.00073340005472117176 0.0022105550032259212 0.0012029954637782577 0.00046959540905440076 0.0011242402055884676 0.0006546447965321148 0.0021317997450318094 0.0036677538708212243 0.0029980938930716291 0.0046948489427199487 0.0038011234512693509 0.0044454818704525367 0.0044523835900457265 0.0034004961057004283 0.0029434795708174286 0.0013325207100384239 0.0006658540433718234 0.0023356810515465206 0.00053314270481811458 0.0011989967481902211 0.0011877875013505187 0.0023244718047045047 0.0031272186569797711 0.004287281698202962 0.0046900423724666514 0.0030018602126723492 0.0040746564006553746 0.0042713054306284196 0.0031993218659365492 0.0025318425759813679 0.0069999999999835576 0.0050719835646838652 0.0060719835646819743 0.0064672494804265106 0.0059486239848497106 0.0067746730309146165 0.0062806921460701976 0.0078989383268274205 0.0088370057444153126 0.0098671306489945022 0.0082235397662072506 0.0076178999658678276 0.0094230980324685916 0.0098174582321247233 0.0088893007167854914 0.0078893007167888177 0.0065675801148740946 0.0071313273585664541 0.0061780160641241085 0.0052436374346194175 0.0060699104419385174 0.0051442469247037119 0.0050518824257431913 0.0068493221802866881 0.0083264520686630421 0.0097230212814792757 0.0078900454858905206 0.0097022199187938585 0.008840040947246941 0.0077833984359980445 0.0081386593975391591 0.0090730380270379954 0.010181023292796312 0.010627597044246748 0.011972840699632187 0.010148793670251417 0.010751274314776335 0.01119784806623416 0.012117319332846807 0.013028705268369741 0.013128582432305681 0.014946552632478186 0.014041115935669363 0.013790978680206539 0.012555451826939276 0.014646719756955353 0.014316139202621932 0.012634089379689347 0.011901504391584845 0.010928157515316976 0.012172905142522474 0.011652247826602943 0.010714180408997397 0.011110418959479066 0.012223312305677336 0.013631118398478427 0.014051010667850073 0.01411876835799953 0.012503650324129563 0.01351195759956382 0.013907223515292357 0.014933876639028483 0.012973346876246333 0.017468157424032273 0.016800678134062767 0.015734554773103274 0.015931203803098742 0.016998139787358087 0.015377349970390947 0.015785241975491613 0.016884819690419151 0.017676575008128158 0.018813259311470962 0.018801003251817456 0.019466857295182723 0.017664318948477472 0.019334145956629058 0.018667479289961111 0.017314687383901448 0.016696686291431426 0.015766893079281329 0.016223909614182332 0.015036535064236897 0.016004349171165819 0.017013944454334129 0.017890851250508915 0.019346402016282106 0.018898410789942269 0.019552008773660236 0.018979593276496804 0.017972033737058711 0.018694184448105798 0.01758884686860538 0.019427584502837367 0.019266599945272467 0.018797004536218041 0.017789444996773721 0.016599503894277386 0.017056520429182102 0.015559745158012851 0.015552843438386527 0.015305151057311605 0.016198876548757103 0.016332246129203219 0.017001906106945873 0.017868200254970438 0.01953040459094502 0.018875759794408836 0.019345355203467477 0.018812212498653644 0.018801003251816627 0.019466857295184947 0.017664318948468028 0.017675528195306836 0.019334145956630105 0.018667479289964102 0.016800678134067618 0.017468157424029691 0.016998139787349403 0.015925343599360629 0.01572869456937246 0.016872781343034465 0.015309957627550115 0.015712718301818793 0.014051376015161174 0.013225326969095591 0.013719307853950057 0.014928016435314707 0.013924884694558706 0.013529618778816185 0.01299686825925906 0.012107296350676458 0.012378697101595091 0.010574190049787522 0.010184575032140073 0.011110428091440253 0.012096316491163137 0.011771443860006451 0.010130428625032901 0.011158249073569472 0.011159959052747446 0.010268104860903678 0.012164838312688121 0.012330582886280828 0.01025186144295057 0.010768016394694852 0.010906185581742708 0.01037669139785638 0.011840564211246931 0.011718638442151354 0.013492530712150959 0.013381760573122053 0.013827210964317684 0.01476158959381439 0.013990200385100657 0.014860980103770269 0.01494811757428762 0.013205561618303895 
</DataArray>
<DataArray type="Float64" Name="velocity_p0" NumberOfComponents="3" format="ascii">
-0.099999999999934794 1.0590139876143212e-13 0 -0.099999999999959982 6.5177030439400596e-14 0 -0.099999999999609221 2.2666590826503352e-13 0 -0.099999999999668396 2.4152554956025085e-13 0 -0.099999999999804079 1.0585282650410477e-13 0 -0.099999999999894201 4.6775777695629017e-13 0 -0.099999999999536668 5.5098287043975347e-13 0 -0.099999999999962688 1.0634887068206034e-12 0 -0.10000000000053011 6.5858603293111884e-13 0 -0.1000000000001588 3.589281649674092e-13 0 -0.10000000000006279 1.2228412726855709e-13 0 -0.099999999999960176 1.3300818779704571e-13 0 -0.099999999999945938 2.4951221644364807e-13 0 -0.10000000000001606 2.4289424638279655e-13 0 -0.10000000000008726 2.7684105008418669e-13 0 -0.10000000000023673 -1.8099410858951615e-13 0 -0.099999999999990097 3.3160973966772644e-14 0 -0.10000000000025247 -3.5478217585982463e-13 0 -0.10000000000039701 -1.3342452143128014e-13 0 -0.1000000000005498 2.3404021776141093e-14 0 -0.10000000000104976 3.1038366321567423e-13 0 -0.10000000000045384 5.1005207002408071e-13 0 -0.10000000000031435 9.758860386455126e-14 0 -0.099999999999990749 2.2869553473192639e-13 0 -0.10000000000021766 5.4262150328554526e-14 0 -0.099999999999977551 5.6029833550574892e-14 0 -0.099999999999927314 7.2448991250695371e-14 0 -0.099999999999865224 -4.8912957018032444e-13 0 -0.099999999999938263 -6.8314451318052249e-13 0 -0.10000000000038481 6.2587521970636217e-14 0 -0.099999999999522082 2.9751201502392632e-13 0 -0.099999999999503084 2.9638791421149335e-13 0 -0.099999999999526301 3.1606661732297425e-13 0 -0.099999999999791242 1.4183099139586375e-14 0 -0.099999999999847419 7.2192469016685301e-14 0 -0.099999999999774464 1.1171619185290638e-14 0 -0.10000000000009637 -7.6715023222817535e-13 0 -0.10000000000059026 1.0469403122215226e-13 0 -0.10000000000070758 -3.0727503874672379e-13 0 -0.10000000000088617 8.9330279284816072e-13 0 -0.10000000000174425 -7.6862127773580369e-13 0 -0.10000000000191843 -5.6551638372148716e-13 0 -0.099999999999452943 2.4613644455939721e-13 0 -0.10000000000044426 -2.4154289679501062e-13 0 -0.10000000000063478 -6.0346866392890774e-13 0 -0.1000000000013371 -1.8980303440052637e-13 0 -0.10000000000099731 -1.264863214167633e-12 0 -0.10000000000067082 -1.3216060190668344e-12 0 -0.099999999999867181 -1.0135980596515104e-12 0 -0.10000000000053261 -9.0221580206772956e-13 0 -0.10000000000022535 2.6534330288541241e-14 0 -0.10000000000224821 3.6826097726816442e-13 0 -0.099999999999876063 1.073766076054028e-12 0 -0.099999999998864331 7.9933282215449708e-13 0 -0.09999999999805434 5.3980431236055892e-13 0 -0.099999999998654429 1.8423023523395088e-13 0 -0.099999999999042355 5.7830129573943623e-13 0 -0.10000000000000495 -1.0271583930632211e-12 0 -0.0999999999995871 -1.7301091115307088e-13 0 -0.10000000000038831 -4.2600645233648038e-13 0 -0.099999999997732181 3.0159555408637573e-13 0 -0.099999999998296091 -1.1796119636642288e-12 0 -0.099999999999112577 -5.3811122224800556e-15 0 -0.10000000000101614 -3.2632663932163908e-13 0 -0.10000000000078074 -9.6376118891017271e-13 0 -0.099999999999983991 -4.4385328745732977e-13 0 -0.10000000000057599 1.0365840130699411e-14 0 -0.10000000000039601 -7.6858658326628415e-14 0 -0.10000000000068168 -3.4815206273464128e-13 0 -0.10000000000110151 -1.87960758069039e-13 0 -0.10000000000097713 2.378644156642018e-13 0 -0.10000000000065992 4.9879935251628815e-13 0 -0.10000000000053823 3.1100122477312198e-14 0 -0.10000000000109133 -1.044518638249059e-12 0 -0.10000000000018412 -2.4592168579307128e-12 0 -0.099999999999910161 -1.783569819613362e-12 0 -0.10000000000113743 -6.2758132024498536e-13 0 -0.10000000000044015 2.8287094888668207e-13 0 -0.10000000000028252 1.0973240003285534e-13 0 -0.10000000000059453 -2.993091885450383e-13 0 -0.10000000000050815 1.2505968483011998e-13 0 -0.10000000000049264 1.094783985688963e-13 0 -0.10000000000043689 -2.0777823905859805e-13 0 -0.10000000000007137 -2.4513030494333066e-13 0 -0.10000000000053683 5.1837223749573447e-13 0 -0.10000000000108071 1.917459246936204e-13 0 -0.099999999999694389 4.4696885082018412e-13 0 -0.10000000000062334 -2.7016236470167598e-13 0 -0.099999999999545425 4.2275384581902387e-13 0 -0.099999999999985975 5.2157236862804268e-13 0 -0.099999999999865266 1.1004912259249267e-12 0 -0.10000000000043936 8.3701275077618931e-13 0 -0.099999999999627748 2.7592164664191898e-13 0 -0.09999999999979578 7.907147159258443e-13 0 -0.099999999999812447 3.6500663602723193e-13 0 -0.099999999999350775 5.2271728612218737e-13 0 -0.099999999999743003 2.3511401159304057e-13 0 -0.099999999998920217 4.4907480512001996e-13 0 -0.099999999998974992 4.7399237312895082e-13 0 -0.099999999998767367 6.7272576398380579e-14 0 -0.09999999999942874 -1.4990092500610785e-13 0 -0.099999999999444977 -2.4152901900720281e-13 0 -0.09999999999950368 -7.19008186322867e-14 0 -0.099999999999146799 9.9791702679041805e-14 0 -0.099999999999612149 -3.3918874653426911e-13 0 -0.099999999999781264 -3.4520129810200473e-13 0 -0.099999999999730416 -3.5399808084868312e-13 0 -0.099999999999908912 -2.6505707351187624e-13 0 -0.099999999999220046 -1.1606306193900906e-12 0 -0.099999999999261069 7.6862474718275564e-13 0 -0.10000000000025527 -8.0472954688826093e-13 0 -0.10000000000008807 -5.0741355561711998e-13 0 -0.099999999998473713 -7.161216064588416e-13 0 -0.10000000000053956 5.6463167474873899e-13 0 -0.10000000000010294 2.8017171915806216e-13 0 -0.099999999999135697 9.3073595705539525e-13 0 -0.099999999999401915 -2.6020852139652106e-14 0 -0.099999999999454192 5.0527637629471656e-13 0 -0.099999999998275094 1.5245096851579376e-13 0 -0.099999999999555944 2.802064136275817e-13 0 -0.099999999998740138 4.7875592379398313e-13 0 -0.09999999999924078 -4.3641479319234122e-13 0 -0.099999999999429295 -3.2924704629344603e-13 0 -0.10000000000030494 1.5236770178894687e-13 0 -0.09999999999976511 -1.2673022353748564e-13 0 -0.099999999999922456 2.4771157347558415e-13 0 -0.099999999999604683 9.2703622556200571e-15 0 -0.10000000000021707 6.6378976967818026e-13 0 -0.1000000000004234 3.767298972778832e-13 0 -0.10000000000016011 5.1791557154068357e-13 0 -0.10000000000035331 -1.1782241848834474e-14 0 -0.10000000000058183 -5.0459636469213365e-14 0 -0.10000000000046952 -4.2361947283353629e-14 0 -0.10000000000022161 2.1668083993731102e-13 0 -0.10000000000062384 -1.3609599558428442e-13 0 -0.10000000000071334 -3.0380212234781823e-13 0 -0.099999999999794781 5.7037707890117417e-13 0 -0.10000000000012363 -5.5512885954733804e-13 0 -0.1000000000001552 -6.8033079170248811e-13 0 -0.1000000000000727 -5.9319910095112505e-13 0 -0.10000000000040697 -5.839426164833128e-14 0 -0.10000000000012478 -5.7621268867436015e-13 0 -0.10000000000086573 -2.2713547622593699e-13 0 -0.10000000000147599 2.0785456689154103e-14 0 -0.099999999999536487 -5.0144610685975977e-13 0 -0.10000000000079949 4.0883529200952395e-13 0 -0.10000000000123498 -9.2740398693891279e-13 0 -0.1000000000004265 -4.7432890948329032e-13 0 -0.1000000000004974 -4.8748505232509842e-13 0 -0.10000000000088341 -2.4327003085578003e-13 0 -0.10000000000075435 3.1079305795600476e-13 0 -0.10000000000080692 6.9778210987081479e-13 0 -0.10000000000012813 5.8022683879777048e-13 0 -0.099999999999971723 4.3182818432185854e-13 0 -0.10000000000028364 3.9666187001685671e-14 0 -0.09999999999953256 5.8787176515640027e-13 0 -0.099999999999981631 4.6686959853659005e-13 0 -0.10000000000018797 9.5949290179753177e-13 0 -0.099999999999633216 1.0858362819998746e-12 0 -0.099999999999582992 6.0053871597798292e-13 0 -0.10000000000003753 -3.3778882468915583e-13 0 -0.099999999999042299 -1.2076520339299179e-12 0 -0.10000000000075675 1.1088005513748556e-13 0 -0.09999999999991678 -9.3593882644071869e-13 0 -0.099999999999107927 -1.0984269049885143e-13 0 -0.099999999998412525 3.0429131436804369e-13 0 -0.10000000000009143 2.3699965601142736e-13 0 -0.099999999999955569 4.6949596987921893e-13 0 -0.10000000000035633 3.0930893425967082e-13 0 -0.099999999999531117 -3.5637465201077134e-13 0 -0.099999999999306352 -6.115724246469334e-13 0 -0.099999999999962438 -1.0734555605518281e-12 0 -0.099999999999898267 -1.0818568263459838e-12 0 -0.09999999999945991 -1.4658690927760176e-12 0 -0.10000000000091071 2.0188711813418081e-13 0 -0.10000000000029764 -7.0259770224012641e-14 0 -0.099999999998862957 3.2499176960687493e-13 0 -0.099999999999122319 -7.0998762424778761e-14 0 -0.10000000000020227 -9.8531599546092252e-13 0 -0.099999999999425548 8.119347208457306e-13 0 -0.10000000000031145 7.9616868653431538e-14 0 -0.10000000000068313 1.5713992607135907e-14 0 -0.099999999999141553 -7.9370884864538027e-13 0 -0.10000000000096118 2.441848806489233e-13 0 -0.09999999999986528 -6.6675050897080368e-13 0 -0.10000000000031581 1.9165224962591765e-14 0 -0.099999999999936071 5.0622700475955185e-13 0 -0.10000000000057657 -3.6455387320000199e-13 0 -0.10000000000072923 4.7260806379512132e-14 0 -0.10000000000058941 -1.234495144997183e-12 0 -0.099999999999901931 2.0960073954245928e-12 0 -0.1000000000006549 7.9587378354339933e-13 0 -0.099999999998907046 1.6133656910444216e-12 0 -0.099999999999962452 1.0813355419414528e-13 0 -0.099999999999883404 -1.9504536874492828e-13 0 -0.099999999999124178 1.5765166949677223e-13 0 -0.099999999999616979 3.2774173999716716e-13 0 -0.099999999998660161 -8.7242713053825582e-14 0 -0.10000000000011132 -3.4170583029791146e-13 0 -0.10000000000114478 1.5145003307015514e-14 0 -0.10000000000044178 1.7536666563344738e-13 0 -0.099999999999695555 3.8670455726474984e-13 0 -0.099999999999889164 -1.5276668818842154e-13 0 -0.099999999999896672 2.4097390749489023e-13 0 -0.09999999999983257 7.0120992345934496e-14 0 -0.099999999999628525 9.4618757273678966e-14 0 -0.10000000000012312 -1.5283240439260132e-13 0 -0.10000000000019962 1.2240902735882742e-13 0 -0.10000000000061039 3.018071903504449e-13 0 -0.099999999999665648 -3.1833910507650387e-13 0 -0.099999999999487915 -2.7369773114571672e-13 0 -0.10000000000126533 -6.033073346456419e-13 0 -0.10000000000088215 -4.489672522645094e-13 0 -0.10000000000051544 -9.4657788551888444e-14 0 -0.10000000000013078 -1.5390987095909026e-13 0 -0.09999999999940605 -3.5349501104064984e-13 0 -0.10000000000010761 -3.485315334950112e-13 0 -0.099999999999922595 -4.5831394235307243e-14 0 -0.1000000000003172 1.3317819069769143e-13 0 -0.09999999999970266 1.2701714680041221e-12 0 -0.099999999999452402 4.0911371512741823e-13 0 -0.10000000000007903 -6.6687280697586004e-13 0 -0.099999999999711181 4.5336998044653853e-13 0 -0.099999999999806452 3.9524460093698366e-13 0 -0.09999999999946152 -6.6719199609543978e-14 0 -0.099999999999352329 -4.2412601208852152e-13 0 -0.09999999999988797 -2.9834988646282312e-13 0 -0.099999999999665592 -1.7821161213404935e-13 0 -0.099999999999807104 -7.7875206283550824e-14 0 -0.099999999999363681 -3.2167324359733129e-13 0 -0.09999999999978687 4.4927950249018522e-13 0 -0.099999999999806244 4.1333950151489773e-13 0 -0.099999999999453221 -1.8679155444623063e-13 0 -0.099999999999709266 -1.5598633495983449e-13 0 -0.099999999999305852 -4.0437098114409764e-13 0 -0.099999999999621225 -4.3910014513315332e-13 0 -0.099999999999911382 7.5224548812258263e-14 0 -0.10000000000013962 6.8667987962456323e-13 0 -0.10000000000003208 -2.8456013587141449e-13 0 -0.099999999999504458 2.971095591774997e-13 0 -0.099999999999839106 9.8304003826044095e-13 0 -0.10000000000014041 -1.7177405331469942e-13 0 -0.099999999999706241 3.5394603914440381e-13 0 -0.099999999999900058 5.9348359560118524e-14 0 -0.099999999999696221 4.3731164522942123e-13 0 -0.09999999999947172 -6.9055872131684737e-14 0 -0.10000000000002984 2.1545265571631944e-14 0 -0.10000000000013112 6.4309668701412193e-14 0 -0.10000000000029916 2.4564378309221979e-13 0 -0.10000000000070056 -4.7973886148355849e-14 0 
</DataArray>
</CellData>
</Piece>
</UnstructuredGrid>
</VTKFile>
