<?xml version="1.0"?>
<VTKFile type="UnstructuredGrid" version="0.1" byte_order="LittleEndian">
<UnstructuredGrid>
<Piece NumberOfPoints="3764" NumberOfCells="1271">
<Points>
<DataArray type="Float64" NumberOfComponents="3" format="ascii">
1.000000000000000e-01 0.000000000000000e+00 0.000000000000000e+00 1.000000000000000e-01 2.040816326526773e-02 0.000000000000000e+00 1.000000000000000e-01 2.040816326526773e-02 0.000000000000000e+00 1.000000000000000e-01 4.081632653053230e-02 0.000000000000000e+00 1.000000000000000e-01 4.081632653053230e-02 0.000000000000000e+00 1.000000000000000e-01 6.122448979579424e-02 0.000000000000000e+00 1.000000000000000e-01 6.122448979579424e-02 0.000000000000000e+00 1.000000000000000e-01 8.163265306106718e-02 0.000000000000000e+00 1.000000000000000e-01 8.163265306106718e-02 0.000000000000000e+00 1.000000000000000e-01 1.020408163263421e-01 0.000000000000000e+00 1.000000000000000e-01 1.020408163263421e-01 0.000000000000000e+00 1.000000000000000e-01 1.224489795916153e-01 0.000000000000000e+00 1.000000000000000e-01 1.224489795916153e-01 0.000000000000000e+00 1.000000000000000e-01 1.428571428568673e-01 0.000000000000000e+00 1.000000000000000e-01 1.428571428568673e-01 0.000000000000000e+00 1.000000000000000e-01 1.632653061221139e-01 0.000000000000000e+00 1.000000000000000e-01 1.632653061221139e-01 0.000000000000000e+00 1.000000000000000e-01 1.836734693873606e-01 0.000000000000000e+00 1.000000000000000e-01 1.836734693873606e-01 0.000000000000000e+00 1.000000000000000e-01 2.040816326526072e-01 0.000000000000000e+00 1.000000000000000e-01 2.040816326526072e-01 0.000000000000000e+00 1.000000000000000e-01 2.244897959178539e-01 0.000000000000000e+00 1.000000000000000e-01 2.244897959178539e-01 0.000000000000000e+00 1.000000000000000e-01 2.448979591831005e-01 0.000000000000000e+00 1.000000000000000e-01 2.448979591831005e-01 0.000000000000000e+00 1.000000000000000e-01 2.653061224483471e-01 0.000000000000000e+00 1.000000000000000e-01 2.653061224483471e-01 0.000000000000000e+00 1.000000000000000e-01 2.857142857135938e-01 0.000000000000000e+00 1.000000000000000e-01 2.857142857135938e-01 0.000000000000000e+00 1.000000000000000e-01 3.061224489788404e-01 0.000000000000000e+00 1.000000000000000e-01 3.061224489788404e-01 0.000000000000000e+00 1.000000000000000e-01 3.265306122440871e-01 0.000000000000000e+00 1.000000000000000e-01 3.265306122440871e-01 0.000000000000000e+00 1.000000000000000e-01 3.469387755093337e-01 0.000000000000000e+00 1.000000000000000e-01 3.469387755093337e-01 0.000000000000000e+00 1.000000000000000e-01 3.673469387745804e-01 0.000000000000000e+00 1.000000000000000e-01 3.673469387745804e-01 0.000000000000000e+00 1.000000000000000e-01 3.877551020398269e-01 0.000000000000000e+00 1.000000000000000e-01 3.877551020398269e-01 0.000000000000000e+00 1.000000000000000e-01 4.081632653050736e-01 0.000000000000000e+00 1.000000000000000e-01 4.081632653050736e-01 0.000000000000000e+00 1.000000000000000e-01 4.285714285703202e-01 0.000000000000000e+00 1.000000000000000e-01 4.285714285703202e-01 0.000000000000000e+00 1.000000000000000e-01 4.489795918355669e-01 0.000000000000000e+00 1.000000000000000e-01 4.489795918355669e-01 0.000000000000000e+00 1.000000000000000e-01 4.693877551008135e-01 0.000000000000000e+00 1.000000000000000e-01 4.693877551008135e-01 0.000000000000000e+00 1.000000000000000e-01 4.897959183660601e-01 0.000000000000000e+00 1.000000000000000e-01 4.897959183660601e-01 0.000000000000000e+00 1.000000000000000e-01 5.102040816313634e-01 0.000000000000000e+00 1.000000000000000e-01 5.102040816313634e-01 0.000000000000000e+00 1.000000000000000e-01 5.306122448967233e-01 0.000000000000000e+00 1.000000000000000e-01 5.306122448967233e-01 0.000000000000000e+00 1.000000000000000e-01 5.510204081620832e-01 0.000000000000000e+00 1.000000000000000e-01 5.510204081620832e-01 0.000000000000000e+00 1.000000000000000e-01 5.714285714274430e-01 0.000000000000000e+00 1.000000000000000e-01 5.714285714274430e-01 0.000000000000000e+00 1.000000000000000e-01 5.918367346928030e-01 0.000000000000000e+00 1.000000000000000e-01 5.918367346928030e-01 0.000000000000000e+00 1.000000000000000e-01 6.122448979581627e-01 0.000000000000000e+00 1.000000000000000e-01 6.122448979581627e-01 0.000000000000000e+00 1.000000000000000e-01 6.326530612235226e-01 0.000000000000000e+00 1.000000000000000e-01 6.326530612235226e-01 0.000000000000000e+00 1.000000000000000e-01 6.530612244888825e-01 0.000000000000000e+00 1.000000000000000e-01 6.530612244888825e-01 0.000000000000000e+00 1.000000000000000e-01 6.734693877542424e-01 0.000000000000000e+00 1.000000000000000e-01 6.734693877542424e-01 0.000000000000000e+00 1.000000000000000e-01 6.938775510196021e-01 0.000000000000000e+00 1.000000000000000e-01 6.938775510196021e-01 0.000000000000000e+00 1.000000000000000e-01 7.142857142849620e-01 0.000000000000000e+00 1.000000000000000e-01 7.142857142849620e-01 0.000000000000000e+00 1.000000000000000e-01 7.346938775503219e-01 0.000000000000000e+00 1.000000000000000e-01 7.346938775503219e-01 0.000000000000000e+00 1.000000000000000e-01 7.551020408156818e-01 0.000000000000000e+00 1.000000000000000e-01 7.551020408156818e-01 0.000000000000000e+00 1.000000000000000e-01 7.755102040810415e-01 0.000000000000000e+00 1.000000000000000e-01 7.755102040810415e-01 0.000000000000000e+00 1.000000000000000e-01 7.959183673464014e-01 0.000000000000000e+00 1.000000000000000e-01 7.959183673464014e-01 0.000000000000000e+00 1.000000000000000e-01 8.163265306117613e-01 0.000000000000000e+00 1.000000000000000e-01 8.163265306117613e-01 0.000000000000000e+00 1.000000000000000e-01 8.367346938771211e-01 0.000000000000000e+00 1.000000000000000e-01 8.367346938771211e-01 0.000000000000000e+00 1.000000000000000e-01 8.571428571424810e-01 0.000000000000000e+00 1.000000000000000e-01 8.571428571424810e-01 0.000000000000000e+00 1.000000000000000e-01 8.775510204078409e-01 0.000000000000000e+00 1.000000000000000e-01 8.775510204078409e-01 0.000000000000000e+00 1.000000000000000e-01 8.979591836732008e-01 0.000000000000000e+00 1.000000000000000e-01 8.979591836732008e-01 0.000000000000000e+00 1.000000000000000e-01 9.183673469385606e-01 0.000000000000000e+00 1.000000000000000e-01 9.183673469385606e-01 0.000000000000000e+00 1.000000000000000e-01 9.387755102039205e-01 0.000000000000000e+00 1.000000000000000e-01 9.387755102039205e-01 0.000000000000000e+00 1.000000000000000e-01 9.591836734692804e-01 0.000000000000000e+00 1.000000000000000e-01 9.591836734692804e-01 0.000000000000000e+00 1.000000000000000e-01 9.795918367346401e-01 0.000000000000000e+00 1.000000000000000e-01 9.795918367346401e-01 0.000000000000000e+00 1.000000000000000e-01 1.000000000000000e+00 0.000000000000000e+00 4.999999999998959e-02 5.114756178172757e-01 0.000000000000000e+00 6.228151969683019e-02 5.312445519176795e-01 0.000000000000000e+00 3.751914167667291e-02 5.312592799347757e-01 0.000000000000000e+00 3.133542164424451e-02 4.639238697356087e-01 0.000000000000000e+00 2.409851663476202e-02 4.410528110032798e-01 0.000000000000000e+00 4.648260855400819e-02 4.547803401498470e-01 0.000000000000000e+00 0.000000000000000e+00 9.387755102038267e-01 0.000000000000000e+00 0.000000000000000e+00 9.183673469384355e-01 0.000000000000000e+00 1.944462618255723e-02 9.288128947356744e-01 0.000000000000000e+00 1.000000000000000e-01 5.306122448967233e-01 0.000000000000000e+00 1.000000000000000e-01 5.510204081620832e-01 0.000000000000000e+00 8.012197144515044e-02 5.416148681194984e-01 0.000000000000000e+00 0.000000000000000e+00 5.510204081649921e-01 0.000000000000000e+00 0.000000000000000e+00 5.306122448998274e-01 0.000000000000000e+00 1.963064815290805e-02 5.416826923830900e-01 0.000000000000000e+00 0.000000000000000e+00 8.571428571424604e-01 0.000000000000000e+00 0.000000000000000e+00 8.367346938772958e-01 0.000000000000000e+00 1.947907892149852e-02 8.466968164341721e-01 0.000000000000000e+00 0.000000000000000e+00 7.959183673469667e-01 0.000000000000000e+00 0.000000000000000e+00 7.755102040818023e-01 0.000000000000000e+00 2.258563083861561e-02 7.856795524796590e-01 0.000000000000000e+00 0.000000000000000e+00 7.346938775514733e-01 0.000000000000000e+00 0.000000000000000e+00 7.142857142863088e-01 0.000000000000000e+00 2.258563083859787e-02 7.244550626841598e-01 0.000000000000000e+00 1.000000000000000e-01 5.918367346928030e-01 0.000000000000000e+00 1.000000000000000e-01 6.122448979581627e-01 0.000000000000000e+00 7.741436916128577e-02 6.020060830913998e-01 0.000000000000000e+00 0.000000000000000e+00 4.489795918386030e-01 0.000000000000000e+00 0.000000000000000e+00 4.285714285732120e-01 0.000000000000000e+00 2.409851663476202e-02 4.410528110032798e-01 0.000000000000000e+00 0.000000000000000e+00 6.734693877559796e-01 0.000000000000000e+00 0.000000000000000e+00 6.530612244908152e-01 0.000000000000000e+00 1.986707969698399e-02 6.633683120936215e-01 0.000000000000000e+00 1.000000000000000e-01 6.530612244888825e-01 0.000000000000000e+00 1.000000000000000e-01 6.734693877542424e-01 0.000000000000000e+00 7.769343978564471e-02 6.632834118678752e-01 0.000000000000000e+00 0.000000000000000e+00 3.877551020424299e-01 0.000000000000000e+00 0.000000000000000e+00 3.673469387770387e-01 0.000000000000000e+00 2.258563083872488e-02 3.775857536437918e-01 0.000000000000000e+00 0.000000000000000e+00 6.122448979604860e-01 0.000000000000000e+00 0.000000000000000e+00 5.918367346953213e-01 0.000000000000000e+00 1.954480862887780e-02 6.024198660057475e-01 0.000000000000000e+00 1.000000000000000e-01 7.142857142849620e-01 0.000000000000000e+00 1.000000000000000e-01 7.346938775503219e-01 0.000000000000000e+00 8.045519137097396e-02 7.248688455956910e-01 0.000000000000000e+00 0.000000000000000e+00 3.265306122462567e-01 0.000000000000000e+00 0.000000000000000e+00 3.061224489808657e-01 0.000000000000000e+00 2.261300864914188e-02 3.164931898911296e-01 0.000000000000000e+00 1.000000000000000e-01 1.224489795916153e-01 0.000000000000000e+00 1.000000000000000e-01 1.428571428568673e-01 0.000000000000
[...]
<PointData Scalars="temperature," Vectors="" Tensors="">
<DataArray type="Float64" Name="temperature" format="ascii">
1.000707675491399e+00 9.996535568523056e-01 1.000078384255578e+00 9.971209317459726e-01 9.975766830981923e-01 9.925592832016745e-01 9.930351749904941e-01 9.858798136981687e-01 9.863094882788093e-01 9.771224916307942e-01 9.775296506686454e-01 9.664477480050108e-01 9.668006152510468e-01 9.540845826095534e-01 9.543605022262748e-01 9.402937989956190e-01 9.405212326417318e-01 9.253263699657603e-01 9.254994963783666e-01 9.094269413423209e-01 9.095530115863351e-01 8.928123496394837e-01 8.929031123615274e-01 8.756565521533456e-01 8.757149357532706e-01 8.581122630749239e-01 8.581490107589119e-01 8.403068559204198e-01 8.403261438699554e-01 8.223201703414510e-01 8.223153644552520e-01 8.042299818861320e-01 8.042146731577322e-01 7.861285900746999e-01 7.861154151241709e-01 7.680443127538997e-01 7.680209391783631e-01 7.500070284948863e-01 7.499743018624707e-01 7.320583588321241e-01 7.320212907643000e-01 7.142344290071018e-01 7.141857334451184e-01 6.965484902006329e-01 6.965031197174193e-01 6.790051942662262e-01 6.789573099074995e-01 6.616301158596724e-01 6.615855630011603e-01 6.444354443693177e-01 6.443880409061259e-01 6.274508354195307e-01 6.274008059968655e-01 6.106668686157884e-01 6.106091507403782e-01 5.941136682908769e-01 5.940554159630109e-01 5.777864068006463e-01 5.777163897814005e-01 5.616904733786554e-01 5.616134471977270e-01 5.458529219607354e-01 5.457947567569650e-01 5.302751308651350e-01 5.302135106502979e-01 5.149577163806223e-01 5.148831377229760e-01 4.998940859959931e-01 4.998282332579398e-01 4.851227824914486e-01 4.850586457861602e-01 4.706160049923884e-01 4.705498699859627e-01 4.563978135918026e-01 4.563270754465563e-01 4.424654123989973e-01 4.424002120364450e-01 4.288016622278759e-01 4.287341202257060e-01 4.154203509808415e-01 4.153484050355901e-01 4.023343011183187e-01 4.022736562922550e-01 3.895438627814483e-01 3.894798495332058e-01 3.770369159858459e-01 3.769730339365799e-01 3.648367815570793e-01 3.647642208411291e-01 3.529193677713670e-01 3.528433315383114e-01 3.413378243497524e-01 3.412598036589625e-01 3.300736351306746e-01 3.299624459809316e-01 3.191709229637185e-01 3.189198787258490e-01 3.089452843107230e-01 3.092952715309317e-01 3.349469507819091e-01 2.574739219611183e-01 2.847192565226373e-01 2.802083188424634e-01 3.222331202802374e-01 9.557431420995757e-02 9.931596121789620e-02 1.006763174386889e-01 5.324526275788408e-01 5.175910903882626e-01 4.063235875432375e-01 2.111888363097455e-01 2.203329359498017e-01 2.214802428419398e-01 1.126231614510810e-01 1.174377545819922e-01 1.188667578222755e-01 1.279812633613535e-01 1.336229005940371e-01 1.365224201814384e-01 1.454720265980922e-01 1.518034036558222e-01 1.549218582749760e-01 4.869452684982467e-01 4.734220095392252e-01 3.538545506666664e-01 2.581068910274123e-01 2.690444215585127e-01 2.728452883856883e-01 1.651816803393613e-01 1.721818874428733e-01 1.739141076554608e-01 4.442903762960559e-01 4.315761054857818e-01 3.201982137501609e-01 2.917803347975392e-01 3.042882236670696e-01 3.079368461128807e-01 1.869848408994459e-01 1.948780109051162e-01 1.963027990745308e-01 4.042877635196779e-01 3.922627371819623e-01 3.004857283109081e-01 3.320101731287403e-01 3.478427830215011e-01 3.503001757757258e-01 9.000325220580611e-01 8.739091090534675e-01 7.798920967342041e-01 9.618457282310700e-01 9.369299788413383e-01 8.982184114070986e-01 3.850644682834684e-01 4.075208785684563e-01 4.070383483467828e-01 8.349748398968995e-01 8.127602130049862e-01 7.045397895245429e-01 3.666644820496114e-01 3.555851255786296e-01 2.696348807883661e-01 4.639565934936439e-01 4.991016262911049e-01 4.918785867478486e-01 7.743288657921765e-01 7.547867890044325e-01 6.353205792464527e-01 5.888639266525416e-01 6.425197737479011e-01 6.229308716100445e-01 7.176876848323783e-01 6.998453431690455e-01 5.773046381794812e-01 7.687484017718053e-01 8.340723682545631e-01 8.065546555664550e-01 6.640054795435132e-01 6.472944209949247e-01 5.261202266795232e-01 6.126597919084343e-01 5.969813997485092e-01 4.805340697183261e-01 1.082867096119253e-01 1.364645465277226e-01 1.209807493484875e-01 9.273417575679332e-01 8.999930712982620e-01 9.603125819035920e-01 3.440841171449463e-01 3.288799604807281e-01 2.733373408633845e-01 1.625995111685787e-01 1.354550657477521e-01 1.892797339925180e-01 8.320901559598842e-01 8.740813135899448e-01 8.088126862148644e-01 1.587838128298249e-01 1.179173926003357e-01 1.394172671418622e-01 9.181541294005952e-01 9.640557976279900e-01 8.963313880431109e-01 1.593786461033136e-01 1.930773916308807e-01 2.151652498335763e-01 2.822732851625432e-01 2.574770211196596e-01 2.841686264189633e-01 2.896746842366991e-01 2.584178091747945e-01 3.339932998847777e-01 1.897843271348463e-01 1.353115478979478e-01 1.714832581563209e-01 1.378220712071550e-01 1.676729362765479e-01 1.396312772910886e-01 9.679400254751434e-02 1.061177147814245e-01 1.034392958168327e-01 9.934374434891914e-02 9.510928981094241e-02 1.155771793131457e-01 1.006544533481561e+00 9.654818513234442e-01 9.627008244760386e-01 2.525801414312136e-01 2.781285577735436e-01 2.615781152284840e-01 5.917575724639574e-01 4.879130974173004e-01 4.859550449139232e-01 1.096792357942829e-01 1.217584479591565e-01 1.159361918463517e-01 4.247680388923682e-01 3.359279663583669e-01 3.266956478528600e-01 3.866316834620206e-01 3.035501797940903e-01 3.060231894541404e-01 4.933645326910668e-01 5.326496165996329e-01 4.978335598656531e-01 6.395566872584041e-01 6.824152181872377e-01 6.262287159733809e-01 3.501518501904092e-01 2.744477628004550e-01 2.750270110612211e-01 1.824090106249606e-01 2.006517704891722e-01 1.920153939644830e-01 7.698711009559976e-01 6.400154529871789e-01 6.732838007213523e-01 7.131366080686136e-01 5.820199421644106e-01 6.130413177088310e-01 6.593154112058013e-01 5.309378113633340e-01 5.604103388535172e-01 6.080005258155550e-01 4.853721085038313e-01 5.123287172455621e-01 2.064004265605715e-01 2.260596131432714e-01 2.164631819439227e-01 2.613323707561634e-01 2.871885268297543e-01 2.807328949938039e-01 4.664414784556242e-01 3.697057074318359e-01 3.606275789476270e-01 2.970347409673750e-01 3.242239310958837e-01 3.154655331846844e-01 3.404136901298152e-01 3.704234356561529e-01 3.579793745282773e-01 4.005098343543784e-01 4.342718175870506e-01 4.143512244114866e-01 1.142737287991430e-01 1.264423593508978e-01 1.222150083018120e-01 1.238226898114590e-01 1.404092033938125e-01 1.327540446450707e-01 1.293283044869594e-01 1.442564495061893e-01 1.409664468526454e-01 1.408976319496100e-01 1.591968071830417e-01 1.506663205122694e-01 1.471164249634546e-01 1.635191104915050e-01 1.597792291446161e-01 1.608665225878079e-01 1.780430408550369e-01 1.702037751644246e-01 8.939769788890572e-01 7.866267190049644e-01 8.328971463896796e-01 8.728577206748301e-01 7.741851512449436e-01 7.793579362895879e-01 9.378251807733402e-01 8.733537128302322e-01 8.957059786002720e-01 8.303755728636528e-01 7.095793946577496e-01 7.433496508807812e-01 4.573994842492465e-01 4.980475194127588e-01 4.616458700658375e-01 4.385610727557281e-01 3.259461580264860e-01 3.590837579752505e-01 3.777682662528282e-01 4.138655625848148e-01 3.888926797850508e-01 4.811071701456079e-01 3.597457590635850e-01 3.966683206910473e-01 3.245513633679643e-01 3.572315856672731e-01 3.383459699578275e-01 2.846134737968706e-01 3.146047115253880e-01 2.987789133953040e-01 5.118625202207172e-01 4.091368561228996e-01 4.120838854022725e-01 5.275730441824112e-01 4.117146365216353e-01 4.389054525041495e-01 2.153406944959312e-01 2.327928637098481e-01 2.270053381827162e-01 9.570801289800420e-01 9.040416096866317e-01 9.358470038955454e-01 9.744317196948062e-01 9.424360657121534e-01 9.661440728846288e-01 9.009975080640652e-02 9.850952543519757e-02 9.659543612992813e-02 9.313966471792058e-02 1.030670653392221e-01 9.896711738612640e-02 2.620645529183628e-01 3.224465032662920e-01 3.581455403374792e-01 2.363084287124581e-01 2.906241184527809e-01 3.244497800480227e-01 1.765782055546612e-01 1.385324433586904e-01 1.620531326300961e-01 3.752385814568609e-01 3.342633993274388e-01 3.120917601797255e-01 4.209081918281050e-01 3.763488279334200e-01 3.546057944029689e-01 1.988351225313283e-01 1.571675775395507e-01 1.829804460122848e-01 4.785405329133226e-01 4.294005315468696e-01 4.111322619200747e-01 4.955201676206753e-01 5.567892191840638e-01 5.039734507463304e-01 6.883966556761169e-01 7.825776505378138e-01 7.126433568669022e-01 2.367391040994230e-01 3.235151466261044e-01 2.779999488375730e-01 4.968598507662906e-01 5.498902860314691e-01 5.557832085080132e-01 5.369066456306348e-01 5.764653460535496e-01 5.311807179282635e-01 4.128440604962862e-01 3.249023792569247e-01 3.357277029139056e-01 7.007827991947072e-01 7.453938756267557e-01 6.814542671251759e-01 3.745605060621807e-01 2.907174766982227e-01 3.038693111784487e-01 7.900649879964061e-01 6.740761594755668e-01 6.962712262460075e-01 7.320612651313303e-01 6.128811980387237e-01 6.299354647924365e-01 6.773591269199599e-01 5.597773954879542e-01 5.752847822724195e-01 6.251887215346382e-01 5.114846732798312e-01 5.258212431486472e-01 1.753515024759622e-01 1.913379071220079e-01 1.841462569604341e-01 1.677972483351583e-01 1.841184548743846e-01 1.785391224466709e-01 1.902328504201726e-01 2.074000970995492e-01 2.011948165633219e-01 8.099101729951894e-01 6.981530677215793e-01 7.067388538583380e-01 3.995514565150490e-01 3.053220213246603e-01 3.257631190361880e-01 3.619959391376149e-01 2.743871817817783e-01 2.917106759585803e-01 7.505482520539519e-01 6.306649697733127e-01 6.392408300783116e-01 6.948387978679632e-01 5.754317243256750e-01 5.821790337659200e-01 5.847207481984152e-01 6.270293630559660e-01 5.764798362762837e-01 6.418321343883293e-01 5.257075608755843e-01 5.315305840933521e-01 7.654522454890003e-01 8.097681215202078e-01 7.450306281115670e-01 2.629149065470420e-01 3.568638571474091e-01 3.044459034106826e-01 3.403165364387648e-01 2.778164867315523e-01 3.170125547980302e-01 3.762404474171659e-01 3.117095013306488e-01 3.547667843681412e-01 4.217110435793309e-01 3.544226453769151e-01 4.010701744356863e-01 4.789185650666122e-01 4.113345084208045e-01 4.623413605684945e-01 1.760736124889270e-01 1.538896552456524e-01 1.387152272783143e-01 1.982941924649074e-01 1.738995999219402e-01 1.573476993803274e-01 6.929819410633745e-01 7.648827552341708e-01 7.782648823755439e-01 1.986255933302610e-01 2.156183126405906e-01 2.075059591933402e-01 1.038278648802223e-01 1.057398919116913e-01 1.178900422713654e-01 2.626176653206355e-01 2.180762589793087e-01 2.291288461775026e-01 4.790603944025465e-01 5.743281009111934e-01 5.480129043309434e-01 4.214175162616158e-01 5.138600092207090e-01 4.927107866835513e-01 3.756731578367998e-01 4.638844074178062e-01 4.455356994265552e-01 1.757520058678041e-01 2.280292626474095e-01 2.220391378087733e-01 6.900613134704547e-01 6.272678073013270e-01 6.767561710853973e-01 1.980595218832540e-01 2.551431405222908e-01 2.479575462749887e-01 5.571737960684240e-01 4.499635560811257e-01 4.313082848647951e-01 2.321404617199330e-01 2.528774823780649e-01 2.425438898804649e-01 1.988899223472793e-01 2.286582714986199e-01 2.192134143401505e-01 6.372552660013380e-01 5.486329805170548e-01 5.746058248641618e-01 5.796476884897593e-01 4.926535437864529e-01 5.148516428929618e-01 5.287845482847674e-01 4.451667277342724e-01 4.651700067203818e-01 2.728408341967791e-01 2.218939447728548e-01 2.287082759507405e-01 6.258279231088173e-01 6.795735360890611e-01 6.253167038709668e-01 3.036412149539121e-01 2.477529072980262e-01 2.558974138851492e-01 2.750881298618927e-01 1.889254638564630e-01 2.271282770494601e-01 9.930040413714430e-01 9.737317970163623e-01 9.680826689130551e-01 9.049702588572871e-02 9.265026606141182e-02 9.410572253152349e-02 2.741788021599567e-01 2.179698103156129e-01 1.895583936900040e-01 1.203481999990139e-01 1.202662483322861e-01 1.036945685451698e-01 1.227148172346865e-01 1.336852286449312e-01 1.151799935319012e-01 4.535982547699390e-01 3.576676064551674e-01 3.695804195707620e-01 2.743852121035469e-01 2.975346416304628e-01 2.865050012434820e-01 3.117279842759296e-01 3.371013150499900e-01 3.235973401319181e-01 3.595471092687296e-01 3.877915483027703e-01 3.696283025874001e-01 4.283230322454658e-01 4.608556020020099e-01 4.332496843472953e-01 1.194902029225079e-01 1.319309982105957e-01 1.265528336546019e-01 9.166621003910130e-01 8.378921434933957e-01 8.672605063602795e-01 1.359147601956801e-01 1.498069405775886e-01 1.439501736846267e-01 8.519234809534627e-01 7.460803818544545e-01 7.702263496620880e-01 1.546211242193587e-01 1.695902297586299e-01 1.631388934024491e-01 9.984100515485383e-01 1.004445554763890e+00 9.657487111581724e-01 1.268619624150920e-01 9.496929923570487e-02 1.201862497366671e-01 4.972826032098538e-01 3.951187806145792e-01 4.093894569698471e-01 4.864261381703032e-01 4.875773587135737e-01 3.961013221701107e-01 2.367688201200848e-01 1.962958758200570e-01 2.045742877494285e-01 5.566286757421514e-01 6.476775422488980e-01 6.166431649772396e-01 5.586095055749410e-01 4.306470982258951e-01 4.717219471830462e-01 2.326142988540715e-01 2.560022269308738e-01 2.529603074601073e-01 8.354079275627744e-01 8.985356799361182e-01 8.710293452322457e-01 3.912026362434650e-01 3.269768993111932e-01 3.278655690752560e-01 3.964008064526709e-01 3.227190310092554e-01 4.009355091993462e-01 8.376569245708769e-01 7.921539192355058e-01 8.535288235252811e-01 1.761481031574953e-01 2.043707021396106e-01 1.970186699212550e-01 7.057266807618542e-01 6.188812632480601e-01 6.460352133043160e-01 2.656388193097691e-01 3.355581481581785e-01 3.258580137217079e-01 5.785474123392178e-01 5.325362312332416e-01 5.758148934982592e-01 2.375108433151312e-01 3.032945835371401e-01 2.920497777280665e-01 7.310065600874408e-01 6.830592431565000e-01 7.441769036729284e-01 5.978407807316370e-01 6.976260259732437e-01 6.731271821689117e-01 5.322702220510908e-01 6.303760600027796e-01 6.129716874545759e-01 4.794668093618040e-01 5.751957514073515e-01 5.604278781232711e-01 4.335707869125474e-01 5.255027419958227e-01 5.123865504908909e-01 2.061415369577647e-01 1.842519371143613e-01 1.918373905136613e-01 2.315110640032002e-01 2.074075561977329e-01 2.162545261377085e-01 8.082454082274133e-01 8.566424411663008e-01 7.892881113103998e-01 8.977579889507710e-01 8.870202347173964e-01 9.422626283244033e-01 9.302248002972889e-01 9.742886415429221e-01 9.352936782013368e-01 1.084445935632812e-01 9.719634590226195e-02 9.835156412315932e-02 1.038917290544205e-01 1.138866337340836e-01 9.833670798505066e-02 1.282909417760087e-01 1.130835143761436e-01 1.359125168952130e-01 3.410402476117363e-01 4.198940003632252e-01 4.017286673513538e-01 1.259779435280530e-01 1.598946197272898e-01 1.369000713547194e-01 1.665460638100357e-01 1.333394740637013e-01 1.639195708540667e-01 3.964903447508456e-01 4.011409062597838e-01 4.826205774094880e-01 1.621104719448200e-01 1.363655662665125e-01 1.415664928244362e-01 3.100124323100219e-01 3.001559262777683e-01 2.398795430027844e-01 2.926315553431110e-01 3.691442297712789e-01 3.588250180506756e-01 3.185430150772540e-01 2.867642504409230e-01 2.982019124042707e-01 3.584189390187231e-01 3.238177592685019e-01 3.378170003203393e-01 4.077427655152554e-01 3.700205063323511e-01 3.883120690181778e-01 4.756601153211873e-01 4.339085438714131e-01 4.610507650250339e-01 7.987099019497579e-01 8.729679305161702e-01 8.325608623070508e-01 1.443563829386526e-01 1.263251409645064e-01 1.325354786056622e-01 6.796228021674700e-01 7.737907877559055e-01 7.429396262079896e-01 1.635374162508509e-01 1.439155221032848e-01 1.503418695080975e-01 1.845506798180044e-01 1.632173404777100e-01 1.699385470758264e-01 9.894409570015375e-02 9.205597785745231e-02 9.732721942834006e-02 9.972293460924696e-01 9.913020453845205e-01 9.736148982825316e-01 3.252844795958636e-01 4.086657747889730e-01 3.963745779815670e-01 8.380720713904833e-01 8.913913845103458e-01 8.400158725244971e-01 2.564015644928154e-01 3.033250602072706e-01 2.648160014569140e-01 3.742763733183874e-01 3.416083927804860e-01 3.041660780213673e-01 2.855545875440690e-01 2.445568704288683e-01 2.637748134547042e-01 9.316379117541626e-01 9.554466248984322e-01 9.716877505791650e-01 1.112006462167834e-01 1.179272239831623e-01 9.387607470660239e-02 1.287180787941908e-01 1.341917228029245e-01 1.091598811756713e-01 1.209164044394306e-01 1.093646836069743e-01 1.337215501925381e-01 3.278204770664833e-01 2.377594766211119e-01 2.764521815256002e-01 4.829179486084191e-01 4.003266659816181e-01 4.219125197437044e-01 1.202357033549710e-01 1.414584049887879e-01 1.364822639201347e-01 2.842819658233303e-01 2.827914315944668e-01 2.506600462087526e-01 3.969724591733098e-01 4.657924961743088e-01 3.749935873914535e-01 8.983509878726464e-01 8.453744969958780e-01 8.858780400862979e-01 3.264495458243273e-01 2.598862341159470e-01 2.385227910155688e-01 1.103083810552856e-01 9.645888695298931e-02 1.157449888256344e-01 4.305762394903967e-01 4.183161388993442e-01 3.306797778357499e-01 4.998345886493073e-01 5.409981279493106e-01 5.272876900328585e-01 3.914967815100471e-01 3.798291047688246e-01 2.989693674345591e-01 6.434837769288123e-01 7.031718797823401e-01 6.790094864445655e-01 3.546078957437930e-01 3.440391246470776e-01 2.701395090189045e-01 1.796480380457463e-01 1.870418827143491e-01 1.875212051326985e-01 7.940888266229544e-01 7.738498080895552e-01 6.700204817370553e-01 7.362960324363611e-01 7.179579449594757e-01 6.087624577067118e-01 6.817460493432972e-01 6.646291148671207e-01 5.555602603890617e-01 6.296809461490530e-01 6.135285699693489e-01 5.071841759736844e-01 2.030970021564776e-01 2.113953667764871e-01 2.116024624072376e-01 2.690694677864853e-01 2.804722459451775e-01 2.807538634555501e-01 3.045197236440366e-01 3.179029268520994e-01 3.176224847541344e-01 4.723496254476818e-01 4.593299010336296e-01 3.642138124760835e-01 3.481321816907635e-01 3.656768971152803e-01 3.636940986074754e-01 4.079345285212250e-01 4.339148661873510e-01 4.278234190444743e-01 1.176188165062240e-01 1.227037332220934e-01 1.233736729328724e-01 1.228289170586183e-01 1.278513523202539e-01 1.289145406722726e-01 1.337485386476581e-01 1.396162523483302e-01 1.403724715290331e-01 1.396830289438426e-01 1.453435588050493e-01 1.464437115430350e-01 1.519312398269924e-01 1.585717428301041e-01 1.592779209169558e-01 1.585858929677602e-01 1.651582050820332e-01 1.659778851963837e-01 9.211349003880253e-01 8.955428891580535e-01 8.327745827887885e-01 9.419347701879229e-01 9.168172020233433e-01 8.685970712218791e-01 8.775624483288458e-01 8.537742296719648e-01 7.695674072369709e-01 8.561046675311785e-01 8.330756513095450e-01 7.416228298125729e-01 4.341334200556111e-01 4.636411136479460e-01 4.557319441981962e-01 3.658464573089907e-01 3.848237974197351e-01 3.822119644477139e-01 4.584853705339152e-01 4.452405393215709e-01 3.530626886769609e-01 3.180447504554906e-01 3.317910803750735e-01 3.315003689176725e-01 5.020603277061234e-01 4.879128549934445e-01 3.905573614596443e-01 2.804544786546358e-01 2.915719867405780e-01 2.922071576884614e-01 5.169396058056424e-01 5.027717340321475e-01 4.041536009618302e-01 1.658648221089682e-01 1.515868226866215e-01 1.336942912838456e-01 1.180250218122629e-01 1.367166236887181e-01 1.484817498372282e-01 5.640649233983073e-01 5.484108823631256e-01 4.439913502146348e-01 2.290334420019134e-01 2.389606896750628e-01 2.365348171978430e-01 7.981394432772337e-01 7.375888906204868e-01 7.848656138466685e-01 7.307733610388641e-01 7.880993198816373e-01 7.344586130134078e-01 6.790015901655033e-01 6.037864543014382e-01 6.438401222599147e-01 5.969441333055134e-01 5.201949323024940e-01 5.403230120392468e-01 5.312876170174500e-01 4.565295628994482e-01 4.706934721507215e-01 4.785770301459223e-01 4.071657716252019e-01 4.181707434198498e-01 4.328528104065473e-01 3.657384750597366e-01 3.747399184185620e-01 5.782902041041009e-01 6.450446608494939e-01 6.026509506155661e-01 4.760591791600275e-01 5.415376748096192e-01 5.191570979100786e-01 4.080067578884807e-01 4.71204147839679