<?xml version="1.0"?>
<VTKFile type="UnstructuredGrid" version="0.1" byte_order="LittleEndian">
<UnstructuredGrid>
<Piece NumberOfPoints="2028" NumberOfCells="724">
<Points>
<DataArray type="Float64" NumberOfComponents="3" format="ascii">
6.000000000000000e-01 7.000000000000000e-01 0.000000000000000e+00 9.499999999992372e-01 1.274999999998747e+00 0.000000000000000e+00 9.499999999992372e-01 1.274999999998747e+00 0.000000000000000e+00 1.299999999998378e+00 1.849999999997335e+00 0.000000000000000e+00 1.299999999998378e+00 1.849999999997335e+00 0.000000000000000e+00 1.649999999999066e+00 2.424999999998465e+00 0.000000000000000e+00 1.649999999999066e+00 2.424999999998465e+00 0.000000000000000e+00 2.000000000000000e+00 3.000000000000000e+00 0.000000000000000e+00 5.750000000000000e+00 7.000000000000000e-01 0.000000000000000e+00 5.500000000000827e+00 1.199999999998346e+00 0.000000000000000e+00 5.500000000000827e+00 1.199999999998346e+00 0.000000000000000e+00 5.250000000000705e+00 1.699999999998589e+00 0.000000000000000e+00 5.250000000000705e+00 1.699999999998589e+00 0.000000000000000e+00 5.000000000000000e+00 2.200000000000000e+00 0.000000000000000e+00 5.000000000000000e+00 2.200000000000000e+00 0.000000000000000e+00 4.400000000000134e+00 2.359999999999964e+00 0.000000000000000e+00 4.400000000000134e+00 2.359999999999964e+00 0.000000000000000e+00 3.800000000000203e+00 2.519999999999946e+00 0.000000000000000e+00 3.800000000000203e+00 2.519999999999946e+00 0.000000000000000e+00 3.200000000000143e+00 2.679999999999962e+00 0.000000000000000e+00 3.200000000000143e+00 2.679999999999962e+00 0.000000000000000e+00 2.600000000000082e+00 2.839999999999978e+00 0.000000000000000e+00 2.600000000000082e+00 2.839999999999978e+00 0.000000000000000e+00 2.000000000000000e+00 3.000000000000000e+00 0.000000000000000e+00 2.000000000000000e+00 3.000000000000000e+00 0.000000000000000e+00 2.083333333332920e+00 3.599999999997022e+00 0.000000000000000e+00 2.083333333332920e+00 3.599999999997022e+00 0.000000000000000e+00 2.166666666666273e+00 4.199999999997162e+00 0.000000000000000e+00 2.166666666666273e+00 4.199999999997162e+00 0.000000000000000e+00 2.250000000000000e+00 4.800000000000000e+00 0.000000000000000e+00 2.250000000000000e+00 4.800000000000000e+00 0.000000000000000e+00 1.750000000000000e+00 5.000000000000000e+00 0.000000000000000e+00 2.250000000000000e+00 4.800000000000000e+00 0.000000000000000e+00 2.833333333333118e+00 5.099999999999890e+00 0.000000000000000e+00 2.833333333333118e+00 5.099999999999890e+00 0.000000000000000e+00 3.416666666667265e+00 5.400000000000308e+00 0.000000000000000e+00 3.416666666667265e+00 5.400000000000308e+00 0.000000000000000e+00 4.000000000000000e+00 5.700000000000000e+00 0.000000000000000e+00 4.000000000000000e+00 5.700000000000000e+00 0.000000000000000e+00 3.625000000007225e+00 5.999999999994220e+00 0.000000000000000e+00 3.625000000007225e+00 5.999999999994220e+00 0.000000000000000e+00 3.250000000000000e+00 6.300000000000000e+00 0.000000000000000e+00 4.000000000000000e+00 5.700000000000000e+00 0.000000000000000e+00 4.499999999999542e+00 5.999999999999726e+00 0.000000000000000e+00 4.499999999999542e+00 5.999999999999726e+00 0.000000000000000e+00 5.000000000000000e+00 6.300000000000000e+00 0.000000000000000e+00 6.000000000000000e+00 3.800000000000000e+00 0.000000000000000e+00 6.374999999999935e+00 3.899999999999983e+00 0.000000000000000e+00 6.374999999999935e+00 3.899999999999983e+00 0.000000000000000e+00 6.750000000000000e+00 4.000000000000000e+00 0.000000000000000e+00 6.000000000000000e+00 3.800000000000000e+00 0.000000000000000e+00 5.625000000000065e+00 3.899999999999983e+00 0.000000000000000e+00 5.625000000000065e+00 3.899999999999983e+00 0.000000000000000e+00 5.250000000000000e+00 4.000000000000000e+00 0.000000000000000e+00 4.250000000000000e+00 4.800000000000000e+00 0.000000000000000e+00 4.750000000000338e+00 4.399999999999729e+00 0.000000000000000e+00 4.750000000000338e+00 4.399999999999729e+00 0.000000000000000e+00 5.250000000000000e+00 4.000000000000000e+00 0.000000000000000e+00 4.750000000000000e+00 4.000000000000000e+00 0.000000000000000e+00 5.250000000000000e+00 4.000000000000000e+00 0.000000000000000e+00 3.500000000000000e+00 4.000000000000000e+00 0.000000000000000e+00 3.083333333334594e+00 4.266666666665859e+00 0.000000000000000e+00 3.083333333334594e+00 4.266666666665859e+00 0.000000000000000e+00 2.666666666668059e+00 4.533333333332442e+00 0.000000000000000e+00 2.666666666668059e+00 4.533333333332442e+00 0.000000000000000e+00 2.250000000000000e+00 4.800000000000000e+00 0.000000000000000e+00 3.500000000000000e+00 4.000000000000000e+00 0.000000000000000e+00 3.874999999992375e+00 3.750000000005084e+00 0.000000000000000e+00 3.874999999992375e+00 3.750000000005084e+00 0.000000000000000e+00 4.250000000000000e+00 3.500000000000000e+00 0.000000000000000e+00 1.000000000000000e+00 6.200000000000000e+00 0.000000000000000e+00 1.599999999997112e+00 6.100000000000482e+00 0.000000000000000e+00 1.599999999997112e+00 6.100000000000482e+00 0.000000000000000e+00 2.199999999995692e+00 6.000000000000719e+00 0.000000000000000e+00 2.199999999995692e+00 6.000000000000719e+00 0.000000000000000e+00 2.799999999997127e+00 5.900000000000479e+00 0.000000000000000e+00 2.799999999997127e+00 5.900000000000479e+00 0.000000000000000e+00 3.399999999998564e+00 5.800000000000240e+00 0.000000000000000e+00 3.399999999998564e+00 5.800000000000240e+00 0.000000000000000e+00 4.000000000000000e+00 5.700000000000000e+00 0.000000000000000e+00 4.750000000000000e+00 7.200000000000000e+00 0.000000000000000e+00 4.500000000000000e+00 6.699999999999999e+00 0.000000000000000e+00 4.500000000000000e+00 6.699999999999999e+00 0.000000000000000e+00 4.250000000000000e+00 6.200000000000001e+00 0.000000000000000e+00 4.250000000000000e+00 6.200000000000001e+00 0.000000000000000e+00 4.000000000000000e+00 5.700000000000000e+00 0.000000000000000e+00 2.750000000000000e+00 4.000000000000000e+00 0.000000000000000e+00 3.124999999988985e+00 4.000000000000000e+00 0.000000000000000e+00 3.124999999988985e+00 4.000000000000000e+00 0.000000000000000e+00 3.500000000000000e+00 4.000000000000000e+00 0.000000000000000e+00 5.000000000000000e+00 2.200000000000000e+00 0.000000000000000e+00 4.750000000000000e+00 2.800000000000000e+00 0.000000000000000e+00 5.000000000000000e+00 2.200000000000000e+00 0.000000000000000e+00 5.249999999999616e+00 2.499999999999539e+00 0.000000000000000e+00 5.249999999999616e+00 2.499999999999539e+00 0.000000000000000e+00 5.500000000000000e+00 2.800000000000000e+00 0.000000000000000e+00 5.500000000000000e+00 2.800000000000000e+00 0.000000000000000e+00 5.250000000000325e+00 3.199999999999480e+00 0.000000000000000e+00 5.250000000000325e+00 3.199999999999480e+00 0.000000000000000e+00 5.000000000000298e+00 3.599999999999522e+00 0.000000000000000e+00 5.000000000000298e+00 3.599999999999522e+00 0.000000000000000e+00 4.750000000000000e+00 4.000000000000000e+00 0.000000000000000e+00 5.500000000000000e+00 2.800000000000000e+00 0.000000000000000e+00 5.916666666666305e+00 3.199999999999653e+00 0.000000000000000e+00 5.916666666666305e+00 3.199999999999653e+00 0.000000000000000e+00 6.333333333333001e+00 3.599999999999680e+00 0.000000000000000e+00 6.333333333333001e+00 3.599999999999680e+00 0.000000000000000e+00 6.750000000000000e+00 4.000000000000000e+00 0.000000000000000e+00 5.500000000000000e+00 2.800000000000000e+00 0.000000000000000e+00 5.750000000000000e+00 2.500000000000000e+00 0.000000000000000e+00 5.750000000000000e+00 2.500000000000000e+00 0.000000000000000e+00 6.374999999999980e+00 2.350000000000005e+00 0.000000000000000e+00 6.374999999999980e+00 2.350000000000005e+00 0.000000000000000e+00 7.000000000000000e+00 2.200000000000000e+00 0.000000000000000e+00 7.000000000000000e+00 2.200000000000000e+00 0.000000000000000e+00 7.499999999999977e+00 2.349999999999993e+00 0.000000000000000e+00 7.499999999999977e+00 2.349999999999993e+00 0.000000000000000e+00 8.000000000000000e+00 2.500000000000000e+00 0.000000000000000e+00 7.500000000000000e+00 2.000000000000000e+00 0.000000000000000e+00 7.750000000000000e+00 2.250000000000000e+00 0.000000000000000e+00 7.750000000000000e+00 2.250000000000000e+00 0.000000000000000e+00 8.000000000000000e+00 2.500000000000000e+00 0.000000000000000e+00 8.000000000000000e+00 2.500000000000000e+00 0.000000000000000e+00 8.166666666666181e+00 1.900000000001745e+00 0.000000000000000e+00 8.166666666666181e+00 1.900000000001745e+00 0.000000000000000e+00 8.333333333332911e+00 1.300000000001518e+00 0.000000000000000e+00 8.333333333332911e+00 1.300000000001518e+00 0.000000000000000e+00 8.500000000000000e+00 7.000000000000000e-01 0.000000000000000e+00 8.000000000000000e+00 2.500000000000000e+00 0.000000000000000e+00 8.499999999999950e+00 2.599999999999990e+00 0.000000000000000e+00 8.499999999999950e+00 2.599999999999990e+00 0.000000000000000e+00 9.000000000000000e+00 2.700000000000000e+00 0.000000000000000e+00 9.000000000000000e+00 2.700000000000000e+00 0.000000000000000e+00 9.466666666664466e+00 2.566666666667295e+00 0.000000000000000e+00 9.466666666664466e+00 2.566666666667295e+00 0.000000000000000e+00 9.933333333329530e+00 2.433333333334420e+00 0.000000000000000e+00 9.933333333329530e+00 2.433333333334420e+00 0.000000000000000e+00 1.040000000000000e+01 2.300000000000000e+00 0.000000000000000e+00 1.040000000000000e+01 2.300000000000000e+00 0.000000000000000e+00 1.078333333333231e+01 1.900000000001070e+00 0.000000000000000e+00 1.078333333333231e+01 1.900000000001070e+00 0.000000000000000e+00 1.116666666666699e+01 1.499999999999660e+00 0.000000000000000e+00 1.116666666666699e+01 1.499999999999660e+00 0.000000000000000e+00 1.155000000000000e+01 1.100000000000000e+00 0.000000000000000e+00 8.000000000000000e+00 2.500000000000000e+00 0.000000000000000e+00 8.437500000000002e+00 2.875000000000001e+00 0.000000000000000e+00 8.437500000000002e+00 2.875000000000001e+00 0.000000000000000e+00 8.875000000000004e+00 3.250000000000002e+00 0.0000000000000
[...]
<PointData Scalars="A_conc," Vectors="" Tensors="">
<DataArray type="Float64" Name="A_conc" format="ascii">
4.755992767027482e-01 9.121269422384805e-01 8.433044873583455e-01 9.483306932048670e-01 9.322961930875990e-01 9.567720018082244e-01 9.539447698708327e-01 9.654331591858376e-01 6.990785439501297e-01 5.902091311397377e-01 5.475071337910802e-01 6.178139564086290e-01 6.235802768783565e-01 7.100162776223807e-01 9.678534896946299e-01 9.672846879165665e-01 9.672885809550565e-01 9.666953327880561e-01 9.666992127891904e-01 9.660825757982223e-01 9.660973890801190e-01 9.653868484440030e-01 9.654739015508528e-01 9.641995425399894e-01 9.643580377599542e-01 9.624998479188469e-01 9.627348313293982e-01 9.594775050840806e-01 9.598558127681558e-01 9.553722486738390e-01 9.712459976048470e-01 8.843258023187779e-01 9.633237250374553e-01 9.654622089962139e-01 9.655269816236203e-01 9.718027443183582e-01 9.716377701293543e-01 9.730515799682526e-01 9.746168709920348e-01 9.599627411768269e-01 9.855179992082159e-01 8.715058820405247e-01 9.420245961665512e-01 9.523030612500986e-01 9.536047095657144e-01 9.663621637796277e-01 9.972200065834851e-01 9.981894308294248e-01 9.980793081766390e-01 9.983923921958457e-01 9.975291563661477e-01 9.942969343452212e-01 9.947804019011760e-01 9.861657308707855e-01 9.594812439930837e-01 9.745005291339637e-01 9.714498306368317e-01 9.742885630604453e-01 9.590170212812293e-01 8.512805013450518e-01 9.287993373556188e-01 9.258537225976911e-01 9.253157527502931e-01 9.234432704174347e-01 9.239921841493802e-01 9.196590356773932e-01 9.522469589417668e-01 9.619544971923220e-01 9.652911300764384e-01 9.895820729138560e-01 9.497968055723484e-01 9.670344246758501e-01 9.638123599261366e-01 9.676098431097448e-01 9.673199184328828e-01 9.697214526571931e-01 9.696173377060410e-01 9.714926416150960e-01 9.714407343675704e-01 9.730459914567465e-01 3.652774384829964e-01 5.261033034745980e-01 4.512089637141221e-01 7.082610318926075e-01 7.359328581197090e-01 1.013562821502336e+00 7.910912833470504e-01 7.910260405074774e-01 7.905217813413004e-01 8.103789861274212e-01 1.004355895248141e+00 8.595549527834200e-01 9.910752350582068e-01 9.913947252087326e-01 9.913276108110638e-01 9.914115196422709e-01 9.917373462863445e-01 9.891131721876655e-01 9.905565903728886e-01 9.778334963293538e-01 9.811508244784587e-01 9.495101723157010e-01 9.461112889699215e-01 9.485031156923883e-01 9.485047889968566e-01 9.513655496863399e-01 9.539674345893260e-01 9.807734499705311e-01 9.967493456879744e-01 9.969620582135025e-01 9.969488049039888e-01 9.970675058716743e-01 9.970599353971487e-01 9.971515441372358e-01 9.971508272637267e-01 9.972218749333479e-01 9.972213580538578e-01 9.972891739673153e-01 9.739386046417884e-01 1.003857004350508e+00 9.958028397731642e-01 9.975147557424209e-01 8.205205200719992e-01 8.608397540585101e-01 8.841313218668079e-01 9.361703593792834e-01 9.366868800433052e-01 9.496238138498714e-01 9.994679077253981e-01 1.000006459261077e+00 9.999137605365734e-01 9.999588235736638e-01 9.999407978167224e-01 9.999566352432528e-01 9.999548655439633e-01 9.999601527591817e-01 9.999597886595477e-01 9.999639263860484e-01 9.999316564137590e-01 9.999489254157268e-01 9.999482199850153e-01 9.999595865970482e-01 9.999598230199722e-01 9.999610158999364e-01 9.992690855012061e-01 9.996644924488129e-01 9.996179937981471e-01 9.998555516394763e-01 9.998258692976363e-01 9.999551085639184e-01 9.999371336013034e-01 9.999855485532059e-01 9.999807400136246e-01 9.999557794330800e-01 9.999734322502165e-01 9.998828279385196e-01 1.001891131547916e+00 9.952958270222755e-01 9.608078333873598e-01 1.002122548316624e+00 9.914532126853596e-01 9.997541785777513e-01 9.983822263417057e-01 9.990630205676339e-01 9.989237908699260e-01 9.990764146063534e-01 9.990231253513816e-01 9.990624584470330e-01 9.933515337108346e-01 1.000130496384173e+00 9.984782202648077e-01 9.991449702881415e-01 9.923977813984919e-01 9.940291141416450e-01 9.939921733460102e-01 9.951280446962019e-01 9.951870089857363e-01 9.953039730150760e-01 1.011698653419975e+00 9.602738225916890e-01 1.006928691627475e+00 5.373196483433624e-01 9.932846904098950e-01 1.000174628297987e+00 9.984901605772445e-01 9.991456938767728e-01 9.999775341682065e-01 9.999741718635695e-01 9.999748273460485e-01 9.999703948840186e-01 9.999738119801600e-01 9.999562394533187e-01 9.999773541514523e-01 9.999797798393236e-01 9.999794317370705e-01 9.999804198883449e-01 9.999804104993694e-01 9.999813399011316e-01 9.999844392695750e-01 9.999639694203211e-01 1.000152870235883e+00 9.995066147420988e-01 1.000000000292211e+00 1.000000000286148e+00 1.000000000050800e+00 9.999999999862190e-01 1.000000000000092e+00 9.999999999999305e-01 9.997068412250779e-01 9.997874001681571e-01 9.997850884408063e-01 9.998212104035307e-01 9.998211015991426e-01 9.998381357381803e-01 9.998392134667212e-01 9.998401603546567e-01 9.999744486294432e-01 9.999763199412266e-01 9.999762510984015e-01 9.999778750166118e-01 9.999778124108255e-01 9.999793760518209e-01 9.999793328195558e-01 9.999813461679260e-01 9.999800720020416e-01 9.999796375637708e-01 9.999797321328022e-01 9.999716811411092e-01 9.882933881858464e-01 9.905410890226807e-01 9.902532033262121e-01 9.912172337216111e-01 9.912132232242515e-01 9.914945863960491e-01 9.975598635177896e-01 9.981411381739778e-01 9.980839233109768e-01 9.982858468053080e-01 9.982686631337035e-01 9.983846518317496e-01 9.091730002518031e-01 9.116345923672649e-01 7.538472021209472e-01 7.897892419224439e-01 8.138856477704295e-01 7.813753211376441e-01 9.665178764067708e-01 9.745352497113338e-01 9.743261658012962e-01 9.791616775211676e-01 9.788011720051241e-01 9.810751926767237e-01 9.809208283807418e-01 9.824072821361491e-01 9.959575460920866e-01 9.983317649244527e-01 9.975567757573292e-01 9.998171062268895e-01 9.994888145598678e-01 1.000025431629669e+00 9.997733906963582e-01 9.997756183517424e-01 9.885316690149732e-01 9.904736560477954e-01 9.878615021267466e-01 9.878869423273260e-01 9.229682934350688e-01 9.325338842961048e-01 9.328027248854216e-01 9.402517382318897e-01 9.408901055609895e-01 9.641205534585270e-01 9.634977397272780e-01 9.843831484946084e-01 9.126210094988919e-01 9.228639512342305e-01 9.687282153101520e-01 9.596854507752149e-01 9.747292747220484e-01 9.078950759148952e-01 9.493829724141567e-01 9.501671698188013e-01 9.501626722564480e-01 9.509325102782982e-01 9.509263979179772e-01 9.516111978454904e-01 9.516031635682526e-01 9.522008080654026e-01 5.133576661011987e-01 9.503489187774411e-01 5.213323219893218e-01 5.213287190776046e-01 9.503129788366768e-01 8.950142262252992e-01 9.597262232702870e-01 9.443387269392161e-01 9.550611323002878e-01 9.552894601202527e-01 9.373523505893001e-01 9.403022375936050e-01 9.527856231822212e-01 9.557463834944592e-01 9.374403723611858e-01 9.493582515939792e-01 9.452077117966707e-01 8.504800356370534e-01 8.752623416052989e-01 9.499306062691151e-01 8.501511277977190e-01 9.567240963114987e-01 9.450285941968324e-01 9.598947805498406e-01 9.628884899562371e-01 9.549054946691010e-01 9.594909655190068e-01 9.571664799250922e-01 9.393523471182639e-01 9.449078500914656e-01 9.570373547173802e-01 9.549334911392211e-01 9.404382649559239e-01 9.476977296734800e-01 9.446338600254578e-01 8.863976945195948e-01 9.345295548718080e-01 9.362422449306990e-01 9.553114781368715e-01 9.549232343995914e-01 9.518789602335376e-01 9.347571373650704e-01 9.604817169138274e-01 9.526386078764288e-01 9.561694675828614e-01 9.598042417487301e-01 9.625061018162391e-01 9.644279199337524e-01 9.561788946261871e-01 9.627166018398291e-01 9.603579465737317e-01 9.319875269552714e-01 9.529656724185223e-01 9.569635734423306e-01 9.317945424944649e-01 9.321046060814093e-01 9.533217241595262e-01 9.539399789728648e-01 9.620105653501425e-01 9.655117824317384e-01 9.539279880410629e-01 9.501813269261725e-01 9.621177194311554e-01 9.532128538812641e-01 9.612155924484029e-01 9.558557188931339e-01 9.500241903710435e-01 9.531687462041472e-01 9.623325221071106e-01 9.516849600917693e-01 9.378017931124550e-01 9.551492775320511e-01 9.559294935181012e-01 9.494657559367321e-01 9.532221601234967e-01 9.519646190970757e-01 9.352376038221241e-01 9.376934236947482e-01 9.383326751701708e-01 9.508023124472202e-01 9.509626350399847e-01 9.494116293924698e-01 9.560568908631050e-01 9.487492249351951e-01 5.039257814516171e-01 5.888332276311461e-01 7.000644012256504e-01 -2.175031773083615e-02 -5.160211188372951e-02 2.844973971691386e-01 5.216749448741241e-01 1.006093745055451e+00 8.217731800479618e-01 9.584281883347920e-01 9.652532799425938e-01 9.686453903649935e-01 2.902230865606941e-01 4.618531750244512e-01 -2.298696557494950e-02 4.658099643086298e-01 1.316040302226232e-02 -2.756928405510434e-02 7.152174496218862e-01 4.831528528614187e-01 2.892834846557428e-01 2.962777071433047e-01 3.905466208151704e-01 3.615312021685002e-01 5.256018324165163e-01 3.600563296054124e-01 1.006513146942833e+00 9.408246558369874e-01 9.567287795438780e-01 9.642967784768387e-01 2.158463163748719e-01 5.639795477637712e-01 4.227530557441299e-01 9.377797466895554e-01 9.270817426064113e-01 9.444024871081332e-01 9.663196030562827e-01 9.498018606939365e-01 9.628243670373323e-01 9.252622544698116e-01 9.577581085687492e-01 9.409000768230016e-01 9.496975995847411e-01 9.425000943840411e-01 9.634309613433722e-01 9.278147155222630e-01 9.532713437992143e-01 9.651770859452291e-01 4.821903551370118e-01 1.078065674701319e+00 9.970163782520586e-01 5.106651614882027e-01 1.083989042216469e+00 4.788147915505943e-01 9.306505210319042e-01 9.242460783146014e-01 8.961994228992912e-01 9.463925647174957e-01 9.246593513011044e-01 9.280496761544085e-01 9.584258167346030e-01 9.516430409788755e-01 9.656277865047648e-01 9.838003302845276e-01 1.016745557439647e+00 7.953278729039296e-01 1.089628331223928e+00 5.063537819846763e-01 6.795107740761968e-01 9.662342914568852e-01 9.729030964035424e-01 9.120392356594892e-01 9.230345267798109e-01 9.676886816052916e-01 9.110633682836863e-01 9.240264122715289e-01 9.406606528799519e-01 9.590532088726008e-01 9.666764768581556e-01 1.000418300465731e+00 7.329299970798719e-01 1.563212671692280e-01 5.662669301973142e-01 2.137644016807461e-01 7.943594003806790e-01 9.317572637827710e-01 9.852057003372975e-01 3.630891151589093e-01 3.891645885338661e-01 4.105736122267744e-01 5.035450987453157e-01 3.920529341081915e-01 4.010643896125028e-01 7.449261405001639e-01 5.271820329075879e-01 1.009446295534084e+00 4.375862440300367e-01 5.667151551316839e-01 1.552174069924438e-01 5.259352480662652e-01 7.093364080769733e-01 1.011157981004190e+00 7.229719565786041e-01 5.693425670404166e-01 9.863980038612098e-01 1.003805198572485e-01 4.379469651597611e-01 1.538430215482104e-01 5.909494579323130e-02 6.905121451991790e-01 4.682925892642165e-01 8.631337028150311e-01 8.747888023640317e-01 7.591197094741495e-01 8.669630629032682e-01 4.917716997108572e-01 7.106762148273005e-01 5.690248917047638e-01 8.647124531688738e-01 9.878492314588246e-01 5.399239491717465e-01 1.239096847268760e-02 4.702375067148367e-01 5.685267453088372e-01 4.905249076313120e-01 8.666594524288892e-01 5.428974907570481e-01 6.906101712232636e-01 5.887480209004391e-02 9.776937143311699e-03 5.415556182650447e-01 5.819848599346329e-02 9.429716903439915e-01 8.967094670895347e-01 9.015688554026959e-01 8.980050847474984e-01 9.406808546703760e-01 9.257961452850114e-01 8.937919313793291e-01 8.996237398607851e-01 9.333467081375407e-01 9.140196703585520e-01 8.794300030923807e-01 8.874390002406706e-01 8.973982432261319e-01 8.331791128092548e-01 9.033005988175086e-01 8.763979688872690e-01 8.425911676178424e-01 8.911511193949109e-01 3.992830526536189e-01 5.641575486815560e-01 5.059027306591335e-01 5.398176116872145e-01 4.192469161146060e-01 6.207929533237656e-01 9.369850145774735e-01 9.302322087962188e-01 9.945554489959283e-01 9.432551024252496e-01 7.908176718932142e-01 9.409433266362072e-01 9.509871357833119e-02 1.822494401476480e-02 2.921079238378094e-01 5.010551342360304e-01 9.611542897429501e-01 5.270766119014331e-01 9.882923876221332e-01 9.372679171369790e-01 5.192519867577544e-01 7.431444703319756e-01 9.613219032287371e-01 9.471061930910892e-01 7.121614912424470e-01 7.332746101051009e-01 9.697294898833602e-01 7.132889948637821e-01 4.755625764910884e-01 7.361955868618211e-01 4.752602061585883e-01 5.119033501380202e-01 1.138726900368278e-01 3.238166805360838e-01 5.768940207946394e-01 9.392207592899933e-02 2.739799268918594e-01 4.715249147604998e-01 7.063055787057158e-01 9.872164931855515e-01 9.950127709061197e-01 9.944505797290643e-01 9.940927677076594e-01 9.945511323075680e-01 9.984217207714080e-01 9.979751275090707e-01 9.947344042671570e-01 9.980036744510240e-01 9.999730031831845e-01 9.999676969764405e-01 9.999831225846021e-01 9.999809948688236e-01 9.999316637627452e-01 9.999839680396650e-01 9.999338544740407e-01 9.999224913209906e-01 9.999776200980994e-01 9.999762451727808e-01 9.999370548105591e-01 9.999697689543372e-01 9.995076453833203e-01 1.000127343374379e+00 9.995505001034971e-01 9.999835804527401e-01 9.999302514343660e-01 9.999841619884340e-01 9.999426393250731e-01 9.999274141846130e-01 9.999933220423988e-01 9.999645649528189e-01 9.997686250132118e-01 9.999464701593463e-01 9.999749754614203e-01 9.997642058842077e-01 9.997577216428366e-01 9.999440261823861e-01 9.999503685582442e-01 9.997799221739367e-01 9.998241677947203e-01 9.992220326292452e-01 9.998194951658702e-01 9.992577746743090e-01 9.990823716520966e-01 9.999762266014743e-01 9.997555096777151e-01 9.999922667458427e-01 9.998261650204939e-01 9.998847903330063e-01 9.993359129260707e-01 9.997974552900268e-01 9.994201348572173e-01 9.976509777180024e-01 9.991972887851960e-01 9.977860807832659e-01 9.995993213048918e-01 9.977865709505374e-01 9.997758193599787e-01 9.992342251480596e-01 9.991877802833292e-01 9.993123582551816e-01 9.993297983045143e-01 9.978754174236778e-01 1.000138452139351e+00 9.999999220126391e-01 9.995656913563952e-01 9.996674064126572e-01 1.000111176764453e+00 1.000061813562950e+00 9.999352902305411e-01 1.000024360527505e+00 9.998336966435279e-01 9.837971878253703e-01 6.437886346598385e-01 8.192213766609703e-01 9.523313469003409e-01 9.916118491460096e-01 9.537899827752606e-01 7.918756138010321e-01 9.964768635288104e-01 1.028798113803640e+00 6.525390411181072e-01 9.757610105784433e-01 8.098383142938623e-01 8.628305876927314e-01 9.616224119164983e-01 8.425812897947902e-01 9.649919035252585e-01 9.511148745681719e-01 8.671572014559954e-01 9.717816046897118e-01 8.776526834189345e-01 9.431271155190011e-01 8.673828112700134e-01 8.456820996970363e-01 7.152441548538998e-01 8.356269854097486e-01 8.775573767978104e-01 7.089992563640455e-01 8.772234569966026e-01 9.356177703273919e-01 9.434184801560787e-01 9.434794975599928e-01 8.750666254567094e-01 8.297952624456979e-01 9.388363330897912e-01 8.440721982349989e-01 9.307694823871725e-01 8.408409355811282e-01 7.067877167800969e-01 6.499499343140794e-01 8.038260608811982e-01 1.021543108974365e+00 9.625699756897310e-01 6.579904351116097e-01 6.757161012126889e-01 8.418763866293717e-01 8.377551225223898e-01 8.434272380896637e-01 6.607771670230236e-01 8.207104373427550e-01 9.372338212055094e-01 8.412985405209171e-01 9.489755727481929e-01 9.164017964423971e-01 9.521596589199844e-01 9.675387093485648e-01 8.989223982803736e-01 9.648416681252427e-01 9.570185845250446e-01 9.665754937778389e-01 9.655541951004827e-01 9.669291868627644e-01 9.684708830285745e-01 9.733254362965479e-01 9.644183201283603e-01 9.686156818712494e-01 9.700017929651592e-01 8.572617759497286e-01 8.575403519955554e-01 9.838708145978352e-01 9.745629305902380e-01 9.692481141865416e-01 9.580573721410212e-01 9.861462195865150e-01 8.945546176565813e-01 9.739940004803300e-01 9.827647660225421e-01 9.863954355181797e-01 9.034579558756337e-01 9.646796162015310e-01 8.061268566167202e-01 9.920690202730313e-01 9.703222064735703e-01 8.624385815593012e-01 8.015472764606919e-01 1.001303181540573e+00 9.940097024199980e-01 1.001453061499486e+00 9.972489570444352e-01 8.513902780186580e-01 9.535879064973838e-01 9.324131456122273e-01 9.628823285140358e-01 9.349429267213700e-01 9.613877254358129e-01 9.358788043908549e-01 9.546233647538559e-01 9.615399962229031e-01 9.637841570994273e-01 9.677578719025592e-01 9.025709129747846e-01 9.285406089833361e-01 9.199757672392349e-01 9.231580628725460e-01 9.049006150817249e-01 8.986517302121143e-01 9.503504678475971e-01 9.194438852015531e-01 9.068607631342150e-01 9.569611670738966e-01 9.518368836784683e-01 9.670716643265188e-01 9.529929746961584e-01 9.696474063552895e-01 9.689695378257938e-01 9.482635621524436e-01 9.495957525986730e-01 9.074556595819441e-01 9.094770320923019e-01 9.470217327245503e-01 9.095717992738073e-01 9.626096806289539e-01 9.078860623775955e-01 9.848513983561527e-01 9.508498665203516e-01 9.512701253502261e-01 9.188357253793136e-01 9.519771515559511e-01 9.171227546819548e-01 9.184961520933138e-01 9.523862420077969e-01 9.476296405899086e-01 9.587983395604173e-01 9.317828813518856e-01 9.526141643581145e-01 9.553570908626305e-01 9.701602898299536e-01 9.525049185243096e-01 9.608141986281818e-01 9.526114213870052e-01 9.318296251563833e-01 9.613951929559903e-01 9.619077250222166e-01 9.316075994776698e-01 9.310420791567513e-01 9.646746262003848e-01 9.528782816226394e-01 9.658480335003047e-01 9.648563742585240e-01 9.544782879836435e-01 9.527677208312675e-01 9.635632873858270e-01 9.352379896594043e-01 9.621688266227550e-01 7.878618817568482e-01 9.998305663277187e-01 1.019197226092514e+00 4.565349162268994e-01 7.335664215412010e-01 6.216286368912665e-01 4.608719049023058e-01 3.912898266055869e-01 4.888954054298823e-01 9.803012361319523e-01 1.006513528255721e+00 1.001338162967674e+00 9.745151050392452e-01 9.784709421466786e-01 9.216518935373442e-01 9.843121701977139e-01 9.770539720358692e-01 1.007177612111680e+00 9.793826282663093e-01 9.886616876123071e-01 9.388132904881793e-01 9.049138002141224e-01 9.831919542275914e-01 9.870832942948524e-01 9.619170315897184e-01 9.667255866316687e-01 9.735330130305135e-01 4.115485395088172e-01 3.405213964929761e-01 3.308004047501817e-01 9.557252537818629e-01 9.023133642962451e-01 9.894062091121085e-01 8.871421074057850e-01 9.019771199760187e-01 9.902005270305195e-01 3.735213487360673e-01 2.343603536755622e-01 2.892891002103722e-01 9.987136069919277e-01 9.733198095797170e-01 9.722637203759311e-01 1.003095355719192e+00 9.989428975810891e-01 9.748824658066746e-01 1.057489444283225e+00 1.033870436503679e+00 5.344405081423461e-01 5.001556511310461e-01 1.052170379284257e+00 2.748084966615966e-01 9.506307097367864e-01 1.005271452191626e+00 9.843147939930175e-01 1.000504135631095e+00 9.513136763334913e-01 9.966825468817845e-01 9.981962646944147e-01 1.006627204475048e+00 9.788632433195061e-01 7.163903223750158e-01 7.827044571228122e-01 1.033374527056208e+00 8.070669142954754e-01 6.601819820586936e-02 1.072168625512707e-01 8.414945344400077e-02 8.423329795606013e-01 1.058409521124984e+00 9.726289183870935e-01 8.076899629330890e-01 1.015829012908505e+00 1.067724826549566e+00 5.129604510117993e-01 7.473962004704245e-01 5.710231108675818e-01 4.542292665900265e-01 7.077509894114933e-01 4.216827129989043e-01 4.849142510731591e-01 3.864121906217580e-01 4.849912667040285e-01 3.791776329949820e-01 3.854957767173758e-01 1.001205964854981e+00 9.999795366256222e-01 9.968510479271600e-01 9.918366237054356e-01 1.005049625611160e+00 9.949423688399296e-01 3.187726878406598e-01 3.722838226222290e-01 2.907455135261428e-01 6.726310195707190e-01 9.727372262370605e-01 1.029252022609132e+00 2.710614271983015e-01 1.056894091774703e+00 5.058374033266687e-01 4.138381677414916e-01 3.993627343373387e-01 3.384888097167164e-01 3.984576711243164e-01 4.161406620661103e-01 5.409800620240509e-01 4.561916739877434e-01 6.187765911763567e-01 3.327717178969005e-01 9.519578061314261e-01 9.668859687513676e-01 9.648641407979514e-01 6.398581502676635e-01 7.832147861114757e-01 8.088820914374907e-01 7.814281276790281e-01 9.912686844904192e-01 8.101550667642666e-01 7.896204415121786e-01 