<?xml version="1.0"?>
<VTKFile type="UnstructuredGrid" version="0.1" byte_order="LittleEndian">
<UnstructuredGrid>
<Piece NumberOfPoints="572" NumberOfCells="1040">
<Points>
<DataArray type="Float64" NumberOfComponents="3" format="ascii">
-1.0000000000 1.0000000000 0.0000000000 -1.0000000000 -1.0000000000 0.0000000000 1.0000000000 -1.0000000000 0.0000000000 1.0000000000 1.0000000000 0.0000000000 -1.0000000000 0.0000000000 0.0000000000 1.0000000000 0.0000000000 0.0000000000 -0.9000000000 0.0000000000 0.0000000000 -0.8000000000 0.0000000000 0.0000000000 -0.7000000000 0.0000000000 0.0000000000 -0.6000000000 0.0000000000 0.0000000000 -0.5000000000 0.0000000000 0.0000000000 -0.4000000000 0.0000000000 0.0000000000 -0.3000000000 0.0000000000 0.0000000000 -0.2000000000 0.0000000000 0.0000000000 -0.1000000000 0.0000000000 0.0000000000 -0.0000000000 0.0000000000 0.0000000000 0.1000000000 0.0000000000 0.0000000000 0.2000000000 0.0000000000 0.0000000000 0.3000000000 0.0000000000 0.0000000000 0.4000000000 0.0000000000 0.0000000000 0.5000000000 0.0000000000 0.0000000000 0.6000000000 0.0000000000 0.0000000000 0.7000000000 0.0000000000 0.0000000000 0.8000000000 0.0000000000 0.0000000000 0.9000000000 0.0000000000 0.0000000000 -0.9000000000 1.0000000000 0.0000000000 -0.8000000000 1.0000000000 0.0000000000 -0.7000000000 1.0000000000 0.0000000000 -0.6000000000 1.0000000000 0.0000000000 -0.5000000000 1.0000000000 0.0000000000 -0.4000000000 1.0000000000 0.0000000000 -0.3000000000 1.0000000000 0.0000000000 -0.2000000000 1.0000000000 0.0000000000 -0.1000000000 1.0000000000 0.0000000000 -0.0000000000 1.0000000000 0.0000000000 0.1000000000 1.0000000000 0.0000000000 0.2000000000 1.0000000000 0.0000000000 0.3000000000 1.0000000000 0.0000000000 0.4000000000 1.0000000000 0.0000000000 0.5000000000 1.0000000000 0.0000000000 0.6000000000 1.0000000000 0.0000000000 0.7000000000 1.0000000000 0.0000000000 0.8000000000 1.0000000000 0.0000000000 0.9000000000 1.0000000000 0.0000000000 -0.9000000000 -1.0000000000 0.0000000000 -0.8000000000 -1.0000000000 0.0000000000 -0.7000000000 -1.0000000000 0.0000000000 -0.6000000000 -1.0000000000 0.0000000000 -0.5000000000 -1.0000000000 0.0000000000 -0.4000000000 -1.0000000000 0.0000000000 -0.3000000000 -1.0000000000 0.0000000000 -0.2000000000 -1.0000000000 0.0000000000 -0.1000000000 -1.0000000000 0.0000000000 -0.0000000000 -1.0000000000 0.0000000000 0.1000000000 -1.0000000000 0.0000000000 0.2000000000 -1.0000000000 0.0000000000 0.3000000000 -1.0000000000 0.0000000000 0.4000000000 -1.0000000000 0.0000000000 0.5000000000 -1.0000000000 0.0000000000 0.6000000000 -1.0000000000 0.0000000000 0.7000000000 -1.0000000000 0.0000000000 0.8000000000 -1.0000000000 0.0000000000 0.9000000000 -1.0000000000 0.0000000000 -1.0000000000 0.9000000000 0.0000000000 -1.0000000000 0.8000000000 0.0000000000 -1.0000000000 0.7000000000 0.0000000000 -1.0000000000 0.6000000000 0.0000000000 -1.0000000000 0.5000000000 0.0000000000 -1.0000000000 0.4000000000 0.0000000000 -1.0000000000 0.3000000000 0.0000000000 -1.0000000000 0.2000000000 0.0000000000 -1.0000000000 0.1000000000 0.0000000000 -1.0000000000 0.0000000000 0.0000000000 -1.0000000000 -0.1000000000 0.0000000000 -1.0000000000 -0.2000000000 0.0000000000 -1.0000000000 -0.3000000000 0.0000000000 -1.0000000000 -0.4000000000 0.0000000000 -1.0000000000 -0.5000000000 0.0000000000 -1.0000000000 -0.6000000000 0.0000000000 -1.0000000000 -0.7000000000 0.0000000000 -1.0000000000 -0.8000000000 0.0000000000 -1.0000000000 -0.9000000000 0.0000000000 1.0000000000 -0.9000000000 0.0000000000 1.0000000000 -0.8000000000 0.0000000000 1.0000000000 -0.7000000000 0.0000000000 1.0000000000 -0.6000000000 0.0000000000 1.0000000000 -0.5000000000 0.0000000000 1.0000000000 -0.4000000000 0.0000000000 1.0000000000 -0.3000000000 0.0000000000 1.0000000000 -0.2000000000 0.0000000000 1.0000000000 -0.1000000000 0.0000000000 1.0000000000 -0.0000000000 0.0000000000 1.0000000000 0.1000000000 0.0000000000 1.0000000000 0.2000000000 0.0000000000 1.0000000000 0.3000000000 0.0000000000 1.0000000000 0.4000000000 0.0000000000 1.0000000000 0.5000000000 0.0000000000 1.0000000000 0.6000000000 0.0000000000 1.0000000000 0.7000000000 0.0000000000 1.0000000000 0.8000000000 0.0000000000 1.0000000000 0.9000000000 0.0000000000 -0.0106138319 -0.0131148151 0.0000000000 -0.4089547284 0.4141875313 0.0000000000 0.4142857143 -0.4142857143 0.0000000000 -0.4201688733 -0.4208605055 0.0000000000 0.4107416754 0.4216809771 0.0000000000 -0.5421211608 0.0046113257 0.0000000000 0.0155192871 0.5551031837 0.0000000000 -0.0050789352 -0.5631010934 0.0000000000 0.5606271777 -0.0000000000 0.0000000000 -0.6579625293 0.6579625293 0.0000000000 0.6619845846 -0.6606366297 0.0000000000 -0.6606366297 -0.6619845846 0.0000000000 0.6579625293 0.6579625293 0.0000000000 -0.2825156312 0.1287216440 0.0000000000 0.1339721254 -0.2803135889 0.0000000000 0.1339721254 0.2803135889 0.0000000000 -0.6924706066 0.2790038127 0.0000000000 -0.2788857157 0.6973955912 0.0000000000 -0.2880587218 -0.6907909364 0.0000000000 0.6919705983 -0.2793850304 0.0000000000 -0.6919705983 -0.2793850304 0.0000000000 0.2793850304 -0.6919705983 0.0000000000 0.2793850304 0.6919705983 0.0000000000 0.6906747443 0.2744303716 0.0000000000 -0.2618782778 -0.1600039422 0.0000000000 0.2858494096 -0.0461153410 0.0000000000 -0.1556578531 0.3511683733 0.0000000000 -0.1737154354 -0.3928250067 0.0000000000 0.4035092670 0.1875661202 0.0000000000 -0.7759075177 0.0693590791 0.0000000000 -0.0687724358 0.7601856643 0.0000000000 -0.0693590791 -0.7759075177 0.0000000000 0.7614299712 -0.0754534109 0.0000000000 0.4467695547 -0.1833804638 0.0000000000 -0.4607330254 -0.1990155919 0.0000000000 -0.4752988737 0.7728528976 0.0000000000 -0.7773774967 0.4801766787 0.0000000000 0.7945476965 -0.4879689803 0.0000000000 -0.4879689803 -0.7945476965 0.0000000000 0.4740695046 -0.7792752132 0.0000000000 -0.7792752132 -0.4740695046 0.0000000000 0.7792157811 0.4741878334 0.0000000000 0.4783335767 0.7824993300 0.0000000000 -0.4856778143 0.2079929303 0.0000000000 0.1972210245 -0.4764354638 0.0000000000 0.2053642255 0.4866063728 0.0000000000 -0.0502170220 -0.1998878768 0.0000000000 -0.0418443511 0.1903447632 0.0000000000 -0.7996392230 0.7996392230 0.0000000000 -0.7996392230 -0.7996392230 0.0000000000 0.7996392230 -0.7996392230 0.0000000000 0.7996392230 0.7996392230 0.0000000000 -0.8061644395 -0.1263152795 0.0000000000 0.1263152795 -0.8061644395 0.0000000000 0.1263152795 0.8061644395 0.0000000000 0.8068972369 0.1225727985 0.0000000000 -0.5829783456 0.4915609268 0.0000000000 -0.4843714840 -0.5966231907 0.0000000000 0.5961127144 -0.4829629456 0.0000000000 0.4914688468 0.5814041416 0.0000000000 -0.4313150191 0.5963564465 0.0000000000 -0.5991994817 -0.4416704041 0.0000000000 0.4285222361 -0.5886851882 0.0000000000 0.5950222751 0.4345542192 0.0000000000 -0.3729192643 -0.0308005220 0.0000000000 0.1357194906 0.0852220652 0.0000000000 -0.2687894254 0.5175830926 0.0000000000 -0.1818692458 -0.0038355955 0.0000000000 0.0005410891 -0.3838521039 0.0000000000 0.0046850496 0.3906944485 0.0000000000 -0.1637024265 -0.5777762045 0.0000000000 0.3033151350 -0.2862325252 0.0000000000 0.5517371998 0.1615540179 0.0000000000 0.1150689758 -0.1090543262 0.0000000000 -0.6365481942 0.8367760519 0.0000000000 -0.8299251063 0.6454929520 0.0000000000 0.8367760519 -0.6365481942 0.0000000000 -0.6365481942 -0.8367760519 0.0000000000 0.6419750945 -0.8344182605 0.0000000000 -0.8344182605 -0.6419750945 0.0000000000 0.8367760519 0.6365481942 0.0000000000 0.6334687566 0.8231839350 0.0000000000 0.2951157468 0.3033883323 0.0000000000 -0.3106582109 0.3027841084 0.0000000000 -0.8400835925 0.2167927422 0.0000000000 -0.2107546614 0.8432187484 0.0000000000 -0.2167927422 -0.8400835925 0.0000000000 0.8452489858 -0.2110697529 0.0000000000 -0.8500196783 -0.3205140357 0.0000000000 0.3205140357 -0.8500196783 0.0000000000 0.3224043448 0.8511952055 0.0000000000 0.8509015406 0.3230704087 0.0000000000 0.5389791592 -0.3177105193 0.0000000000 0.5993045743 -0.1559405615 0.0000000000 -0.6418827579 -0.1264759994 0.0000000000 0.1338316671 -0.6408663914 0.0000000000 0.1377885713 0.6428899729 0.0000000000 -0.3247036514 -0.5423764573 0.0000000000 -0.1366954236 0.6195482826 0.0000000000 -0.6358863807 0.1351852798 0.0000000000 -0.3024702070 -0.3086124626 0.0000000000 0.5142865643 0.3104552186 0.0000000000 0.4142262160 0.0267204317 0.0000000000 0.3364063204 0.5553960121 0.0000000000 -0.5631764002 0.3334146473 0.0000000000 -0.3642130836 0.8629024914 0.0000000000 -0.8620691696 0.3540262781 0.0000000000 0.8604023912 -0.3541916117 0.0000000000 -0.3540262781 -0.8620691696 0.0000000000 0.6854508403 0.0926238414 0.0000000000 -0.5600042615 -0.3022392443 0.0000000000 -0.1859451726 0.2140916819 0.0000000000 -0.1117146801 0.4845018491 0.0000000000 0.3519511086 -0.5327407944 0.0000000000 0.2889198814 0.0954188867 0.0000000000 0.2549321142 -0.1803078479 0.0000000000 -0.4552848950 0.0795406652 0.0000000000 -0.1562772572 -0.2698573599 0.0000000000 -0.8693792216 -0.0304393856 0.0000000000 0.0304393856 -0.8693792216 0.0000000000 0.0304393856 0.8693792216 0.0000000000 0.8676285903 0.0301711090 0.0000000000 -0.1735878754 -0.6788675451 0.0000000000 -0.1361708000 0.1187866776 0.0000000000 0.2086566784 0.2123237548 0.0000000000 -0.6949090325 0.0003609751 0.0000000000 0.0102005444 -0.6827268255 0.0000000000 0.0027121555 0.6932874071 0.0000000000 -0.7001636118 0.3922178267 0.0000000000 0.6849606769 -0.3929532263 0.0000000000 -0.3941085749 -0.6853138585 0.0000000000 0.4053486679 0.7015227459 0.0000000000 -0.5471836225 0.6830128806 0.0000000000 0.5463837492 -0.6839171064 0.0000000000 -0.6839171064 -0.5463837492 0.0000000000 0.6840874530 0.5470417108 0.0000000000 0.1195693579 -0.4007977651 0.0000000000 -0.0796159919 -0.4659938160 0.0000000000 0.2862497537 -0.4058261899 0.0000000000 -0.2885572025 -0.4278750534 0.0000000000 -0.8793547676 -0.2124223167 0.0000000000 0.2124223167 -0.8793547676 0.0000000000 0.2126323511 0.8794853817 0.0000000000 0.8805630
[...]
<PointData Scalars="pressure_p1," Vectors="" Tensors="">
<DataArray type="Float64" Name="pressure_p1" format="ascii">
9.9337213830 9.9293181412 9.9292387470 9.9334356705 -1.4122953756 -0.8193538686 6.3930102661 7.1810536316 7.6754210459 8.0142719071 8.2521019164 8.4222877511 8.5405488413 8.6231746175 8.6720508237 8.6865784317 8.6700732938 8.6212968653 8.5378371478 8.4158512067 8.2449152993 8.0063712320 7.6760099622 7.1925889111 6.4010320518 9.9249833811 9.9261909600 9.9298458869 9.9302214659 9.9300885191 9.9505138827 9.9487567230 9.9428333948 9.9343572700 9.9570813320 9.9525270397 9.9321436747 9.9538864002 9.9400118031 9.9213844740 9.9243063910 9.9236231468 9.9251984796 9.9246613573 9.9203077377 9.9260622435 9.9297392660 9.9301395087 9.9245576053 9.9441014773 9.9488283830 9.9455775134 9.9328833043 9.9566851858 9.9524687982 9.9319830721 9.9519498120 9.9374350803 9.9210219549 9.9300267012 9.9290164524 9.9252781182 9.9202068367 9.7614263878 9.5310168444 9.3132230131 9.0782163106 8.8144345264 8.5306058370 8.2325646568 7.8745608062 7.3409706682 6.8171266848 7.2371910382 7.8246436683 8.2216013437 8.5192607226 8.8000438004 9.0706760214 9.3131348632 9.5301340365 9.7562268678 9.7559649042 9.5282153421 9.3111036494 9.0702325476 8.8042660236 8.5281176823 8.2300587083 7.8674272832 7.3425056750 6.8188109251 7.2286037514 7.8178108173 8.2159965179 8.5148341825 8.7967558740 9.0681287594 9.3098151927 9.5274912557 9.7603963575 8.7200128883 8.9311068151 8.9147640765 8.9381035564 8.9471906182 8.2495617076 9.2572254714 9.2742792664 8.2048662832 9.2937165591 9.2887435041 9.2983285434 9.2832012074 8.6612778377 8.8892875986 8.8846044514 8.3977800234 9.4619019443 9.4442623536 8.4057179777 8.4188909579 9.4484116166 9.4509078647 8.3887438462 8.7019892005 8.5964898344 8.9569118666 9.0078116282 8.6076697552 7.6939728066 9.5795690268 9.6143077176 7.7503206661 8.5404834185 8.5622381156 9.5578443726 8.8323198785 8.8445937335 9.6030572369 9.5702674236 8.8083822721 8.8076951956 9.5676543893 8.5529967522 9.1156751976 9.1268419658 8.8255162761 8.8186972535 9.5710197822 9.5699611827 9.5806668887 9.5813422549 7.7757273228 9.6619990121 9.6613613491 7.7711260181 8.9740104245 9.2227781521 8.9381058915 9.1821800892 9.2398673446 8.8595869956 9.2201924905 8.8346340981 8.5097834199 8.7201014987 9.1645489133 8.6727385557 9.0213582844 9.0280408338 9.2913195016 8.8140359982 8.3815535460 8.7401026587 9.6668972260 9.2159695118 9.1819445299 9.6647288361 9.6546990685 9.2028700707 9.1763256603 9.6244996232 8.8487076880 8.8323372153 8.0399086965 9.7247307632 9.7232785091 7.9740653251 8.3350616596 9.7278195201 9.7293154137 8.3359618159 8.6638797895 8.2798727194 8.1666202255 9.3815465352 9.3839305154 9.1778118820 9.3535593262 8.1880742911 8.8481838122 8.6731275710 8.4483171449 9.1983758376 8.6597375574 9.7487157062 8.4322732368 8.4294806408 9.7431018685 7.9930326670 8.6031324172 8.7938673251 9.1490983073 9.1533440316 8.6327929980 8.7270379804 8.4105118500 8.8715623812 7.2030496604 9.7734094351 9.7722243944 7.2146092948 9.4398725015 8.7445507687 8.7891191130 7.8418136221 9.4594501864 9.4822358991 8.6539637693 8.6661801937 9.4132099516 9.4451665828 9.3730791947 9.3728384651 9.0371528374 9.0338499678 9.0303712701 9.1266121315 8.9841155243 9.0118771513 7.9525050964 9.7860361981 9.7865683575 7.9505949354 8.7681795257 9.1312448922 8.7302767200 8.5083631245 9.7655383482 9.7553757281 9.7550667816 9.7645296502 8.4126632113 8.5884638730 9.7774504943 8.9683021756 8.9458964036 9.7815834246 9.7794694983 8.9413888862 8.9378950843 9.7704624971 9.0445922175 9.3945996786 9.0340277934 9.3675385697 8.7264229686 7.4562590080 9.8018950188 9.7757781302 7.5335861299 8.1199618271 7.9704067186 8.9938986654 9.4499060625 8.6322076792 9.4421944550 8.6527759672 9.4944604804 8.7689956115 8.7568361877 8.9846286993 8.6581799359 9.7746612900 9.4045620912 9.3958309415 9.7752368658 9.7786632973 9.4032475255 9.3936746423 9.7889551341 8.7269875700 8.9742825672 8.3605216519 8.9306720491 8.9056173644 9.2428730183 9.3030620698 9.2955404496 8.6961743792 8.0655428653 9.0414197377 9.0279789886 8.9950391231 8.9887752665 9.1086583220 8.6019889114 8.4521121466 8.7575363171 9.7950027161 8.6266112343 8.6239389378 9.7986634211 8.4153165838 9.3589301397 9.3567759599 9.4858672765 9.4807803515 8.8931145917 8.1081646212 8.3593602795 9.1604379815 9.1842802598 9.1563485867 9.1715451812 8.9405001860 8.1791038172 9.6093290289 9.6072545849 8.9411419652 7.6609510281 8.7706046700 9.2918603516 9.3578721149 8.6581946410 8.7984545617 8.1707532983 8.8155517348 8.6428969549 8.6215128188 9.2907154952 9.4891663398 9.1637573241 8.5584964352 8.4482170424 9.5849302105 8.4378282778 7.4858628143 9.8503638958 9.8505752790 7.4775036913 9.4792899245 9.1694657016 7.5595859368 9.6255373951 9.6207263377 9.6278794788 8.3484173555 9.0006462491 8.5309499787 9.1402143990 8.8466980480 9.3279954789 9.8491442339 8.6561631595 8.6530483058 9.8097335806 8.7871625510 8.4386077415 9.2402646066 8.6479055073 8.7409569244 9.4899401941 9.1754425839 9.4577895087 9.1604373081 9.3054406287 9.8343288079 8.1468699279 8.1386677492 9.8424027308 8.4748554140 9.0690966587 9.1087077212 8.7122119682 9.5236734906 9.5294532847 9.3545300105 9.3452696150 9.0458962547 9.5578078100 8.2717219738 8.8262098462 8.8275798775 9.1022611632 9.8439107021 9.1965947766 9.1903872505 9.8436853746 9.8425383452 9.1933410139 9.1887890298 9.8076739357 9.5358147100 8.7136744080 8.5891930698 9.0454208091 9.1469208329 8.6970681992 9.6042140060 8.8260794491 9.3225230070 8.1909017151 8.6818893919 8.6620156192 8.7095984319 9.2196182705 8.5223976155 8.7581233826 8.8622188818 8.3730857029 9.8730902213 9.8785730514 8.3691225890 8.7797248973 8.4339594873 9.5644078515 8.4348402234 9.0258694440 9.5839557749 7.9477190751 8.6784702306 8.8013600114 7.7834535587 9.8635199705 9.8657931354 7.7706947161 7.9248504202 9.5003620370 9.5034778935 8.1943980352 9.4838712938 9.4808269739 9.6142818962 9.5913994302 9.0106244580 8.3962047571 8.9068604514 9.5909355894 9.0130711455 7.8343193399 8.1793828357 8.8446545391 9.2529896968 8.5532948933 8.2498805958 9.5837596720 8.8647156865 8.6290698027 8.5453151876 6.9880389595 9.8665640066 9.8683078246 6.9993143764 9.0276971151 9.4879928132 9.3529911142 8.5779146529 9.6197171281 8.5792185534 9.8224210135 9.5970616677 9.5930605476 9.8201538658 9.8194383734 9.5943759942 9.5944677061 9.8212001948 9.6545003742 8.7612987954 7.7440480739 8.8804738091 8.3471839345 9.6225904609 9.0402749702 9.3653434205 9.3722622242 8.8730948777 8.0877496154 8.2454059169 8.1870327201 9.1313533454 8.9193984951 8.6479102683 9.0662413888 8.7898044932 8.9604768622 9.8867715943 8.3998749253 8.3973743086 9.8814403995 8.2754854702 9.8979368051 6.9546569576 6.9599854911 9.8982579992 8.2483259980 9.2653509764 8.0093622002 9.1887311862 9.4587003472 8.5866319681 8.6344042496 8.7289193279 8.5155087947 9.0933714880 8.8184959423 9.1847813425 9.1767013929 9.0211300160 9.0105100008 8.4656705135 9.3639642563 9.3613021326 8.8409791651 8.8576452409 8.8530118949 8.8559271291 8.8339940390 9.4437039312 9.3612052448 8.4113206594 8.6113878861 9.6142345947 8.6383324011 9.3646103773 9.8756313796 8.1377084616 8.1343457584 9.8772713640 9.2512891836 9.8786540920 9.8687977333 9.8686473741 9.8781311540 8.4911158027 8.7473709764 8.7110436884 8.9469118395 9.1519006498 9.1326217379 8.7197197358 8.3971515658 9.5917004838 9.6959662849 8.2683001297 9.3878299152 9.3851531842 9.6159907821 9.6414869477 9.2397564536 8.7197538808 8.8084127073 9.7060539474 9.0684697459 7.3573687649 9.7200479056 9.7327560460 7.4072112431 9.0238875168 8.0632442198 
</DataArray>
</PointData>
<CellData Scalars="pressure_p0,piezo_head_p0,pressure_diff,velocity_diff,div_diff," Vectors="velocity_p0," Tensors="">
<DataArray type="Float64" Name="pressure_p0" format="ascii">
5.7256388969 6.8273115244 7.4456292453 7.8552440881 8.1400875921 8.3421229318 8.4850210955 8.5846856681 8.6504629765 8.6820372147 8.6809404096 8.6484690430 8.5825901155 8.4804338806 8.3352012058 8.1321530979 7.8509870032 7.4522640356 6.8379658805 5.7298029367 9.0307019161 9.0138308251 9.2127301251 8.3269565647 8.9383948975 7.9527665111 9.2136383603 9.2915438316 7.7888728631 9.4278148074 9.3924315235 8.5028761048 8.5212772322 9.4919475681 8.8148135604 9.7305525787 8.8033210607 8.7446513408 8.8765507508 8.3235756076 8.2836245843 8.8939184305 7.7463223833 8.8390417967 9.8732763546 9.0776673344 9.0647647714 9.8731089665 9.8729007948 9.0652629606 9.0626989894 9.8626473116 8.9730128070 9.9250308440 8.9531424213 8.9368257421 9.9249797278 9.9248532645 8.9371248114 8.9341758925 9.9242946316 9.8571114173 8.7874874654 8.7843401312 9.8576973066 9.0063323439 9.0829541187 9.4319294566 9.2622313676 9.5445081110 9.5181981688 8.9471999150 8.6323733044 9.5143685884 8.9463388134 7.8542095853 8.8407613274 8.6999113281 9.6829188302 8.7053842047 9.3986873045 9.3439987486 8.1562577939 9.7061335863 9.7069427270 8.6242039059 9.3885632230 9.3745215475 9.3945158673 9.3676408163 9.1176010707 8.7972710510 8.8039921467 9.0630718653 9.4866314297 9.2740051111 9.4379569535 9.2204355335 9.3098477315 7.9572295223 8.7853969911 9.7143728270 9.7166823789 8.7826087705 8.9383443150 8.6233560824 7.9392093581 8.1200134631 9.4893743914 9.0615476298 8.9498858703 9.6251474970 8.3631573011 9.0982762199 9.1817937939 9.5483503380 8.9269703689 7.5240168814 8.7998233298 8.7326969336 8.6459858438 8.2418924071 8.8247701462 9.2242493090 8.6592595359 8.8486479217 8.8215150124 9.1461696012 8.6682888090 8.7308458330 8.7030781481 9.0970653083 9.8773629364 7.7534388680 7.7479969698 9.8776040340 9.5112141548 7.4728519844 9.7612513428 9.7615287137 7.4594774177 9.1744068630 8.6827726121 8.7848658803 8.6572676437 9.9329829952 9.9317368386 8.6609650221 8.7734792603 9.0872743308 9.9247208117 9.4271099104 9.4227315444 9.9245963913 9.9232591118 9.4260497679 9.4217602503 9.9231764662 8.3412476875 8.6104000849 8.4736662661 8.7345374470 8.9142997062 9.0544544969 8.7342810130 8.6410143781 8.8316072064 9.3618831980 9.1889743506 8.7649035507 9.2260834583 9.2457351837 9.0939923009 7.9667001630 9.5504643865 9.5490908224 9.0362418328 8.0544755240 9.5843911248 9.5821253501 8.6701995712 9.5364691620 8.7455689168 8.0184387996 9.7612747809 9.1222652440 9.1019259392 9.7609118777 9.7587970412 9.1070671040 9.1001526398 9.7408793207 8.6500351744 8.5929464564 8.9108663757 8.7669038187 8.8873526497 8.5670051645 8.5427612835 8.4900132407 8.7024463144 8.7428096743 8.7710327051 8.7589168364 8.8121450839 8.4511279420 8.7332456414 9.3481023044 8.4679480464 8.2175480079 8.9243516610 8.5714297105 8.9929104319 8.7176619445 9.6694153544 7.5021435692 9.6877402897 9.6854668934 8.3162207820 9.6305328442 8.9775061111 8.9211362215 8.6181703076 8.7742823992 9.2673400967 9.2683758049 9.1656509810 9.1589970040 9.8662033526 9.5128020221 9.5087121313 9.8659634263 9.8644780627 9.5119183790 9.5079594959 9.8643415639 9.2597049036 9.0267534220 9.1298282175 8.4625845449 8.7258229093 8.4686471478 9.1130524128 8.6220562073 9.3590359999 9.7008301345 9.6668782806 9.2794358806 8.6841736704 8.7612371389 9.0706073703 8.9427395797 9.6345356594 9.6540027293 9.1591188915 9.0526335760 9.2620350275 9.0396710816 9.2853955002 9.1567203652 9.2402060648 9.2716510343 8.4379581140 8.9520933304 9.5616435933 9.6338372842 9.7162408839 9.6272246536 9.7098441318 9.7094113726 9.6267520343 9.7150001239 9.6322862728 8.6047261077 9.2516436020 7.9613851504 9.6857288542 9.6860342284 8.7397235329 8.6954989764 9.0664324399 8.7032879992 7.5190088951 9.9486354484 9.9487055357 7.5304449183 9.8618424894 9.7058603525 9.6988965033 9.8556737208 9.8554774971 9.6992335197 9.7045948789 9.8612463761 8.6802175133 8.7562112513 9.0563505639 7.8932906209 8.4208923643 8.7149222663 8.7750414603 8.4423739345 8.3251191986 9.8815177281 7.5309390586 7.5286170772 9.8846398795 8.2587656419 9.5327583895 9.3766668180 9.1603120887 8.7844041173 9.3563214207 8.8214428673 9.4573103422 7.6462410149 9.5669526896 9.5619096294 8.6738132064 9.6632999426 8.6721029651 8.7705242828 8.5085128172 9.4808075017 8.5080052298 9.3788977096 9.1555177103 9.7349675958 9.7274500957 9.5167806762 9.7215123865 9.7209902765 9.5127338103 9.5160105172 9.7191833749 9.7189271531 9.5120576145 9.3270721008 9.4001494941 8.3639441641 9.3629284978 9.0709867713 8.1607300415 8.7154607701 9.4935035304 9.4327609233 8.8959747522 9.4358313108 8.8938907172 9.2074196878 8.7621692900 9.3619352636 9.1052130527 9.1815622202 8.9576410225 8.5709080947 8.6394761235 7.8922956359 9.5250482994 8.9642216489 8.8782411223 9.8739316195 8.8124374982 8.7960708623 9.8637595684 7.7387731619 9.7648883443 9.7652845020 7.7279520052 8.8405749156 9.5184195161 9.5086375665 8.4005816577 9.2957152643 8.7907674673 8.6902415713 8.6919789354 8.0683593511 9.9450467799 9.9471109851 8.0661314054 9.0467808523 9.0618465288 9.0811596675 9.0637004919 9.7090072020 9.8774251206 9.8029544999 9.8660148331 9.7910936255 9.7913273654 9.8658537512 9.8021051006 9.8768972417 9.6215288271 9.6545115601 9.6581247835 9.3154384573 9.6252040214 9.4411949022 9.3093509405 9.4353447884 8.8014583117 7.7938284902 8.6529539612 8.0477391561 7.9316955653 8.9548202974 8.7353822696 9.0252198361 9.0882491908 8.5519150369 8.8900443497 8.5567052325 9.3951412819 8.9333443080 8.9106874432 9.3471340480 8.9380806973 9.4336935012 8.8584166949 8.5733125663 9.0888091459 9.0998967894 9.1404620620 9.1225699511 8.5628283649 8.7112532636 9.1546609368 9.0599654908 9.1544982487 9.0159177441 8.7718673875 9.5562643794 8.9238157005 8.1455634412 9.7956371220 9.7967203605 8.1458005705 9.0575831655 7.3391496599 8.6320502979 9.3204309600 8.6600932808 9.3950923103 9.0063208605 8.9453663468 9.0916890922 8.2814312018 8.0557188576 9.0822160094 8.8843236594 9.2140627578 9.1847923183 9.9545951977 7.6611923180 7.6499155866 9.9516268375 9.0608746140 9.9418223782 9.6364029235 9.6353125825 9.9417209939 9.9416473038 9.6356781190 9.6348266511 9.9415791124 8.3344700750 8.7271420881 8.7328601383 9.4593045271 8.7663703579 9.4608739523 8.7691842343 8.7493084596 8.5352061375 8.8823942931 9.2141327164 7.9288450924 9.8967465489 9.9018547512 7.9181630786 7.9599518949 9.8871201023 9.8874320408 7.9567666418 8.6937269348 8.5702795928 8.7710966767 8.8674643717 9.2022523875 9.3885551619 9.1635462803 8.7842251879 8.8011843595 8.8895897880 8.7118156542 8.8589338137 9.1045554038 8.2923012124 8.9540245517 9.5097348058 8.5797459280 8.5827916042 9.5425243312 8.6969827155 9.3053281477 8.9653460866 9.3023580823 8.9610376681 8.9553519581 9.4749594184 8.9062184218 9.3023088287 9.4409316221 9.4522786538 8.4586656021 9.5156536136 9.4367326927 9.5661152078 9.4430291138 9.4394524881 7.7895297438 8.5679723028 8.7290620479 7.5438761620 8.5782804869 8.9737040958 9.5000347179 8.9204115349 8.7066812256 9.3900931810 9.3875683787 9.4103330975 9.4066986815 9.6797269338 9.4159829937 9.4227044354 8.9242435446 9.6537170700 9.0414614638 9.6749088165 8.6811388028 9.2189242810 9.2696207626 9.4131423921 8.4282909483 9.2239849168 8.2223453480 8.5395391914 8.5561834054 9.6828997619 9.0393946214 9.6853659179 9.0334987348 9.6535244401 8.9071249107 9.6500483647 8.9056669787 9.3528824905 9.3453293869 8.7812937278 8.6791162585 9.5450476075 8.6831999927 8.5988456142 9.1720263211 9.3673586682 9.4863901544 9.0747535220 9.3097360534 8.9369028956 8.7729519085 8.8527162978 9.4544705738 9.6497461753 9.4531559161 8.3392366901 9.5385243095 8.7358058451 9.5368981332 9.2395636799 7.8340614017 9.7256563000 8.8419587544 8.8719295309 9.4308733716 9.9482642603 8.6724218693 8.6699541391 9.9381611396 8.9114037039 7.2481064634 9.8902058259 9.8835099306 7.2621640359 8.6850391756 8.8136617409 9.5586162210 9.2305018879 8.8996498457 8.9349381423 9.0011037425 9.7922079672 9.7871779184 7.7676796516 9.2694475833 9.7568605251 9.3100610355 9.8719208014 9.3090238038 9.8734718433 9.2715391792 9.7604382641 9.2601602989 9.8619915301 9.3053634948 9.8732841818 9.3066296745 9.7600957555 9.2614593924 8.9776226703 9.0007884923 8.4209457551 8.1475839570 7.8607800880 7.6821030577 9.0851928634 8.4115940166 8.3617504839 7.8975152193 8.2309100323 8.4936532601 9.4837754399 8.4944227578 8.5885180424 8.5451840820 9.5393221412 8.5969308919 9.7387305023 9.6931457013 8.4777136787 9.1109441909 8.9038985276 8.3439460760 9.2631804413 8.9070907418 9.2548763346 8.8980617115 9.3592015093 9.0020036394 9.2521623849 9.5212537378 8.6902646340 9.2330181495 9.0754637024 9.2310738127 9.0687358234 8.6551560932 8.8399899091 9.3361115836 9.6803440179 9.3316331103 9.6539440560 9.5170213728 8.5694367980 9.7305478374 8.5719835595 8.5781593194 8.5648939211 9.5812009371 8.9352090443 9.0100046947 8.6475561128 7.5836212453 8.8523376387 8.9278685631 8.8201771377 8.8929082554 8.8144039688 8.9615830564 8.8032709414 8.6484408810 9.8395208143 7.1730770236 7.1732021426 9.8396998724 9.0663728410 8.7216299913 8.7421361752 9.1803709702 8.2332063713 9.2907939168 9.3272601167 8.8826020966 8.3681889875 8.2816643101 8.7866535522 8.7167654745 8.2871099214 8.4408680166 8.5938619320 8.9240010820 8.7281751871 9.4825826736 9.4861212338 9.4677564765 9.4622404800 9.7138380387 8.5186417899 8.5183717151 9.1647353034 9.1927326899 8.7866347627 8.1126747551 8.2431643977 8.8657137830 8.7147987180 8.4748446144 8.4366010591 8.7343782377 8.8358445719 9.0320083290 8.2958199639 7.6613770186 9.8874531953 8.5126760310 8.5083594079 9.8921680241 8.9170063689 8.8544343987 9.3928051853 8.6347084883 8.7394734401 8.3748479683 8.4086717251 7.9521726158 8.6455502458 8.2522909253 8.1727468912 9.1524441664 8.9591651132 9.1413497626 8.9481898745 8.8833057826 8.4496476899 9.7954783954 9.8009455217 8.4477159301 9.0038952300 8.5008097590 8.3098170243 8.7512005399 7.4641532613 9.6576827971 9.6431705150 9.3252120376 9.1483004081 9.5473564716 9.1018515471 9.3197393568 9.5831864040 9.3154360538 9.5553993153 8.4962275577 8.8270656658 9.5620209891 9.2411154541 9.0737686167 7.2830865417 9.7106381322 9.7050035394 9.1850748579 9.2221203996 8.3022417901 8.3623679274 8.2386829918 8.2130697447 9.3333869272 8.9970365997 9.9486188871 9.1997887293 9.2000965899 9.9485467404 9.9484748124 9.2006184600 9.1984624417 9.9387811244 8.7244423496 8.5153884872 8.6671071878 9.2892506718 9.6356757157 9.7188218903 7.7726984292 9.5310647347 9.5355567336 8.4775234083 9.6602208323 9.8221596186 8.2855497983 8.2835391667 9.8265005218 8.3604327581 9.9550318888 8.3751798274 8.3699593665 9.9584672572 8.6742241789 8.0585728446 9.9587840186 9.9589404882 8.0524430960 8.7536809197 8.4629087221 8.4973927145 9.4373833803 9.5510130112 9.4361729834 9.5800276718 9.2764425335 9.4032374505 8.4788020751 8.5650320379 8.0929434916 9.4582914684 9.4581258332 8.2551680401 9.5130676994 9.5107366508 8.3236865958 8.5472930916 9.3519033648 8.6341752902 8.6755450142 9.7256861471 8.1090786367 9.2356201003 9.2987624050 9.7752674201 9.2763700502 9.2091436672 9.1126742152 9.0740258337 7.9777093215 9.9571287110 6.9480780768 6.9522991200 9.9564268535 8.8415803411 8.3360157881 8.0283127028 8.1058466124 8.2933490724 8.8296294091 8.6688279783 8.3195855423 8.9366710588 8.7787601112 9.4248838082 9.8778447792 9.9521558948 9.9574352061 9.8832407580 9.9522129003 9.8777094858 9.8827373664 9.9572518635 9.6553273861 9.1822210682 8.7169610027 7.9983204907 9.8038019620 9.8070016157 7.9764768978 9.9114856727 8.5285209565 9.8264759403 8.5307166900 9.8995913203 8.4989518329 8.4969649894 9.8141918135 9.3588527220 9.2717705049 9.5884480710 9.1151564832 9.5834626420 9.1215285446 8.5453617244 9.5581141384 9.1507922725 9.1473616053 7.7419016408 9.5982144279 9.5966818056 9.2678808051 9.1713787233 9.2533966289 8.8174698791 8.8074725412 8.3891680294 9.6749915535 8.3707015538 9.5377244163 8.5556085020 9.5410921878 8.5608790121 9.0922371335 9.4581920962 8.9564688143 7.9435682440 8.3856425468 9.9628243884 9.9609472285 8.3830087993 8.7954383480 9.9658792147 6.9136756455 6.9083666415 9.9659146167 9.5777911925 9.1270143632 8.7774337651 8.2671004923 7.2400046343 9.9148349511 9.9149382630 7.2375986940 9.2919594382 8.1032844198 8.1307106869 8.2813206690 9.6323635846 9.0230306107 8.3811540121 9.1855804309 8.1617001105 8.1415862123 8.9944804899 8.9673526845 8.76