<?xml version="1.0"?>
<VTKFile type="UnstructuredGrid" version="0.1" byte_order="LittleEndian">
<UnstructuredGrid>
<Piece NumberOfPoints="492" NumberOfCells="906">
<Points>
<DataArray type="Float64" NumberOfComponents="3" format="ascii">
0.000000000000000e+00 0.000000000000000e+00 0.000000000000000e+00 0.000000000000000e+00 1.000000000000000e+00 0.000000000000000e+00 1.000000000000000e+00 1.000000000000000e+00 0.000000000000000e+00 1.000000000000000e+00 0.000000000000000e+00 0.000000000000000e+00 0.000000000000000e+00 5.263157894724207e-02 0.000000000000000e+00 0.000000000000000e+00 1.052631578944841e-01 0.000000000000000e+00 0.000000000000000e+00 1.578947368417262e-01 0.000000000000000e+00 0.000000000000000e+00 2.105263157889683e-01 0.000000000000000e+00 0.000000000000000e+00 2.631578947362221e-01 0.000000000000000e+00 0.000000000000000e+00 3.157894736835109e-01 0.000000000000000e+00 0.000000000000000e+00 3.684210526307997e-01 0.000000000000000e+00 0.000000000000000e+00 4.210526315780885e-01 0.000000000000000e+00 0.000000000000000e+00 4.736842105253773e-01 0.000000000000000e+00 0.000000000000000e+00 5.263157894727392e-01 0.000000000000000e+00 0.000000000000000e+00 5.789473684201740e-01 0.000000000000000e+00 0.000000000000000e+00 6.315789473676090e-01 0.000000000000000e+00 0.000000000000000e+00 6.842105263150439e-01 0.000000000000000e+00 0.000000000000000e+00 7.368421052624787e-01 0.000000000000000e+00 0.000000000000000e+00 7.894736842099683e-01 0.000000000000000e+00 0.000000000000000e+00 8.421052631574764e-01 0.000000000000000e+00 0.000000000000000e+00 8.947368421049842e-01 0.000000000000000e+00 0.000000000000000e+00 9.473684210524922e-01 0.000000000000000e+00 5.263157894724207e-02 1.000000000000000e+00 0.000000000000000e+00 1.052631578944841e-01 1.000000000000000e+00 0.000000000000000e+00 1.578947368417262e-01 1.000000000000000e+00 0.000000000000000e+00 2.105263157889683e-01 1.000000000000000e+00 0.000000000000000e+00 2.631578947362221e-01 1.000000000000000e+00 0.000000000000000e+00 3.157894736835109e-01 1.000000000000000e+00 0.000000000000000e+00 3.684210526307997e-01 1.000000000000000e+00 0.000000000000000e+00 4.210526315780885e-01 1.000000000000000e+00 0.000000000000000e+00 4.736842105253773e-01 1.000000000000000e+00 0.000000000000000e+00 5.263157894727392e-01 1.000000000000000e+00 0.000000000000000e+00 5.789473684201740e-01 1.000000000000000e+00 0.000000000000000e+00 6.315789473676090e-01 1.000000000000000e+00 0.000000000000000e+00 6.842105263150439e-01 1.000000000000000e+00 0.000000000000000e+00 7.368421052624787e-01 1.000000000000000e+00 0.000000000000000e+00 7.894736842099683e-01 1.000000000000000e+00 0.000000000000000e+00 8.421052631574764e-01 1.000000000000000e+00 0.000000000000000e+00 8.947368421049842e-01 1.000000000000000e+00 0.000000000000000e+00 9.473684210524922e-01 1.000000000000000e+00 0.000000000000000e+00 1.000000000000000e+00 9.473684210527046e-01 0.000000000000000e+00 1.000000000000000e+00 8.947368421054093e-01 0.000000000000000e+00 1.000000000000000e+00 8.421052631581138e-01 0.000000000000000e+00 1.000000000000000e+00 7.894736842108185e-01 0.000000000000000e+00 1.000000000000000e+00 7.368421052635596e-01 0.000000000000000e+00 1.000000000000000e+00 6.842105263164103e-01 0.000000000000000e+00 1.000000000000000e+00 6.315789473692610e-01 0.000000000000000e+00 1.000000000000000e+00 5.789473684221118e-01 0.000000000000000e+00 1.000000000000000e+00 5.263157894749625e-01 0.000000000000000e+00 1.000000000000000e+00 4.736842105276671e-01 0.000000000000000e+00 1.000000000000000e+00 4.210526315802255e-01 0.000000000000000e+00 1.000000000000000e+00 3.684210526327841e-01 0.000000000000000e+00 1.000000000000000e+00 3.157894736853426e-01 0.000000000000000e+00 1.000000000000000e+00 2.631578947379012e-01 0.000000000000000e+00 1.000000000000000e+00 2.105263157903501e-01 0.000000000000000e+00 1.000000000000000e+00 1.578947368427626e-01 0.000000000000000e+00 1.000000000000000e+00 1.052631578951750e-01 0.000000000000000e+00 1.000000000000000e+00 5.263157894758763e-02 0.000000000000000e+00 9.473684210527046e-01 0.000000000000000e+00 0.000000000000000e+00 8.947368421054093e-01 0.000000000000000e+00 0.000000000000000e+00 8.421052631581138e-01 0.000000000000000e+00 0.000000000000000e+00 7.894736842108185e-01 0.000000000000000e+00 0.000000000000000e+00 7.368421052635596e-01 0.000000000000000e+00 0.000000000000000e+00 6.842105263164103e-01 0.000000000000000e+00 0.000000000000000e+00 6.315789473692610e-01 0.000000000000000e+00 0.000000000000000e+00 5.789473684221118e-01 0.000000000000000e+00 0.000000000000000e+00 5.263157894749625e-01 0.000000000000000e+00 0.000000000000000e+00 4.736842105276671e-01 0.000000000000000e+00 0.000000000000000e+00 4.210526315802255e-01 0.000000000000000e+00 0.000000000000000e+00 3.684210526327841e-01 0.000000000000000e+00 0.000000000000000e+00 3.157894736853426e-01 0.000000000000000e+00 0.000000000000000e+00 2.631578947379012e-01 0.000000000000000e+00 0.000000000000000e+00 2.105263157903501e-01 0.000000000000000e+00 0.000000000000000e+00 1.578947368427626e-01 0.000000000000000e+00 0.000000000000000e+00 1.052631578951750e-01 0.000000000000000e+00 0.000000000000000e+00 5.263157894758763e-02 0.000000000000000e+00 0.000000000000000e+00 5.000768619666112e-01 6.073188554060099e-01 0.000000000000000e+00 6.795380246767664e-01 3.051439214016982e-01 0.000000000000000e+00 2.657431272343335e-01 3.583622349137769e-01 0.000000000000000e+00 7.778111410595571e-01 6.762714425551062e-01 0.000000000000000e+00 2.607426257384951e-01 7.108648205749732e-01 0.000000000000000e+00 1.925410402609788e-01 8.072897193003743e-01 0.000000000000000e+00 8.120681721638150e-01 1.867443256665874e-01 0.000000000000000e+00 8.429568111511234e-01 8.370136966129558e-01 0.000000000000000e+00 1.887085678387430e-01 1.942865534629338e-01 0.000000000000000e+00 1.651677048840214e-01 8.667722398931621e-01 0.000000000000000e+00 8.836633669191022e-01 1.084026514754809e-01 0.000000000000000e+00 9.685389086937463e-01 7.274054905852957e-02 0.000000000000000e+00 4.352932362624411e-02 9.173715253517774e-01 0.000000000000000e+00 9.241081310787339e-01 9.627872911261246e-01 0.000000000000000e+00 4.665702639581027e-01 2.966710361013457e-01 0.000000000000000e+00 7.457691610660050e-01 4.937482709445991e-01 0.000000000000000e+00 5.124327408742055e-01 7.972257391806719e-01 0.000000000000000e+00 4.139184944998919e-01 4.886178466606589e-01 0.000000000000000e+00 5.794123181752160e-01 4.770262960507517e-01 0.000000000000000e+00 5.745824728513373e-01 1.280831738701313e-01 0.000000000000000e+00 3.921967503782522e-01 1.185901536343156e-01 0.000000000000000e+00 9.992548653213773e-02 4.752146485274584e-01 0.000000000000000e+00 8.680062226361797e-01 4.287979305759036e-01 0.000000000000000e+00 2.991047558979558e-01 1.973979233801190e-01 0.000000000000000e+00 7.140071920057445e-01 8.382382491017021e-01 0.000000000000000e+00 8.189363322807111e-01 3.270427252528633e-01 0.000000000000000e+00 1.260422786413521e-01 3.831814387673006e-01 0.000000000000000e+00 3.744347783115686e-01 6.759694791923643e-01 0.000000000000000e+00 6.345513284423596e-01 6.545750755932673e-01 0.000000000000000e+00 1.482905044071461e-01 2.987819499203461e-01 0.000000000000000e+00 8.823950871163319e-01 6.747277421017024e-01 0.000000000000000e+00 7.045199380766443e-01 4.862305688554183e-02 0.000000000000000e+00 9.495676700920537e-02 2.542878793617160e-01 0.000000000000000e+00 9.161569341424017e-01 2.838790265759349e-01 0.000000000000000e+00 7.080441356431567e-01 9.610778915671577e-01 0.000000000000000e+00 2.902412080146349e-01 7.528496672690950e-02 0.000000000000000e+00 1.036024125949905e-01 6.657665487544948e-01 0.000000000000000e+00 2.616762994390670e-01 9.010984154916205e-01 0.000000000000000e+00 8.057964710161646e-01 9.988332988076845e-02 0.000000000000000e+00 9.193406562742105e-01 8.226521161808503e-01 0.000000000000000e+00 1.618217027865307e-01 9.113294842911728e-01 0.000000000000000e+00 2.216251568644465e-01 2.589589622123038e-01 0.000000000000000e+00 7.569837171226450e-01 2.445305945173807e-01 0.000000000000000e+00 8.590142195453966e-01 9.521276807895324e-01 0.000000000000000e+00 4.402477648881222e-02 8.663838880976044e-01 0.000000000000000e+00 9.474543022606529e-01 1.192562341855612e-01 0.000000000000000e+00 5.715115842330903e-02 1.339611925669680e-01 0.000000000000000e+00 8.718541440964978e-01 3.245699810888708e-02 0.000000000000000e+00 9.536019591372769e-01 9.155831064959428e-01 0.000000000000000e+00 9.161219870557668e-01 5.360690789524346e-02 0.000000000000000e+00 7.548922358470611e-02 9.489485111843923e-01 0.000000000000000e+00 5.492509137503038e-02 8.407525559195163e-02 0.000000000000000e+00 1.338290078374573e-01 8.889689671696894e-01 0.000000000000000e+00 8.850108101897147e-01 8.568356417223725e-01 0.000000000000000e+00 8.401324540582252e-01 1.461985836418656e-01 0.000000000000000e+00 3.736587383006215e-01 2.477899593021611e-01 0.000000000000000e+00 6.215822783678956e-01 2.231997275545906e-01 0.000000000000000e+00 1.685263063586827e-01 4.160471124896989e-01 0.000000000000000e+00 2.680261468312237e-01 4.562905052002703e-01 0.000000000000000e+00 8.121933773954787e-01 4.052869767154916e-01 0.000000000000000e+00 3.625119198709785e-01 3.273008519037463e-01 0.000000000000000e+00 3.468918975558964e-01 4.220211114867651e-01 0.000000000000000e+00 5.813425695337223e-01 7.274115590873627e-01 0.000000000000000e+00 5.768484086200723e-01 3.019361073474691e-01 0.000000000000000e+00 4.402151087125771e-01 7.381776909706687e-01 0.000000000000000e+00 7.137906082496469e-01 3.998326229438716e-01 0.000000000000000e+00 6.251561152114772e-01 3.939374276747084e-01 0.000000000000000e+00 4.375567280004101e-01 1.986674890152439e-01 0.000000000000000e+00 3.926866755464224e-01 5.805376032354694e-01 0.000000000000000e+00 5.332000484765275e-01 3.907911305757537e-01 0.000000000000000e+00 1.768746658781452e-01 5.942294572210166e-01 0.000000000000000e+00 4.385321552863963e-01 3.994211893040143e-01 0.00000000000000
[...]
<PointData Scalars="pressure_nodes_[L]," Vectors="">
<DataArray type="Float64" Name="pressure_nodes_[L]" format="ascii">
3.857874112327851e-08 3.586369252321535e-08 9.016212921835316e+01 9.055500643444989e+01 3.435485671671962e-08 4.514055070329599e-08 4.016960249072934e-08 3.300022243113416e-08 2.723535538121813e-08 2.063225238048997e-08 2.086213571207211e-08 2.839527157364635e-08 3.354033101782463e-08 2.921793765281155e-08 2.728745650649178e-08 2.861792212937769e-08 4.186227756220423e-08 2.725036347742654e-08 2.634199138582774e-08 2.756412590782893e-08 3.053075273329536e-08 2.726166143166683e-08 1.893325236170796e-07 1.031143178488559e-06 5.638797212253294e-06 2.865159606352705e-05 1.454955896019863e-04 6.266113335462090e-04 2.785810022464373e-03 1.133441653135708e-02 3.788795739109436e-02 1.258977048539401e-01 3.944162101284454e-01 1.125597080336848e+00 2.825915896189106e+00 6.373839400160994e+00 1.296196616748305e+01 2.513764363114677e+01 4.536092325640118e+01 7.029346243069838e+01 9.131075160268904e+01 9.064390074783655e+01 9.115984321310520e+01 9.172338446055424e+01 8.965804414785956e+01 8.790950909937480e+01 8.924336180927808e+01 8.817787967588497e+01 8.837092957250881e+01 9.002385251475589e+01 8.807580564552259e+01 9.139044565237829e+01 9.197403315872843e+01 9.183159936160355e+01 9.043482923404136e+01 8.950815945195168e+01 9.117612155434108e+01 9.305214823044977e+01 6.977451931551290e+01 4.537776145350335e+01 2.647161547879919e+01 1.431264338065234e+01 7.320105762203769e+00 2.772096595625500e+00 1.110896931059539e+00 4.013507857904815e-01 1.271161186472106e-01 3.686785915647108e-02 9.941748131973360e-03 2.476143299877129e-03 6.058107988350754e-04 1.472631992963997e-04 3.211040705454044e-05 6.225738869660067e-06 1.178310452049454e-06 2.188549856254597e-07 7.059957958501310e-02 2.601468197864424e+00 1.452491363659806e-04 1.187726033452368e+01 1.182742240237108e-04 1.710444803402567e-05 1.848724858650813e+01 2.716598047420046e+01 1.402684251144209e-05 7.771702488022850e-06 4.101401098293141e+01 8.158995629509215e+01 1.212034192392357e-07 5.805631325420733e+01 3.150093521189692e-02 7.457841704873422e+00 8.793150803995459e-02 7.769834467217442e-03 3.730935161884225e-01 3.569900207035848e-01 4.659878083821510e-03 8.167990699343638e-07 3.364558547436231e+01 4.029104863392672e-04 4.548195927940365e+00 1.999330477683485e+01 2.025347334972534e-06 2.825251852513899e-03 1.134602340373783e+00 3.995401754833552e-06 4.126849208619284e+01 3.825583908132141e+00 7.074392916748734e-07 5.551121610973322e+01 4.369572354424527e+00 2.983580822412634e-04 9.842675086242630e-07 1.350782330651778e-04 1.719129098368224e+01 5.662289460905015e+01 6.084030472267547e-06 3.896202557980386e-05 8.805569703189510e+00 3.216605981473516e+01 1.279262545455661e-07 7.056630121080640e+01 2.278775202293886e-07 3.721970533077659e+01 7.402797471714091e+01 5.551188769719051e+01 3.975006323873676e-07 1.999244970170159e-07 2.425180786180765e-06 4.145299926322951e+01 2.626653299610514e+01 2.827827830648031e-03 8.825544575393446e-01 8.002724170477772e-06 1.318353250461330e-04 1.853960109214123e+01 2.200769355454098e-03 1.362304546629294e-03 3.746349014079472e-01 3.636647953017823e-01 1.552491186060729e-02 4.593796835127730e+00 9.408810571486473e-01 1.470681242924457e-02 4.531256938687130e-03 1.403083033730038e-01 8.455876921042916e-06 1.505716151929109e-02 1.538688173668782e-03 1.887251360693465e+00 6.162649743828051e-06 7.105642070019629e-01 1.182966274145025e-01 3.058424591728168e+00 6.261055689101898e-01 8.420658539515575e-06 3.192100263234443e-04 2.717491088312252e+01 2.299641968135714e+01 2.670994225974115e-05 2.052147076909091e-06 1.110090901884114e-01 4.187084034444647e+00 8.899786381182433e-05 6.725665096484951e-07 1.856443758261368e+00 2.723845990776533e+01 5.766195480328446e-02 1.021488544808809e-02 5.184365705190363e+01 2.043609990261317e+00 1.033927421233149e+00 4.225771105638682e-02 4.158423332113460e-02 1.037647432771739e+00 1.824089657244224e-02 2.309500001932029e-02 1.291853320847533e-01 1.875530679186632e-05 1.199192847811937e-07 1.559116887918261e-03 3.234020430378428e+01 5.010114210039117e+01 1.994542226858783e-01 1.059033977770418e+01 4.110699092630029e-05 5.584223923530400e+00 2.900941748628604e+01 9.086675091523020e+00 3.367190332096166e-07 9.779237889581589e-04 4.536777642413122e-03 7.375117690640563e+01 2.618766647703169e-06 2.573218791090381e-04 2.213395698120874e+01 7.677096805146266e+01 1.007906790389159e-03 5.197366339363708e-05 1.210139565163585e-03 5.427057119147367e+01 8.771657719606932e+00 2.757447131598371e-04 9.843463929389936e+00 4.965822461267040e+01 3.733356071897194e-04 1.711780308274698e+01 2.917899468484675e+01 1.747617530067107e-07 7.991739728038411e+00 4.805807982740171e-05 9.505676519652692e+00 1.213659251517339e-06 1.553197297694374e+01 1.593035607135543e-07 7.328172832848469e+01 1.232034696500684e-07 9.449735751102205e-06 5.084983738182584e+01 4.264468492472341e+00 3.267868219585387e+01 1.493362841220619e-07 5.859797084512889e-06 8.650580668389647e-05 4.229208116852316e+01 1.474542038142676e-06 1.122169004333735e-05 1.464846499919414e+01 8.300442056315084e+00 1.970714184952873e+01 1.658475413173395e+01 1.746073363109319e+01 3.195872504645562e+01 1.446420438349848e-07 5.781988585373761e-07 4.691597214594930e+01 2.366494983602727e-06 6.568282038881092e-05 3.170106602219488e-06 1.269164592528782e-05 3.723966390269252e+01 2.564247473039368e-05 5.879539176278117e+01 2.861606445768507e+01 2.975717690594230e+01 4.755168030547318e+01 7.682118916301346e+01 5.222952120123602e-07 5.792315645191894e-07 1.109531722137659e-07 8.112118498904887e+01 8.004991039480392e+01 8.885398119987315e-08 2.871642582650027e-01 1.212218394532722e-02 2.868444314037842e-02 9.314771063632261e-02 8.013779318675083e-03 4.795603057667980e-04 1.318585316430685e-04 3.658124041136995e-05 7.941767294981925e-03 7.343023333024448e-02 1.966484867311205e-02 5.996911053654195e-03 1.155695893870614e+01 1.687828857133417e+00 5.865339905833327e-07 8.653867364287329e-01 6.176183971413920e-03 2.145804098224365e-02 2.059718287031564e-01 1.208923735280977e-01 1.492937499521772e+00 5.997720758946923e+00 8.127546220955931e-02 6.080131203412193e-01 9.890979878522744e-01 6.023705338757235e-04 4.773828580741565e+00 2.933895252810017e+00 5.963345029292796e-01 3.306775235452746e+00 1.959916336027622e-01 3.664807393767819e-01 3.005313150288518e-07 1.035374115778127e-03 6.488113713847274e-02 4.782101003294513e-01 2.230671728252871e-01 2.398212491694627e-01 1.364440521274205e+00 3.240601032034709e-02 1.077894454861403e-07 1.753746442595828e-03 8.746639651077160e+00 1.318661510864010e-02 3.550393368107084e-02 3.576846486346604e-03 5.380815617541066e+00 5.875860434337197e-03 3.879150684902064e-04 2.375026732289897e+00 4.715653037859568e-02 3.870366259584580e-02 1.943444920888657e-02 8.980539224399005e-01 1.472353941520070e-05 3.321278239023888e+00 2.596639086045351e-01 2.650924442107907e+00 1.130217086048956e+00 7.157427468326047e-05 5.926951165176224e-01 2.324204523682022e-01 3.448337415951650e-03 1.871060167835025e+00 1.464530007535242e+00 4.617427413130379e-03 3.180523153154574e-02 7.166708526178471e-04 3.157364682410561e-06 1.155777999011383e+00 2.907900513336002e-04 1.761274951772030e-05 5.335876748771028e-01 2.082132732175857e-03 2.546263218875678e-03 8.952526770802027e-02 2.129085260892641e+00 3.786487999873010e-01 4.154015948655111e+00 8.874648471525647e-02 1.914092537402954e-06 7.080710307197720e+00 2.327679310756612e-02 4.198948205991405e-05 6.956708871522904e-02 1.731741215256520e+00 3.379073796986439e-05 3.796113056719518e+00 1.070350699752710e-02 6.584628372380226e-01 1.075996769732181e-03 3.727299336245567e-02 1.647154367296040e-01 6.681938599272368e-03 6.168126825786139e-05 7.496419436979995e-03 4.256885193833136e-03 4.099184986026309e-01 6.713063985521391e-02 8.643916237095307e-08 1.894546936507709e-01 7.089616832358757e-06 2.266296702135535e-01 9.759941798618107e-03 8.073196181047417e-04 1.658138520975458e-02 2.178545442911013e-03 2.828308262407194e-03 1.490790661579021e-01 6.389366625965705e-07 1.987363253528718e-04 1.178213529708485e-03 2.049636667177171e-05 1.387377501111888e+01 2.243250950070768e-01 7.641975587266211e+00 3.240465344636462e-06 9.556571387021505e+00 2.414537227694794e-02 1.448067316528598e+01 2.545813434344965e-03 5.723021696643911e-06 4.382225883086837e+00 7.487526075960085e-01 1.572789696323032e+01 8.561297701441984e-01 1.611787264555775e+01 1.251236849479177e-03 8.436203303349431e-05 2.163077774052856e-02 2.533632733275545e-03 2.152541533982939e+01 1.501128644795866e-02 7.546795392614400e-02 1.356489890145595e-01 1.195666568489738e-01 2.401600772023509e-01 4.514039545080958e-02 4.037360953778663e-04 2.099508374942752e-05 2.409884666417713e-04 4.092953974131530e+01 9.422785183118554e+00 3.419471438804609e-04 2.401052137326330e-05 1.469839314653677e+01 2.245191961912679e-05 7.357457104755905e+00 4.364438567701060e+01 1.839180792005952e+00 6.511003378698604e+01 8.522936496672117e-01 7.702514358128114e+01 1.298417731037799e-02 9.402611101958999e-07 6.887458454094331e-03 1.177318151391122e-03 1.972651669665242e+01 1.770116031344738e-06 7.303513187363109e+01 1.061391070277694e-02 6.548873052840296e-03 9.022303392059085e+00 3.969398246766814e+00 2.286683506832312e+00 4.762779369277857e-01 6.666404864597816e-02 5.705564529207793e+00 5.427253619055505e-03 6.953909122868910e-01 3.059335324320054e+01 8.158702870020790e-03 2.501881498524031e+00 2.990117924314848e-04 2.800756466456788e-02 8.098693357312455e+01 3.168552656976177e-01 6.952005464217054e-02 5.737422122015834e-04 5.069293257734837e+00 1.460799906784531e+00 6.402325956384408e-07 2.066718351528583e-03 6.720225257865501e+01 1.479438675932659e-06 8.632042810783579e-05 1.937485414614943e+01 1.471797974924385e+00 3.908842873315726e-06 3.573694090492165e+01 1.651767815681141e-04 7.598528277832514e+01 5.687769152698891e+01 1.496050743985171e-06 3.238579715297292e-06 1.448749432713535e+01 5.030961737033726e-01 7.881897535185149e-06 1.452266761676978e-07 7.009439495089196e-01 1.685090848072617e-06 4.880835233795716e-07 5.274826102411378e+01 2.201198257768147e-06 7.901259030831910e+01 2.125946260305239e-02 4.732034105321651e-04 6.476833165133256e+01 8.599274222173365e+00 8.266800980145007e-08 1.173535202962327e-07 1.190925563346072e-04 1.665951633108957e+00 3.112210009241977e+00 6.876697692918817e-05 3.636528490055629e-05 1.127942780779379e-06 1.691451805580209e+00 6.879660401298812e-08 7.462678359088177e+01 2.515171309469606e+00 5.030895911080946e+00 1.109614134837972e-03 3.521280682689528e-02 7.023412543825815e+01 2.929090113748226e-04 2.730424420800498e+01 3.231819143839034e+00 7.781515148885512e+01 1.154182197456520e+01 1.736991213524030e+01 4.070903679702410e-07 8.077776910909815e-05 1.872815980588803e+00 2.197189788619515e-01 3.357206773881903e-01 5.379122161749377e-05 7.298392426272289e-08 8.361434446854915e-04 
</DataArray>
</PointData>
<CellData Scalars="pressure_elements_[L]," Vectors="velocity_elements_[L/T],">
<DataArray type="Float64" Name="pressure_elements_[L]" format="ascii">