<?xml version="1.0"?>
<VTKFile type="UnstructuredGrid" version="0.1" byte_order="LittleEndian">
<UnstructuredGrid>
<Piece NumberOfPoints="3000" NumberOfCells="1000">
<Points>
<DataArray type="Float64" NumberOfComponents="3" format="ascii">
0.5 0 0 0.44999999999979179 0 0 0.45006094674727393 0.049939053252725678 0 0.5 0 0 0.45006094674727393 0.049939053252725678 0 0.5 0.049999999999907327 0 0 0.5 0 0.049999999999907327 0.5 0 0.049939053252718357 0.45006094674728131 0 0 0 0 0 0.049999999999907327 0 0.049939053252714832 0.049939053252714458 0 0 0.5 0 0.049939053252718357 0.45006094674728131 0 0 0.44999999999986839 0 0 0 0 0.049939053252714832 0.049939053252714458 0 0.050000000000207989 0 0 0.5 0.5 0 0.45155546960055909 0.45155546960055909 0 0.44999999999986839 0.5 0 0.5 0.5 0 0.5 0.44999999999986839 0 0.45155546960055909 0.45155546960055909 0 0.1719527938089627 0.1757485956097096 0 0.19817473867912619 0.22966033767512689 0 0.21314711753641541 0.18140124357578011 0 0.34401704403840427 0.21400789402298909 0 0.32511317650161292 0.17833555763855879 0 0.29900805705886913 0.2307437922122276 0 0.25698395696643828 0.35320773616619477 0 0.27477467384659637 0.29917665887992267 0 0.22675483431528479 0.32226059582054611 0 0.38792895373993491 0.2465331984188868 0 0.37769174437471592 0.1869495303164449 0 0.34401704403840427 0.21400789402298909 0 0.32511317650161292 0.17833555763855879 0 0.28323795321842432 0.1800458652760705 0 0.29900805705886913 0.2307437922122276 0 0.14765003828931139 0.2107336584867868 0 0.19817473867912619 0.22966033767512689 0 0.1719527938089627 0.1757485956097096 0 0.29668136328859879 0.34862304207220829 0 0.27477467384659637 0.29917665887992267 0 0.25698395696643828 0.35320773616619477 0 0.25000000000102929 0 0 0.20000000000083221 0 0 0.2287295243217361 0.055738222614712521 0 0 0.24999999999934711 0 0 0.29999999999947341 0 0.054921602787359823 0.26676981456789323 0 0.5 0.24999999999934711 0 0.44507839721264347 0.26676981456791149 0 0.5 0.29999999999947341 0 0.24999999999934711 0.5 0 0.29999999999947341 0.5 0 0.27090104425495592 0.44433471587743018 0 0 0.29999999999947341 0 0.036036770684585398 0.32145483387550189 0 0.054921602787359823 0.26676981456789323 0 0.5 0.29999999999947341 0 0.44507839721264347 0.26676981456791149 0 0.46396322931541528 0.32145483387551599 0 0.29999999999947341 0.5 0 0.32314938431302531 0.46356552826982089 0 0.27090104425495592 0.44433471587743018 0 0.20000000000083221 0 0 0.17764503390253311 0.036200094650033432 0 0.2287295243217361 0.055738222614712521 0 0.38792895373993491 0.2465331984188868 0 0.41870155844144408 0.218971621824574 0 0.37769174437471592 0.1869495303164449 0 0.28323795321842432 0.1800458652760705 0 0.29952489760380191 0.13061147298307579 0 0.24349705814113851 0.1559941710220436 0 0.24885392191016831 0.1095680955199838 0 0.24349705814113851 0.1559941710220436 0 0.29952489760380191 0.13061147298307579 0 0.22675483431528479 0.32226059582054611 0 0.22220417630110581 0.28190202962739158 0 0.18092988968447121 0.3226117504950482 0 0.29668136328859879 0.34862304207220829 0 0.32415126250434573 0.31979102550825761 0 0.27477467384659637 0.29917665887992267 0 0.38792895373993491 0.2465331984188868 0 0.34401704403840427 0.21400789402298909 0 0.34767361211511949 0.25117126239044052 0 0.28323795321842432 0.1800458652760705 0 0.24853472249852021 0.20625671876095891 0 0.29900805705886913 0.2307437922122276 0 0.075566965457871907 0.32035505631969441 0 0.054921602787359823 0.26676981456789323 0 0.036036770684585398 0.32145483387550189 0 0.42443303454212999 0.32035505631971462 0 0.46396322931541528 0.32145483387551599 0 0.44507839721264347 0.26676981456791149 0 0.32485037023743257 0.42252063606660017 0 0.27090104425495592 0.44433471587743018 0 0.32314938431302531 0.46356552826982089 0 0.17964494368028161 0.075566965457818339 0 0.2287295243217361 0.055738222614712521 0 0.17764503390253311 0.036200094650033432 0 0.39999999999999991 0 0 0.3500000000003467 0 0 0.37061662151835162 0.049361608679257957 0 0.5 0.099999999999778932 0 0.45116743210651339 0.1304631984279884 0 0.5 0.1499999999996332 0 0.099999999999778932 0.5 0 0.1499999999996332 0.5 0 0.13079539411209021 0.45129686624410659 0 0 0.099999999999778932 0 0 0.1499999999996332 0 0.048933028806049127 0.13057565049041919 0 0 0.34999999999960502 0 0 0.39999999999973668 0 0.049695285177695322 0.37014929849084349 0 0.34999999999960502 0.5 0 0.39999999999973668 0.5 0 0.36999550707365908 0.45097228940507378 0 0.5 0.34999999999960502 0 0.45030471482230322 0.37014929849087552 0 0.5 0.39999999999973668 0 0.15000000000062411 0 0 0.1000000000004161 0 0 0.12985070150919131 0.049695285177636293 0 0.22675483431528479 0.32226059582054611 0 0.18092988968447121 0.3226117504950482 0 0.20597454237758769 0.36163587631531352 0 0.24999999999999509 0.39015679442508178 0 0.27090104425495592 0.44433471587743018 0 0.29289883247780052 0.39144624501764308 0 0.32485037023743257 0.42252063606660017 0 0.29289883247780052 0.39144624501764308 0 0.27090104425495592 0.44433471587743018 0 0.25000000000102929 0 0 0.2287295243217361 0.055738222614712521 0 0.28535787966508452 0.040997434039757918 0 0.5 0.24999999999934711 0 0.45837566233796467 0.21496062213928149 0 0.44507839721264347 0.26676981456791149 0 0 0.24999999999934711 0 0.054921602787359823 0.26676981456789323 0 0.040902071848020333 0.21695619809520539 0 0.24999999999934711 0.5 0 0.27090104425495592 0.44433471587743018 0 0.21940929229971959 0.46006596582023551 0 0.17900240392815411 0.28242294189944689 0 0.18092988968447121 0.3226117504950482 0 0.22220417630110581 0.28190202962739158 0 0.32202548895006922 0.28209242784984911 0 0.27477467384659637 0.29917665887992267 0 0.32415126250434573 0.31979102550825761 0 0.17900240392815411 0.28242294189944689 0 0.15305993590804801 0.25099769163161822 0 0.13124946125602999 0.30021459468860429 0 0.1098432055749146 0.24999999999998551 0 0.13124946125602999 0.30021459468860429 0 0.15305993590804801 0.25099769163161822 0 0.32676672825558623 0.070988923897011683 0 0.36634396548604953 0.098619481206936005 0 0.37061662151835162 0.049361608679257957 0 0.075566965457871907 0.32035505631969441 0 0.049695285177695322 0.37014929849084349 0 0.10019171678150619 0.36851182260159998 0 0.42443303454212999 0.32035505631971462 0 0.39980828321848422 0.36851182260164861 0 0.45030471482230322 0.37014929849087552 0 0.17964494368028161 0.075566965457818339 0 0.12985070150919131 0.049695285177636293 0 0.1314881773984512 0.1001917167814514 0 0.24885392191016831 0.1095680955199838 0 0.28711665878673959 0.086204954276461576 0 0.2287295243217361 0.055738222614712521 0 0.38792895373993491 0.2465331984188868 0 0.44507839721264347 0.26676981456791149 0 0.41870155844144408 0.218971621824574 0 0.2489962798508365 0.25045589276658847 0 0.29900805705886913 0.2307437922122276 0 0.24853472249852021 0.20625671876095891 0 0.32202548895006922 0.28209242784984911 0 0.36541588621528998 0.29784115215566859 0 0.34767361211511949 0.25117126239044052 0 0.41474867724865022 0.085251322751317193 0 0.39791482171894588 0.13651959991084811 0 0.45116743210651339 0.1304631984279884 0 0.085251322751285399 0.41474867724864328 0 0.13079539411209021 0.45129686624410659 0 0.13610308783088509 0.40063264831089429 0 0.085251322751361422 0.085251322751267455 0 0.048933028806049127 0.13057565049041919 0 0.099367351689118713 0.1361030878308033 0 0.4147486772486999 0.4147486772486999 0 0.36552586562403078 0.39870540675930871 0 0.36999550707365908 0.45097228940507378 0 0.17900240392815411 0.28242294189944689 0 0.13124946125602999 0.30021459468860429 0 0.18092988968447121 0.3226117504950482 0 0.29668136328859879 0.34862304207220829 0 0.35371896147447351 0.35207987288804249 0 0.32415126250434573 0.31979102550825761 0 0.32673507862046719 0.38267504056076052 0 0.35371896147447351 0.35207987288804249 0 0.29668136328859879 0.34862304207220829 0 0.1098432055749146 0.24999999999998551 0 0.15305993590804801 0.25099769163161822 0 0.14765003828931139 0.2107336584867868 0 0.38792895373993491 0.2465331984188868 0 0.34767361211511949 0.25117126239044052 0 0.36541588621528998 0.29784115215566859 0 0.1098432055749146 0.24999999999998551 0 0.14765003828931139 0.2107336584867868 0 0.1080954158735314 0.20728557537219169 0 0.14642857142856219 0.35357142857141971 0 0.18092988968447121 0.3226117504950482 0 0.13124946125602999 0.30021459468860429 0 0.2489962798508365 0.25045589276658847 0 0.27477467384659637 0.29917665887992267 0 0.29900805705886913 0.2307437922122276 0 0.32202548895006922 0.28209242784984911 0 0.29900805705886913 0.2307437922122276 0 0.27477467384659637 0.29917665887992267 0 0.30000000000069338 0 0 0.25000000000102929 0 0 0.28535787966508452 0.040997434039757918 0 0.5 0.19999999999948739 0 0.45837566233796467 0.21496062213928149 0 0.5 0.24999999999934711 0 0 0.19999999999948739 0 0 0.24999999999934711 0 0.040902071848020333 0.21695619809520539 0 0.19999999999948739 0.5 0 0.24999999999934711 0.5 0 0.21940929229971959 0.46006596582023551 0 0.24999999999999509 0.39015679442508178 0 0.22981445203976261 0.42382767406811328 0 0.27090104425495592 0.44433471587743018 0 0.39999999999999991 0 0 0.37061662151835162 0.049361608679257957 0 0.41005086005483898 0.039985702861265203 0 0.5 0.099999999999778932 0 0.46001429713870579 0.089949139945145154 0 0.45116743210651339 0.1304631984279884 0 0.099999999999778932 0.5 0 0.13079539411209021 0.45129686624410659 0 0.089949139945131901 0.46001429713871461 0 0 0.099999999999778932 0 0.048933028806049127 0.13057565049041919 0 0.039985702861277832 0.089949139945122158 0 0 0.39999999999973668 0 0.03998570286113802 0.41005086005491759 0 0.049695285177695322 0.37014929849084349 0 0.39999999999973668 0.5 0 0.41192744031565531 0.46091001509805762 0 0.36999550707365908 0.45097228940507378 0 0.5 0.39999999999973668 0 0.45030471482230322 0.37014929849087552 0 0.46001429713887992 0.41005086005494301 0 0.1000000000004161 0 0 0.089949139945056739 0.039985702861083668 0 0.12985070150919131 0.049695285177636293 0 0.147650038289311
[...]
<PointData Scalars="A_conc," Vectors="" Tensors="">
<DataArray type="Float64" Name="A_conc" format="ascii">
0 0 0 0 0 0 0 0 0 0 0 0 0 0 0 0 0 0 0 0 0 0 0 0 0 0 0 0 0 0 0 0 0 0 0 0 0 0 0 0 0 0 0 0 0 0 0 0 0 0 0 0 0 0 0 0 0 0 0 0 0 0 0 0 0 0 0 0 0 0 0 0 0 0 0 0 0 0 0 0 0 0 0 0 0 0 0 0 0 0 0 0 0 0 0 0 0 0 0 0 0 0 0 0 0 0 0 0 0 0 0 0 0 0 0 0 0 0 0 0 0 0 0 0 0 0 0 0 0 0 0 0 0 0 0 0 0 0 0 0 0 0 0 0 0 0 0 0 0 0 0 0 0 0 0 0 0 0 0 0 0 0 0 0 0 0 0 0 0 0 0 0 0 0 0 0 0 0 0 0 0 0 0 0 0 0 0 0 0 0 0 0 0 0 0 0 0 0 0 0 0 0 0 0 0 0 0 0 0 0 0 0 0 0 0 0 0 0 0 0 0 0 0 0 0 0 0 0 0 0 0 0 0 0 0 0 0 0 0 0 0 0 0 0 0 0 0 0 0 0 0 0 0 0 0 0 0 0 0 0 0 0 0 0 0 0 0 0 0 0 0 0 0 0 0 0 0 0 0 0 0 0 0 0 0 0 0 0 0 0 0 0 0 0 0 0 0 0 0 0 0 0 0 0 0 0 0 0 0 0 0 0 0 0 0 0 0 0 0 0 0 0 0 0 0 0 0 0 0 0 0 0 0 0 0 0 0 0 0 0 0 0 0 0 0 0 0 0 0 0 0 0 0 0 0 0 0 0 0 0 0 0 0 0 0 0 0 0 0 0 0 0 0 0 0 0 0 0 0 0 0 0 0 0 0 0 0 0 0 0 0 0 0 0 0 0 0 0 0 0 0 0 0 0 0 0 0 0 0 0 0 0 0 0 0 0 0 0 0 0 0 0 0 0 0 0 0 0 0 0 0 0 0 0 0 0 0 0 0 0 0 0 0 0 0 0 0 0 0 0 0 0 0 0 0 0 0 0 0 0 0 0 0 0 0 0 0 0 0 0 0 0 0 0 0 0 0 0 0 0 0 0 0 0 0 0 0 0 0 0 0 0 0 0 0 0 0 0 0 0 0 0 0 0 0 0 0 0 0 0 0 0 0 0 0 0 0 0 0 0 0 0 0 0 0 0 0 0 0 0 0 0 0 0 0 0 0 0 0 0 0 0 0 0 0 0 0 0 0 0 0 0 0 0 0 0 0 0 0 0 0 0 0 0 0 0 0 0 0 0 0 0 0 0 0 0 0 0 0 0 0 0 0 0 0 0 0 0 0 0 0 0 0 0 0 0 0 0 0 0 0 0 0 0 0 0 0 0 0 0 0 0 0 0 0 0 0 0 0 0 0 0 0 0 0 0 0 0 0 0 0 0 0 0 0 0 0 0 0 0 0 0 0 0 0 0 0 0 0 0 0 0 0 0 0 0 0 0 0 0 0 0 0 0 0 0 0 0 0 0 0 0 0 0 0 0 0 0 0 0 0 0 0 0 0 0 0 0 0 0 0 0 0 0 0 0 0 0 0 0 0 0 0 0 0 0 0 0 0 0 0 0 0 0 0 0 0 0 0 0 0 0 0 0 0 0 0 0 0 0 0 0 0 0 0 0 0 0 0 0 0 0 0 0 0 0 0 0 0 0 0 0 0 0 0 0 0 0 0 0 0 0 0 0 0 0 0 0 0 0 0 0 0 0 0 0 0 0 0 0 0 0 0 0 0 0 0 0 0 0 0 0 0 0 0 0 0 0 0 0 0 0 0 0 0 0 0 0 0 0 0 0 0 0 0 0 0 0 0 0 0 0 0 0 0 0 0 0 0 0 0 0 0 0 0 0 0 0 0 0 0 0 0 0 0 0 0 0 0 0 0 0 0 0 0 0 0 0 0 0 0 0 0 0 0 0 0 0 0 0 0 0 0 0 0 0 0 0 0 0 0 0 0 0 0 0 0 0 0 0 0 0 0 0 0 0 0 0 0 0 0 0 0 0 0 0 0 0 0 0 0 0 0 0 0 0 0 0 0 0 0 0 0 0 0 0 0 0 0 0 0 0 0 0 0 0 0 0 0 0 0 0 0 0 0 0 0 0 0 0 0 0 0 0 0 0 0 0 0 0 0 0 0 0 0 0 0 0 0 0 0 0 0 0 0 0 0 0 0 0 0 0 0 0 0 0 0 0 0 0 0 0 0 0 0 0 0 0 0 0 0 0 0 0 0 0 0 0 0 0 0 0 0 0 0 0 0 0 0 0 0 0 0 0 0 0 0 0 0 0 0 0 0 0 0 0 0 0 0 0 0 0 0 0 0 0 0 0 0 0 0 0 0 0 0 0 0 0 0 0 0 0 0 0 0 0 0 0 0 0 0 0 0 0 0 0 0 0 0 0 0 0 0 0 0 0 0 0 0 0 0 0 0 0 0 0 0 0 0 0 0 0 0 0 0 0 0 0 0 0 0 0 0 0 0 0 0 0 0 0 0 0 0 0 0 0 0 0 0 0 0 0 0 0 0 0 0 0 0 0 0 0 0 0 0 0 0 0 0 0 0 0 0 0 0 0 0 0 0 0 0 0 0 0 0 0 0 0 0 0 0 0 0 0 0 0 0 0 0 0 0 0 0 0 0 0 0 0 0 0 0 0 0 0 0 0 0 0 0 0 0 0 0 0 0 0 0 0 0 0 0 0 0 0 0 0 0 0 0 0 0 0 0 0 0 0 0 0 0 0 0 0 0 0 0 0 0 0 0 0 0 0 0 0 0 0 0 0 0 0 0 0 0 0 0 0 0 0 0 0 0 0 0 0 0 0 0 0 0 0 0 0 0 0 0 0 0 0 0 0 0 0 0 0 0 0 0 0 0 0 0 0 0 0 0 0 0 0 0 0 0 0 0 0 0 0 0 0 0 0 0 0 0 0 0 0 0 0 0 0 0 0 0 0 0 0 0 0 0 0 0 0 0 0 0 0 0 0 0 0 0 0 0 0 0 0 0 0 0 0 0 0 0 0 0 0 0 0 0 0 0 0 0 0 0 0 0 0 0 0 0 0 0 0 0 0 0 0 0 0 0 0 0 0 0 0 0 0 0 0 0 0 0 0 0 0 0 0 0 0 0 0 0 0 0 0 0 0 0 0 0 0 0 0 0 0 0 0 0 0 0 0 0 0 0 0 0 0 0 0 0 0 0 0 0 0 0 0 0 0 0 0 0 0 0 0 0 0 0 0 0 0 0 0 0 0 0 0 0 0 0 0 0 0 0 0 0 0 0 0 0 0 0 0 0 0 0 0 0 0 0 0 0 0 0 0 0 0 0 0 0 0 0 0 0 0 0 0 0 0 0 0 0 0 0 0 0 0 0 0 0 0 0 0 0 0 0 0 0 0 0 0 0 0 0 0 0 0 0 0 0 0 0 0 0 0 0 0 0 0 0 0 0 0 0 0 0 0 0 0 0 0 0 0 0 0 0 0 0 0 0 0 0 0 0 0 0 0 0 0 0 0 0 0 0 0 0 0 0 0 0 0 0 0 0 0 0 0 0 0 0 0 0 0 0 0 0 0 0 0 0 0 0 0 0 0 0 0 0 0 0 0 0 0 0 0 0 0 0 0 0 0 0 0 0 0 0 0 0 0 0 0 0 0 0 0 0 0 0 0 0 0 0 0 0 0 0 0 0 0 0 0 0 0 0 0 0 0 0 0 0 0 0 0 0 0 0 0 0 0 0 0 0 0 0 0 0 0 0 0 0 0 0 0 0 0 0 0 0 0 0 0 0 0 0 0 0 0 0 0 0 0 0 0 0 0 0 0 0 0 0 0 0 0 0 0 0 0 0 0 0 0 0 0 0 0 0 0 0 0 0 0 0 0 0 0 0 0 0 0 0 0 0 0 0 0 0 0 0 0 0 0 0 0 0 0 0 0 0 0 0 0 0 0 0 0 0 0 0 0 0 0 0 0 0 0 0 0 0 0 0 0 0 0 0 0 0 0 0 0 0 0 0 0 0 0 0 0 0 0 0 0 0 0 0 0 0 0 0 0 0 0 0 0 0 0 0 0 0 0 0 0 0 0 0 0 0 0 0 0 0 0 0 0 0 0 0 0 0 0 0 0 0 0 0 0 0 0 0 0 0 0 0 0 0 0 0 0 0 0 0 0 0 0 0 0 0 0 0 0 0 0 0 0 0 0 0 0 0 0 0 0 0 0 0 0 0 0 0 0 0 0 0 0 0 0 0 0 0 0 0 0 0 0 0 0 0 0 0 0 0 0 0 0 0 0 0 0 0 0 0 0 0 0 0 0 0 0 0 0 0 0 0 0 0 0 0 0 0 0 0 0 0 0 0 0 0 0 0 0 0 0 0 0 0 0 0 0 0 0 0 0 0 0 0 0 0 0 0 0 0 0 0 0 0 0 0 0 0 0 0 0 0 0 0 0 0 0 0 0 0 0 0 0 0 0 0 0 0 0 0 0 0 0 0 0 0 0 0 0 0 0 0 0 0 0 0 0 0 0 0 0 0 0 0 0 0 0 0 0 0 0 0 0 0 0 0 0 0 0 0 0 0 0 0 0 0 0 0 0 0 0 0 0 0 0 0 0 0 0 0 0 0 0 0 0 0 0 0 0 0 0 0 0 0 0 0 0 0 0 0 0 0 0 0 0 0 0 0 0 0 0 0 0 0 0 0 0 0 0 0 0 0 0 0 0 0 0 0 0 0 0 0 0 0 0 0 0 0 0 0 0 0 0 0 0 0 0 0 0 0 0 0 0 0 0 0 0 0 0 0 0 0 0 0 0 0 0 0 0 0 0 0 0 0 0 0 0 0 0 0 0 0 0 0 0 0 0 0 0 0 0 0 0 0 0 0 0 0 0 0 0 0 0 0 0 0 0 0 0 0 0 0 0 0 0 0 0 0 0 0 0 0 0 0 0 0 0 0 0 0 0 0 0 0 0 0 0 0 0 0 0 0 0 0 0 0 0 0 0 0 0 0 0 0 0 0 0 0 0 0 0 0 0 0 0 0 0 0 0 0 0 0 0 0 0 0 0 0 0 0 0 0 0 0 0 0 0 0 0 0 0 0 0 0 0 0 0 0 0 0 0 0 0 0 0 0 0 0 0 0 0 0 0 0 0 0 0 0 0 0 0 0 0 0 0 0 0 0 0 0 0 0 0 0 0 0 0 0 0 0 0 0 0 0 0 0 0 0 0 0 0 0 0 0 0 0 0 0 0 0 0 0 0 0 0 0 0 0 0 0 0 0 0 0 0 0 0 0 0 0 0 0 0 0 0 0 0 0 0 0 0 0 0 0 0 0 0 0 0 0 0 0 0 0 0 0 0 0 0 0 0 0 0 0 0 0 0 0 0 0 0 0 0 0 0 0 0 0 0 0 0 0 0 0 0 0 0 0 0 0 0 0 0 0 0 0 0 0 0 0 0 0 0 0 0 0 0 0 0 0 0 0 0 0 0 0 0 0 0 0 0 0 0 0 0 0 0 0 0 0 0 0 0 0 0 0 0 0 0 0 0 0 0 0 0 0 0 0 0 0 0 0 0 0 0 0 0 0 0 0 0 0 0 0 0 0 0 0 0 0 0 0 0 0 0 0 0 0 0 0 0 0 0 0 0 0 0 0 0 0 0 0 0 0 0 0 0 0 0 0 0 0 0 0 0 0 0 0 0 0 0 0 0 0 0 0 0 0 0 0 0 0 0 0 0 0 0 0 0 0 0 0 0 0 0 0 0 0 0 0 0 0 0 0 0 0 0 0 0 0 0 0 0 0 0 0 0 0 0 0 0 0 0 0 0 0 0 0 0 0 0 0 0 0 0 0 0 0 0 0 0 0 0 0 0 0 0 0 0 0 0 0 0 0 0 0 0 0 0 0 0 0 0 0 0 0 0 0 0 0 0 0 0 0 0 0 0 0 0 0 0 0 0 0 0 0 0 0 0 0 0 0 0 0 0 0 0 0 0 0 0 0 0 0 0 0 0 0 0 0 0 0 0 0 0 0 0 0 0 0 0 0 0 0 0 0 0 0 0 0 0 0 0 0 0 0 0 0 0 0 0 0 0 0 0 0 0 0 0 0 0 0 0 0 0 0 0 0 0 0 0 0 0 0 0 0 0 0 0 0 0 0 0 0 0 0 0 0 0 0 0 0 0 0 0 0 0 0 0 0 0 0 0 0 0 0 0 0 0 0 0 0 0 0 0 0 0 0 0 0 0 0 0 0 0 0 0 0 0 0 0 0 0 0 0 0 0 0 0 0 0 0 0 0 0 0 0 0 0 0 0 0 0 0 0 0 0 0 0 0 0 0 0 0 0 0 0 0 0 0 0 0 0 0 0 0 0 0 0 0 0 0 0 0 0 0 0 0 0 0 0 0 0 0 0 0 0 0 0 0 0 0 0 0 0 0 0 0 0 0 0 0 0 0 0 0 0 0 0 0 0 0 0 0 0 0 0 0 0 0 0 0 0 0 0 0 0 0 0 0 0 0 0 0 0 0 0 0 0 0 0 0 0 0 0 0 0 0 0 0 0 0 0 0 0 0 0 0 0 0 0 0 0 0 0 0 0 0 0 0 0 0 0 0 0 0 0 0 0 0 0 0 0 0 0 0 0 0 0 0 0 0 0 0 0 0 0 0 0 0 0 0 0 0 0 0 0 0 0 0 0 0 0 0 0 0 0 0 0 0 0 0 0 0 0 0 0 0 0 
</DataArray>
</PointData>
</Piece>
</UnstructuredGrid>
</VTKFile>
