<?xml version="1.0"?>
<VTKFile type="UnstructuredGrid" version="0.1" byte_order="LittleEndian">
<UnstructuredGrid>
<Piece NumberOfPoints="69" NumberOfCells="124">
<Points>
<DataArray type="Float64" NumberOfComponents="3" format="ascii">
0 0 0 0 0.25 0 0 1 0 0.124999999999755 0 0 0.0843524221639116 0.0864517126562662 0 0 0.125000000000347 0 0.100817145298862 0.188857036972505 0 0.240388654717835 0.241888147926738 0 0.184027618128645 0.111732405146644 0 0.12499999999976 0.31249999999988 0 0.437499999999133 0 0 0.428791151854623 0.154554454279667 0 0.312500000000208 0.125000000000416 0 0.338194444444483 0.338194444444563 0 0.375000000000278 0.250000000000555 0 0.494574932893002 0.262517037765555 0 0.437500000000069 0.375000000000139 0 0.374999999999735 0.437499999999867 0 0.149291241869753 0.445827935681064 0 0.249999999999609 0.374999999999804 0 0 0.437500000000347 0 0.25 -0 0 0.139285875159121 0.573398061056774 0 0.139007895996117 0.7261831610706 0 0 0.625000000000694 0 0 0.812500000001041 0 0.187500000000521 1 0 0.127101071360123 0.870948066182034 0 0.279879602129308 0.834427414705705 0 0.375000000000694 1 0 0.449271053967154 0.855651240851559 0 0.381362046804951 0.740385922138312 0 0.275894670506865 0.660588531564357 0 0.264524437006746 0.515635315816399 0 0.413941406991218 0.605632526401004 0 0.5 0.5 -0 0.63236534182377 0.502967564063323 0 0.712597478078444 0.638466913157018 0 0.501458569330786 0.736746630465049 0 0.5625 0.625 0 0.567775120571876 0.84702246410953 0 0.562500000000867 1 0 0.738577951704336 0.777367885642847 0 0.625 0.75 0 0.857879273915174 0.753532520882502 0 0.805529844910009 0.887111228721274 0 0.906379534221801 0.902085833280573 0 0.875 1 0 1 0.833333333333565 0 1 0.666666666667361 0 0.6875 0.875 0 0.861274669778197 0.579480769787976 0 1 0.500000000001388 0 0.75 1 0 1 0.33333333333449 0 0.860872866902176 0.252065235979594 0 0.86569408477091 0.409836739167666 0 0.753384302623209 0.492944434231756 0 0.569867071784366 0.37762093650872 0 0.611084625850828 0.257505995823432 0 0.718260394928406 0.345640207172162 0 0.715089934061838 0.157159568547776 0 1 0 0 0.54475767668583 0.143183888206693 0 0.624999999998959 0 0 0.81249999999948 0 0 1 1 0 1 0.16666666666736 0 0.876989016488121 0.116063833865798 0 
</DataArray>
</Points>
<Cells>
<DataArray type="UInt32" Name="connectivity" format="ascii">
1 9 0 3 4 0 4 5 5 4 6 5 6 1 6 4 8 9 6 7 8 7 6 12 7 8 21 8 3 21 12 8 3 8 4 21 10 12 10 63 11 12 10 11 63 15 11 14 11 15 12 14 7 12 11 14 9 19 19 7 13 14 13 7 14 15 16 14 16 13 16 17 13 16 35 17 17 33 19 17 19 13 19 33 18 19 18 9 19 9 7 1 9 20 9 1 6 20 9 18 20 18 22 20 22 24 12 21 14 12 19 17 33 32 22 33 22 18 28 23 32 32 23 22 25 24 23 24 22 23 25 23 27 26 2 27 2 25 27 26 27 28 28 27 23 16 14 35 16 17 35 30 28 31 29 28 30 29 26 28 29 30 41 30 31 38 39 38 34 34 38 31 34 31 32 28 32 31 34 32 33 17 34 33 17 35 34 39 34 35 39 35 36 39 35 43 39 39 36 37 57 37 36 39 37 43 43 37 42 39 43 38 43 40 38 30 38 40 41 30 40 50 41 40 50 53 41 50 45 53 50 42 45 50 40 43 50 43 42 45 42 44 50 43 53 50 45 44 46 47 53 45 47 45 46 66 47 46 66 46 48 48 44 49 48 46 44 49 44 51 44 37 51 44 42 37 51 37 57 49 51 52 54 52 56 51 56 52 67 54 55 54 56 55 56 60 55 61 55 60 51 57 56 57 60 56 58 60 36 57 36 60 16 58 35 35 58 36 16 15 58 58 15 59 61 60 59 58 59 60 61 59 63 63 59 15 10 64 63 64 61 63 65 61 64 65 68 61 61 68 55 67 55 68 65 62 68 67 68 62 
</DataArray>
<DataArray type="UInt32" Name="offsets" format="ascii">
2 5 8 11 14 17 20 23 26 29 32 35 38 41 44 47 50 53 56 58 61 64 67 70 73 76 79 82 85 88 91 94 97 100 103 106 108 110 112 115 118 121 124 127 130 133 136 139 142 145 147 149 151 154 157 160 163 166 169 172 175 178 181 184 187 190 193 195 197 200 203 206 209 212 215 218 221 224 227 230 233 236 239 242 244 246 249 252 255 258 261 264 267 270 273 276 279 282 285 288 291 294 297 300 303 306 309 312 315 318 321 324 327 330 333 336 339 342 345 348 351 354 357 360 
</DataArray>
<DataArray type="UInt32" Name="types" format="ascii">
3 5 5 5 5 5 5 5 5 5 5 5 5 5 5 5 5 5 5 3 5 5 5 5 5 5 5 5 5 5 5 5 5 5 5 5 3 3 3 5 5 5 5 5 5 5 5 5 5 5 3 3 3 5 5 5 5 5 5 5 5 5 5 5 5 5 5 3 3 5 5 5 5 5 5 5 5 5 5 5 5 5 5 5 3 3 5 5 5 5 5 5 5 5 5 5 5 5 5 5 5 5 5 5 5 5 5 5 5 5 5 5 5 5 5 5 5 5 5 5 5 5 5 5 
</DataArray>
</Cells>
<CellData Scalars="porosity,age_conc,U235_conc," Vectors="" Tensors="">
<DataArray type="Float64" Name="porosity" format="ascii">
0.25 0.25 0.25 0.25 0.25 0.25 0.25 0.25 0.25 0.25 0.25 0.25 0.25 0.25 0.25 0.25 0.25 0.25 0.25 0.25 0.25 0.25 0.25 0.25 0.25 0.25 0.25 0.25 0.25 0.25 0.25 0.25 0.25 0.25 0.25 0.25 0.25 0.25 0.25 0.25 0.25 0.25 0.25 0.25 0.25 0.25 0.25 0.25 0.25 0.25 0.25 0.25 0.25 0.25 0.25 0.25 0.25 0.25 0.25 0.25 0.25 0.25 0.25 0.25 0.25 0.25 0.25 0.25 0.25 0.25 0.25 0.25 0.25 0.25 0.25 0.25 0.25 0.25 0.25 0.25 0.25 0.25 0.25 0.25 0.25 0.25 0.25 0.25 0.25 0.25 0.25 0.25 0.25 0.25 0.25 0.25 0.25 0.25 0.25 0.25 0.25 0.25 0.25 0.25 0.25 0.25 0.25 0.25 0.25 0.25 0.25 0.25 0.25 0.25 0.25 0.25 0.25 0.25 0.25 0.25 0.25 0.25 0.25 0.25 
</DataArray>
<DataArray type="Float64" Name="age_conc" format="ascii">
0.999018550241209 0.990650028014425 0.990856864773601 0.992023620188185 0.992858713621177 0.992902021661274 0.995075234757087 0.993808190128219 0.995063618699696 0.992647833369367 0.99436444925122 0.991850741484758 0.992834252435481 0.993909700500746 0.993253076704075 0.994454993706265 0.993594412491295 0.996145749782773 0.993156655077654 0.999177216333858 0.996554147819513 0.996540401783631 0.993953020981001 0.997624922607419 0.997851692846984 0.99854597106597 0.994842214119219 0.997631640868879 0.994449474101941 0.993956365804483 0.996173548505325 0.9935279254691 0.99440179795704 0.99397167065435 0.994746260505588 0.995595315234429 0.998998785894635 0.99915831271994 0.999340980116346 0.995885295966287 0.995425856660844 0.997295353562152 0.996765779224648 0.997385984258232 0.996334920415648 0.997964137228615 0.999224284982314 0.998766853917031 0.998757264496071 0.998206709285147 0.999325340377961 0.999496837401405 0.999506495916 0.998284301477039 0.998855581668412 0.999175126864216 0.999429110251762 0.997853405495167 0.997295101529502 0.997271628476416 0.996912173722395 0.997817917969927 0.996317172895816 0.99538762695508 0.995973212313694 0.996697445637689 0.995629770269498 0.999670535780666 0.999758976278749 0.996076969347567 0.996652816333176 0.996593920225872 0.997073414250582 0.99792593505372 0.998420006752464 0.998299084238064 0.998730670588073 0.999294206839966 0.999604992535841 0.998516567841298 0.99797142739354 0.998850161338785 0.997472485455347 0.998087886613827 0.999842117407496 0.999922107256633 0.99854898724761 0.999100063233794 0.999051422756155 0.999483222778056 0.999499237571136 0.999094379898516 0.998940312780453 0.998535266400224 0.997628282918701 0.997480872512781 0.997163754043935 0.99899005994749 0.999029649160835 0.998444854514949 0.999036150336863 0.998513021977786 0.997488853772785 0.996921251310894 0.997703980826087 0.997199009728089 0.996039181602833 0.996481438451537 0.994832336451153 0.995277365725938 0.994395797584856 0.995156514192243 0.996209163646496 0.995606882685482 0.99576660041767 0.994854408967188 0.994889804000484 0.995465357991905 0.996834344388864 0.997396684984157 0.997608778757092 0.998647411117121 0.998700737350262 0.999146956366404 
</DataArray>
<DataArray type="Float64" Name="U235_conc" format="ascii">
0.999016424299925 0.990801602606296 0.991000909040261 0.992116248957612 0.992940382919362 0.9929353200359 0.995072203071104 0.993821529629274 0.995060879422088 0.992729332987974 0.994385062808385 0.991947980104031 0.99282223697931 0.993898770771846 0.993241369664993 0.994444759764784 0.993582990321844 0.996139865062013 0.993144745581449 0.999175426424235 0.996547659557501 0.996533929826635 0.993942047667311 0.997620100842156 0.997847243755062 0.998542895576845 0.994832520716753 0.997626827717774 0.994439214885651 0.993945453053955 0.996167548120336 0.993516535541084 0.99442442073651 0.993960789440527 0.994736416461525 0.99558681918484 0.998996629210209 0.999156492311625 0.99933953848619 0.995877245933308 0.995417051683352 0.997289812625502 0.996759264637071 0.997380621962092 0.996327650842143 0.997959886874423 0.999222617324408 0.998764224312463 0.998754610655037 0.998202936882585 0.999323872516466 0.999495734513524 0.999505409832632 0.998280675831596 0.998853121449778 0.999173351330496 0.999427862784555 0.997848909895145 0.997289538189249 0.997266022296079 0.996905908382305 0.997813368166087 0.996309851133638 0.995378772539909 0.995965306172781 0.996690788712602 0.995621292859816 0.999669806744667 0.999758439814614 0.996069240767238 0.996646116754333 0.996587086421333 0.997067450700043 0.997921577919142 0.998416635976838 0.998295474106993 0.998727942818499 0.999292661119753 0.999604120890711 0.99851342204592 0.997967187036001 0.998847676741717 0.997467279522961 0.998083857365205 0.999841764516899 0.999921932564639 0.998545888084815 0.999098126084648 0.999049366456866 0.999482090112522 0.999498139037266 0.999092433501883 0.998938026434078 0.998532160570367 0.997623393438775 0.99747566749672 0.997157985369438 0.998987913231248 0.999027591471366 0.998441583890832 0.999034106698802 0.998509894907191 0.997483740754906 0.996915084434788 0.997699258469525 0.99719332971153 0.996031422800231 0.996474446132483 0.994822611616415 0.995268330101272 0.994385435532114 0.995147314815164 0.996201746629818 0.995598402614671 0.995758437848813 0.994844760461935 0.994880337367652 0.995456737030998 0.996828043309947 0.997391417579947 0.997603915814322 0.998644556148912 0.998697986198423 0.999145139584982 
</DataArray>
</CellData>
</Piece>
</UnstructuredGrid>
</VTKFile>
