<?xml version="1.0"?>
<VTKFile type="UnstructuredGrid" version="0.1" byte_order="LittleEndian">
<UnstructuredGrid>
<Piece NumberOfPoints="69" NumberOfCells="124">
<Points>
<DataArray type="Float64" NumberOfComponents="3" format="ascii">
0 0 0 0 0.25 0 0 1 0 0.124999999999755 0 0 0.0843524221639116 0.0864517126562662 0 0 0.125000000000347 0 0.100817145298862 0.188857036972505 0 0.240388654717835 0.241888147926738 0 0.184027618128645 0.111732405146644 0 0.12499999999976 0.31249999999988 0 0.437499999999133 0 0 0.428791151854623 0.154554454279667 0 0.312500000000208 0.125000000000416 0 0.338194444444483 0.338194444444563 0 0.375000000000278 0.250000000000555 0 0.494574932893002 0.262517037765555 0 0.437500000000069 0.375000000000139 0 0.374999999999735 0.437499999999867 0 0.149291241869753 0.445827935681064 0 0.249999999999609 0.374999999999804 0 0 0.437500000000347 0 0.25 -0 0 0.139285875159121 0.573398061056774 0 0.139007895996117 0.7261831610706 0 0 0.625000000000694 0 0 0.812500000001041 0 0.187500000000521 1 0 0.127101071360123 0.870948066182034 0 0.279879602129308 0.834427414705705 0 0.375000000000694 1 0 0.449271053967154 0.855651240851559 0 0.381362046804951 0.740385922138312 0 0.275894670506865 0.660588531564357 0 0.264524437006746 0.515635315816399 0 0.413941406991218 0.605632526401004 0 0.5 0.5 -0 0.63236534182377 0.502967564063323 0 0.712597478078444 0.638466913157018 0 0.501458569330786 0.736746630465049 0 0.5625 0.625 0 0.567775120571876 0.84702246410953 0 0.562500000000867 1 0 0.738577951704336 0.777367885642847 0 0.625 0.75 0 0.857879273915174 0.753532520882502 0 0.805529844910009 0.887111228721274 0 0.906379534221801 0.902085833280573 0 0.875 1 0 1 0.833333333333565 0 1 0.666666666667361 0 0.6875 0.875 0 0.861274669778197 0.579480769787976 0 1 0.500000000001388 0 0.75 1 0 1 0.33333333333449 0 0.860872866902176 0.252065235979594 0 0.86569408477091 0.409836739167666 0 0.753384302623209 0.492944434231756 0 0.569867071784366 0.37762093650872 0 0.611084625850828 0.257505995823432 0 0.718260394928406 0.345640207172162 0 0.715089934061838 0.157159568547776 0 1 0 0 0.54475767668583 0.143183888206693 0 0.624999999998959 0 0 0.81249999999948 0 0 1 1 0 1 0.16666666666736 0 0.876989016488121 0.116063833865798 0 
</DataArray>
</Points>
<Cells>
<DataArray type="UInt32" Name="connectivity" format="ascii">
1 9 0 3 4 0 4 5 5 4 6 5 6 1 6 4 8 9 6 7 8 7 6 12 7 8 21 8 3 21 12 8 3 8 4 21 10 12 10 63 11 12 10 11 63 15 11 14 11 15 12 14 7 12 11 14 9 19 19 7 13 14 13 7 14 15 16 14 16 13 16 17 13 16 35 17 17 33 19 17 19 13 19 33 18 19 18 9 19 9 7 1 9 20 9 1 6 20 9 18 20 18 22 20 22 24 12 21 14 12 19 17 33 32 22 33 22 18 28 23 32 32 23 22 25 24 23 24 22 23 25 23 27 26 2 27 2 25 27 26 27 28 28 27 23 16 14 35 16 17 35 30 28 31 29 28 30 29 26 28 29 30 41 30 31 38 39 38 34 34 38 31 34 31 32 28 32 31 34 32 33 17 34 33 17 35 34 39 34 35 39 35 36 39 35 43 39 39 36 37 57 37 36 39 37 43 43 37 42 39 43 38 43 40 38 30 38 40 41 30 40 50 41 40 50 53 41 50 45 53 50 42 45 50 40 43 50 43 42 45 42 44 50 43 53 50 45 44 46 47 53 45 47 45 46 66 47 46 66 46 48 48 44 49 48 46 44 49 44 51 44 37 51 44 42 37 51 37 57 49 51 52 54 52 56 51 56 52 67 54 55 54 56 55 56 60 55 61 55 60 51 57 56 57 60 56 58 60 36 57 36 60 16 58 35 35 58 36 16 15 58 58 15 59 61 60 59 58 59 60 61 59 63 63 59 15 10 64 63 64 61 63 65 61 64 65 68 61 61 68 55 67 55 68 65 62 68 67 68 62 
</DataArray>
<DataArray type="UInt32" Name="offsets" format="ascii">
2 5 8 11 14 17 20 23 26 29 32 35 38 41 44 47 50 53 56 58 61 64 67 70 73 76 79 82 85 88 91 94 97 100 103 106 108 110 112 115 118 121 124 127 130 133 136 139 142 145 147 149 151 154 157 160 163 166 169 172 175 178 181 184 187 190 193 195 197 200 203 206 209 212 215 218 221 224 227 230 233 236 239 242 244 246 249 252 255 258 261 264 267 270 273 276 279 282 285 288 291 294 297 300 303 306 309 312 315 318 321 324 327 330 333 336 339 342 345 348 351 354 357 360 
</DataArray>
<DataArray type="UInt32" Name="types" format="ascii">
3 5 5 5 5 5 5 5 5 5 5 5 5 5 5 5 5 5 5 3 5 5 5 5 5 5 5 5 5 5 5 5 5 5 5 5 3 3 3 5 5 5 5 5 5 5 5 5 5 5 3 3 3 5 5 5 5 5 5 5 5 5 5 5 5 5 5 3 3 5 5 5 5 5 5 5 5 5 5 5 5 5 5 5 3 3 5 5 5 5 5 5 5 5 5 5 5 5 5 5 5 5 5 5 5 5 5 5 5 5 5 5 5 5 5 5 5 5 5 5 5 5 5 5 
</DataArray>
</Cells>
<CellData Scalars="porosity,age_conc,U235_conc," Vectors="" Tensors="">
<DataArray type="Float64" Name="porosity" format="ascii">
0.25 0.25 0.25 0.25 0.25 0.25 0.25 0.25 0.25 0.25 0.25 0.25 0.25 0.25 0.25 0.25 0.25 0.25 0.25 0.25 0.25 0.25 0.25 0.25 0.25 0.25 0.25 0.25 0.25 0.25 0.25 0.25 0.25 0.25 0.25 0.25 0.25 0.25 0.25 0.25 0.25 0.25 0.25 0.25 0.25 0.25 0.25 0.25 0.25 0.25 0.25 0.25 0.25 0.25 0.25 0.25 0.25 0.25 0.25 0.25 0.25 0.25 0.25 0.25 0.25 0.25 0.25 0.25 0.25 0.25 0.25 0.25 0.25 0.25 0.25 0.25 0.25 0.25 0.25 0.25 0.25 0.25 0.25 0.25 0.25 0.25 0.25 0.25 0.25 0.25 0.25 0.25 0.25 0.25 0.25 0.25 0.25 0.25 0.25 0.25 0.25 0.25 0.25 0.25 0.25 0.25 0.25 0.25 0.25 0.25 0.25 0.25 0.25 0.25 0.25 0.25 0.25 0.25 0.25 0.25 0.25 0.25 0.25 0.25 
</DataArray>
<DataArray type="Float64" Name="age_conc" format="ascii">
0.987886341938126 0.112332517780676 0.127051088050919 0.176761305365724 0.282747045302274 0.148508059500912 0.393097979724805 0.233056278191686 0.392057008095516 0.249110533199183 0.359427525115488 0.161227363661107 0.0270902732284874 0.104333485001496 0.0476136734799157 0.173889151627914 0.0566470565903969 0.569064548690604 0.0309532611430305 0.989589921972795 0.66336534124276 0.661233357481109 0.0850121190190041 0.854931582306164 0.913944250646104 0.966226851369422 0.220067574351455 0.855940967452954 0.150076214698437 0.0857422749140372 0.573131904392646 0.0530733966807465 0.372961565563484 0.0928756413948324 0.201249576389316 0.414115947862198 0.98484709622001 0.986506609203422 0.992196584725015 0.479394076590754 0.349977244831941 0.844920452605185 0.728413131170753 0.85443300281477 0.610316870832091 0.932908705024849 0.990427927887926 0.9799754722826 0.983640624357473 0.955651729853838 0.989397215608299 0.993153956321082 0.99505462020744 0.969433989034778 0.992371316454448 0.992282578909036 0.99869042985212 0.952493212600884 0.870169130314996 0.863855536284767 0.776200597819717 0.931152538403003 0.608479412944135 0.347302551703214 0.510080476144349 0.725066567014907 0.405775250861734 0.997172389790891 0.998949232716117 0.537022673897679 0.687079103768403 0.688943210215374 0.809023772842688 0.963561488851951 0.990516992076561 0.981909618905857 0.993613203937915 0.999189647794196 0.999578176963 0.974835820558783 0.938948298860529 0.997315485757371 0.874482652269891 0.967177812815864 0.99964818984576 0.99990309551856 0.988498986485639 0.993564723431844 0.997372532639367 0.999155777913488 0.999247258430409 0.992362495752519 0.995091596587751 0.97417501051275 0.879669483876663 0.893430857486441 0.801013534853857 0.978492979840829 0.973490276442903 0.952453790342035 0.973959406356812 0.951945697130622 0.828988575538322 0.735316385450829 0.870144340809632 0.793979825144479 0.529292295497285 0.641071805586922 0.214633698020002 0.315320066127252 0.14120450770252 0.306883589815022 0.578378653473009 0.417145092207486 0.478206167161951 0.24774955109385 0.294594386124024 0.41436889912118 0.72543382532665 0.815389600219516 0.839358416219512 0.961235010290705 0.968009005657892 0.980442840523586 
</DataArray>
<DataArray type="Float64" Name="U235_conc" format="ascii">
0.987846137206861 0.106659533615526 0.121678460194029 0.17165974128599 0.27897255312921 0.14247358828426 0.390677509859326 0.228322141128715 0.389629403682457 0.244931764935662 0.356174042002512 0.155904944660423 0.0203478850712457 0.0959932546524154 0.0399351686315578 0.166676185087049 0.0481220089568552 0.568608993103797 0.0233721830803395 0.98956053107439 0.664429497430291 0.662276870137346 0.0762193147239785 0.856451139926028 0.915398972524108 0.966799439947876 0.214352225647936 0.857471316428066 0.142780566863359 0.0775406181641121 0.572709573754097 0.0452185584978938 0.369834207963377 0.0849232784105237 0.194997205319272 0.412903929087422 0.984775511845033 0.986439161810891 0.992187901668024 0.479658104257265 0.347414276064907 0.848003613263119 0.731716164548403 0.857305529535065 0.612517418585877 0.934741564577726 0.990735660322982 0.980584605514868 0.984218108775254 0.957007285193431 0.989346276628629 0.993134885348199 0.9950663230885 0.970540926929868 0.992688739085031 0.992564966855569 0.998733683365627 0.954306167557012 0.87337719801669 0.867177217464318 0.77990224863975 0.933239698275634 0.610977692940422 0.344680245942254 0.510897187087677 0.728585812923701 0.404602120901196 0.997184232345214 0.998960949585303 0.538548429065491 0.689904979118213 0.692448967827231 0.812675334569771 0.965108766767156 0.991002882218796 0.982704790248051 0.993889394255141 0.999198076199942 0.999579823712404 0.975739097151759 0.940837291788474 0.997427791508673 0.877444906764004 0.968511975939567 0.999652814579439 0.999903690915658 0.989018816624041 0.993832598845012 0.997479877156849 0.999177297204874 0.999264280577411 0.992670715446841 0.995300972001756 0.975080388609593 0.882138632474148 0.89628189705455 0.804027006094756 0.979123752091025 0.974058238149345 0.953629574515567 0.97445523601302 0.952893913550658 0.830922206412433 0.737373649926494 0.872217028640453 0.79645072750838 0.530235476034394 0.643315145236828 0.208349103586188 0.311738336222606 0.13319766448191 0.303167770225184 0.57913466744003 0.416058446011012 0.477759531820824 0.242391839250138 0.290587118125219 0.412689203845168 0.727245811634892 0.816997567768792 0.840823508945978 0.961974817993902 0.968658207262654 0.980821810104285 
</DataArray>
</CellData>
</Piece>
</UnstructuredGrid>
</VTKFile>
