<?xml version="1.0"?>
<VTKFile type="UnstructuredGrid" version="0.1" byte_order="LittleEndian">
<UnstructuredGrid>
<Piece NumberOfPoints="69" NumberOfCells="124">
<Points>
<DataArray type="Float64" NumberOfComponents="3" format="ascii">
0 0 0 0 0.25 0 0 1 0 0.124999999999755 0 0 0.0843524221639116 0.0864517126562662 0 0 0.125000000000347 0 0.100817145298862 0.188857036972505 0 0.240388654717835 0.241888147926738 0 0.184027618128645 0.111732405146644 0 0.12499999999976 0.31249999999988 0 0.437499999999133 0 0 0.428791151854623 0.154554454279667 0 0.312500000000208 0.125000000000416 0 0.338194444444483 0.338194444444563 0 0.375000000000278 0.250000000000555 0 0.494574932893002 0.262517037765555 0 0.437500000000069 0.375000000000139 0 0.374999999999735 0.437499999999867 0 0.149291241869753 0.445827935681064 0 0.249999999999609 0.374999999999804 0 0 0.437500000000347 0 0.25 -0 0 0.139285875159121 0.573398061056774 0 0.139007895996117 0.7261831610706 0 0 0.625000000000694 0 0 0.812500000001041 0 0.187500000000521 1 0 0.127101071360123 0.870948066182034 0 0.279879602129308 0.834427414705705 0 0.375000000000694 1 0 0.449271053967154 0.855651240851559 0 0.381362046804951 0.740385922138312 0 0.275894670506865 0.660588531564357 0 0.264524437006746 0.515635315816399 0 0.413941406991218 0.605632526401004 0 0.5 0.5 -0 0.63236534182377 0.502967564063323 0 0.712597478078444 0.638466913157018 0 0.501458569330786 0.736746630465049 0 0.5625 0.625 0 0.567775120571876 0.84702246410953 0 0.562500000000867 1 0 0.738577951704336 0.777367885642847 0 0.625 0.75 0 0.857879273915174 0.753532520882502 0 0.805529844910009 0.887111228721274 0 0.906379534221801 0.902085833280573 0 0.875 1 0 1 0.833333333333565 0 1 0.666666666667361 0 0.6875 0.875 0 0.861274669778197 0.579480769787976 0 1 0.500000000001388 0 0.75 1 0 1 0.33333333333449 0 0.860872866902176 0.252065235979594 0 0.86569408477091 0.409836739167666 0 0.753384302623209 0.492944434231756 0 0.569867071784366 0.37762093650872 0 0.611084625850828 0.257505995823432 0 0.718260394928406 0.345640207172162 0 0.715089934061838 0.157159568547776 0 1 0 0 0.54475767668583 0.143183888206693 0 0.624999999998959 0 0 0.81249999999948 0 0 1 1 0 1 0.16666666666736 0 0.876989016488121 0.116063833865798 0 
</DataArray>
</Points>
<Cells>
<DataArray type="UInt32" Name="connectivity" format="ascii">
1 9 0 3 4 0 4 5 5 4 6 5 6 1 6 4 8 9 6 7 8 7 6 12 7 8 21 8 3 21 12 8 3 8 4 21 10 12 10 63 11 12 10 11 63 15 11 14 11 15 12 14 7 12 11 14 9 19 19 7 13 14 13 7 14 15 16 14 16 13 16 17 13 16 35 17 17 33 19 17 19 13 19 33 18 19 18 9 19 9 7 1 9 20 9 1 6 20 9 18 20 18 22 20 22 24 12 21 14 12 19 17 33 32 22 33 22 18 28 23 32 32 23 22 25 24 23 24 22 23 25 23 27 26 2 27 2 25 27 26 27 28 28 27 23 16 14 35 16 17 35 30 28 31 29 28 30 29 26 28 29 30 41 30 31 38 39 38 34 34 38 31 34 31 32 28 32 31 34 32 33 17 34 33 17 35 34 39 34 35 39 35 36 39 35 43 39 39 36 37 57 37 36 39 37 43 43 37 42 39 43 38 43 40 38 30 38 40 41 30 40 50 41 40 50 53 41 50 45 53 50 42 45 50 40 43 50 43 42 45 42 44 50 43 53 50 45 44 46 47 53 45 47 45 46 66 47 46 66 46 48 48 44 49 48 46 44 49 44 51 44 37 51 44 42 37 51 37 57 49 51 52 54 52 56 51 56 52 67 54 55 54 56 55 56 60 55 61 55 60 51 57 56 57 60 56 58 60 36 57 36 60 16 58 35 35 58 36 16 15 58 58 15 59 61 60 59 58 59 60 61 59 63 63 59 15 10 64 63 64 61 63 65 61 64 65 68 61 61 68 55 67 55 68 65 62 68 67 68 62 
</DataArray>
<DataArray type="UInt32" Name="offsets" format="ascii">
2 5 8 11 14 17 20 23 26 29 32 35 38 41 44 47 50 53 56 58 61 64 67 70 73 76 79 82 85 88 91 94 97 100 103 106 108 110 112 115 118 121 124 127 130 133 136 139 142 145 147 149 151 154 157 160 163 166 169 172 175 178 181 184 187 190 193 195 197 200 203 206 209 212 215 218 221 224 227 230 233 236 239 242 244 246 249 252 255 258 261 264 267 270 273 276 279 282 285 288 291 294 297 300 303 306 309 312 315 318 321 324 327 330 333 336 339 342 345 348 351 354 357 360 
</DataArray>
<DataArray type="UInt32" Name="types" format="ascii">
3 5 5 5 5 5 5 5 5 5 5 5 5 5 5 5 5 5 5 3 5 5 5 5 5 5 5 5 5 5 5 5 5 5 5 5 3 3 3 5 5 5 5 5 5 5 5 5 5 5 3 3 3 5 5 5 5 5 5 5 5 5 5 5 5 5 5 3 3 5 5 5 5 5 5 5 5 5 5 5 5 5 5 5 3 3 5 5 5 5 5 5 5 5 5 5 5 5 5 5 5 5 5 5 5 5 5 5 5 5 5 5 5 5 5 5 5 5 5 5 5 5 5 5 
</DataArray>
</Cells>
<CellData Scalars="porosity,age_conc,U235_conc," Vectors="" Tensors="">
<DataArray type="Float64" Name="porosity" format="ascii">
0.25 0.25 0.25 0.25 0.25 0.25 0.25 0.25 0.25 0.25 0.25 0.25 0.25 0.25 0.25 0.25 0.25 0.25 0.25 0.25 0.25 0.25 0.25 0.25 0.25 0.25 0.25 0.25 0.25 0.25 0.25 0.25 0.25 0.25 0.25 0.25 0.25 0.25 0.25 0.25 0.25 0.25 0.25 0.25 0.25 0.25 0.25 0.25 0.25 0.25 0.25 0.25 0.25 0.25 0.25 0.25 0.25 0.25 0.25 0.25 0.25 0.25 0.25 0.25 0.25 0.25 0.25 0.25 0.25 0.25 0.25 0.25 0.25 0.25 0.25 0.25 0.25 0.25 0.25 0.25 0.25 0.25 0.25 0.25 0.25 0.25 0.25 0.25 0.25 0.25 0.25 0.25 0.25 0.25 0.25 0.25 0.25 0.25 0.25 0.25 0.25 0.25 0.25 0.25 0.25 0.25 0.25 0.25 0.25 0.25 0.25 0.25 0.25 0.25 0.25 0.25 0.25 0.25 0.25 0.25 0.25 0.25 0.25 0.25 
</DataArray>
<DataArray type="Float64" Name="age_conc" format="ascii">
0.999026215373819 0.99243554508252 0.992565968046621 0.993153811072929 0.993877731372648 0.993359215239587 0.995161439802979 0.994064855729425 0.995152417043208 0.993655970587703 0.994691102839426 0.993025867620493 0.992891596346947 0.993957460622332 0.993306304801648 0.994498253755676 0.993644476728476 0.996186830747948 0.993210404041376 0.999183641941337 0.996583006186571 0.996569619298011 0.994000191518001 0.997643604301694 0.997868487916138 0.998557328783498 0.994882449717897 0.997650261911435 0.994492826067681 0.994003738251636 0.996213211366962 0.993579028790182 0.99475251864779 0.994018936164898 0.994787216982533 0.995629658053037 0.999006607138654 0.999164886275752 0.999346126649092 0.995917370162475 0.995461505246016 0.997316450604142 0.996791000524799 0.997406374808123 0.996363495422998 0.99798002239785 0.999230340661517 0.998776479195284 0.998766964852417 0.998220703502686 0.999330608813207 0.999500766849372 0.999510350148454 0.998297691208488 0.998864515623197 0.999181566430989 0.999433568229145 0.997870155494291 0.997316201820642 0.997292911542145 0.996936256014807 0.997834943660846 0.996345886887694 0.995423586376787 0.99600460422488 0.996723200036472 0.995663832535553 0.999673109128692 0.999760859040807 0.996107552271714 0.996678916196946 0.996620480065929 0.997096240526275 0.997942119928044 0.998432339386671 0.998312359568759 0.998740579598444 0.999299718474324 0.999608077631832 0.99852814559929 0.997987255986508 0.998859138409311 0.997492202477248 0.998102808480807 0.999843350806928 0.999922715803875 0.998560313357112 0.999107088796279 0.999058828958676 0.999487258422745 0.999503148215068 0.999101449641533 0.998948585804736 0.99854669820373 0.997646784888789 0.997500525090487 0.997185875146158 0.998997942576342 0.999037222516284 0.998456990309853 0.999043672978261 0.998524625858708 0.99750844003115 0.996945260257384 0.997721891673973 0.997220855048263 0.996070057748553 0.996508872005879 0.994872605751315 0.995314169871668 0.994439478698275 0.995194264602516 0.996238720409825 0.995641124016428 0.995799612425991 0.994894526234939 0.994929906922098 0.995500766882383 0.996859046637476 0.997416992602254 0.99762743142714 0.998657967002329 0.998710877746702 0.999153614745645 
</DataArray>
<DataArray type="Float64" Name="U235_conc" format="ascii">
0.999023735095122 0.992421170151462 0.992551810703424 0.99314004267021 0.99386536633545 0.993344848736702 0.99515034007255 0.994051691339659 0.995141301370092 0.993643064656649 0.994679401806804 0.993011854123966 0.992875889862404 0.993943753214771 0.99329135689866 0.994485603592725 0.993630141110476 0.99617786997649 0.993195256439886 0.999181556730324 0.996574836447225 0.99656142233931 0.9939865350645 0.997637836434234 0.997863216354162 0.998553712286287 0.99487055503203 0.997644507708957 0.994480145141203 0.993990094401049 0.996204304624634 0.993564577078762 0.994740995470945 0.994005327456229 0.994775127512801 0.99561933978532 0.999004085659191 0.999162761101245 0.999344450328013 0.995907647578241 0.995450806619715 0.997309867355242 0.996783214602712 0.997400006684504 0.996354759139644 0.997975004923462 0.999228390913403 0.998773396712306 0.998763855445828 0.9982162615262 0.999328898799886 0.999499485200416 0.99950908973672 0.998293428500667 0.998861639316753 0.99917949141442 0.999432117375245 0.997864854194888 0.997309600976894 0.997286257677965 0.996928787249303 0.997829570436062 0.996337095398895 0.995412813918213 0.995995067451984 0.996715246004231 0.995653561740787 0.999672264499536 0.999760238658402 0.996098241756346 0.996670891113542 0.996612301395339 0.997089142093184 0.997936987210822 0.998428388787698 0.998308121258958 0.998737390145321 0.999297922024063 0.999607067016665 0.998524451343868 0.997982252428041 0.998856238429752 0.997486028753522 0.998098066837534 0.999842943239821 0.999922514255405 0.998556682447704 0.9991048249483 0.999056431321996 0.999485942362116 0.99950187217034 0.999099173851959 0.998945915897423 0.998543050757317 0.997640988113409 0.997494359081565 0.997179004028159 0.99899542343573 0.999034805883878 0.998453138787827 0.999041272706798 0.998520943223256 0.997502351793901 0.996937874428721 0.997716288411519 0.997214082312133 0.996060691022147 0.996500474649645 0.994860686299108 0.995303165725514 0.994426687042388 0.995183028294262 0.996229760693166 0.995630830460234 0.995789696534748 0.994882679616153 0.994918182797401 0.995490228478954 0.996851479472886 0.997410705521857 0.997621637808042 0.998654608895077 0.998707645132436 0.99915148402652 
</DataArray>
</CellData>
</Piece>
</UnstructuredGrid>
</VTKFile>
