<?xml version="1.0"?>
<VTKFile type="UnstructuredGrid" version="0.1" byte_order="LittleEndian">
<UnstructuredGrid>
<Piece NumberOfPoints="69" NumberOfCells="124">
<Points>
<DataArray type="Float64" NumberOfComponents="3" format="ascii">
0 0 0 0.0843524221639116 0.0864517126562662 0 0.124999999999755 0 0 0 0.125000000000347 0 0.100817145298862 0.188857036972505 0 0.240388654717835 0.241888147926738 0 0.184027618128645 0.111732405146644 0 0.25 -0 0 0.312500000000208 0.125000000000416 0 0.428791151854623 0.154554454279667 0 0.437499999999133 0 0 0.437500000000069 0.375000000000139 0 0.494574932893002 0.262517037765555 0 0.375000000000278 0.250000000000555 0 0.338194444444483 0.338194444444563 0 0.374999999999735 0.437499999999867 0 0.149291241869753 0.445827935681064 0 0.249999999999609 0.374999999999804 0 0.12499999999976 0.31249999999988 0 0 0.25 0 0 0.437500000000347 0 0 0.625000000000694 0 0.139007895996117 0.7261831610706 0 0.139285875159121 0.573398061056774 0 0 1 0 0 0.812500000001041 0 0.127101071360123 0.870948066182034 0 0.187500000000521 1 0 0.279879602129308 0.834427414705705 0 0.449271053967154 0.855651240851559 0 0.375000000000694 1 0 0.264524437006746 0.515635315816399 0 0.275894670506865 0.660588531564357 0 0.381362046804951 0.740385922138312 0 0.413941406991218 0.605632526401004 0 0.5 0.5 -0 0.501458569330786 0.736746630465049 0 0.5625 0.625 0 0.712597478078444 0.638466913157018 0 0.63236534182377 0.502967564063323 0 0.562500000000867 1 0 0.567775120571876 0.84702246410953 0 0.625 0.75 0 0.738577951704336 0.777367885642847 0 0.6875 0.875 0 0.75 1 0 0.805529844910009 0.887111228721274 0 0.857879273915174 0.753532520882502 0 1 0.833333333333565 0 0.906379534221801 0.902085833280573 0 1 1 0 0.875 1 0 0.861274669778197 0.579480769787976 0 1 0.666666666667361 0 1 0.500000000001388 0 0.753384302623209 0.492944434231756 0 0.86569408477091 0.409836739167666 0 0.860872866902176 0.252065235979594 0 1 0.33333333333449 0 1 0.16666666666736 0 1 0 0 0.876989016488121 0.116063833865798 0 0.81249999999948 0 0 0.715089934061838 0.157159568547776 0 0.624999999998959 0 0 0.54475767668583 0.143183888206693 0 0.611084625850828 0.257505995823432 0 0.569867071784366 0.37762093650872 0 0.718260394928406 0.345640207172162 0 
</DataArray>
</Points>
<Cells>
<DataArray type="UInt32" Name="connectivity" format="ascii">
0 1 3 0 1 2 3 4 19 1 3 4 1 4 6 4 5 18 4 5 6 5 6 8 2 6 7 6 7 8 1 2 6 7 8 7 8 10 5 8 13 8 13 8 9 13 9 12 13 9 12 65 8 9 10 9 10 65 15 35 11 15 35 11 14 15 11 35 11 12 13 11 13 11 13 14 5 14 17 5 13 14 14 15 17 15 17 15 17 31 16 17 31 16 17 18 5 17 18 17 18 18 19 20 4 18 19 18 19 16 20 23 16 18 20 20 21 23 21 22 23 21 22 25 22 23 32 22 28 32 23 31 32 16 23 31 24 26 27 24 25 26 22 25 26 22 26 28 26 27 28 28 29 30 27 28 30 28 29 33 29 33 36 29 30 40 31 32 34 15 31 34 28 32 33 32 33 34 33 34 36 34 36 37 15 34 35 34 35 37 35 37 39 35 37 36 37 42 37 42 38 42 43 37 38 42 38 39 55 37 38 39 40 41 44 29 40 41 29 36 41 36 41 42 42 43 44 43 44 46 42 44 41 42 44 40 44 45 44 45 46 44 45 45 46 51 46 49 51 46 47 49 43 46 47 47 48 53 47 48 49 48 49 50 49 50 51 38 52 55 38 47 52 38 43 47 47 52 53 52 53 54 54 56 58 52 54 56 52 55 56 55 56 68 57 63 68 56 57 68 57 58 59 56 57 58 57 59 61 60 61 62 59 60 61 61 62 63 57 61 63 63 64 65 62 63 64 10 64 65 63 65 66 12 65 66 12 66 67 11 12 67 11 35 67 35 39 67 39 55 68 39 67 68 63 66 68 66 67 68 
</DataArray>
<DataArray type="UInt32" Name="offsets" format="ascii">
3 6 9 12 15 18 21 24 27 30 33 35 38 41 43 46 49 52 55 58 60 63 66 68 71 73 76 79 82 85 87 90 93 96 99 101 104 107 109 112 115 118 121 124 127 130 133 136 139 142 145 148 151 154 157 160 163 166 169 172 175 178 181 184 187 190 193 195 198 200 203 206 209 212 215 218 221 224 227 230 232 235 238 241 243 246 249 252 255 258 261 264 267 270 273 276 279 282 285 288 291 294 297 300 303 306 309 312 315 318 321 324 327 330 333 336 339 342 345 348 351 354 357 360 
</DataArray>
<DataArray type="UInt32" Name="types" format="ascii">
5 5 5 5 5 5 5 5 5 5 5 3 5 5 3 5 5 5 5 5 3 5 5 3 5 3 5 5 5 5 3 5 5 5 5 3 5 5 3 5 5 5 5 5 5 5 5 5 5 5 5 5 5 5 5 5 5 5 5 5 5 5 5 5 5 5 5 3 5 3 5 5 5 5 5 5 5 5 5 5 3 5 5 5 3 5 5 5 5 5 5 5 5 5 5 5 5 5 5 5 5 5 5 5 5 5 5 5 5 5 5 5 5 5 5 5 5 5 5 5 5 5 5 5 
</DataArray>
</Cells>
<CellData Scalars="porosity,age_conc,U235_conc," Vectors="" Tensors="">
<DataArray type="Float64" Name="porosity" format="ascii">
0.25 0.25 0.25 0.25 0.25 0.25 0.25 0.25 0.25 0.25 0.25 0.25 0.25 0.25 0.25 0.25 0.25 0.25 0.25 0.25 0.25 0.25 0.25 0.25 0.25 0.25 0.25 0.25 0.25 0.25 0.25 0.25 0.25 0.25 0.25 0.25 0.25 0.25 0.25 0.25 0.25 0.25 0.25 0.25 0.25 0.25 0.25 0.25 0.25 0.25 0.25 0.25 0.25 0.25 0.25 0.25 0.25 0.25 0.25 0.25 0.25 0.25 0.25 0.25 0.25 0.25 0.25 0.25 0.25 0.25 0.25 0.25 0.25 0.25 0.25 0.25 0.25 0.25 0.25 0.25 0.25 0.25 0.25 0.25 0.25 0.25 0.25 0.25 0.25 0.25 0.25 0.25 0.25 0.25 0.25 0.25 0.25 0.25 0.25 0.25 0.25 0.25 0.25 0.25 0.25 0.25 0.25 0.25 0.25 0.25 0.25 0.25 0.25 0.25 0.25 0.25 0.25 0.25 0.25 0.25 0.25 0.25 0.25 0.25 
</DataArray>
<DataArray type="Float64" Name="age_conc" format="ascii">
0.127051088051689 0.112332517785482 0.282747045303185 0.176761305366662 0.148508059502077 0.393097979726745 0.233056278193211 0.392057008097473 0.249110533208584 0.359427525120192 0.161227363666677 0.984847096219912 0.027090273228555 0.56906454869239 0.986506609203358 0.0309532611430125 0.0566470565903801 0.173889151628201 0.047613673480019 0.104333485001749 0.99505462020738 0.966226851369569 0.913944250646769 0.993153956321055 0.0850121190189822 0.989397215608265 0.854931582307215 0.663365341245202 0.661233357480866 0.855940967454602 0.992196584724935 0.220067574351389 0.150076214698319 0.0857422749139062 0.573131904394727 0.989589921972722 0.0530733966806693 0.372961565564202 0.987886341938065 0.201249576389034 0.0928756413947458 0.414115947862504 0.610316870832775 0.854433002815225 0.728413131171409 0.844920452605745 0.47939407659078 0.349977244831927 0.990427927887999 0.979975472282726 0.932908705025263 0.955651729854188 0.98364062435764 0.992371316454511 0.992282578909141 0.969433989034899 0.952493212600978 0.998690429852135 0.608479412944006 0.347302551702964 0.931152538403209 0.776200597819228 0.863855536284455 0.870169130314584 0.510080476144356 0.725066567013345 0.405775250862657 0.997172389790862 0.963561488851815 0.998949232716116 0.809023772843136 0.688943210216079 0.687079103768274 0.537022673898487 0.999189647794188 0.993613203938029 0.98190961890601 0.990516992076625 0.874482652270114 0.938948298860719 0.999648189845779 0.997315485757402 0.99957817696299 0.974835820558855 0.999903095518558 0.993564723431923 0.997372532639334 0.988498986485733 0.967177812816065 0.992362495752578 0.995091596587856 0.999247258430465 0.999155777913512 0.801013534853662 0.879669483876795 0.893430857486677 0.974175010512829 0.978492979840902 0.973490276443025 0.952453790342194 0.870144340810002 0.793979825144978 0.735316385450895 0.8289885755387 0.973959406356899 0.951945697130782 0.961235010290755 0.96800900565772 0.980442840523481 0.815389600219409 0.839358416219644 0.414368899121644 0.725433825326636 0.294594386124485 0.478206167162504 0.247749551094194 0.306883589814934 0.141204507702581 0.214633698020206 0.315320066127582 0.641071805586961 0.529292295497245 0.578378653472937 0.417145092207065 
</DataArray>
<DataArray type="Float64" Name="U235_conc" format="ascii">
0.121678460194804 0.106659533620423 0.278972553130129 0.171659741286935 0.142473588285437 0.390677509861295 0.22832214113026 0.389629403684437 0.244931764945173 0.356174042007263 0.155904944666073 0.984775511844935 0.0203478850713145 0.568608993105592 0.986439161810826 0.0233721830803242 0.0481220089568389 0.166676185087346 0.0399351686316651 0.095993254652676 0.99506632308844 0.966799439948021 0.915398972524768 0.993134885348171 0.0762193147239544 0.989346276628596 0.856451139927085 0.664429497432752 0.662276870137104 0.85747131642971 0.992187901667943 0.214352225647867 0.142780566863236 0.0775406181639785 0.572709573756207 0.989560531074317 0.0452185584978199 0.369834207964104 0.9878461372068 0.194997205318987 0.0849232784104373 0.412903929087735 0.612517418586571 0.857305529535519 0.731716164549064 0.848003613263676 0.479658104257291 0.347414276064894 0.990735660323053 0.980584605514992 0.934741564578136 0.957007285193775 0.984218108775416 0.992688739085091 0.992564966855671 0.970540926929986 0.954306167557105 0.998733683365641 0.610977692940292 0.344680245941998 0.933239698275836 0.779902248639258 0.867177217464006 0.873377198016279 0.510897187087684 0.728585812922123 0.404602120902143 0.997184232345186 0.965108766767023 0.998960949585302 0.812675334570218 0.692448967827941 0.689904979118085 0.538548429066314 0.999198076199935 0.993889394255251 0.982704790248199 0.991002882218857 0.877444906764225 0.940837291788659 0.999652814579459 0.997427791508704 0.999579823712394 0.975739097151828 0.999903690915655 0.99383259884509 0.997479877156815 0.989018816624132 0.968511975939763 0.992670715446898 0.995300972001861 0.999264280577467 0.999177297204897 0.804027006094563 0.88213863247428 0.896281897054783 0.97508038860967 0.979123752091096 0.974058238149465 0.953629574515724 0.87221702864082 0.796450727508879 0.737373649926562 0.830922206412811 0.974455236013105 0.952893913550816 0.961974817993951 0.968658207262487 0.980821810104183 0.816997567768689 0.840823508946113 0.412689203845644 0.727245811634883 0.29058711812569 0.477759531821388 0.242391839250492 0.303167770225095 0.13319766448197 0.208349103586396 0.311738336222947 0.643315145236869 0.530235476034354 0.579134667439959 0.416058446010582 
</DataArray>
</CellData>
</Piece>
</UnstructuredGrid>
</VTKFile>
