<?xml version="1.0"?>
<VTKFile type="UnstructuredGrid" version="0.1" byte_order="LittleEndian">
<UnstructuredGrid>
<Piece NumberOfPoints="1920" NumberOfCells="640">
<Points>
<DataArray type="Float64" NumberOfComponents="3" format="ascii">
0 0.25000000000104028 0 0 0.18750000000078021 0 0.035476603835922972 0.22285412686249678 0 0 0.18750000000078021 0 0 0.12500000000052014 0 0.035476603835922972 0.16035412686223671 0 0.035476603835922972 0.22285412686249678 0 0.035476603835922972 0.16035412686223671 0 0.070953207671845944 0.19570825372395328 0 0 0.18750000000078021 0 0.035476603835922972 0.16035412686223671 0 0.035476603835922972 0.22285412686249678 0 0 0.12500000000052014 0 0 0.06250000000026007 0 0.035476603835922972 0.097854126861976642 0 0 0.06250000000026007 0 0 0 0 0.035476603835922972 0.035354126861716573 0 0.035476603835922972 0.097854126861976642 0 0.035476603835922972 0.035354126861716573 0 0.070953207671845944 0.070708253723433145 0 0 0.06250000000026007 0 0.035476603835922972 0.035354126861716573 0 0.035476603835922972 0.097854126861976642 0 0.070953207671845944 0.19570825372395328 0 0.070953207671845944 0.13320825372369322 0 0.10642981150776892 0.16856238058540979 0 0.070953207671845944 0.13320825372369322 0 0.070953207671845944 0.070708253723433145 0 0.10642981150776892 0.10606238058514972 0 0.10642981150776892 0.16856238058540979 0 0.10642981150776892 0.10606238058514972 0 0.14190641534369189 0.14141650744686629 0 0.070953207671845944 0.13320825372369322 0 0.10642981150776892 0.10606238058514972 0 0.10642981150776892 0.16856238058540979 0 0 0.12500000000052014 0 0.035476603835922972 0.097854126861976642 0 0.035476603835922972 0.16035412686223671 0 0.035476603835922972 0.097854126861976642 0 0.070953207671845944 0.070708253723433145 0 0.070953207671845944 0.13320825372369322 0 0.035476603835922972 0.16035412686223671 0 0.070953207671845944 0.13320825372369322 0 0.070953207671845944 0.19570825372395328 0 0.035476603835922972 0.097854126861976642 0 0.070953207671845944 0.13320825372369322 0 0.035476603835922972 0.16035412686223671 0 0.27852182539674991 0.27558237801301472 0 0.20889136904756245 0.26918678351002112 0 0.24436797288348541 0.24204091037147762 0 0.20889136904756245 0.26918678351002112 0 0.13926091269837496 0.26279118900702747 0 0.17473751653429792 0.23564531586848397 0 0.24436797288348541 0.24204091037147762 0 0.17473751653429792 0.23564531586848397 0 0.21021412037022091 0.2084994427299405 0 0.20889136904756245 0.26918678351002112 0 0.17473751653429792 0.23564531586848397 0 0.24436797288348541 0.24204091037147762 0 0.13926091269837496 0.26279118900702747 0 0.069630456349187478 0.25639559450403387 0 0.10510706018511046 0.22924972136549038 0 0.069630456349187478 0.25639559450403387 0 0 0.25000000000104028 0 0.035476603835922972 0.22285412686249678 0 0.10510706018511046 0.22924972136549038 0 0.035476603835922972 0.22285412686249678 0 0.070953207671845944 0.19570825372395328 0 0.069630456349187478 0.25639559450403387 0 0.035476603835922972 0.22285412686249678 0 0.10510706018511046 0.22924972136549038 0 0.21021412037022091 0.2084994427299405 0 0.14058366402103342 0.20210384822694688 0 0.17606026785695639 0.17495797508840338 0 0.14058366402103342 0.20210384822694688 0 0.070953207671845944 0.19570825372395328 0 0.10642981150776892 0.16856238058540979 0 0.17606026785695639 0.17495797508840338 0 0.10642981150776892 0.16856238058540979 0 0.14190641534369189 0.14141650744686629 0 0.14058366402103342 0.20210384822694688 0 0.10642981150776892 0.16856238058540979 0 0.17606026785695639 0.17495797508840338 0 0.13926091269837496 0.26279118900702747 0 0.10510706018511046 0.22924972136549038 0 0.17473751653429792 0.23564531586848397 0 0.10510706018511046 0.22924972136549038 0 0.070953207671845944 0.19570825372395328 0 0.14058366402103342 0.20210384822694688 0 0.17473751653429792 0.23564531586848397 0 0.14058366402103342 0.20210384822694688 0 0.21021412037022091 0.2084994427299405 0 0.10510706018511046 0.22924972136549038 0 0.14058366402103342 0.20210384822694688 0 0.17473751653429792 0.23564531586848397 0 0.24999999999941211 0 0 0.25713045634874654 0.068895594503253679 0 0.22297660383548207 0.035354126861716573 0 0.25713045634874654 0.068895594503253679 0 0.264260912698081 0.13779118900650736 0 0.2301070601848165 0.10424972136497025 0 0.22297660383548207 0.035354126861716573 0 0.2301070601848165 0.10424972136497025 0 0.195953207671552 0.070708253723433145 0 0.25713045634874654 0.068895594503253679 0 0.2301070601848165 0.10424972136497025 0 0.22297660383548207 0.035354126861716573 0 0.264260912698081 0.13779118900650736 0 0.27139136904741545 0.20668678350976105 0 0.23723751653415096 0.17314531586822393 0 0.27139136904741545 0.20668678350976105 0 0.27852182539674991 0.27558237801301472 0 0.24436797288348541 0.24204091037147762 0 0.23723751653415096 0.17314531586822393 0 0.24436797288348541 0.24204091037147762 0 0.21021412037022091 0.2084994427299405 0 0.27139136904741545 0.20668678350976105 0 0.24436797288348541 0.24204091037147762 0 0.23723751653415096 0.17314531586822393 0 0.195953207671552 0.070708253723433145 0 0.20308366402088646 0.13960384822668681 0 0.16892981150762193 0.10606238058514972 0 0.20308366402088646 0.13960384822668681 0 0.21021412037022091 0.2084994427299405 0 0.17606026785695639 0.17495797508840338 0 0.16892981150762193 0.10606238058514972 0 0.17606026785695639 0.17495797508840338 0 0.14190641534369189 0.14141650744686629 0 0.20308366402088646 0.13960384822668681 0 0.17606026785695639 0.17495797508840338 0 0.16892981150762193 0.10606238058514972 0 0.264260912698081 0.13779118900650736 0 0.23723751653415096 0.17314531586822393 0 0.2301070601848165 0.10424972136497025 0 0.23723751653415096 0.17314531586822393 0 0.21021412037022091 0.2084994427299405 0 0.20308366402088646 0.13960384822668681 0 0.2301070601848165 0.10424972136497025 0 0.20308366402088646 0.13960384822668681 0 0.195953207671552 0.070708253723433145 0 0.23723751653415096 0.17314531586822393 0 0.20308366402088646 0.13960384822668681 0 0.2301070601848165 0.10424972136497025 0 0.24999999999941211 0 0 0.22297660383548207 0.035354126861716573 0 0.18749999999955907 0 0 0.22297660383548207 0.035354126861716573 0 0.195953207671552 0.070708253723433145 0 0.16047660383562903 0.035354126861716573 0 0.18749999999955907 0 0 0.16047660383562903 0.035354126861716573 0 0.12499999999970605 0 0 0.22297660383548207 0.035354126861716573 0 0.16047660383562903 0.035354126861716573 0 0.18749999999955907 0 0 0.195953207671552 0.070708253723433145 0 0.16892981150762193 0.10606238058514972 0 0.13345320767169896 0.070708253723433145 0 0.16892981150762193 0.10606238058514972 0 0.14190641534369189 0.14141650744686629 0 0.10642981150776892 0.10606238058514972 0 0.13345320767169896 0.070708253723433145 0 0.10642981150776892 0.10606238058514972 0 0.070953207671845944 0.070708253723433145 0 0.16892981150762193 0.10606238058514972 0 0.10642981150776892 0.10606238058514972 0 0.13345320767169896 0.070708253723433145 0 0.12499999999970605 0 0 0.097976603835775999 0.035354126861716573 0 0.062499999999853027 0 0 0.097976603835775999 0.035354126861716573 0 0.070953207671845944 0.070708253723433145 0 0.035476603835922972 0.035354126861716573 0 0.062499999999853027 0 0 0.035476603835922972 0.035354126861716573 0 0 0 0 0.097976603835775999 0.035354126861716573 0 0.035476603835922972 0.035354126861716573 0 0.062499999999853027 0 0 0.195953207671552 0.070708253723433145 0 0.13345320767169896 0.070708253723433145 0 0.16047660383562903 0.035354126861716573 0 0.13345320767169896 0.070708253723433145 0 0.070953207671845944 0.070708253723433145 0 0.097976603835775999 0.035354126861716573 0 0.16047660383562903 0.035354126861716573 0 0.097976603835775999 0.035354126861716573 0 0.12499999999970605 0 0 0.13345320767169896 0.070708253723433145 0 0.097976603835775999 0.035354126861716573 0 0.16047660383562903 0.035354126861716573 0 0.27852182539674991 0.27558237801301472 0 0.33385079854981825 0.33165136819639068 0 0.25697200176360724 0.331239997713904 0 0.33385079854981825 0.33165136819639068 0 0.38917977170288665 0.38772035837976665 0 0.31230097491667563 0.38730898789727997 0 0.25697200176360724 0.331239997713904 0 0.31230097491667563 0.38730898789727997 0 0.23542217813046457 0.38689761741479323 0 0.33385079854981825 0.33165136819639068 0 0.31230097491667563 0.38730898789727997 0 0.25697200176360724 0.331239997713904 0 0.38917977170288665 0.38772035837976665 0 0.44450874485595504 0.44378934856314262 0 0.36762994806974397 0.44337797808065593 0 0.44450874485595504 0.44378934856314262 0 0.49983771800902338 0.49985833874651858 0 0.42295892122281231 0.4994469682640319 0 0.36762994806974397 0.44337797808065593 0 0.42295892122281231 0.4994469682640319 0 0.3460801244366013 0.49903559778154516 0 0.44450874485595504 0.44378934856314262 0 0.42295892122281231 0.4994469682640319 0 0.36762994806974397 0.44337797808065593 0 0.23542217813046457 0.38689761741479323 0 0.2907511512835329 0.44296660759816919 0 0.21387235449732189 0.44255523711568251 0 0.2907511512835329 0.44296660759816919 0 0.3460801244366013 0.49903559778154516 0 0.26920132765039023 0.49862422729905848 0 0.21387235449732189 0.44255523711568251 0 0.26920132765039023 0.49862422729905848 0 0.19232253086417919 0.49821285681657179 0 0.2907511512835329 0.44296660759816919 0 0.26920132765039023 0.49862422729905848 0 0.21387235449732189 0.44255523711568251 0 0.38917977170288665 0.38772035837976665 0 0.36762994806974397 0.44337797808065593 0 0.31230097491667563 0.38730898789727997 0 0.36762994806974397 0.44337797808065593 0 0.3460801244366013 0.49903559778154516 0 0.2907511512835329 0.44296660759816919 0 0.31230097491667563 0.38730898789727997 0 0.2907511512835329 0.44296660759816919 0 0.23542217813046457 0.38689761741479323 0 0.36762994806974397 0.44337797808065593 0 0.2907511512835329 0.44296660759816919 0 0.31230097491667563 0.38730898789727997 0 0.27852182539674991 0.27558237801301472 0 0.25697200176360724 0.331239997713904 0 0.20889136
[...]
<CellData Scalars="U235_conc," Vectors="" Tensors="">
<DataArray type="Float64" Name="U235_conc" format="ascii">
0.5 0.5 0.5 0.5 0.5 0.5 0.5 0.5 0.5 0.5 0.5 0.5 0.5 0.5 0.5 0.5 0.5 0.5 0.5 0.5 0.5 0.5 0.5 0.5 0.5 0.5 0.5 0.5 0.5 0.5 0.5 0.5 0.5 0.5 0.5 0.5 0.5 0.5 0.5 0.5 0.5 0.5 0.5 0.5 0.5 0.5 0.5 0.5 0.5 0.5 0.5 0.5 0.5 0.5 0.5 0.5 0.5 0.5 0.5 0.5 0.5 0.5 0.5 0.5 0.5 0.5 0.5 0.5 0.5 0.5 0.5 0.5 0.5 0.5 0.5 0.5 0.5 0.5 0.5 0.5 0.5 0.5 0.5 0.5 0.5 0.5 0.5 0.5 0.5 0.5 0.5 0.5 0.5 0.5 0.5 0.5 0.5 0.5 0.5 0.5 0.5 0.5 0.5 0.5 0.5 0.5 0.5 0.5 0.5 0.5 0.5 0.5 0.5 0.5 0.5 0.5 0.5 0.5 0.5 0.5 0.5 0.5 0.5 0.5 0.5 0.5 0.5 0.5 0.5 0.5 0.5 0.5 0.5 0.5 0.5 0.5 0.5 0.5 0.5 0.5 0.5 0.5 0.5 0.5 0.5 0.5 0.5 0.5 0.5 0.5 0.5 0.5 0.5 0.5 0.5 0.5 0.5 0.5 0.5 0.5 0.5 0.5 0.5 0.5 0.5 0.5 0.5 0.5 0.5 0.5 0.5 0.5 0.5 0.5 0.5 0.5 0.5 0.5 0.5 0.5 0.5 0.5 0.5 0.5 0.5 0.5 0.5 0.5 0.5 0.5 0.5 0.5 0.5 0.5 0.5 0.5 0.5 0.5 0.5 0.5 0.5 0.5 0.5 0.5 0.5 0.5 0.5 0.5 0.5 0.5 0.5 0.5 0.5 0.5 0.5 0.5 0.5 0.5 0.5 0.5 0.5 0.5 0.5 0.5 0.5 0.5 0.5 0.5 0.5 0.5 0.5 0.5 0.5 0.5 0.5 0.5 0.5 0.5 0.5 0.5 0.5 0.5 0.5 0.5 0.5 0.5 0.5 0.5 0.5 0.5 0.5 0.5 0.5 0.5 0.5 0.5 0.5 0.5 0.5 0.5 0.5 0.5 0.5 0.5 0.5 0.5 0.5 0.5 0.5 0.5 0.5 0.5 0.5 0.5 0.5 0.5 0.5 0.5 0.5 0.5 0.5 0.5 0.5 0.5 0.5 0.5 0.5 0.5 0.5 0.5 0.5 0.5 0.5 0.5 0.5 0.5 0.5 0.5 0.5 0.5 0.5 0.5 0.5 0.5 0.5 0.5 0.5 0.5 0.5 0.5 0.5 0.5 0.5 0.5 0.5 0.5 0.5 0.5 0.5 0.5 0.5 0.5 0.5 0.5 0.5 0.5 0.5 0.5 0.5 0.5 0.5 0.5 0.5 0.5 0.5 0.5 0.5 0.5 0.5 0.5 0.5 0.5 0.5 0.5 0.5 0.5 0.5 0.5 0.5 0.5 0.5 0.5 0.5 0.5 0.5 0.5 0.5 0.5 0.5 0.5 0.5 0.5 0.5 0.5 0.5 0.5 0.5 0.5 0.5 0.5 0.5 0.5 0.5 0.5 0.5 0.5 0.5 0.5 0.5 0.5 0.5 0.5 0.5 0.5 0.5 0.5 0.5 0.5 0.5 0.5 0.5 0.5 0.5 0.5 0.5 0.5 0.5 0.5 0.5 0.5 0.5 0.5 0.5 0.5 0.5 0.5 0.5 0.5 0.5 0.5 0.5 0.5 0.5 0.5 0.5 0.5 0.5 0.5 0.5 0.5 0.5 0.5 0.5 0.5 0.5 0.5 0.5 0.5 0.5 0.5 0.5 0.5 0.5 0.5 0.5 0.5 0.5 0.5 0.5 0.5 0.5 0.5 0.5 0.5 0.5 0.5 0.5 0.5 0.5 0.5 0.5 0.5 0.5 0.5 0.5 0.5 0.5 0.5 0.5 0.5 0.5 0.5 0.5 0.5 0.5 0.5 0.5 0.5 0.5 0.5 0.5 0.5 0.5 0.5 0.5 0.5 0.5 0.5 0.5 0.5 0.5 0.5 0.5 0.5 0.5 0.5 0.5 0.5 0.5 0.5 0.5 0.5 0.5 0.5 0.5 0.5 0.5 0.5 0.5 0.5 0.5 0.5 0.5 0.5 0.5 0.5 0.5 0.5 0.5 0.5 0.5 0.5 0.5 0.5 0.5 0.5 0.5 0.5 0.5 0.5 0.5 0.5 0.5 0.5 0.5 0.5 0.5 0.5 0.5 0.5 0.5 0.5 0.5 0.5 0.5 0.5 0.5 0.5 0.5 0.5 0.5 0.5 0.5 0.5 0.5 0.5 0.5 0.5 0.5 0.5 0.5 0.5 0.5 0.5 0.5 0.5 0.5 0.5 0.5 0.5 0.5 0.5 0.5 0.5 0.5 0.5 0.5 0.5 0.5 0.5 0.5 0.5 0.5 0.5 0.5 0.5 0.5 0.5 0.5 0.5 0.5 0.5 0.5 0.5 0.5 0.5 0.5 0.5 0.5 0.5 0.5 0.5 0.5 0.5 0.5 0.5 0.5 0.5 0.5 0.5 0.5 0.5 0.5 0.5 0.5 0.5 0.5 0.5 0.5 0.5 0.5 0.5 0.5 0.5 0.5 0.5 0.5 0.5 0.5 0.5 0.5 0.5 0.5 0.5 0.5 0.5 0.5 0.5 0.5 0.5 0.5 0.5 0.5 0.5 0.5 0.5 0.5 0.5 0.5 0.5 
</DataArray>
</CellData>
</Piece>
</UnstructuredGrid>
</VTKFile>
