<?xml version="1.0"?>
<VTKFile type="UnstructuredGrid" version="0.1" byte_order="LittleEndian">
<UnstructuredGrid>
<Piece NumberOfPoints="201" NumberOfCells="200">
<Points>
<DataArray type="Float64" NumberOfComponents="3" format="ascii">
0 0 0 1 0 0 0.00499999999999053 0 0 0.0099999999999811 0 0 0.0149999999999717 0 0 0.0199999999999624 0 0 0.0249999999999529 0 0 0.0299999999999431 0 0 0.0349999999999326 0 0 0.0399999999999219 0 0 0.0449999999999108 0 0 0.0499999999998997 0 0 0.0549999999998886 0 0 0.0599999999998784 0 0 0.064999999999869 0 0 0.0699999999998605 0 0 0.0749999999998528 0 0 0.0799999999998452 0 0 0.0849999999998375 0 0 0.0899999999998299 0 0 0.0949999999998223 0 0 0.0999999999998146 0 0 0.104999999999807 0 0 0.109999999999799 0 0 0.114999999999792 0 0 0.119999999999783 0 0 0.124999999999774 0 0 0.129999999999761 0 0 0.134999999999747 0 0 0.139999999999733 0 0 0.144999999999718 0 0 0.149999999999704 0 0 0.154999999999689 0 0 0.159999999999675 0 0 0.16499999999966 0 0 0.169999999999645 0 0 0.174999999999631 0 0 0.179999999999616 0 0 0.184999999999602 0 0 0.189999999999587 0 0 0.194999999999572 0 0 0.199999999999558 0 0 0.204999999999543 0 0 0.209999999999529 0 0 0.214999999999514 0 0 0.2199999999995 0 0 0.224999999999485 0 0 0.22999999999947 0 0 0.234999999999456 0 0 0.239999999999441 0 0 0.244999999999427 0 0 0.249999999999412 0 0 0.254999999999398 0 0 0.259999999999383 0 0 0.264999999999368 0 0 0.269999999999354 0 0 0.274999999999339 0 0 0.279999999999325 0 0 0.28499999999931 0 0 0.289999999999295 0 0 0.294999999999281 0 0 0.299999999999266 0 0 0.304999999999252 0 0 0.309999999999237 0 0 0.314999999999223 0 0 0.319999999999208 0 0 0.324999999999193 0 0 0.329999999999179 0 0 0.334999999999164 0 0 0.33999999999915 0 0 0.344999999999135 0 0 0.349999999999121 0 0 0.354999999999106 0 0 0.359999999999091 0 0 0.364999999999077 0 0 0.369999999999062 0 0 0.374999999999048 0 0 0.379999999999033 0 0 0.384999999999019 0 0 0.389999999999004 0 0 0.394999999998989 0 0 0.399999999998975 0 0 0.40499999999896 0 0 0.409999999998946 0 0 0.414999999998931 0 0 0.419999999998917 0 0 0.424999999998902 0 0 0.429999999998887 0 0 0.434999999998873 0 0 0.439999999998858 0 0 0.444999999998844 0 0 0.449999999998829 0 0 0.454999999998815 0 0 0.4599999999988 0 0 0.464999999998785 0 0 0.469999999998771 0 0 0.474999999998756 0 0 0.479999999998742 0 0 0.484999999998727 0 0 0.489999999998713 0 0 0.494999999998702 0 0 0.499999999998694 0 0 0.5049999999987 0 0 0.50999999999871 0 0 0.514999999998723 0 0 0.519999999998736 0 0 0.524999999998749 0 0 0.529999999998763 0 0 0.534999999998776 0 0 0.539999999998789 0 0 0.544999999998802 0 0 0.549999999998815 0 0 0.554999999998828 0 0 0.559999999998842 0 0 0.564999999998855 0 0 0.569999999998868 0 0 0.574999999998881 0 0 0.579999999998894 0 0 0.584999999998907 0 0 0.58999999999892 0 0 0.594999999998934 0 0 0.599999999998947 0 0 0.60499999999896 0 0 0.609999999998973 0 0 0.614999999998986 0 0 0.619999999998999 0 0 0.624999999999013 0 0 0.629999999999026 0 0 0.634999999999039 0 0 0.639999999999052 0 0 0.644999999999065 0 0 0.649999999999078 0 0 0.654999999999092 0 0 0.659999999999105 0 0 0.664999999999118 0 0 0.669999999999131 0 0 0.674999999999144 0 0 0.679999999999157 0 0 0.684999999999171 0 0 0.689999999999184 0 0 0.694999999999197 0 0 0.69999999999921 0 0 0.704999999999223 0 0 0.709999999999236 0 0 0.71499999999925 0 0 0.719999999999263 0 0 0.724999999999276 0 0 0.729999999999289 0 0 0.734999999999302 0 0 0.739999999999315 0 0 0.744999999999329 0 0 0.749999999999342 0 0 0.754999999999355 0 0 0.759999999999368 0 0 0.764999999999381 0 0 0.769999999999395 0 0 0.774999999999407 0 0 0.779999999999421 0 0 0.784999999999434 0 0 0.789999999999447 0 0 0.79499999999946 0 0 0.799999999999473 0 0 0.804999999999487 0 0 0.8099999999995 0 0 0.814999999999513 0 0 0.819999999999526 0 0 0.824999999999539 0 0 0.829999999999552 0 0 0.834999999999566 0 0 0.839999999999579 0 0 0.844999999999592 0 0 0.849999999999605 0 0 0.854999999999618 0 0 0.859999999999631 0 0 0.864999999999645 0 0 0.869999999999658 0 0 0.874999999999671 0 0 0.879999999999684 0 0 0.884999999999697 0 0 0.88999999999971 0 0 0.894999999999724 0 0 0.899999999999737 0 0 0.90499999999975 0 0 0.909999999999763 0 0 0.914999999999776 0 0 0.919999999999789 0 0 0.924999999999803 0 0 0.929999999999816 0 0 0.934999999999829 0 0 0.939999999999842 0 0 0.944999999999855 0 0 0.949999999999868 0 0 0.954999999999881 0 0 0.959999999999895 0 0 0.964999999999908 0 0 0.969999999999921 0 0 0.974999999999934 0 0 0.979999999999947 0 0 0.98499999999996 0 0 0.989999999999974 0 0 0.994999999999987 0 0 
</DataArray>
</Points>
<Cells>
<DataArray type="Int32" Name="connectivity" format="ascii">
0 2 2 3 3 4 4 5 5 6 6 7 7 8 8 9 9 10 10 11 11 12 12 13 13 14 14 15 15 16 16 17 17 18 18 19 19 20 20 21 21 22 22 23 23 24 24 25 25 26 26 27 27 28 28 29 29 30 30 31 31 32 32 33 33 34 34 35 35 36 36 37 37 38 38 39 39 40 40 41 41 42 42 43 43 44 44 45 45 46 46 47 47 48 48 49 49 50 50 51 51 52 52 53 53 54 54 55 55 56 56 57 57 58 58 59 59 60 60 61 61 62 62 63 63 64 64 65 65 66 66 67 67 68 68 69 69 70 70 71 71 72 72 73 73 74 74 75 75 76 76 77 77 78 78 79 79 80 80 81 81 82 82 83 83 84 84 85 85 86 86 87 87 88 88 89 89 90 90 91 91 92 92 93 93 94 94 95 95 96 96 97 97 98 98 99 99 100 100 101 101 102 102 103 103 104 104 105 105 106 106 107 107 108 108 109 109 110 110 111 111 112 112 113 113 114 114 115 115 116 116 117 117 118 118 119 119 120 120 121 121 122 122 123 123 124 124 125 125 126 126 127 127 128 128 129 129 130 130 131 131 132 132 133 133 134 134 135 135 136 136 137 137 138 138 139 139 140 140 141 141 142 142 143 143 144 144 145 145 146 146 147 147 148 148 149 149 150 150 151 151 152 152 153 153 154 154 155 155 156 156 157 157 158 158 159 159 160 160 161 161 162 162 163 163 164 164 165 165 166 166 167 167 168 168 169 169 170 170 171 171 172 172 173 173 174 174 175 175 176 176 177 177 178 178 179 179 180 180 181 181 182 182 183 183 184 184 185 185 186 186 187 187 188 188 189 189 190 190 191 191 192 192 193 193 194 194 195 195 196 196 197 197 198 198 199 199 200 200 1 
</DataArray>
<DataArray type="Int32" Name="offsets" format="ascii">
2 4 6 8 10 12 14 16 18 20 22 24 26 28 30 32 34 36 38 40 42 44 46 48 50 52 54 56 58 60 62 64 66 68 70 72 74 76 78 80 82 84 86 88 90 92 94 96 98 100 102 104 106 108 110 112 114 116 118 120 122 124 126 128 130 132 134 136 138 140 142 144 146 148 150 152 154 156 158 160 162 164 166 168 170 172 174 176 178 180 182 184 186 188 190 192 194 196 198 200 202 204 206 208 210 212 214 216 218 220 222 224 226 228 230 232 234 236 238 240 242 244 246 248 250 252 254 256 258 260 262 264 266 268 270 272 274 276 278 280 282 284 286 288 290 292 294 296 298 300 302 304 306 308 310 312 314 316 318 320 322 324 326 328 330 332 334 336 338 340 342 344 346 348 350 352 354 356 358 360 362 364 366 368 370 372 374 376 378 380 382 384 386 388 390 392 394 396 398 400 
</DataArray>
<DataArray type="UInt8" Name="types" format="ascii">
3 3 3 3 3 3 3 3 3 3 3 3 3 3 3 3 3 3 3 3 3 3 3 3 3 3 3 3 3 3 3 3 3 3 3 3 3 3 3 3 3 3 3 3 3 3 3 3 3 3 3 3 3 3 3 3 3 3 3 3 3 3 3 3 3 3 3 3 3 3 3 3 3 3 3 3 3 3 3 3 3 3 3 3 3 3 3 3 3 3 3 3 3 3 3 3 3 3 3 3 3 3 3 3 3 3 3 3 3 3 3 3 3 3 3 3 3 3 3 3 3 3 3 3 3 3 3 3 3 3 3 3 3 3 3 3 3 3 3 3 3 3 3 3 3 3 3 3 3 3 3 3 3 3 3 3 3 3 3 3 3 3 3 3 3 3 3 3 3 3 3 3 3 3 3 3 3 3 3 3 3 3 3 3 3 3 3 3 3 3 3 3 3 3 3 3 3 3 3 3 
</DataArray>
</Cells>
<CellData Scalars="pressure_p0," Vectors="velocity_p0," Tensors="">
<DataArray type="Float64" Name="pressure_p0" format="ascii">
-6618.9999999999 -6618.99999999991 -6618.99999999991 -6618.99999999992 -6618.99999999992 -6618.99999999993 -6618.99999999993 -6618.99999999993 -6618.99999999993 -6618.99999999992 -6618.99999999992 -6618.99999999991 -6618.99999999991 -6618.9999999999 -6618.99999999991 -6618.99999999991 -6618.99999999991 -6618.99999999991 -6618.99999999991 -6618.99999999993 -6618.99999999994 -6618.99999999995 -6618.99999999996 -6618.99999999996 -6618.99999999996 -6618.99999999997 -6618.99999999997 -6618.99999999998 -6618.99999999998 -6618.99999999999 -6618.99999999999 -6619.00000000001 -6619.00000000001 -6619.00000000002 -6619.00000000002 -6619.00000000002 -6619.00000000002 -6619.00000000003 -6619.00000000002 -6619.00000000002 -6619.00000000002 -6619.00000000001 -6619.00000000001 -6619.00000000001 -6619.00000000001 -6619.00000000001 -6619.00000000002 -6619.00000000003 -6619.00000000003 -6619.00000000002 -6619.00000000002 -6619.00000000001 -6619 -6619 -6619 -6618.99999999999 -6618.99999999999 -6618.99999999998 -6618.99999999998 -6618.99999999998 -6618.99999999998 -6618.99999999998 -6618.99999999997 -6618.99999999996 -6618.99999999995 -6618.99999999992 -6618.99999999988 -6618.99999999982 -6618.99999999975 -6618.99999999964 -6618.99999999949 -6618.99999999927 -6618.99999999897 -6618.99999999856 -6618.99999999799 -6618.99999999718 -6618.99999999605 -6618.99999999449 -6618.99999999232 -6618.9999999893 -6618.99999998511 -6618.99999997929 -6618.99999997123 -6618.99999996006 -6618.9999999446 -6618.99999992323 -6618.9999998937 -6618.99999985298 -6618.99999979684 -6618.99999971952 -6618.99999961314 -6618.99999946694 -6618.99999926622 -6618.99999899093 -6618.99999861376 -6618.9999980976 -6618.99999739197 -6618.99999642844 -6618.99999511419 -6618.99999332365 -6618.99999088706 -6618.99998757526 -6618.9999830793 -6618.99997698324 -6618.99996872786 -6618.99995756243 -6618.99994248049 -6618.99992213475 -6618.99989472437 -6618.99985784593 -6618.99980829674 -6618.99974181571 -6618.9996527427 -6618.99953357137 -6618.99937436353 -6618.99916198349 -6618.99887909927 -6618.99850288202 -6618.99800331659 -6618.99734101113 -6618.99646436393 -6618.9953059068 -6618.99377759685 -6618.99176476842 -6618.98911838287 -6618.98564512185 -6618.98109475632 -6618.97514408448 -6618.96737656126 -6618.95725653533 -6618.94409675817 -6618.92701752807 -6618.90489546918 -6618.87629951421 -6618.8394111485 -6618.79192537106 -6618.73092812623 -6618.65274514441 -6618.55275619411 -6618.42516768065 -6618.26273532428 -6618.05642731013 -6617.7950168289 -6617.4645913317 -6617.0479641269 -6616.5239721867 -6615.86664225544 -6615.04420563259 -6614.01794043269 -6612.74081882372 -6611.15593586602 -6609.19469630193 -6606.77473620585 -6603.79755805967 -6600.14586087327 -6595.68055176779 -6590.23743235987 -6583.62356273349 -6575.61331818715 -6565.94416971876 -6554.31223876048 -6540.36770034811 -6523.71013696583 -6503.88397787495 -6480.37419576152 -6452.60247372591 -6419.92410038689 -6381.62589821046 -6336.92553868281 -6284.97264570573 -6224.85213311215 -6155.59026037722 -6076.16391869133 -5985.51367316803 -5882.5610810444 -5766.2307746563 -5635.47773555489 -5489.32008572503 -5326.87757643493 -5147.41575743586 -4950.39555142088 -4735.52763295879 -4502.83060934638 -4252.69151434162 -3985.92654532052 -3703.83929001937 -3408.27288978193 -3101.65166059931 -2787.0066301583 -2467.97824098789 -2148.78811928277 -1834.1703436527 -1529.25114999035 -1239.36467120982 -969.791535913957 -725.407667020436 -510.233344677653 -326.876252385359 -175.842744894259 -54.157450282292 
</DataArray>
<DataArray type="Float64" Name="velocity_p0" NumberOfComponents="3" format="ascii">
3.3881317890172e-21 0 0 9.47050597666219e-21 0 0 6.08237418764498e-21 0 0 2.7798943702527e-20 0 0 2.23291437423416e-20 0 0 6.7762635780344e-21 0 0 -6.7762635780344e-21 0 0 8.16404235881286e-21 0 0 -8.77661658627324e-21 0 0 -1.08582847574408e-20 0 0 -1.83284377258644e-20 0 0 -1.15521741478302e-20 0 0 -7.47015296842383e-21 0 0 4.77591056979629e-21 0 0 2.10226801244929e-20 0 0 9.47050597666194e-21 0 0 -1.49403059368481e-20 0 0 5.38848479725508e-21 0 0 2.77989437025273e-20 0 0 5.02094026077995e-20 0 0 3.11870754915445e-20 0 0 2.77989437025273e-20 0 0 7.47015296842407e-21 0 0 1.01643953670516e-20 0 0 -1.38777878077884e-21 0 0 1.6940658945086e-20 0 0 2.37169225231204e-20 0 0 -6.93889390388711e-22 0 0 1.28586377656801e-20 0 0 2.37169225231204e-20 0 0 3.11870754915435e-20 0 0 2.8492833092915e-20 0 0 2.10226801244919e-20 0 0 -4.0820211794059e-21 0 0 6.7762635780344e-21 0 0 5.38848479725702e-21 0 0 2.91867224833037e-20 0 0 -4.0820211794059e-21 0 0 -1.08582847574403e-20 0 0 -6.08237418764571e-21 0 0 -6.7762635780344e-21 0 0 -1.62467695546973e-20 0 0 -3.3881317890172e-21 0 0 -1.08582847574403e-20 0 0 -4.7759105697946e-21 0 0 1.35525271560688e-20 0 0 3.72694496791892e-20 0 0 7.47015296842311e-21 0 0 -1.49403059368462e-20 0 0 -7.4701529684231e-21 0 0 -2.77989437025263e-20 0 0 -3.59629860613381e-20 0 0 -3.3881317890172e-21 0 0 4.7759105697946e-21 0 0 -6.7762635780344e-21 0 0 -1.6940658945086e-20 0 0 -1.28586377656801e-20 0 0 -1.01643953670516e-20 0 0 -1.49403059368462e-20 0 0 1.1552174147829e-20 0 0 6.93889390388698e-22 0 0 -1.49403059368462e-20 0 0 -1.76345483354747e-20 0 0 -3.18809648819322e-20 0 0 -7.66205675295445e-20 0 0 -1.04419511232071e-19 0 0 -1.31524565544208e-19 0 0 -1.91204474128667e-19 0 0 -2.54272514502143e-19 0 0 -3.72244552890282e-19 0 0 -5.21403666769965e-19 0 0 -7.26935872608016e-19 0 0 -1.01508970500033e-18 0 0 -1.39202885329748e-18 0 0 -1.95886601210545e-18 0 0 -2.75356452049381e-18 0 0 -3.82286433411842e-18 0 0 -5.29829001852347e-18 0 0 -7.35410538889257e-18 0 0 -1.02405009385484e-17 0 0 -1.4216525092563e-17 0 0 -1.97336558985918e-17 0 0 -2.73201546021458e-17 0 0 -3.78309308792623e-17 0 0 -5.23169561058401e-17 0 0 -7.2297007790151e-17 0 0 -9.97920821497948e-17 0 0 -1.37606565682101e-16 0 0 -1.8956491649838e-16 0 0 -2.60933993596177e-16 0 0 -3.58783792606095e-16 0 0 -4.92798878960719e-16 0 0 -6.76164690644556e-16 0 0 -9.26803263041138e-16 0 0 -1.26896944558147e-15 0 0 -1.73551939421252e-15 0 0 -2.37100727506334e-15 0 0 -3.23554217814838e-15 0 0 -4.41027667402532e-15 0 0 -6.00455547371412e-15 0 0 -8.16545957368584e-15 0 0 -1.1090733382678e-14 0 0 -1.5045717471387e-14 0 0 -2.03858789549737e-14 0 0 -2.75868017936726e-14 0 0 -3.72837796551993e-14 0 0 -5.03242011159627e-14 0 0 -6.78364596537945e-14 0 0 -9.13207765700484e-14 0 0 -1.22768465559609e-13 0 0 -1.64818239628169e-13 0 0 -2.20960899924306e-13 0 0 -2.95806293197138e-13 0 0 -3.95431206501989e-13 0 0 -5.27832018826425e-13 0 0 -7.03511475642811e-13 0 0 -9.36238506296351e-13 0 0 -1.24402923192865e-12 0 0 -1.65041108711383e-12 0 0 -2.18604728590961e-12 0 0 -2.89081971727485e-12 0 0 -3.81649245449449e-12 0 0 -5.03010862705838e-12 0 0 -6.6183117315594e-12 0 0 -8.69282690523396e-12 0 0 -1.13973941037244e-11 0 0 -1.49165120793362e-11 0 0 -1.94864327499249e-11 0 0 -2.54089422285114e-11 0 0 -3.30685794241551e-11 0 0 -4.29540781544325e-11 0 0 -5.56849774948484e-11 0 0 -7.20445296169983e-11 0 0 -9.30202457798346e-11 0 0 -1.19853664227531e-10 0 0 -1.54101197168123e-10 0 0 -1.97708219233208e-10 0 0 -2.53098896570596e-10 0 0 -3.23284619884005e-10 0 0 -4.11994292486721e-10 0 0 -5.23830127730881e-10 0 0 -6.64453016434022e-10 0 0 -8.40801921259069e-10 0 0 -1.06135211776205e-09 0 0 -1.33641740759283e-09 0 0 -1.67850164706092e-09 0 0 -2.10270502475184e-09 0 0 -2.6271904459392e-09 0 0 -3.27371508838734e-09 0 0 -4.06823163840829e-09 0 0 -5.04156284187125e-09 0 0 -6.23015176919384e-09 0 0 -7.67688855056581e-09 0 0 -9.4320122605139e-09 0 0 -1.15540841056836e-08 0 0 -1.41110251107453e-08 0 0 -1.71812081444539e-08 0 0 -2.08545904620153e-08 0 0 -2.5233869082021e-08 0 0 -3.04356374265488e-08 0 0 -3.65915179408654e-08 0 0 -4.38492421132253e-08 0 0 -5.23736467062605e-08 0 0 -6.2347553365604e-08 0 0 -7.39724983588525e-08 0 0 -8.74692802496749e-08 0 0 -1.0307829599182e-07 0 0 -1.21059640315461e-07 0 0 -1.41692949318582e-07 0 0 -1.6527697667874e-07 0 0 -1.92128899509163e-07 0 0 -2.22583360068327e-07 0 0 -2.56991258586619e-07 0 0 -2.95718320513065e-07 0 0 -3.39143467432767e-07 0 0 -3.87657023477527e-07 0 0 -4.41658786688411e-07 0 0 -5.01555985541508e-07 0 0 -5.67761122155058e-07 0 0 -6.4068967201508e-07 0 0 -7.20757560234854e-07 0 0 -8.0837825863556e-07 0 0 -9.03959234282143e-07 0 0 -1.00789730960174e-06 0 0 -1.12057223668041e-06 0 0 -1.24233739519657e-06 0 0 -1.37350591586467e-06 0 0 -1.51432958030531e-06 0 0 -1.6649663419664e-06 0 0 -1.82542990187885e-06 0 0 -1.9955108851221e-06 0 0 -2.17465287822944e-06 0 0 -2.36175649790082e-06 0 0 -2.55486889820882e-06 0 0 -2.75069327814079e-06 0 0 -2.94382669536384e-06 0 0 -3.12563213763303e-06 0 0 -3.2827941666002e-06 0 0 -3.39640809121469e-06 0 0 -3.44788277747533e-06 0 0 
</DataArray>
</CellData>
</Piece>
</UnstructuredGrid>
</VTKFile>
