<?xml version="1.0"?>
<VTKFile type="UnstructuredGrid" version="0.1" byte_order="LittleEndian">
<UnstructuredGrid>
<Piece NumberOfPoints="201" NumberOfCells="200">
<Points>
<DataArray type="Float64" NumberOfComponents="3" format="ascii">
0 0 0 1 0 0 0.00499999999999053 0 0 0.0099999999999811 0 0 0.0149999999999717 0 0 0.0199999999999624 0 0 0.0249999999999529 0 0 0.0299999999999431 0 0 0.0349999999999326 0 0 0.0399999999999219 0 0 0.0449999999999108 0 0 0.0499999999998997 0 0 0.0549999999998886 0 0 0.0599999999998784 0 0 0.064999999999869 0 0 0.0699999999998605 0 0 0.0749999999998528 0 0 0.0799999999998452 0 0 0.0849999999998375 0 0 0.0899999999998299 0 0 0.0949999999998223 0 0 0.0999999999998146 0 0 0.104999999999807 0 0 0.109999999999799 0 0 0.114999999999792 0 0 0.119999999999783 0 0 0.124999999999774 0 0 0.129999999999761 0 0 0.134999999999747 0 0 0.139999999999733 0 0 0.144999999999718 0 0 0.149999999999704 0 0 0.154999999999689 0 0 0.159999999999675 0 0 0.16499999999966 0 0 0.169999999999645 0 0 0.174999999999631 0 0 0.179999999999616 0 0 0.184999999999602 0 0 0.189999999999587 0 0 0.194999999999572 0 0 0.199999999999558 0 0 0.204999999999543 0 0 0.209999999999529 0 0 0.214999999999514 0 0 0.2199999999995 0 0 0.224999999999485 0 0 0.22999999999947 0 0 0.234999999999456 0 0 0.239999999999441 0 0 0.244999999999427 0 0 0.249999999999412 0 0 0.254999999999398 0 0 0.259999999999383 0 0 0.264999999999368 0 0 0.269999999999354 0 0 0.274999999999339 0 0 0.279999999999325 0 0 0.28499999999931 0 0 0.289999999999295 0 0 0.294999999999281 0 0 0.299999999999266 0 0 0.304999999999252 0 0 0.309999999999237 0 0 0.314999999999223 0 0 0.319999999999208 0 0 0.324999999999193 0 0 0.329999999999179 0 0 0.334999999999164 0 0 0.33999999999915 0 0 0.344999999999135 0 0 0.349999999999121 0 0 0.354999999999106 0 0 0.359999999999091 0 0 0.364999999999077 0 0 0.369999999999062 0 0 0.374999999999048 0 0 0.379999999999033 0 0 0.384999999999019 0 0 0.389999999999004 0 0 0.394999999998989 0 0 0.399999999998975 0 0 0.40499999999896 0 0 0.409999999998946 0 0 0.414999999998931 0 0 0.419999999998917 0 0 0.424999999998902 0 0 0.429999999998887 0 0 0.434999999998873 0 0 0.439999999998858 0 0 0.444999999998844 0 0 0.449999999998829 0 0 0.454999999998815 0 0 0.4599999999988 0 0 0.464999999998785 0 0 0.469999999998771 0 0 0.474999999998756 0 0 0.479999999998742 0 0 0.484999999998727 0 0 0.489999999998713 0 0 0.494999999998702 0 0 0.499999999998694 0 0 0.5049999999987 0 0 0.50999999999871 0 0 0.514999999998723 0 0 0.519999999998736 0 0 0.524999999998749 0 0 0.529999999998763 0 0 0.534999999998776 0 0 0.539999999998789 0 0 0.544999999998802 0 0 0.549999999998815 0 0 0.554999999998828 0 0 0.559999999998842 0 0 0.564999999998855 0 0 0.569999999998868 0 0 0.574999999998881 0 0 0.579999999998894 0 0 0.584999999998907 0 0 0.58999999999892 0 0 0.594999999998934 0 0 0.599999999998947 0 0 0.60499999999896 0 0 0.609999999998973 0 0 0.614999999998986 0 0 0.619999999998999 0 0 0.624999999999013 0 0 0.629999999999026 0 0 0.634999999999039 0 0 0.639999999999052 0 0 0.644999999999065 0 0 0.649999999999078 0 0 0.654999999999092 0 0 0.659999999999105 0 0 0.664999999999118 0 0 0.669999999999131 0 0 0.674999999999144 0 0 0.679999999999157 0 0 0.684999999999171 0 0 0.689999999999184 0 0 0.694999999999197 0 0 0.69999999999921 0 0 0.704999999999223 0 0 0.709999999999236 0 0 0.71499999999925 0 0 0.719999999999263 0 0 0.724999999999276 0 0 0.729999999999289 0 0 0.734999999999302 0 0 0.739999999999315 0 0 0.744999999999329 0 0 0.749999999999342 0 0 0.754999999999355 0 0 0.759999999999368 0 0 0.764999999999381 0 0 0.769999999999395 0 0 0.774999999999407 0 0 0.779999999999421 0 0 0.784999999999434 0 0 0.789999999999447 0 0 0.79499999999946 0 0 0.799999999999473 0 0 0.804999999999487 0 0 0.8099999999995 0 0 0.814999999999513 0 0 0.819999999999526 0 0 0.824999999999539 0 0 0.829999999999552 0 0 0.834999999999566 0 0 0.839999999999579 0 0 0.844999999999592 0 0 0.849999999999605 0 0 0.854999999999618 0 0 0.859999999999631 0 0 0.864999999999645 0 0 0.869999999999658 0 0 0.874999999999671 0 0 0.879999999999684 0 0 0.884999999999697 0 0 0.88999999999971 0 0 0.894999999999724 0 0 0.899999999999737 0 0 0.90499999999975 0 0 0.909999999999763 0 0 0.914999999999776 0 0 0.919999999999789 0 0 0.924999999999803 0 0 0.929999999999816 0 0 0.934999999999829 0 0 0.939999999999842 0 0 0.944999999999855 0 0 0.949999999999868 0 0 0.954999999999881 0 0 0.959999999999895 0 0 0.964999999999908 0 0 0.969999999999921 0 0 0.974999999999934 0 0 0.979999999999947 0 0 0.98499999999996 0 0 0.989999999999974 0 0 0.994999999999987 0 0 
</DataArray>
</Points>
<Cells>
<DataArray type="Int32" Name="connectivity" format="ascii">
0 2 2 3 3 4 4 5 5 6 6 7 7 8 8 9 9 10 10 11 11 12 12 13 13 14 14 15 15 16 16 17 17 18 18 19 19 20 20 21 21 22 22 23 23 24 24 25 25 26 26 27 27 28 28 29 29 30 30 31 31 32 32 33 33 34 34 35 35 36 36 37 37 38 38 39 39 40 40 41 41 42 42 43 43 44 44 45 45 46 46 47 47 48 48 49 49 50 50 51 51 52 52 53 53 54 54 55 55 56 56 57 57 58 58 59 59 60 60 61 61 62 62 63 63 64 64 65 65 66 66 67 67 68 68 69 69 70 70 71 71 72 72 73 73 74 74 75 75 76 76 77 77 78 78 79 79 80 80 81 81 82 82 83 83 84 84 85 85 86 86 87 87 88 88 89 89 90 90 91 91 92 92 93 93 94 94 95 95 96 96 97 97 98 98 99 99 100 100 101 101 102 102 103 103 104 104 105 105 106 106 107 107 108 108 109 109 110 110 111 111 112 112 113 113 114 114 115 115 116 116 117 117 118 118 119 119 120 120 121 121 122 122 123 123 124 124 125 125 126 126 127 127 128 128 129 129 130 130 131 131 132 132 133 133 134 134 135 135 136 136 137 137 138 138 139 139 140 140 141 141 142 142 143 143 144 144 145 145 146 146 147 147 148 148 149 149 150 150 151 151 152 152 153 153 154 154 155 155 156 156 157 157 158 158 159 159 160 160 161 161 162 162 163 163 164 164 165 165 166 166 167 167 168 168 169 169 170 170 171 171 172 172 173 173 174 174 175 175 176 176 177 177 178 178 179 179 180 180 181 181 182 182 183 183 184 184 185 185 186 186 187 187 188 188 189 189 190 190 191 191 192 192 193 193 194 194 195 195 196 196 197 197 198 198 199 199 200 200 1 
</DataArray>
<DataArray type="Int32" Name="offsets" format="ascii">
2 4 6 8 10 12 14 16 18 20 22 24 26 28 30 32 34 36 38 40 42 44 46 48 50 52 54 56 58 60 62 64 66 68 70 72 74 76 78 80 82 84 86 88 90 92 94 96 98 100 102 104 106 108 110 112 114 116 118 120 122 124 126 128 130 132 134 136 138 140 142 144 146 148 150 152 154 156 158 160 162 164 166 168 170 172 174 176 178 180 182 184 186 188 190 192 194 196 198 200 202 204 206 208 210 212 214 216 218 220 222 224 226 228 230 232 234 236 238 240 242 244 246 248 250 252 254 256 258 260 262 264 266 268 270 272 274 276 278 280 282 284 286 288 290 292 294 296 298 300 302 304 306 308 310 312 314 316 318 320 322 324 326 328 330 332 334 336 338 340 342 344 346 348 350 352 354 356 358 360 362 364 366 368 370 372 374 376 378 380 382 384 386 388 390 392 394 396 398 400 
</DataArray>
<DataArray type="UInt8" Name="types" format="ascii">
3 3 3 3 3 3 3 3 3 3 3 3 3 3 3 3 3 3 3 3 3 3 3 3 3 3 3 3 3 3 3 3 3 3 3 3 3 3 3 3 3 3 3 3 3 3 3 3 3 3 3 3 3 3 3 3 3 3 3 3 3 3 3 3 3 3 3 3 3 3 3 3 3 3 3 3 3 3 3 3 3 3 3 3 3 3 3 3 3 3 3 3 3 3 3 3 3 3 3 3 3 3 3 3 3 3 3 3 3 3 3 3 3 3 3 3 3 3 3 3 3 3 3 3 3 3 3 3 3 3 3 3 3 3 3 3 3 3 3 3 3 3 3 3 3 3 3 3 3 3 3 3 3 3 3 3 3 3 3 3 3 3 3 3 3 3 3 3 3 3 3 3 3 3 3 3 3 3 3 3 3 3 3 3 3 3 3 3 3 3 3 3 3 3 3 3 3 3 3 3 
</DataArray>
</Cells>
<CellData Scalars="pressure_p0," Vectors="velocity_p0," Tensors="">
<DataArray type="Float64" Name="pressure_p0" format="ascii">
-6618.99999999989 -6618.99999999988 -6618.99999999988 -6618.99999999988 -6618.99999999988 -6618.99999999988 -6618.99999999989 -6618.9999999999 -6618.9999999999 -6618.99999999991 -6618.99999999991 -6618.99999999992 -6618.99999999993 -6618.99999999993 -6618.99999999992 -6618.9999999999 -6618.99999999989 -6618.99999999989 -6618.9999999999 -6618.99999999991 -6618.99999999992 -6618.99999999993 -6618.99999999994 -6618.99999999994 -6618.99999999994 -6618.99999999993 -6618.99999999993 -6618.99999999995 -6618.99999999996 -6618.99999999997 -6618.99999999997 -6618.99999999997 -6618.99999999998 -6618.99999999998 -6618.99999999999 -6618.99999999999 -6618.99999999999 -6619 -6618.99999999999 -6618.99999999998 -6618.99999999997 -6618.99999999996 -6618.99999999994 -6618.99999999992 -6618.99999999989 -6618.99999999984 -6618.99999999978 -6618.9999999997 -6618.99999999958 -6618.99999999943 -6618.99999999922 -6618.99999999895 -6618.99999999858 -6618.9999999981 -6618.99999999745 -6618.99999999657 -6618.99999999538 -6618.99999999378 -6618.99999999163 -6618.99999998873 -6618.99999998484 -6618.99999997962 -6618.99999997263 -6618.99999996325 -6618.99999995069 -6618.99999993391 -6618.99999991148 -6618.99999988155 -6618.99999984163 -6618.99999978847 -6618.99999971771 -6618.99999962365 -6618.9999994987 -6618.99999933289 -6618.99999911309 -6618.99999882201 -6618.99999843693 -6618.99999792803 -6618.99999725619 -6618.99999637018 -6618.99999520296 -6618.99999366694 -6618.99999164779 -6618.99998899652 -6618.9999855191 -6618.99998096324 -6618.99997500132 -6618.99996720838 -6618.999957034 -6618.99994376613 -6618.99992648487 -6618.99990400344 -6618.99987479278 -6618.99983688565 -6618.99978775457 -6618.99972415686 -6618.9996419383 -6618.99953578468 -6618.99939890792 -6618.9992226503 -6618.99899598637 -6618.99870489702 -6618.99833158453 -6618.99785348989 -6618.99724206503 -6618.99646124166 -6618.99546552563 -6618.99419762979 -6618.99258553965 -6618.99053888342 -6618.9879444509 -6618.98466067367 -6618.98051084033 -6618.97527477579 -6618.96867865986 -6618.96038259784 -6618.94996548256 -6618.93690660216 -6618.92056334877 -6618.90014426941 -6618.87467656938 -6618.84296702903 -6618.80355512486 -6618.75465695429 -6618.69409834866 -6618.61923531939 -6618.52685971786 -6618.41308769964 -6618.27322826863 -6618.10162883872 -6617.89149439151 -6617.63467643268 -6617.32142756347 -6616.94011709351 -6616.47690273935 -6615.9153530904 -6615.23601519852 -6614.41592137747 -6613.4280291081 -6612.24058786181 -6610.81642670995 -6609.11215681778 -6607.07728336766 -6604.65322216398 -6601.77221719044 -6598.35615677051 -6594.31528778117 -6589.54682964288 -6583.93349261348 -6577.34190830295 -6569.62098435099 -6560.60019991162 -6550.08786400121 -6537.86936490439 -6523.70544569607 -6507.33054850073 -6488.45127831791 -6466.74504600877 -6441.85895923179 -6413.40903956613 -6380.97985354272 -6344.12465453951 -6302.36614115058 -6255.19794531101 -6202.08696968974 -6142.47669812606 -6075.79160459805 -6001.44278472907 -5918.83492846576 -5827.37474255445 -5726.48091602166 -5615.5957002119 -5494.19814621675 -5361.81900588526 -5218.05725717071 -5062.59815946516 -4895.23267891626 -4715.87804661375 -4524.59912306723 -4321.63013964217 -4107.39627062943 -3882.53435743472 -3647.91195803849 -3404.64372951762 -3154.10396834941 -2897.93393214908 -2638.04234792175 -2376.59727775893 -2116.00726759812 -1858.88945685985 -1608.02209217735 -1366.27869396585 -1136.54101401672 -921.587960974222 -723.957936587809 -545.782531129186 -388.589808624301 -253.07241822958 -138.789853429751 -43.4103198107786 
</DataArray>
<DataArray type="Float64" Name="velocity_p0" NumberOfComponents="3" format="ascii">
-2.1716569514882e-20 0 0 -1.6940658945086e-20 0 0 6.93889390389423e-22 0 0 -4.77591056979605e-21 0 0 -1.01643953670516e-20 0 0 2.10226801244926e-20 0 0 3.25748542723226e-20 0 0 3.04931861011548e-20 0 0 3.3881317890172e-21 0 0 1.35525271560688e-20 0 0 2.03287907341032e-20 0 0 2.84928330929162e-20 0 0 1.0858284757441e-20 0 0 -1.6940658945086e-20 0 0 -3.25748542723238e-20 0 0 -2.64924800846791e-20 0 0 -2.98806118736963e-20 0 0 1.01643953670516e-20 0 0 3.79633390695789e-20 0 0 2.77989437025273e-20 0 0 1.6940658945086e-20 0 0 4.27392496393754e-20 0 0 1.49403059368481e-20 0 0 -6.7762635780344e-21 0 0 -2.71050543121376e-20 0 0 -1.15521741478295e-20 0 0 3.18809648819325e-20 0 0 4.14327860215215e-20 0 0 2.37169225231204e-20 0 0 3.3881317890172e-21 0 0 1.89410119533258e-20 0 0 2.6942423986285e-21 0 0 1.76345483354747e-20 0 0 1.55528801643086e-20 0 0 -6.93889390388713e-22 0 0 2.37169225231204e-20 0 0 6.08237418764571e-21 0 0 6.7762635780344e-21 0 0 -2.51047013038978e-20 0 0 -4.27392496393725e-20 0 0 -3.86572284599666e-20 0 0 -2.37169225231204e-20 0 0 -4.5433492038001e-20 0 0 -8.67849628965961e-20 0 0 -1.1797203838814e-19 0 0 -1.53241135059089e-19 0 0 -2.07451243683364e-19 0 0 -2.7251963706508e-19 0 0 -3.95267586023014e-19 0 0 -5.12545735020765e-19 0 0 -6.79339397235923e-19 0 0 -9.05731652872613e-19 0 0 -1.21560205477981e-18 0 0 -1.61564555137262e-18 0 0 -2.17831937383825e-18 0 0 -2.93019731742431e-18 0 0 -3.95798302986447e-18 0 0 -5.3247445515322e-18 0 0 -7.16339422675249e-18 0 0 -9.66574910388147e-18 0 0 -1.29375351577691e-17 0 0 -1.73388321929302e-17 0 0 -2.32688271862416e-17 0 0 -3.11622201567394e-17 0 0 -4.16696950382409e-17 0 0 -5.57100047517101e-17 0 0 -7.43655950621131e-17 0 0 -9.92223122241117e-17 0 0 -1.32214204862083e-16 0 0 -1.7602989378639e-16 0 0 -2.34127512299315e-16 0 0 -3.11091685181366e-16 0 0 -4.13021814015304e-16 0 0 -5.47751736546292e-16 0 0 -7.25692102980819e-16 0 0 -9.60459343350999e-16 0 0 -1.26988451221506e-15 0 0 -1.67720860528948e-15 0 0 -2.21289259160784e-15 0 0 -2.91655673136782e-15 0 0 -3.83988236173062e-15 0 0 -5.05004998864613e-15 0 0 -6.63421630998882e-15 0 0 -8.70565966320676e-15 0 0 -1.14110875642272e-14 0 0 -1.49402720501106e-14 0 0 -1.9538464102923e-14 0 0 -2.5522154810559e-14 0 0 -3.32991725122603e-14 0 0 -4.33943218598027e-14 0 0 -5.64819811960684e-14 0 0 -7.34274199114831e-14 0 0 -9.53392610681051e-14 0 0 -1.2363576774778e-13 0 0 -1.60128641981309e-13 0 0 -2.07128637505484e-13 0 0 -2.67578332613967e-13 0 0 -3.45219065828298e-13 0 0 -4.44800171738368e-13 0 0 -5.72340778183552e-13 0 0 -7.35456631413656e-13 0 0 -9.43767560380076e-13 0 0 -1.20940434716589e-12 0 0 -1.54763760282711e-12 0 0 -1.97765698682809e-12 0 0 -2.52353410224553e-12 0 0 -3.21540991125023e-12 0 0 -4.09095605925687e-12 0 0 -5.19716881035604e-12 0 0 -6.59256608352505e-12 0 0 -8.3498720909251e-12 0 0 -1.0559289767478e-11 0 0 -1.33324795636985e-11 0 0 -1.68073846330683e-11 0 0 -2.11540676299924e-11 0 0 -2.65817520632035e-11 0 0 -3.33472935233668e-11 0 0 -4.17653426498042e-11 0 0 -5.2220502509515e-11 0 0 -6.51818291116749e-11 0 0 -8.12200737706421e-11 0 0 -1.01028122028566e-10 0 0 -1.25445144196302e-10 0 0 -1.55485036979862e-10 0 0 -1.92369805083656e-10 0 0 -2.37568603138144e-10 0 0 -2.92843232158364e-10 0 0 -3.60300960021945e-10 0 0 -4.42455606854343e-10 0 0 -5.42297905923811e-10 0 0 -6.63376211682574e-10 0 0 -8.09888677129814e-10 0 0 -9.86788058240637e-10 0 0 -1.19990031889702e-09 0 0 -1.45605819937683e-09 0 0 -1.76325087113621e-09 0 0 -2.13079072134996e-09 0 0 -2.56949818871465e-09 0 0 -3.09190539996891e-09 0 0 -3.71247912785836e-09 0 0 -4.44786330229463e-09 0 0 -5.31714095325144e-09 0 0 -6.34211504328452e-09 0 0 -7.54760716044001e-09 0 0 -8.96177249309177e-09 0 0 -1.06164289016813e-08 0 0 -1.25473972490451e-08 0 0 -1.47948494667742e-08 0 0 -1.74036601383777e-08 0 0 -2.04237566935089e-08 0 0 -2.39104626595476e-08 0 0 -2.79248278382125e-08 0 0 -3.25339387988322e-08 0 0 -3.78112027398776e-08 0 0 -4.38365976009106e-08 0 0 -5.06968813399927e-08 0 0 -5.84857535482985e-08 0 0 -6.73039630784618e-08 0 0 -7.72593561181759e-08 0 0 -8.84668601482605e-08 0 0 -1.01048400460642e-07 0 0 -1.15132747351291e-07 0 0 -1.30855293690657e-07 0 0 -1.48357764251539e-07 0 0 -1.6778785985968e-07 0 0 -1.89298841031755e-07 0 0 -2.13049057176713e-07 0 0 -2.3920142853703e-07 0 0 -2.679228887124e-07 0 0 -2.99383795690766e-07 0 0 -3.33757318655085e-07 0 0 -3.71218806248536e-07 0 0 -4.11945139239993e-07 0 0 -4.56114066345687e-07 0 0 -5.03903515944463e-07 0 0 -5.55490868038531e-07 0 0 -6.1105215930268e-07 0 0 -6.70761178341046e-07 0 0 -7.34788386743116e-07 0 0 -8.03299571868866e-07 0 0 -8.76454096050765e-07 0 0 -9.54402548955375e-07 0 0 -1.03728352753319e-06 0 0 -1.1252191497598e-06 0 0 -1.21830873672499e-06 0 0 -1.3166198458596e-06 0 0 -1.42017546526323e-06 0 0 -1.52893562233998e-06 0 0 -1.64277082296561e-06 0 0 -1.76142347456269e-06 0 0 -1.88445154422177e-06 0 0 -2.01114587055208e-06 0 0 -2.14040846087088e-06 0 0 -2.27057364754189e-06 0 0 -2.39914813348279e-06 0 0 -2.52244474474567e-06 0 0 -2.63510645796038e-06 0 0 -2.72962366962751e-06 0 0 -2.79636055053689e-06 0 0 -2.82709291579614e-06 0 0 
</DataArray>
</CellData>
</Piece>
</UnstructuredGrid>
</VTKFile>
