<?xml version="1.0"?>
<VTKFile type="UnstructuredGrid" version="0.1" byte_order="LittleEndian">
<UnstructuredGrid>
<Piece NumberOfPoints="201" NumberOfCells="200">
<Points>
<DataArray type="Float64" NumberOfComponents="3" format="ascii">
0 0 0 1 0 0 0.00499999999999053 0 0 0.0099999999999811 0 0 0.0149999999999717 0 0 0.0199999999999624 0 0 0.0249999999999529 0 0 0.0299999999999431 0 0 0.0349999999999326 0 0 0.0399999999999219 0 0 0.0449999999999108 0 0 0.0499999999998997 0 0 0.0549999999998886 0 0 0.0599999999998784 0 0 0.064999999999869 0 0 0.0699999999998605 0 0 0.0749999999998528 0 0 0.0799999999998452 0 0 0.0849999999998375 0 0 0.0899999999998299 0 0 0.0949999999998223 0 0 0.0999999999998146 0 0 0.104999999999807 0 0 0.109999999999799 0 0 0.114999999999792 0 0 0.119999999999783 0 0 0.124999999999774 0 0 0.129999999999761 0 0 0.134999999999747 0 0 0.139999999999733 0 0 0.144999999999718 0 0 0.149999999999704 0 0 0.154999999999689 0 0 0.159999999999675 0 0 0.16499999999966 0 0 0.169999999999645 0 0 0.174999999999631 0 0 0.179999999999616 0 0 0.184999999999602 0 0 0.189999999999587 0 0 0.194999999999572 0 0 0.199999999999558 0 0 0.204999999999543 0 0 0.209999999999529 0 0 0.214999999999514 0 0 0.2199999999995 0 0 0.224999999999485 0 0 0.22999999999947 0 0 0.234999999999456 0 0 0.239999999999441 0 0 0.244999999999427 0 0 0.249999999999412 0 0 0.254999999999398 0 0 0.259999999999383 0 0 0.264999999999368 0 0 0.269999999999354 0 0 0.274999999999339 0 0 0.279999999999325 0 0 0.28499999999931 0 0 0.289999999999295 0 0 0.294999999999281 0 0 0.299999999999266 0 0 0.304999999999252 0 0 0.309999999999237 0 0 0.314999999999223 0 0 0.319999999999208 0 0 0.324999999999193 0 0 0.329999999999179 0 0 0.334999999999164 0 0 0.33999999999915 0 0 0.344999999999135 0 0 0.349999999999121 0 0 0.354999999999106 0 0 0.359999999999091 0 0 0.364999999999077 0 0 0.369999999999062 0 0 0.374999999999048 0 0 0.379999999999033 0 0 0.384999999999019 0 0 0.389999999999004 0 0 0.394999999998989 0 0 0.399999999998975 0 0 0.40499999999896 0 0 0.409999999998946 0 0 0.414999999998931 0 0 0.419999999998917 0 0 0.424999999998902 0 0 0.429999999998887 0 0 0.434999999998873 0 0 0.439999999998858 0 0 0.444999999998844 0 0 0.449999999998829 0 0 0.454999999998815 0 0 0.4599999999988 0 0 0.464999999998785 0 0 0.469999999998771 0 0 0.474999999998756 0 0 0.479999999998742 0 0 0.484999999998727 0 0 0.489999999998713 0 0 0.494999999998702 0 0 0.499999999998694 0 0 0.5049999999987 0 0 0.50999999999871 0 0 0.514999999998723 0 0 0.519999999998736 0 0 0.524999999998749 0 0 0.529999999998763 0 0 0.534999999998776 0 0 0.539999999998789 0 0 0.544999999998802 0 0 0.549999999998815 0 0 0.554999999998828 0 0 0.559999999998842 0 0 0.564999999998855 0 0 0.569999999998868 0 0 0.574999999998881 0 0 0.579999999998894 0 0 0.584999999998907 0 0 0.58999999999892 0 0 0.594999999998934 0 0 0.599999999998947 0 0 0.60499999999896 0 0 0.609999999998973 0 0 0.614999999998986 0 0 0.619999999998999 0 0 0.624999999999013 0 0 0.629999999999026 0 0 0.634999999999039 0 0 0.639999999999052 0 0 0.644999999999065 0 0 0.649999999999078 0 0 0.654999999999092 0 0 0.659999999999105 0 0 0.664999999999118 0 0 0.669999999999131 0 0 0.674999999999144 0 0 0.679999999999157 0 0 0.684999999999171 0 0 0.689999999999184 0 0 0.694999999999197 0 0 0.69999999999921 0 0 0.704999999999223 0 0 0.709999999999236 0 0 0.71499999999925 0 0 0.719999999999263 0 0 0.724999999999276 0 0 0.729999999999289 0 0 0.734999999999302 0 0 0.739999999999315 0 0 0.744999999999329 0 0 0.749999999999342 0 0 0.754999999999355 0 0 0.759999999999368 0 0 0.764999999999381 0 0 0.769999999999395 0 0 0.774999999999407 0 0 0.779999999999421 0 0 0.784999999999434 0 0 0.789999999999447 0 0 0.79499999999946 0 0 0.799999999999473 0 0 0.804999999999487 0 0 0.8099999999995 0 0 0.814999999999513 0 0 0.819999999999526 0 0 0.824999999999539 0 0 0.829999999999552 0 0 0.834999999999566 0 0 0.839999999999579 0 0 0.844999999999592 0 0 0.849999999999605 0 0 0.854999999999618 0 0 0.859999999999631 0 0 0.864999999999645 0 0 0.869999999999658 0 0 0.874999999999671 0 0 0.879999999999684 0 0 0.884999999999697 0 0 0.88999999999971 0 0 0.894999999999724 0 0 0.899999999999737 0 0 0.90499999999975 0 0 0.909999999999763 0 0 0.914999999999776 0 0 0.919999999999789 0 0 0.924999999999803 0 0 0.929999999999816 0 0 0.934999999999829 0 0 0.939999999999842 0 0 0.944999999999855 0 0 0.949999999999868 0 0 0.954999999999881 0 0 0.959999999999895 0 0 0.964999999999908 0 0 0.969999999999921 0 0 0.974999999999934 0 0 0.979999999999947 0 0 0.98499999999996 0 0 0.989999999999974 0 0 0.994999999999987 0 0 
</DataArray>
</Points>
<Cells>
<DataArray type="Int32" Name="connectivity" format="ascii">
0 2 2 3 3 4 4 5 5 6 6 7 7 8 8 9 9 10 10 11 11 12 12 13 13 14 14 15 15 16 16 17 17 18 18 19 19 20 20 21 21 22 22 23 23 24 24 25 25 26 26 27 27 28 28 29 29 30 30 31 31 32 32 33 33 34 34 35 35 36 36 37 37 38 38 39 39 40 40 41 41 42 42 43 43 44 44 45 45 46 46 47 47 48 48 49 49 50 50 51 51 52 52 53 53 54 54 55 55 56 56 57 57 58 58 59 59 60 60 61 61 62 62 63 63 64 64 65 65 66 66 67 67 68 68 69 69 70 70 71 71 72 72 73 73 74 74 75 75 76 76 77 77 78 78 79 79 80 80 81 81 82 82 83 83 84 84 85 85 86 86 87 87 88 88 89 89 90 90 91 91 92 92 93 93 94 94 95 95 96 96 97 97 98 98 99 99 100 100 101 101 102 102 103 103 104 104 105 105 106 106 107 107 108 108 109 109 110 110 111 111 112 112 113 113 114 114 115 115 116 116 117 117 118 118 119 119 120 120 121 121 122 122 123 123 124 124 125 125 126 126 127 127 128 128 129 129 130 130 131 131 132 132 133 133 134 134 135 135 136 136 137 137 138 138 139 139 140 140 141 141 142 142 143 143 144 144 145 145 146 146 147 147 148 148 149 149 150 150 151 151 152 152 153 153 154 154 155 155 156 156 157 157 158 158 159 159 160 160 161 161 162 162 163 163 164 164 165 165 166 166 167 167 168 168 169 169 170 170 171 171 172 172 173 173 174 174 175 175 176 176 177 177 178 178 179 179 180 180 181 181 182 182 183 183 184 184 185 185 186 186 187 187 188 188 189 189 190 190 191 191 192 192 193 193 194 194 195 195 196 196 197 197 198 198 199 199 200 200 1 
</DataArray>
<DataArray type="Int32" Name="offsets" format="ascii">
2 4 6 8 10 12 14 16 18 20 22 24 26 28 30 32 34 36 38 40 42 44 46 48 50 52 54 56 58 60 62 64 66 68 70 72 74 76 78 80 82 84 86 88 90 92 94 96 98 100 102 104 106 108 110 112 114 116 118 120 122 124 126 128 130 132 134 136 138 140 142 144 146 148 150 152 154 156 158 160 162 164 166 168 170 172 174 176 178 180 182 184 186 188 190 192 194 196 198 200 202 204 206 208 210 212 214 216 218 220 222 224 226 228 230 232 234 236 238 240 242 244 246 248 250 252 254 256 258 260 262 264 266 268 270 272 274 276 278 280 282 284 286 288 290 292 294 296 298 300 302 304 306 308 310 312 314 316 318 320 322 324 326 328 330 332 334 336 338 340 342 344 346 348 350 352 354 356 358 360 362 364 366 368 370 372 374 376 378 380 382 384 386 388 390 392 394 396 398 400 
</DataArray>
<DataArray type="UInt8" Name="types" format="ascii">
3 3 3 3 3 3 3 3 3 3 3 3 3 3 3 3 3 3 3 3 3 3 3 3 3 3 3 3 3 3 3 3 3 3 3 3 3 3 3 3 3 3 3 3 3 3 3 3 3 3 3 3 3 3 3 3 3 3 3 3 3 3 3 3 3 3 3 3 3 3 3 3 3 3 3 3 3 3 3 3 3 3 3 3 3 3 3 3 3 3 3 3 3 3 3 3 3 3 3 3 3 3 3 3 3 3 3 3 3 3 3 3 3 3 3 3 3 3 3 3 3 3 3 3 3 3 3 3 3 3 3 3 3 3 3 3 3 3 3 3 3 3 3 3 3 3 3 3 3 3 3 3 3 3 3 3 3 3 3 3 3 3 3 3 3 3 3 3 3 3 3 3 3 3 3 3 3 3 3 3 3 3 3 3 3 3 3 3 3 3 3 3 3 3 3 3 3 3 3 3 
</DataArray>
</Cells>
<CellData Scalars="pressure_p0," Vectors="velocity_p0," Tensors="">
<DataArray type="Float64" Name="pressure_p0" format="ascii">
-6618.99999999985 -6618.99999999985 -6618.99999999985 -6618.99999999986 -6618.99999999986 -6618.99999999986 -6618.99999999986 -6618.99999999986 -6618.99999999985 -6618.99999999985 -6618.99999999985 -6618.99999999985 -6618.99999999986 -6618.99999999987 -6618.99999999988 -6618.99999999988 -6618.99999999989 -6618.99999999989 -6618.99999999989 -6618.99999999989 -6618.99999999989 -6618.99999999989 -6618.9999999999 -6618.9999999999 -6618.9999999999 -6618.9999999999 -6618.99999999989 -6618.99999999988 -6618.99999999985 -6618.99999999983 -6618.99999999978 -6618.99999999974 -6618.99999999967 -6618.99999999958 -6618.99999999946 -6618.99999999929 -6618.99999999907 -6618.99999999877 -6618.99999999839 -6618.99999999788 -6618.99999999721 -6618.99999999633 -6618.99999999516 -6618.99999999362 -6618.99999999157 -6618.99999998889 -6618.99999998535 -6618.99999998069 -6618.99999997457 -6618.99999996652 -6618.99999995597 -6618.99999994213 -6618.999999924 -6618.99999990026 -6618.99999986921 -6618.99999982861 -6618.9999997756 -6618.99999970644 -6618.99999961631 -6618.99999949895 -6618.9999993463 -6618.99999914791 -6618.99999889033 -6618.99999855624 -6618.9999981233 -6618.99999756283 -6618.99999683799 -6618.99999590148 -6618.99999469272 -6618.99999313415 -6618.99999112659 -6618.99998854338 -6618.99998522291 -6618.99998095928 -6618.99997549041 -6618.99996848313 -6618.9999595144 -6618.99994804773 -6618.99993340359 -6618.99991472234 -6618.99989091785 -6618.99986061953 -6618.99982210008 -6618.99977318549 -6618.999711143 -6618.99963254212 -6618.99953308219 -6618.99940737898 -6618.99924870079 -6618.99904864297 -6618.99879672673 -6618.99847990577 -6618.99808196033 -6618.99758275437 -6618.99695732656 -6618.99617477958 -6618.99519692574 -6618.99397663804 -6618.99245584655 -6618.9905631081 -6618.98821066407 -6618.98529088514 -6618.98167198362 -6618.97719285247 -6618.97165686575 -6618.96482444645 -6618.95640417484 -6618.94604217331 -6618.93330946047 -6618.91768691857 -6618.89854746347 -6618.87513494398 -6618.8465392278 -6618.81166685357 -6618.76920654217 -6618.71758876519 -6618.65493846391 -6618.57901989835 -6618.48717248254 -6618.37623633024 -6618.24246609459 -6618.08143153706 -6617.88790310753 -6617.65572065877 -6617.37764325983 -6617.04517791453 -6616.64838484002 -6616.17565681877 -6615.61347001314 -6614.94610353054 -6614.15532495755 -6613.22003905283 -6612.11589681091 -6610.81486219413 -6609.28473399142 -6607.48862051312 -6605.38436518773 -6602.9239216033 -6600.05267715227 -6596.70872520959 -6592.82208671816 -6588.31388319067 -6583.09546447778 -6577.06749621607 -6570.11901366609 -6562.12645069267 -6552.95265493091 -6542.44590272355 -6530.43893020356 -6516.74799991665 -6501.17202561243 -6483.49178124796 -6463.4692238031 -6440.8469631489 -6415.34791587078 -6386.67518354691 -6354.51219942064 -6318.52319057273 -6278.35400546509 -6233.63335894762 -6183.97454833326 -6128.97769477741 -6068.23256375637 -6001.32201672306 -5927.82614281322 -5847.32711455947 -5759.41480471347 -5663.69319224481 -5559.78757414055 -5447.35258553288 -5326.08101369676 -5195.71337134429 -5056.04817116404 -4906.95281647361 -4748.37499193795 -4580.35440331632 -4403.03467589946 -4216.67517744234 -4021.66248274538 -3818.52114334711 -3607.9233668392 -3390.69714590762 -3167.83230721677 -2940.48387468887 -2709.97206081006 -2477.77811390886 -2245.53516009394 -2015.0130878586 -1788.09643490183 -1566.75415639188 -1353.00009091885 -1148.84290838036 -956.224341331216 -776.944586641035 -612.573914569403 -464.349621458415 -333.056907073442 -218.888223506635 -121.252176152343 -38.2186272611035 
</DataArray>
<DataArray type="Float64" Name="velocity_p0" NumberOfComponents="3" format="ascii">
-1.01643953670516e-20 0 0 1.22460635382198e-20 0 0 1.42464165464582e-20 0 0 2.84928330929165e-20 0 0 -8.85793174920261e-21 0 0 0 0 0 2.00035300823866e-21 0 0 -2.10226801244924e-20 0 0 -3.3881317890172e-20 0 0 4.77591056979557e-21 0 0 -6.93889390389191e-22 0 0 1.42464165464581e-20 0 0 3.66568754517297e-20 0 0 3.86572284599683e-20 0 0 2.30230331327308e-20 0 0 3.3881317890172e-21 0 0 1.15521741478309e-20 0 0 3.3881317890172e-21 0 0 3.3881317890172e-21 0 0 4.08202117940686e-21 0 0 0 0 0 -2.081668171169e-21 0 0 1.14708589848998e-20 0 0 9.47050597666207e-21 0 0 -2.00035300823836e-21 0 0 -1.35525271560688e-20 0 0 -3.86572284599669e-20 0 0 -4.61273814283898e-20 0 0 -7.05381933418988e-20 0 0 -1.0511340062246e-19 0 0 -1.34912697333226e-19 0 0 -1.53853709286551e-19 0 0 -2.27780034417467e-19 0 0 -2.96930448978589e-19 0 0 -4.04044202609288e-19 0 0 -5.53203316488971e-19 0 0 -7.31549152851958e-19 0 0 -9.70800046254328e-19 0 0 -1.27181251641232e-18 0 0 -1.66230419186554e-18 0 0 -2.21003770839433e-18 0 0 -2.90423609640417e-18 0 0 -3.8547073519244e-18 0 0 -5.08847521410422e-18 0 0 -6.72159268348646e-18 0 0 -8.8400695184144e-18 0 0 -1.16384983248057e-17 0 0 -1.53148598403671e-17 0 0 -2.0133428344642e-17 0 0 -2.64183206560839e-17 0 0 -3.46494263402784e-17 0 0 -4.54002775044486e-17 0 0 -5.94734927538529e-17 0 0 -7.78459545089332e-17 0 0 -1.0177506623923e-16 0 0 -1.32961014160514e-16 0 0 -1.73543829046904e-16 0 0 -2.26279037824825e-16 0 0 -2.94733725272874e-16 0 0 -3.83537705718107e-16 0 0 -4.98659674750382e-16 0 0 -6.47682954360889e-16 0 0 -8.40452870059337e-16 0 0 -1.0895621102395e-15 0 0 -1.41110391058644e-15 0 0 -1.82574609185358e-15 0 0 -2.3599104116179e-15 0 0 -3.04730244943943e-15 0 0 -3.93093345959858e-15 0 0 -5.06559758332489e-15 0 0 -6.52109371276187e-15 0 0 -8.38603387036012e-15 0 0 -1.07730367161769e-14 0 0 -1.38247962177482e-14 0 0 -1.77220975524839e-14 0 0 -2.26935401351724e-14 0 0 -2.90280167470387e-14 0 0 -3.7089808953065e-14 0 0 -4.73379447023662e-14 0 0 -6.03500086222036e-14 0 0 -7.68517992842114e-14 0 0 -9.77540387991789e-14 0 0 -1.24198031150935e-13 0 0 -1.57611984769907e-13 0 0 -1.99780646653638e-13 0 0 -2.52931264534075e-13 0 0 -3.19839035724927e-13 0 0 -4.03957230198685e-13 0 0 -5.09576237185219e-13 0 0 -6.42018766448791e-13 0 0 -8.07878151469501e-13 0 0 -1.01530929092209e-12 0 0 -1.27438307630685e-12 0 0 -1.5975166563241e-12 0 0 -1.99999628012292e-12 0 0 -2.50060968677614e-12 0 0 -3.12241084790609e-12 0 0 -3.8936421497094e-12 0 0 -4.84884433487512e-12 0 0 -6.03018976429203e-12 0 0 -7.4890804577049e-12 0 0 -9.28805935214826e-12 0 0 -1.15030912874824e-11 0 0 -1.42262790162966e-11 0 0 -1.75690895037086e-11 0 0 -2.16661786240383e-11 0 0 -2.66799127247903e-11 0 0 -3.28057026737305e-11 0 0 -4.02782795815579e-11 0 0 -4.93790606788719e-11 0 0 -6.04447714833074e-11 0 0 -7.3877512276923e-11 0 0 -9.01564786621882e-11 0 0 -1.09851570013762e-10 0 0 -1.3363914499395e-10 0 0 -1.6232020896586e-10 0 0 -1.96841346104364e-10 0 0 -2.38318735584818e-10 0 0 -2.88065618555097e-10 0 0 -3.47623609298441e-10 0 0 -4.18798267474956e-10 0 0 -5.03699371585606e-10 0 0 -6.04786350066299e-10 0 0 -7.24919341024627e-10 0 0 -8.67416356459413e-10 0 0 -1.03611702586419e-09 0 0 -1.23545338206631e-09 0 0 -1.47052812887622e-09 0 0 -1.74720079301827e-09 0 0 -2.07218211074551e-09 0 0 -2.45313692993123e-09 0 0 -2.89879581995554e-09 0 0 -3.41907547355582e-09 0 0 -4.02520785467013e-09 0 0 -4.72987789472773e-09 0 0 -5.54736936676802e-09 0 0 -6.49371837218596e-09 0 0 -7.586873661426e-09 0 0 -8.84686277968145e-09 0 0 -1.02959627852226e-08 0 0 -1.1958874036776e-08 0 0 -1.38628952927988e-08 0 0 -1.60380981165395e-08 0 0 -1.85174983466281e-08 0 0 -2.13372221780008e-08 0 0 -2.45366642185822e-08 0 0 -2.81586347467134e-08 0 0 -3.2249493307116e-08 0 0 -3.68592657576502e-08 0 0 -4.20417419220671e-08 0 0 -4.78545511244111e-08 0 0 -5.43592130814157e-08 0 0 -6.16211619139319e-08 0 0 -6.97097414045481e-08 0 0 -7.86981700709961e-08 0 0 -8.86634751378496e-08 0 0 -9.96863950566586e-08 0 0 -1.11851250831979e-07 0 0 -1.25245787038653e-07 0 0 -1.39960984038788e-07 0 0 -1.56090843498005e-07 0 0 -1.73732149833899e-07 0 0 -1.92984210667548e-07 0 0 -2.13948579663984e-07 0 0 -2.36728765298169e-07 0 0 -2.61429929034766e-07 0 0 -2.88158576118422e-07 0 0 -3.17022241588612e-07 0 0 -3.48129173203448e-07 0 0 -3.81588011607646e-07 0 0 -4.1750746622264e-07 0 0 -4.55995982846884e-07 0 0 -4.9716139566852e-07 0 0 -5.41110552078861e-07 0 0 -5.8794889301488e-07 0 0 -6.37779964096482e-07 0 0 -6.90704822924457e-07 0 0 -7.4682129465577e-07 0 0 -8.06223010082004e-07 0 0 -8.68998136045232e-07 0 0 -9.35227674457691e-07 0 0 -1.0049831595689e-06 0 0 -1.07832351779695e-06 0 0 -1.15529076212648e-06 0 0 -1.23590406159975e-06 0 0 -1.32015153782019e-06 0 0 -1.4079788681732e-06 0 0 -1.4992733808473e-06 0 0 -1.59384175377289e-06 0 0 -1.69137860038316e-06 0 0 -1.79142203923303e-06 0 0 -1.89329069611176e-06 0 0 -1.99599443861603e-06 0 0 -2.09810876358169e-06 0 0 -2.19760142893771e-06 0 0 -2.29160394203397e-06 0 0 -2.37614289480244e-06 0 0 -2.44592575101388e-06 0 0 -2.49454426752329e-06 0 0 -2.51702386831876e-06 0 0 
</DataArray>
</CellData>
</Piece>
</UnstructuredGrid>
</VTKFile>
