<?xml version="1.0"?>
<VTKFile type="UnstructuredGrid" version="0.1" byte_order="LittleEndian">
<UnstructuredGrid>
<Piece NumberOfPoints="201" NumberOfCells="200">
<Points>
<DataArray type="Float64" NumberOfComponents="3" format="ascii">
0 0 0 1 0 0 0.00499999999999053 0 0 0.0099999999999811 0 0 0.0149999999999717 0 0 0.0199999999999624 0 0 0.0249999999999529 0 0 0.0299999999999431 0 0 0.0349999999999326 0 0 0.0399999999999219 0 0 0.0449999999999108 0 0 0.0499999999998997 0 0 0.0549999999998886 0 0 0.0599999999998784 0 0 0.064999999999869 0 0 0.0699999999998605 0 0 0.0749999999998528 0 0 0.0799999999998452 0 0 0.0849999999998375 0 0 0.0899999999998299 0 0 0.0949999999998223 0 0 0.0999999999998146 0 0 0.104999999999807 0 0 0.109999999999799 0 0 0.114999999999792 0 0 0.119999999999783 0 0 0.124999999999774 0 0 0.129999999999761 0 0 0.134999999999747 0 0 0.139999999999733 0 0 0.144999999999718 0 0 0.149999999999704 0 0 0.154999999999689 0 0 0.159999999999675 0 0 0.16499999999966 0 0 0.169999999999645 0 0 0.174999999999631 0 0 0.179999999999616 0 0 0.184999999999602 0 0 0.189999999999587 0 0 0.194999999999572 0 0 0.199999999999558 0 0 0.204999999999543 0 0 0.209999999999529 0 0 0.214999999999514 0 0 0.2199999999995 0 0 0.224999999999485 0 0 0.22999999999947 0 0 0.234999999999456 0 0 0.239999999999441 0 0 0.244999999999427 0 0 0.249999999999412 0 0 0.254999999999398 0 0 0.259999999999383 0 0 0.264999999999368 0 0 0.269999999999354 0 0 0.274999999999339 0 0 0.279999999999325 0 0 0.28499999999931 0 0 0.289999999999295 0 0 0.294999999999281 0 0 0.299999999999266 0 0 0.304999999999252 0 0 0.309999999999237 0 0 0.314999999999223 0 0 0.319999999999208 0 0 0.324999999999193 0 0 0.329999999999179 0 0 0.334999999999164 0 0 0.33999999999915 0 0 0.344999999999135 0 0 0.349999999999121 0 0 0.354999999999106 0 0 0.359999999999091 0 0 0.364999999999077 0 0 0.369999999999062 0 0 0.374999999999048 0 0 0.379999999999033 0 0 0.384999999999019 0 0 0.389999999999004 0 0 0.394999999998989 0 0 0.399999999998975 0 0 0.40499999999896 0 0 0.409999999998946 0 0 0.414999999998931 0 0 0.419999999998917 0 0 0.424999999998902 0 0 0.429999999998887 0 0 0.434999999998873 0 0 0.439999999998858 0 0 0.444999999998844 0 0 0.449999999998829 0 0 0.454999999998815 0 0 0.4599999999988 0 0 0.464999999998785 0 0 0.469999999998771 0 0 0.474999999998756 0 0 0.479999999998742 0 0 0.484999999998727 0 0 0.489999999998713 0 0 0.494999999998702 0 0 0.499999999998694 0 0 0.5049999999987 0 0 0.50999999999871 0 0 0.514999999998723 0 0 0.519999999998736 0 0 0.524999999998749 0 0 0.529999999998763 0 0 0.534999999998776 0 0 0.539999999998789 0 0 0.544999999998802 0 0 0.549999999998815 0 0 0.554999999998828 0 0 0.559999999998842 0 0 0.564999999998855 0 0 0.569999999998868 0 0 0.574999999998881 0 0 0.579999999998894 0 0 0.584999999998907 0 0 0.58999999999892 0 0 0.594999999998934 0 0 0.599999999998947 0 0 0.60499999999896 0 0 0.609999999998973 0 0 0.614999999998986 0 0 0.619999999998999 0 0 0.624999999999013 0 0 0.629999999999026 0 0 0.634999999999039 0 0 0.639999999999052 0 0 0.644999999999065 0 0 0.649999999999078 0 0 0.654999999999092 0 0 0.659999999999105 0 0 0.664999999999118 0 0 0.669999999999131 0 0 0.674999999999144 0 0 0.679999999999157 0 0 0.684999999999171 0 0 0.689999999999184 0 0 0.694999999999197 0 0 0.69999999999921 0 0 0.704999999999223 0 0 0.709999999999236 0 0 0.71499999999925 0 0 0.719999999999263 0 0 0.724999999999276 0 0 0.729999999999289 0 0 0.734999999999302 0 0 0.739999999999315 0 0 0.744999999999329 0 0 0.749999999999342 0 0 0.754999999999355 0 0 0.759999999999368 0 0 0.764999999999381 0 0 0.769999999999395 0 0 0.774999999999407 0 0 0.779999999999421 0 0 0.784999999999434 0 0 0.789999999999447 0 0 0.79499999999946 0 0 0.799999999999473 0 0 0.804999999999487 0 0 0.8099999999995 0 0 0.814999999999513 0 0 0.819999999999526 0 0 0.824999999999539 0 0 0.829999999999552 0 0 0.834999999999566 0 0 0.839999999999579 0 0 0.844999999999592 0 0 0.849999999999605 0 0 0.854999999999618 0 0 0.859999999999631 0 0 0.864999999999645 0 0 0.869999999999658 0 0 0.874999999999671 0 0 0.879999999999684 0 0 0.884999999999697 0 0 0.88999999999971 0 0 0.894999999999724 0 0 0.899999999999737 0 0 0.90499999999975 0 0 0.909999999999763 0 0 0.914999999999776 0 0 0.919999999999789 0 0 0.924999999999803 0 0 0.929999999999816 0 0 0.934999999999829 0 0 0.939999999999842 0 0 0.944999999999855 0 0 0.949999999999868 0 0 0.954999999999881 0 0 0.959999999999895 0 0 0.964999999999908 0 0 0.969999999999921 0 0 0.974999999999934 0 0 0.979999999999947 0 0 0.98499999999996 0 0 0.989999999999974 0 0 0.994999999999987 0 0 
</DataArray>
</Points>
<Cells>
<DataArray type="Int32" Name="connectivity" format="ascii">
0 2 2 3 3 4 4 5 5 6 6 7 7 8 8 9 9 10 10 11 11 12 12 13 13 14 14 15 15 16 16 17 17 18 18 19 19 20 20 21 21 22 22 23 23 24 24 25 25 26 26 27 27 28 28 29 29 30 30 31 31 32 32 33 33 34 34 35 35 36 36 37 37 38 38 39 39 40 40 41 41 42 42 43 43 44 44 45 45 46 46 47 47 48 48 49 49 50 50 51 51 52 52 53 53 54 54 55 55 56 56 57 57 58 58 59 59 60 60 61 61 62 62 63 63 64 64 65 65 66 66 67 67 68 68 69 69 70 70 71 71 72 72 73 73 74 74 75 75 76 76 77 77 78 78 79 79 80 80 81 81 82 82 83 83 84 84 85 85 86 86 87 87 88 88 89 89 90 90 91 91 92 92 93 93 94 94 95 95 96 96 97 97 98 98 99 99 100 100 101 101 102 102 103 103 104 104 105 105 106 106 107 107 108 108 109 109 110 110 111 111 112 112 113 113 114 114 115 115 116 116 117 117 118 118 119 119 120 120 121 121 122 122 123 123 124 124 125 125 126 126 127 127 128 128 129 129 130 130 131 131 132 132 133 133 134 134 135 135 136 136 137 137 138 138 139 139 140 140 141 141 142 142 143 143 144 144 145 145 146 146 147 147 148 148 149 149 150 150 151 151 152 152 153 153 154 154 155 155 156 156 157 157 158 158 159 159 160 160 161 161 162 162 163 163 164 164 165 165 166 166 167 167 168 168 169 169 170 170 171 171 172 172 173 173 174 174 175 175 176 176 177 177 178 178 179 179 180 180 181 181 182 182 183 183 184 184 185 185 186 186 187 187 188 188 189 189 190 190 191 191 192 192 193 193 194 194 195 195 196 196 197 197 198 198 199 199 200 200 1 
</DataArray>
<DataArray type="Int32" Name="offsets" format="ascii">
2 4 6 8 10 12 14 16 18 20 22 24 26 28 30 32 34 36 38 40 42 44 46 48 50 52 54 56 58 60 62 64 66 68 70 72 74 76 78 80 82 84 86 88 90 92 94 96 98 100 102 104 106 108 110 112 114 116 118 120 122 124 126 128 130 132 134 136 138 140 142 144 146 148 150 152 154 156 158 160 162 164 166 168 170 172 174 176 178 180 182 184 186 188 190 192 194 196 198 200 202 204 206 208 210 212 214 216 218 220 222 224 226 228 230 232 234 236 238 240 242 244 246 248 250 252 254 256 258 260 262 264 266 268 270 272 274 276 278 280 282 284 286 288 290 292 294 296 298 300 302 304 306 308 310 312 314 316 318 320 322 324 326 328 330 332 334 336 338 340 342 344 346 348 350 352 354 356 358 360 362 364 366 368 370 372 374 376 378 380 382 384 386 388 390 392 394 396 398 400 
</DataArray>
<DataArray type="UInt8" Name="types" format="ascii">
3 3 3 3 3 3 3 3 3 3 3 3 3 3 3 3 3 3 3 3 3 3 3 3 3 3 3 3 3 3 3 3 3 3 3 3 3 3 3 3 3 3 3 3 3 3 3 3 3 3 3 3 3 3 3 3 3 3 3 3 3 3 3 3 3 3 3 3 3 3 3 3 3 3 3 3 3 3 3 3 3 3 3 3 3 3 3 3 3 3 3 3 3 3 3 3 3 3 3 3 3 3 3 3 3 3 3 3 3 3 3 3 3 3 3 3 3 3 3 3 3 3 3 3 3 3 3 3 3 3 3 3 3 3 3 3 3 3 3 3 3 3 3 3 3 3 3 3 3 3 3 3 3 3 3 3 3 3 3 3 3 3 3 3 3 3 3 3 3 3 3 3 3 3 3 3 3 3 3 3 3 3 3 3 3 3 3 3 3 3 3 3 3 3 3 3 3 3 3 3 
</DataArray>
</Cells>
<CellData Scalars="pressure_p0," Vectors="velocity_p0," Tensors="">
<DataArray type="Float64" Name="pressure_p0" format="ascii">
-6618.99999999985 -6618.99999999984 -6618.99999999983 -6618.99999999981 -6618.9999999998 -6618.99999999979 -6618.99999999977 -6618.99999999975 -6618.99999999973 -6618.99999999969 -6618.99999999966 -6618.99999999961 -6618.99999999955 -6618.99999999948 -6618.99999999937 -6618.99999999925 -6618.9999999991 -6618.99999999889 -6618.99999999861 -6618.99999999824 -6618.99999999776 -6618.99999999713 -6618.99999999632 -6618.99999999527 -6618.99999999392 -6618.99999999217 -6618.99999998992 -6618.99999998702 -6618.99999998329 -6618.9999999785 -6618.99999997234 -6618.99999996444 -6618.99999995429 -6618.99999994128 -6618.99999992462 -6618.99999990329 -6618.99999987603 -6618.9999998412 -6618.99999979675 -6618.99999974004 -6618.99999966777 -6618.99999957573 -6618.99999945863 -6618.99999930977 -6618.99999912071 -6618.99999888079 -6618.99999857662 -6618.99999819129 -6618.99999770361 -6618.99999708694 -6618.99999630785 -6618.99999532448 -6618.9999940844 -6618.99999252201 -6618.99999055541 -6618.99998808234 -6618.99998497529 -6618.99998107543 -6618.99997618513 -6618.99997005878 -6618.99996239138 -6618.99995280469 -6618.99994083007 -6618.99992588754 -6618.99990726014 -6618.99988406252 -6618.99985520265 -6618.99981933513 -6618.99977480423 -6618.99971957471 -6618.9996511477 -6618.99956645871 -6618.99946175407 -6618.99933244133 -6618.99917290869 -6618.99897630703 -6618.99873428731 -6618.99843668469 -6618.99807113906 -6618.99762263977 -6618.99707298041 -6618.99640010664 -6618.99557733746 -6618.99457243664 -6618.99334650721 -6618.99185267754 -6618.99003454185 -6618.98782431263 -6618.98514063497 -6618.98188600541 -6618.97794372875 -6618.97317433621 -6618.96741137675 -6618.96045648061 -6618.95207357911 -6618.94198214896 -6618.92984933041 -6618.91528074854 -6618.89780984427 -6618.8768854964 -6618.85185768871 -6618.82196094554 -6618.78629522644 -6618.74380393446 -6618.69324865378 -6618.63318019075 -6618.56190544771 -6618.47744961172 -6618.37751309034 -6618.25942257469 -6618.12007555583 -6617.9558775656 -6617.7626713567 -6617.53565718167 -6617.26930327526 -6616.95724559334 -6616.59217581246 -6616.16571655195 -6615.66828274463 -6615.0889280564 -6614.41517524093 -6613.63282931631 -6612.72577246867 -6611.6757396271 -6610.46207371754 -6609.0614596951 -6607.44763657838 -6605.59108686943 -6603.45870294445 -6601.01343024646 -6598.21388740732 -6595.01396377667 -6591.36239524383 -6587.20231970935 -6582.47081409986 -6577.09841542503 -6571.00862905234 -6564.11742812441 -6556.33274886549 -6547.55398741764 -6537.67150480989 -6526.5661476914 -6514.10879354652 -6500.15993024596 -6484.5692809643 -6467.17548669553 -6447.80585980916 -6426.27622328942 -6402.39085146775 -6375.94252916709 -6346.71274719631 -6314.47205303259 -6278.98057627133 -6239.98874896937 -6197.23824131477 -6150.46313308002 -6099.39134100899 -6043.74632159928 -5983.2490676212 -5917.62041510838 -5846.5836754088 -5769.86760414497 -5687.20971554242 -5598.35994649231 -5503.08466986275 -5401.17105090996 -5292.43173411289 -5176.70984031023 -5053.88424560567 -4923.87510407536 -4786.64956580818 -4642.22763018578 -4490.68806151108 -4332.17428007073 -4166.9001264147 -3995.15538000133 -3817.31089533749 -3633.82319929137 -3445.23837232981 -3252.19501400638 -3055.42606909991 -2855.75926541618 -2654.11588752554 -2451.50758282306 -2249.03086762902 -2047.85897218468 -1849.23063526312 -1654.43543310036 -1464.79520549282 -1281.64112705789 -1106.28596753604 -939.991095752551 -783.927809797426 -639.132614104561 -506.45607123902 -386.504673882038 -279.57423032907 -185.569205578282 -103.883145332777 -33.0037262932782 
</DataArray>
<DataArray type="Float64" Name="velocity_p0" NumberOfComponents="3" format="ascii">
-1.42464165464582e-20 0 0 -3.45752072805614e-20 0 0 -3.79633390695786e-20 0 0 -4.81277344366302e-20 0 0 -1.96349013437138e-20 0 0 -3.04931861011548e-20 0 0 -3.72694496791892e-20 0 0 -8.60910735062085e-20 0 0 -7.86209205377848e-20 0 0 -8.94792052952256e-20 0 0 -1.06419864240312e-19 0 0 -1.48465224489297e-19 0 0 -1.97980737706706e-19 0 0 -2.58273220518627e-19 0 0 -3.13177218533293e-19 0 0 -3.86409654273823e-19 0 0 -5.17240330427646e-19 0 0 -6.8334010325242e-19 0 0 -9.1450826945891e-19 0 0 -1.20666280786771e-18 0 0 -1.57674437742391e-18 0 0 -2.04993899459433e-18 0 0 -2.64510635616937e-18 0 0 -3.41784434955407e-18 0 0 -4.40619762898096e-18 0 0 -5.67654105144954e-18 0 0 -7.30749553749768e-18 0 0 -9.41633923612308e-18 0 0 -1.20952455950196e-17 0 0 -1.55612176790103e-17 0 0 -1.99855811153912e-17 0 0 -2.56403242821629e-17 0 0 -3.28873647065227e-17 0 0 -4.21455242666911e-17 0 0 -5.39626177943596e-17 0 0 -6.90177407412754e-17 0 0 -8.81928265226252e-17 0 0 -1.12621305510536e-16 0 0 -1.43695331241555e-16 0 0 -1.83211182770002e-16 0 0 -2.33412535176673e-16 0 0 -2.97058140889457e-16 0 0 -3.777784400409e-16 0 0 -4.80024125917142e-16 0 0 -6.09363444035633e-16 0 0 -7.72866232817662e-16 0 0 -9.79416612915912e-16 0 0 -1.24007608652203e-15 0 0 -1.56871948699289e-15 0 0 -1.98263324703046e-15 0 0 -2.50352791882753e-15 0 0 -3.1583674911516e-15 0 0 -3.98084542760342e-15 0 0 -5.01284633919687e-15 0 0 -6.30645910384778e-15 0 0 -7.92643113688469e-15 0 0 -9.95316047462632e-15 0 0 -1.24862142055876e-14 0 0 -1.56488863588348e-14 0 0 -1.95937150022651e-14 0 0 -2.45090355779553e-14 0 0 -3.06273453755553e-14 0 0 -3.8235172661456e-14 0 0 -4.76853127622472e-14 0 0 -5.94114754788579e-14 0 0 -7.39464500265952e-14 0 0 -9.19437692647987e-14 0 0 -1.14204096852106e-13 0 0 -1.41707358466878e-13 0 0 -1.7565124940492e-13 0 0 -2.17497742651397e-13 0 0 -2.69029278596256e-13 0 0 -3.3241629612237e-13 0 0 -4.10298207426572e-13 0 0 -5.05880581283693e-13 0 0 -6.23051599337791e-13 0 0 -7.66521143796415e-13 0 0 -9.41986886800514e-13 0 0 -1.15633222323499e-12 0 0 -1.41786164221118e-12 0 0 -1.73658057791643e-12 0 0 -2.1245270442741e-12 0 0 -2.59616419867032e-12 0 0 -3.16884461582078e-12 0 0 -3.86335768026226e-12 0 0 -4.70457438032021e-12 0 0 -5.72220538383988e-12 0 0 -6.95169076853295e-12 0 0 -8.43524175760438e-12 0 0 -1.02230590913094e-11 0 0 -1.23747545247203e-11 0 0 -1.49610063957913e-11 0 0 -1.80654842674779e-11 0 0 -2.17870812813022e-11 0 0 -2.62424987692606e-11 0 0 -3.15692321722973e-11 0 0 -3.79290136120528e-11 0 0 -4.55117720028547e-11 0 0 -5.45401790105913e-11 0 0 -6.52748555942016e-11 0 0 -7.80203217323811e-11 0 0 -9.31317794680038e-11 0 0 -1.11022827788042e-10 0 0 -1.3217421626039e-10 0 0 -1.571437522023e-10 0 0 -1.86577485441269e-10 0 0 -2.21222302445167e-10 0 0 -2.61940069751784e-10 0 0 -3.0972347390557e-10 0 0 -3.65713711924111e-10 0 0 -4.31220191388707e-10 0 0 -5.07742403851335e-10 0 0 -5.9699413737342e-10 0 0 -7.00930194158728e-10 0 0 -8.21775777203972e-10 0 0 -9.62058704665184e-10 0 0 -1.12464460191748e-09 0 0 -1.31277520916054e-09 0 0 -1.53010992529508e-09 0 0 -1.78077068813134e-09 0 0 -2.06939026402052e-09 0 0 -2.40116398836664e-09 0 0 -2.78190496103007e-09 0 0 -3.21810265736434e-09 0 0 -3.71698486604968e-09 0 0 -4.28658281056003e-09 0 0 -4.93579924937916e-09 0 0 -5.67447928559827e-09 0 0 -6.51348354547133e-09 0 0 -7.46476331201229e-09 0 0 -8.54143712319425e-09 0 0 -9.75786826697689e-09 0 0 -1.11297425284543e-08 0 0 -1.26741454691106e-08 0 0 -1.44096384476631e-08 0 0 -1.63563325283084e-08 0 0 -1.85359593660096e-08 0 0 -2.09719381142282e-08 0 0 -2.36894373699293e-08 0 0 -2.67154311551671e-08 0 0 -3.00787479373219e-08 0 0 -3.38101117121487e-08 0 0 -3.79421742173791e-08 0 0 -4.25095374098987e-08 0 0 -4.75487654274347e-08 0 0 -5.30983853652539e-08 0 0 -5.91988763305433e-08 0 0 -6.58926463869448e-08 0 0 -7.3223997168952e-08 0 0 -8.12390761293764e-08 0 0 -8.99858165700104e-08 0 0 -9.95138658047728e-08 0 0 -1.09874501996183e-07 0 0 -1.21120540395515e-07 0 0 -1.33306229890214e-07 0 0 -1.46487140916325e-07 0 0 -1.60720045920854e-07 0 0 -1.76062793649884e-07 0 0 -1.92574178587919e-07 0 0 -2.1031380687275e-07 0 0 -2.29341959949837e-07 0 0 -2.49719457102373e-07 0 0 -2.71507517786236e-07 0 0 -2.94767624402947e-07 0 0 -3.19561385741125e-07 0 0 -3.45950400790643e-07 0 0 -3.7399612196072e-07 0 0 -4.03759715878163e-07 0 0 -4.35301918865563e-07 0 0 -4.68682882844158e-07 0 0 -5.03962005690927e-07 0 0 -5.4119773790672e-07 0 0 -5.80447354672783e-07 0 0 -6.21766678797668e-07 0 0 -6.65209735420344e-07 0 0 -7.10828313275052e-07 0 0 -7.58671399342566e-07 0 0 -8.08784443121968e-07 0 0 -8.61208392602902e-07 0 0 -9.15978424968173e-07 0 0 -9.7312226924942e-07 0 0 -1.03265798297042e-06 0 0 -1.09459099655456e-06 0 0 -1.15891017272847e-06 0 0 -1.22558253597381e-06 0 0 -1.29454619895646e-06 0 0 -1.36570083452746e-06 0 0 -1.43889479407584e-06 0 0 -1.51390763099389e-06 0 0 -1.59042632336548e-06 0 0 -1.6680128789672e-06 0 0 -1.74606025523339e-06 0 0 -1.82373274556675e-06 0 0 -1.89988656442357e-06 0 0 -1.97296744516866e-06 0 0 -2.04088768606296e-06 0 0 -2.10090316817326e-06 0 0 -2.14956287688683e-06 0 0 -2.18296008650406e-06 0 0 -2.19842716187451e-06 0 0 
</DataArray>
</CellData>
</Piece>
</UnstructuredGrid>
</VTKFile>
