<?xml version="1.0"?>
<VTKFile type="UnstructuredGrid" version="0.1" byte_order="LittleEndian">
<UnstructuredGrid>
<Piece NumberOfPoints="201" NumberOfCells="200">
<Points>
<DataArray type="Float64" NumberOfComponents="3" format="ascii">
0 0 0 1 0 0 0.00499999999999053 0 0 0.0099999999999811 0 0 0.0149999999999717 0 0 0.0199999999999624 0 0 0.0249999999999529 0 0 0.0299999999999431 0 0 0.0349999999999326 0 0 0.0399999999999219 0 0 0.0449999999999108 0 0 0.0499999999998997 0 0 0.0549999999998886 0 0 0.0599999999998784 0 0 0.064999999999869 0 0 0.0699999999998605 0 0 0.0749999999998528 0 0 0.0799999999998452 0 0 0.0849999999998375 0 0 0.0899999999998299 0 0 0.0949999999998223 0 0 0.0999999999998146 0 0 0.104999999999807 0 0 0.109999999999799 0 0 0.114999999999792 0 0 0.119999999999783 0 0 0.124999999999774 0 0 0.129999999999761 0 0 0.134999999999747 0 0 0.139999999999733 0 0 0.144999999999718 0 0 0.149999999999704 0 0 0.154999999999689 0 0 0.159999999999675 0 0 0.16499999999966 0 0 0.169999999999645 0 0 0.174999999999631 0 0 0.179999999999616 0 0 0.184999999999602 0 0 0.189999999999587 0 0 0.194999999999572 0 0 0.199999999999558 0 0 0.204999999999543 0 0 0.209999999999529 0 0 0.214999999999514 0 0 0.2199999999995 0 0 0.224999999999485 0 0 0.22999999999947 0 0 0.234999999999456 0 0 0.239999999999441 0 0 0.244999999999427 0 0 0.249999999999412 0 0 0.254999999999398 0 0 0.259999999999383 0 0 0.264999999999368 0 0 0.269999999999354 0 0 0.274999999999339 0 0 0.279999999999325 0 0 0.28499999999931 0 0 0.289999999999295 0 0 0.294999999999281 0 0 0.299999999999266 0 0 0.304999999999252 0 0 0.309999999999237 0 0 0.314999999999223 0 0 0.319999999999208 0 0 0.324999999999193 0 0 0.329999999999179 0 0 0.334999999999164 0 0 0.33999999999915 0 0 0.344999999999135 0 0 0.349999999999121 0 0 0.354999999999106 0 0 0.359999999999091 0 0 0.364999999999077 0 0 0.369999999999062 0 0 0.374999999999048 0 0 0.379999999999033 0 0 0.384999999999019 0 0 0.389999999999004 0 0 0.394999999998989 0 0 0.399999999998975 0 0 0.40499999999896 0 0 0.409999999998946 0 0 0.414999999998931 0 0 0.419999999998917 0 0 0.424999999998902 0 0 0.429999999998887 0 0 0.434999999998873 0 0 0.439999999998858 0 0 0.444999999998844 0 0 0.449999999998829 0 0 0.454999999998815 0 0 0.4599999999988 0 0 0.464999999998785 0 0 0.469999999998771 0 0 0.474999999998756 0 0 0.479999999998742 0 0 0.484999999998727 0 0 0.489999999998713 0 0 0.494999999998702 0 0 0.499999999998694 0 0 0.5049999999987 0 0 0.50999999999871 0 0 0.514999999998723 0 0 0.519999999998736 0 0 0.524999999998749 0 0 0.529999999998763 0 0 0.534999999998776 0 0 0.539999999998789 0 0 0.544999999998802 0 0 0.549999999998815 0 0 0.554999999998828 0 0 0.559999999998842 0 0 0.564999999998855 0 0 0.569999999998868 0 0 0.574999999998881 0 0 0.579999999998894 0 0 0.584999999998907 0 0 0.58999999999892 0 0 0.594999999998934 0 0 0.599999999998947 0 0 0.60499999999896 0 0 0.609999999998973 0 0 0.614999999998986 0 0 0.619999999998999 0 0 0.624999999999013 0 0 0.629999999999026 0 0 0.634999999999039 0 0 0.639999999999052 0 0 0.644999999999065 0 0 0.649999999999078 0 0 0.654999999999092 0 0 0.659999999999105 0 0 0.664999999999118 0 0 0.669999999999131 0 0 0.674999999999144 0 0 0.679999999999157 0 0 0.684999999999171 0 0 0.689999999999184 0 0 0.694999999999197 0 0 0.69999999999921 0 0 0.704999999999223 0 0 0.709999999999236 0 0 0.71499999999925 0 0 0.719999999999263 0 0 0.724999999999276 0 0 0.729999999999289 0 0 0.734999999999302 0 0 0.739999999999315 0 0 0.744999999999329 0 0 0.749999999999342 0 0 0.754999999999355 0 0 0.759999999999368 0 0 0.764999999999381 0 0 0.769999999999395 0 0 0.774999999999407 0 0 0.779999999999421 0 0 0.784999999999434 0 0 0.789999999999447 0 0 0.79499999999946 0 0 0.799999999999473 0 0 0.804999999999487 0 0 0.8099999999995 0 0 0.814999999999513 0 0 0.819999999999526 0 0 0.824999999999539 0 0 0.829999999999552 0 0 0.834999999999566 0 0 0.839999999999579 0 0 0.844999999999592 0 0 0.849999999999605 0 0 0.854999999999618 0 0 0.859999999999631 0 0 0.864999999999645 0 0 0.869999999999658 0 0 0.874999999999671 0 0 0.879999999999684 0 0 0.884999999999697 0 0 0.88999999999971 0 0 0.894999999999724 0 0 0.899999999999737 0 0 0.90499999999975 0 0 0.909999999999763 0 0 0.914999999999776 0 0 0.919999999999789 0 0 0.924999999999803 0 0 0.929999999999816 0 0 0.934999999999829 0 0 0.939999999999842 0 0 0.944999999999855 0 0 0.949999999999868 0 0 0.954999999999881 0 0 0.959999999999895 0 0 0.964999999999908 0 0 0.969999999999921 0 0 0.974999999999934 0 0 0.979999999999947 0 0 0.98499999999996 0 0 0.989999999999974 0 0 0.994999999999987 0 0 
</DataArray>
</Points>
<Cells>
<DataArray type="Int32" Name="connectivity" format="ascii">
0 2 2 3 3 4 4 5 5 6 6 7 7 8 8 9 9 10 10 11 11 12 12 13 13 14 14 15 15 16 16 17 17 18 18 19 19 20 20 21 21 22 22 23 23 24 24 25 25 26 26 27 27 28 28 29 29 30 30 31 31 32 32 33 33 34 34 35 35 36 36 37 37 38 38 39 39 40 40 41 41 42 42 43 43 44 44 45 45 46 46 47 47 48 48 49 49 50 50 51 51 52 52 53 53 54 54 55 55 56 56 57 57 58 58 59 59 60 60 61 61 62 62 63 63 64 64 65 65 66 66 67 67 68 68 69 69 70 70 71 71 72 72 73 73 74 74 75 75 76 76 77 77 78 78 79 79 80 80 81 81 82 82 83 83 84 84 85 85 86 86 87 87 88 88 89 89 90 90 91 91 92 92 93 93 94 94 95 95 96 96 97 97 98 98 99 99 100 100 101 101 102 102 103 103 104 104 105 105 106 106 107 107 108 108 109 109 110 110 111 111 112 112 113 113 114 114 115 115 116 116 117 117 118 118 119 119 120 120 121 121 122 122 123 123 124 124 125 125 126 126 127 127 128 128 129 129 130 130 131 131 132 132 133 133 134 134 135 135 136 136 137 137 138 138 139 139 140 140 141 141 142 142 143 143 144 144 145 145 146 146 147 147 148 148 149 149 150 150 151 151 152 152 153 153 154 154 155 155 156 156 157 157 158 158 159 159 160 160 161 161 162 162 163 163 164 164 165 165 166 166 167 167 168 168 169 169 170 170 171 171 172 172 173 173 174 174 175 175 176 176 177 177 178 178 179 179 180 180 181 181 182 182 183 183 184 184 185 185 186 186 187 187 188 188 189 189 190 190 191 191 192 192 193 193 194 194 195 195 196 196 197 197 198 198 199 199 200 200 1 
</DataArray>
<DataArray type="Int32" Name="offsets" format="ascii">
2 4 6 8 10 12 14 16 18 20 22 24 26 28 30 32 34 36 38 40 42 44 46 48 50 52 54 56 58 60 62 64 66 68 70 72 74 76 78 80 82 84 86 88 90 92 94 96 98 100 102 104 106 108 110 112 114 116 118 120 122 124 126 128 130 132 134 136 138 140 142 144 146 148 150 152 154 156 158 160 162 164 166 168 170 172 174 176 178 180 182 184 186 188 190 192 194 196 198 200 202 204 206 208 210 212 214 216 218 220 222 224 226 228 230 232 234 236 238 240 242 244 246 248 250 252 254 256 258 260 262 264 266 268 270 272 274 276 278 280 282 284 286 288 290 292 294 296 298 300 302 304 306 308 310 312 314 316 318 320 322 324 326 328 330 332 334 336 338 340 342 344 346 348 350 352 354 356 358 360 362 364 366 368 370 372 374 376 378 380 382 384 386 388 390 392 394 396 398 400 
</DataArray>
<DataArray type="UInt8" Name="types" format="ascii">
3 3 3 3 3 3 3 3 3 3 3 3 3 3 3 3 3 3 3 3 3 3 3 3 3 3 3 3 3 3 3 3 3 3 3 3 3 3 3 3 3 3 3 3 3 3 3 3 3 3 3 3 3 3 3 3 3 3 3 3 3 3 3 3 3 3 3 3 3 3 3 3 3 3 3 3 3 3 3 3 3 3 3 3 3 3 3 3 3 3 3 3 3 3 3 3 3 3 3 3 3 3 3 3 3 3 3 3 3 3 3 3 3 3 3 3 3 3 3 3 3 3 3 3 3 3 3 3 3 3 3 3 3 3 3 3 3 3 3 3 3 3 3 3 3 3 3 3 3 3 3 3 3 3 3 3 3 3 3 3 3 3 3 3 3 3 3 3 3 3 3 3 3 3 3 3 3 3 3 3 3 3 3 3 3 3 3 3 3 3 3 3 3 3 3 3 3 3 3 3 
</DataArray>
</Cells>
<CellData Scalars="pressure_p0," Vectors="velocity_p0," Tensors="">
<DataArray type="Float64" Name="pressure_p0" format="ascii">
-6619.00000000001 -6619.00000000001 -6619.00000000001 -6619.00000000001 -6619 -6619 -6619 -6618.99999999999 -6618.99999999999 -6619 -6619 -6619 -6619 -6619 -6619 -6619.00000000001 -6619.00000000001 -6619.00000000002 -6619.00000000001 -6619.00000000001 -6619 -6619 -6619 -6619.00000000001 -6619.00000000001 -6619.00000000001 -6619.00000000001 -6619.00000000001 -6619 -6619 -6619 -6619 -6619 -6619 -6619 -6619 -6619 -6619 -6619 -6619 -6619 -6619 -6619 -6619 -6619 -6619.00000000001 -6619.00000000001 -6619.00000000002 -6619.00000000002 -6619.00000000001 -6619.00000000001 -6619.00000000001 -6619.00000000001 -6619.00000000001 -6619.00000000002 -6619.00000000001 -6619.00000000001 -6619 -6618.99999999999 -6618.99999999999 -6618.99999999999 -6618.99999999999 -6618.99999999999 -6618.99999999999 -6618.99999999999 -6618.99999999999 -6619 -6619 -6619 -6619.00000000001 -6619.00000000001 -6619.00000000001 -6619.00000000001 -6619.00000000001 -6619.00000000001 -6619.00000000001 -6619.00000000001 -6619 -6619 -6619 -6619 -6619 -6619 -6619 -6619 -6619 -6619 -6619 -6619 -6619.00000000001 -6619.00000000001 -6619.00000000001 -6619 -6618.99999999999 -6618.99999999998 -6618.99999999998 -6618.99999999999 -6618.99999999999 -6618.99999999999 -6618.99999999998 -6618.99999999998 -6618.99999999998 -6618.99999999997 -6618.99999999997 -6618.99999999997 -6618.99999999998 -6618.99999999999 -6618.99999999999 -6618.99999999999 -6618.99999999999 -6618.99999999999 -6618.99999999999 -6618.99999999999 -6618.99999999998 -6618.99999999999 -6618.99999999999 -6618.99999999998 -6618.99999999998 -6618.99999999998 -6618.99999999997 -6618.99999999997 -6618.99999999997 -6618.99999999997 -6618.99999999997 -6618.99999999997 -6618.99999999998 -6618.99999999998 -6618.99999999998 -6618.99999999998 -6618.99999999998 -6618.99999999998 -6618.99999999998 -6618.99999999998 -6618.99999999999 -6618.99999999999 -6618.99999999999 -6618.99999999998 -6618.99999999998 -6618.99999999998 -6618.99999999998 -6618.99999999998 -6618.99999999998 -6618.99999999998 -6618.99999999997 -6618.99999999995 -6618.99999999991 -6618.99999999983 -6618.99999999967 -6618.99999999934 -6618.99999999868 -6618.99999999733 -6618.9999999946 -6618.99999998907 -6618.99999997787 -6618.99999995524 -6618.99999990956 -6618.99999981746 -6618.99999963198 -6618.999999259 -6618.99999851018 -6618.99999700921 -6618.99999400592 -6618.99998800794 -6618.99997605349 -6618.99995227919 -6618.99990510943 -6618.9998117587 -6618.99962752022 -6618.99926498201 -6618.99855388341 -6618.99716396596 -6618.99445752117 -6618.98920927795 -6618.97907784253 -6618.95961573399 -6618.92243054411 -6618.85180079683 -6618.71851218197 -6618.46876152903 -6618.00444450807 -6617.14866155222 -6615.58639841261 -6612.76455985229 -6607.7274880825 -6598.85402022395 -6583.45186097987 -6557.15976077672 -6513.11896993718 -6440.92323052068 -6325.47248747285 -6146.07612987612 -5876.49702943503 -5487.0536406715 -4950.2199524971 -4250.97561897317 -3401.78249613678 -2458.57982753492 -1527.71676068485 -745.019571043435 -204.13016455157 
</DataArray>
<DataArray type="Float64" Name="velocity_p0" NumberOfComponents="3" format="ascii">
0 0 0 -1.46996629029704e-21 0 0 -1.46996629029701e-21 0 0 -2.22469562328234e-20 0 0 -8.69442907675454e-21 0 0 -6.7762635780344e-21 0 0 -8.69442907675417e-21 0 0 -8.69442907675405e-21 0 0 -5.30629728773672e-21 0 0 1.20825608657711e-20 0 0 3.3881317890172e-21 0 0 -5.30629728773705e-21 0 0 8.69442907675459e-21 0 0 1.91816549872052e-21 0 0 -4.85809807931357e-21 0 0 5.30629728773805e-21 0 0 6.7762635780344e-21 0 0 1.46996629029635e-21 0 0 -3.24113515998757e-20 0 0 -1.93070236522313e-20 0 0 -6.7762635780344e-21 0 0 0 0 0 1.54706926547897e-20 0 0 1.73888581535098e-20 0 0 6.7762635780344e-21 0 0 -9.71619615863116e-21 0 0 -1.54706926547874e-20 0 0 -8.69442907675262e-21 0 0 3.3881317890172e-21 0 0 -6.7762635780344e-21 0 0 0 0 0 -1.01643953670516e-20 0 0 -1.5470692654787e-20 0 0 1.01643953670516e-20 0 0 1.88588244438042e-20 0 0 -5.30629728773537e-21 0 0 -1.01643953670516e-20 0 0 1.35525271560688e-20 0 0 -1.46996629029899e-21 0 0 -1.20825608657698e-20 0 0 0 0 0 1.20825608657698e-20 0 0 5.30629728773537e-21 0 0 -1.01643953670516e-20 0 0 1.16343616573506e-20 0 0 1.20825608657698e-20 0 0 1.5470692654787e-20 0 0 1.50224934463678e-20 0 0 -2.22469562328214e-20 0 0 -6.7762635780344e-21 0 0 -8.69442907675261e-21 0 0 0 0 0 4.85809807931622e-21 0 0 1.20825608657698e-20 0 0 -1.469966290299e-21 0 0 -4.85809807931622e-21 0 0 -2.71050543121376e-20 0 0 -1.35525271560688e-20 0 0 -8.24622986833342e-21 0 0 -4.85809807931618e-21 0 0 -1.4000726364488e-20 0 0 -8.69442907675258e-21 0 0 1.16343616573506e-20 0 0 1.01643953670516e-20 0 0 6.7762635780344e-21 0 0 0 0 0 1.20825608657698e-20 0 0 1.35525271560688e-20 0 0 1.4000726364488e-20 0 0 4.8580980793162e-21 0 0 -3.3881317890172e-21 0 0 -1.01643953670516e-20 0 0 6.32806436961516e-21 0 0 1.35525271560688e-20 0 0 0 0 0 -3.3881317890172e-21 0 0 -8.2462298683334e-21 0 0 1.91816549871818e-21 0 0 -3.3881317890172e-21 0 0 3.3881317890172e-21 0 0 -1.91816549871822e-21 0 0 -3.3881317890172e-21 0 0 -3.3881317890172e-21 0 0 0 0 0 -3.3881317890172e-21 0 0 -1.46996629029902e-21 0 0 -1.91816549871818e-21 0 0 1.01643953670516e-20 0 0 2.90232198108558e-20 0 0 8.69442907675258e-21 0 0 -1.06125945754707e-20 0 0 -1.35525271560688e-20 0 0 -1.01643953670516e-20 0 0 -3.43295170985912e-20 0 0 -2.37169225231204e-20 0 0 1.06125945754708e-20 0 0 5.30629728773538e-21 0 0 -1.01643953670516e-20 0 0 1.46996629029751e-21 0 0 -3.3881317890172e-21 0 0 0 0 0 -1.54706926547962e-20 0 0 -2.56350880218493e-20 0 0 -4.48199208440412e-22 0 0 2.56350880218493e-20 0 0 2.75532535205781e-20 0 0 6.7762635780344e-21 0 0 6.7762635780344e-21 0 0 -1.54706926547977e-20 0 0 6.7762635780344e-21 0 0 2.07769899425436e-20 0 0 -3.3881317890172e-21 0 0 -1.6940658945086e-20 0 0 3.3881317890172e-21 0 0 2.71050543121376e-20 0 0 -1.20825608657805e-20 0 0 -1.01643953670516e-20 0 0 -1.54706926547977e-20 0 0 -3.3881317890172e-21 0 0 -1.163436165734e-20 0 0 -1.20825608657804e-20 0 0 1.06125945754921e-20 0 0 0 0 0 -8.69442907676321e-21 0 0 1.35525271560688e-20 0 0 1.88588244438148e-20 0 0 -6.7762635780344e-21 0 0 1.54706926547976e-20 0 0 -1.35525271560688e-20 0 0 -1.88588244438148e-20 0 0 6.7762635780344e-21 0 0 -1.91816549872885e-21 0 0 1.54706926547976e-20 0 0 8.24622986832275e-21 0 0 6.7762635780344e-21 0 0 -1.46996629028835e-21 0 0 -1.73888581535265e-20 0 0 6.7762635780344e-21 0 0 1.54706926547977e-20 0 0 -5.30629728774605e-21 0 0 -8.69442907676321e-21 0 0 5.30629728774605e-21 0 0 -1.20825608657805e-20 0 0 -3.77176488876296e-20 0 0 -9.76822540080915e-20 0 0 -1.78423849071097e-19 0 0 -3.40355238405547e-19 0 0 -6.8895670667942e-19 0 0 -1.41665282932831e-18 0 0 -2.8468581858127e-18 0 0 -5.79523495663095e-18 0 0 -1.17394223433137e-17 0 0 -2.37515626579176e-17 0 0 -4.80709335833133e-17 0 0 -9.70390952473908e-17 0 0 -1.95715573365057e-16 0 0 -3.94299389931432e-16 0 0 -7.93274241905351e-16 0 0 -1.59348284244708e-15 0 0 -3.19576876268064e-15 0 0 -6.39820159787939e-15 0 0 -1.27861039166064e-14 0 0 -2.5500999903327e-14 0 0 -5.07518714400473e-14 0 0 -1.00774396086058e-13 0 0 -1.99606105859383e-13 0 0 -3.94309059414546e-13 0 0 -7.76683670923412e-13 0 0 -1.52507640557283e-12 0 0 -2.9844453050664e-12 0 0 -5.81879015620585e-12 0 0 -1.12994593196988e-11 0 0 -2.18465117351224e-11 0 0 -4.20370712439473e-11 0 0 -8.04666434540971e-11 0 0 -1.53150322750234e-10 0 0 -2.89667425198983e-10 0 0 -5.44120098845418e-10 0 0 -1.01439243838617e-09 0 0 -1.87543248961189e-09 0 0 -3.43566139640696e-09 0 0 -6.23044423419635e-09 0 0 -1.11729146451228e-08 0 0 -1.97897876396761e-08 0 0 -3.45763057395734e-08 0 0 -5.95062207676579e-08 0 0 -1.00723089642517e-07 0 0 -1.67409469110836e-07 0 0 -2.72773557224136e-07 0 0 -4.35010036032034e-07 0 0 -6.78003072213117e-07 0 0 -1.03148454510949e-06 0 0 -1.53037787542795e-06 0 0 -2.21312246254458e-06 0 0 -3.11868528238835e-06 0 0 -4.28112323581627e-06 0 0 -5.71724442316185e-06 0 0 -7.39140579128194e-06 0 0 -9.10821274548452e-06 0 0 -1.04117730571344e-05 0 0 
</DataArray>
</CellData>
</Piece>
</UnstructuredGrid>
</VTKFile>
