<?xml version="1.0"?>
<VTKFile type="UnstructuredGrid" version="0.1" byte_order="LittleEndian">
<UnstructuredGrid>
<Piece NumberOfPoints="201" NumberOfCells="200">
<Points>
<DataArray type="Float64" NumberOfComponents="3" format="ascii">
0 0 0 1 0 0 0.00499999999999053 0 0 0.0099999999999811 0 0 0.0149999999999717 0 0 0.0199999999999624 0 0 0.0249999999999529 0 0 0.0299999999999431 0 0 0.0349999999999326 0 0 0.0399999999999219 0 0 0.0449999999999108 0 0 0.0499999999998997 0 0 0.0549999999998886 0 0 0.0599999999998784 0 0 0.064999999999869 0 0 0.0699999999998605 0 0 0.0749999999998528 0 0 0.0799999999998452 0 0 0.0849999999998375 0 0 0.0899999999998299 0 0 0.0949999999998223 0 0 0.0999999999998146 0 0 0.104999999999807 0 0 0.109999999999799 0 0 0.114999999999792 0 0 0.119999999999783 0 0 0.124999999999774 0 0 0.129999999999761 0 0 0.134999999999747 0 0 0.139999999999733 0 0 0.144999999999718 0 0 0.149999999999704 0 0 0.154999999999689 0 0 0.159999999999675 0 0 0.16499999999966 0 0 0.169999999999645 0 0 0.174999999999631 0 0 0.179999999999616 0 0 0.184999999999602 0 0 0.189999999999587 0 0 0.194999999999572 0 0 0.199999999999558 0 0 0.204999999999543 0 0 0.209999999999529 0 0 0.214999999999514 0 0 0.2199999999995 0 0 0.224999999999485 0 0 0.22999999999947 0 0 0.234999999999456 0 0 0.239999999999441 0 0 0.244999999999427 0 0 0.249999999999412 0 0 0.254999999999398 0 0 0.259999999999383 0 0 0.264999999999368 0 0 0.269999999999354 0 0 0.274999999999339 0 0 0.279999999999325 0 0 0.28499999999931 0 0 0.289999999999295 0 0 0.294999999999281 0 0 0.299999999999266 0 0 0.304999999999252 0 0 0.309999999999237 0 0 0.314999999999223 0 0 0.319999999999208 0 0 0.324999999999193 0 0 0.329999999999179 0 0 0.334999999999164 0 0 0.33999999999915 0 0 0.344999999999135 0 0 0.349999999999121 0 0 0.354999999999106 0 0 0.359999999999091 0 0 0.364999999999077 0 0 0.369999999999062 0 0 0.374999999999048 0 0 0.379999999999033 0 0 0.384999999999019 0 0 0.389999999999004 0 0 0.394999999998989 0 0 0.399999999998975 0 0 0.40499999999896 0 0 0.409999999998946 0 0 0.414999999998931 0 0 0.419999999998917 0 0 0.424999999998902 0 0 0.429999999998887 0 0 0.434999999998873 0 0 0.439999999998858 0 0 0.444999999998844 0 0 0.449999999998829 0 0 0.454999999998815 0 0 0.4599999999988 0 0 0.464999999998785 0 0 0.469999999998771 0 0 0.474999999998756 0 0 0.479999999998742 0 0 0.484999999998727 0 0 0.489999999998713 0 0 0.494999999998702 0 0 0.499999999998694 0 0 0.5049999999987 0 0 0.50999999999871 0 0 0.514999999998723 0 0 0.519999999998736 0 0 0.524999999998749 0 0 0.529999999998763 0 0 0.534999999998776 0 0 0.539999999998789 0 0 0.544999999998802 0 0 0.549999999998815 0 0 0.554999999998828 0 0 0.559999999998842 0 0 0.564999999998855 0 0 0.569999999998868 0 0 0.574999999998881 0 0 0.579999999998894 0 0 0.584999999998907 0 0 0.58999999999892 0 0 0.594999999998934 0 0 0.599999999998947 0 0 0.60499999999896 0 0 0.609999999998973 0 0 0.614999999998986 0 0 0.619999999998999 0 0 0.624999999999013 0 0 0.629999999999026 0 0 0.634999999999039 0 0 0.639999999999052 0 0 0.644999999999065 0 0 0.649999999999078 0 0 0.654999999999092 0 0 0.659999999999105 0 0 0.664999999999118 0 0 0.669999999999131 0 0 0.674999999999144 0 0 0.679999999999157 0 0 0.684999999999171 0 0 0.689999999999184 0 0 0.694999999999197 0 0 0.69999999999921 0 0 0.704999999999223 0 0 0.709999999999236 0 0 0.71499999999925 0 0 0.719999999999263 0 0 0.724999999999276 0 0 0.729999999999289 0 0 0.734999999999302 0 0 0.739999999999315 0 0 0.744999999999329 0 0 0.749999999999342 0 0 0.754999999999355 0 0 0.759999999999368 0 0 0.764999999999381 0 0 0.769999999999395 0 0 0.774999999999407 0 0 0.779999999999421 0 0 0.784999999999434 0 0 0.789999999999447 0 0 0.79499999999946 0 0 0.799999999999473 0 0 0.804999999999487 0 0 0.8099999999995 0 0 0.814999999999513 0 0 0.819999999999526 0 0 0.824999999999539 0 0 0.829999999999552 0 0 0.834999999999566 0 0 0.839999999999579 0 0 0.844999999999592 0 0 0.849999999999605 0 0 0.854999999999618 0 0 0.859999999999631 0 0 0.864999999999645 0 0 0.869999999999658 0 0 0.874999999999671 0 0 0.879999999999684 0 0 0.884999999999697 0 0 0.88999999999971 0 0 0.894999999999724 0 0 0.899999999999737 0 0 0.90499999999975 0 0 0.909999999999763 0 0 0.914999999999776 0 0 0.919999999999789 0 0 0.924999999999803 0 0 0.929999999999816 0 0 0.934999999999829 0 0 0.939999999999842 0 0 0.944999999999855 0 0 0.949999999999868 0 0 0.954999999999881 0 0 0.959999999999895 0 0 0.964999999999908 0 0 0.969999999999921 0 0 0.974999999999934 0 0 0.979999999999947 0 0 0.98499999999996 0 0 0.989999999999974 0 0 0.994999999999987 0 0 
</DataArray>
</Points>
<Cells>
<DataArray type="Int32" Name="connectivity" format="ascii">
0 2 2 3 3 4 4 5 5 6 6 7 7 8 8 9 9 10 10 11 11 12 12 13 13 14 14 15 15 16 16 17 17 18 18 19 19 20 20 21 21 22 22 23 23 24 24 25 25 26 26 27 27 28 28 29 29 30 30 31 31 32 32 33 33 34 34 35 35 36 36 37 37 38 38 39 39 40 40 41 41 42 42 43 43 44 44 45 45 46 46 47 47 48 48 49 49 50 50 51 51 52 52 53 53 54 54 55 55 56 56 57 57 58 58 59 59 60 60 61 61 62 62 63 63 64 64 65 65 66 66 67 67 68 68 69 69 70 70 71 71 72 72 73 73 74 74 75 75 76 76 77 77 78 78 79 79 80 80 81 81 82 82 83 83 84 84 85 85 86 86 87 87 88 88 89 89 90 90 91 91 92 92 93 93 94 94 95 95 96 96 97 97 98 98 99 99 100 100 101 101 102 102 103 103 104 104 105 105 106 106 107 107 108 108 109 109 110 110 111 111 112 112 113 113 114 114 115 115 116 116 117 117 118 118 119 119 120 120 121 121 122 122 123 123 124 124 125 125 126 126 127 127 128 128 129 129 130 130 131 131 132 132 133 133 134 134 135 135 136 136 137 137 138 138 139 139 140 140 141 141 142 142 143 143 144 144 145 145 146 146 147 147 148 148 149 149 150 150 151 151 152 152 153 153 154 154 155 155 156 156 157 157 158 158 159 159 160 160 161 161 162 162 163 163 164 164 165 165 166 166 167 167 168 168 169 169 170 170 171 171 172 172 173 173 174 174 175 175 176 176 177 177 178 178 179 179 180 180 181 181 182 182 183 183 184 184 185 185 186 186 187 187 188 188 189 189 190 190 191 191 192 192 193 193 194 194 195 195 196 196 197 197 198 198 199 199 200 200 1 
</DataArray>
<DataArray type="Int32" Name="offsets" format="ascii">
2 4 6 8 10 12 14 16 18 20 22 24 26 28 30 32 34 36 38 40 42 44 46 48 50 52 54 56 58 60 62 64 66 68 70 72 74 76 78 80 82 84 86 88 90 92 94 96 98 100 102 104 106 108 110 112 114 116 118 120 122 124 126 128 130 132 134 136 138 140 142 144 146 148 150 152 154 156 158 160 162 164 166 168 170 172 174 176 178 180 182 184 186 188 190 192 194 196 198 200 202 204 206 208 210 212 214 216 218 220 222 224 226 228 230 232 234 236 238 240 242 244 246 248 250 252 254 256 258 260 262 264 266 268 270 272 274 276 278 280 282 284 286 288 290 292 294 296 298 300 302 304 306 308 310 312 314 316 318 320 322 324 326 328 330 332 334 336 338 340 342 344 346 348 350 352 354 356 358 360 362 364 366 368 370 372 374 376 378 380 382 384 386 388 390 392 394 396 398 400 
</DataArray>
<DataArray type="UInt8" Name="types" format="ascii">
3 3 3 3 3 3 3 3 3 3 3 3 3 3 3 3 3 3 3 3 3 3 3 3 3 3 3 3 3 3 3 3 3 3 3 3 3 3 3 3 3 3 3 3 3 3 3 3 3 3 3 3 3 3 3 3 3 3 3 3 3 3 3 3 3 3 3 3 3 3 3 3 3 3 3 3 3 3 3 3 3 3 3 3 3 3 3 3 3 3 3 3 3 3 3 3 3 3 3 3 3 3 3 3 3 3 3 3 3 3 3 3 3 3 3 3 3 3 3 3 3 3 3 3 3 3 3 3 3 3 3 3 3 3 3 3 3 3 3 3 3 3 3 3 3 3 3 3 3 3 3 3 3 3 3 3 3 3 3 3 3 3 3 3 3 3 3 3 3 3 3 3 3 3 3 3 3 3 3 3 3 3 3 3 3 3 3 3 3 3 3 3 3 3 3 3 3 3 3 3 
</DataArray>
</Cells>
<CellData Scalars="pressure_p0," Vectors="velocity_p0," Tensors="">
<DataArray type="Float64" Name="pressure_p0" format="ascii">
-6618.99999999992 -6618.99999999991 -6618.99999999991 -6618.99999999991 -6618.99999999991 -6618.99999999991 -6618.99999999991 -6618.9999999999 -6618.9999999999 -6618.99999999989 -6618.99999999989 -6618.99999999989 -6618.99999999989 -6618.99999999989 -6618.99999999989 -6618.9999999999 -6618.9999999999 -6618.99999999991 -6618.99999999991 -6618.99999999993 -6618.99999999994 -6618.99999999996 -6618.99999999997 -6618.99999999997 -6618.99999999997 -6618.99999999998 -6618.99999999999 -6618.99999999999 -6618.99999999999 -6618.99999999999 -6618.99999999999 -6618.99999999999 -6618.99999999999 -6618.99999999999 -6618.99999999999 -6618.99999999999 -6618.99999999999 -6619 -6619.00000000001 -6619.00000000002 -6619.00000000002 -6619.00000000002 -6619.00000000002 -6619.00000000002 -6619.00000000003 -6619.00000000003 -6619.00000000002 -6619.00000000002 -6619.00000000002 -6619.00000000001 -6619.00000000001 -6619.00000000001 -6619.00000000001 -6619 -6619 -6618.99999999999 -6618.99999999999 -6618.99999999998 -6618.99999999996 -6618.99999999994 -6618.9999999999 -6618.99999999986 -6618.99999999981 -6618.99999999974 -6618.99999999965 -6618.99999999951 -6618.99999999932 -6618.99999999907 -6618.99999999873 -6618.99999999827 -6618.99999999762 -6618.99999999672 -6618.99999999546 -6618.99999999371 -6618.99999999129 -6618.99999998797 -6618.9999999834 -6618.9999999771 -6618.99999996845 -6618.99999995657 -6618.99999994026 -6618.99999991789 -6618.99999988723 -6618.99999984527 -6618.99999978789 -6618.99999970952 -6618.99999960256 -6618.99999945676 -6618.99999925819 -6618.99999898805 -6618.99999862094 -6618.99999812258 -6618.99999744679 -6618.99999653141 -6618.9999952929 -6618.99999361908 -6618.99999135958 -6618.99998831304 -6618.99998421018 -6618.99997869141 -6618.99997127717 -6618.99996132881 -6618.99994799698 -6618.99993015378 -6618.99990630351 -6618.99987446579 -6618.99983202235 -6618.99977551688 -6618.9997003939 -6618.9996006587 -6618.99946843531 -6618.99929339309 -6618.99906200426 -6618.9987565844 -6618.99835405519 -6618.99782435204 -6618.99712837914 -6618.99621538904 -6618.99501963214 -6618.99345608229 -6618.99141499652 -6618.98875500709 -6618.98529437123 -6618.98079991455 -6618.97497309582 -6618.96743248909 -6618.95769182085 -6618.9451325096 -6618.92896942766 -6618.90820833547 -6618.88159311894 -6618.8475405859 -6618.80406013977 -6618.74865514075 -6618.67820218094 -6618.58880383163 -6618.47560966595 -6618.33259951208 -6618.15232195256 -6617.92558005497 -6617.64105520702 -6617.28485874746 -6616.83999985527 -6616.28575691349 -6615.59693834415 -6614.74301777173 -6613.6871273883 -6612.38489265252 -6610.78309106819 -6608.81811788895 -6606.41424233868 -6603.48163950392 -6599.91418564749 -6595.58700853853 -6590.35378973781 -6584.04382287775 -6576.45884109761 -6567.36963819681 -6556.51252199393 -6543.58565503103 -6528.24535729042 -6510.10246805865 -6488.71888943374 -6463.60446203431 -6434.21435386157 -6399.94717539666 -6360.1440670424 -6314.08903780125 -6261.01086516073 -6200.08689372053 -6130.44909196158 -6051.19274016882 -5961.38812494714 -5860.09560372932 -5746.3843725536 -5619.35521828807 -5478.16745825256 -5322.07016148996 -5150.43760225178 -4962.80871292689 -4758.93007584587 -4538.80171614475 -4302.72462594132 -4051.34855792076 -3785.71816812776 -3507.31505704393 -3218.09264848603 -2920.50015163528 -2617.49106887748 -2312.51084284951 -2009.45729396849 -1712.60652317582 -1426.49602946048 -1155.75608990699 -904.880285195465 -677.926910547336 -478.145254185173 -307.5221397338 -166.220943905554 -51.3938369336646 
</DataArray>
<DataArray type="Float64" Name="velocity_p0" NumberOfComponents="3" format="ascii">
-4.08202117940661e-21 0 0 -8.85793174920265e-21 0 0 -4.08202117940662e-21 0 0 2.69424239862778e-21 0 0 1.15521741478304e-20 0 0 -1.6940658945086e-20 0 0 -2.17165695148818e-20 0 0 -6.08237418764517e-21 0 0 -1.6940658945086e-20 0 0 -1.01643953670516e-20 0 0 6.9388939038919e-22 0 0 1.08582847574409e-20 0 0 -8.16404235881325e-21 0 0 -1.83284377258651e-20 0 0 2.17165695148825e-20 0 0 2.84928330929169e-20 0 0 1.76345483354757e-20 0 0 1.01643953670516e-20 0 0 3.52690966709513e-20 0 0 3.3881317890172e-20 0 0 5.55978874050545e-20 0 0 3.45752072805617e-20 0 0 1.89410119533239e-20 0 0 -3.3881317890172e-21 0 0 1.62467695546966e-20 0 0 2.10226801244921e-20 0 0 1.21647483752911e-20 0 0 2.03287907341032e-20 0 0 -1.08582847574403e-20 0 0 6.7762635780344e-21 0 0 -6.7762635780344e-21 0 0 2.6942423986285e-21 0 0 6.7762635780344e-21 0 0 -1.01643953670516e-20 0 0 -4.08202117940591e-21 0 0 7.4701529684231e-21 0 0 1.42464165464575e-20 0 0 2.44108119135091e-20 0 0 3.18809648819322e-20 0 0 1.35525271560688e-20 0 0 7.4701529684231e-21 0 0 1.1552174147829e-20 0 0 -1.38777878077739e-21 0 0 9.47050597666291e-21 0 0 1.08582847574403e-20 0 0 -1.08582847574403e-20 0 0 -2.00035300823981e-21 0 0 -3.3881317890172e-21 0 0 -2.44108119135091e-20 0 0 9.47050597666291e-21 0 0 -3.3881317890172e-21 0 0 -1.76345483354747e-20 0 0 -7.4701529684231e-21 0 0 -6.7762635780344e-21 0 0 -2.10226801244919e-20 0 0 -1.76345483354747e-20 0 0 -1.08582847574403e-20 0 0 -3.04931861011548e-20 0 0 -6.57622827721042e-20 0 0 -9.83371370444252e-20 0 0 -1.01725268833442e-19 0 0 -1.27442544364803e-19 0 0 -1.68181440995935e-19 0 0 -2.30555591979022e-19 0 0 -3.30893082031687e-19 0 0 -4.71275579325096e-19 0 0 -6.29905199181442e-19 0 0 -8.34662200466178e-19 0 0 -1.13298042822554e-18 0 0 -1.57168115327832e-18 0 0 -2.203586705468e-18 0 0 -3.07012987081611e-18 0 0 -4.30144743608608e-18 0 0 -5.9300329403873e-18 0 0 -8.14170237305119e-18 0 0 -1.12104444650865e-17 0 0 -1.54344961290898e-17 0 0 -2.1236230005396e-17 0 0 -2.91553781985011e-17 0 0 -4.00537079631834e-17 0 0 -5.4942064352938e-17 0 0 -7.53188147701397e-17 0 0 -1.03157521587342e-16 0 0 -1.4110986142588e-16 0 0 -1.92837580756028e-16 0 0 -2.63247908714719e-16 0 0 -3.5904259708568e-16 0 0 -4.89164866382017e-16 0 0 -6.65792372405879e-16 0 0 -9.05193666333607e-16 0 0 -1.22937608986072e-15 0 0 -1.66784657916117e-15 0 0 -2.26022382776045e-15 0 0 -3.05954546636949e-15 0 0 -4.1368970152709e-15 0 0 -5.58717635416663e-15 0 0 -7.53710933183841e-15 0 0 -1.01555647734595e-14 0 0 -1.36672979845429e-14 0 0 -1.83710437107962e-14 0 0 -2.46631739119977e-14 0 0 -3.30689662068561e-14 0 0 -4.42834103425479e-14 0 0 -5.9224616617146e-14 0 0 -7.91035043728798e-14 0 0 -1.05514680201702e-13 0 0 -1.40554637189084e-13 0 0 -1.86975171245306e-13 0 0 -2.48381996318272e-13 0 0 -3.29491829941025e-13 0 0 -4.36463707098058e-13 0 0 -5.77325942266348e-13 0 0 -7.62524404707701e-13 0 0 -1.00562539870867e-12 0 0 -1.3242147423683e-12 0 0 -1.74104489301038e-12 0 0 -2.28549543616148e-12 0 0 -2.99542756779792e-12 0 0 -3.91953356245396e-12 0 0 -5.12030522865655e-12 0 0 -6.6777749167815e-12 0 0 -8.6942174938656e-12 0 0 -1.13000434062341e-11 0 0 -1.46611642676639e-11 0 0 -1.89881715361099e-11 0 0 -2.45477403296981e-11 0 0 -3.16767542209424e-11 0 0 -4.07997443813119e-11 0 0 -5.24503500327129e-11 0 0 -6.72976383631534e-11 0 0 -8.61782707347866e-11 0 0 -1.10135672028046e-10 0 0 -1.4046754948586e-10 0 0 -1.78783316970251e-10 0 0 -2.2707321117679e-10 0 0 -2.87791133525728e-10 0 0 -3.63953513095231e-10 0 0 -4.59256757753904e-10 0 0 -5.78216133486332e-10 0 0 -7.26329177306479e-10 0 0 -9.10266994224355e-10 0 0 -1.13809699831892e-09 0 0 -1.41954081060622e-09 0 0 -1.76627110423103e-09 0 0 -2.19225115993883e-09 0 0 -2.71412073665024e-09 0 0 -3.35163154151442e-09 0 0 -4.12813507122799e-09 0 0 -5.07112485857998e-09 0 0 -6.21283417184238e-09 0 0 -7.59088895433063e-09 0 0 -9.24901424869104e-09 0 0 -1.12377905208625e-08 0 0 -1.36154542036237e-08 0 0 -1.64487344491322e-08 0 0 -1.98137155770593e-08 0 0 -2.37967121109895e-08 0 0 -2.84951407184737e-08 0 0 -3.40183709429735e-08 0 0 -4.04885344917267e-08 0 0 -4.80412711867923e-08 0 0 -5.68263886687671e-08 0 0 -6.70084127253755e-08 0 0 -7.87670058390275e-08 0 0 -9.22972333113566e-08 0 0 -1.07809659171661e-07 0 0 -1.25530257989227e-07 0 0 -1.45700133577345e-07 0 0 -1.68575041201057e-07 0 0 -1.94424715982733e-07 0 0 -2.23532016345212e-07 0 0 -2.56191897041481e-07 0 0 -2.92710231003421e-07 0 0 -3.33402502198789e-07 0 0 -3.78592392100371e-07 0 0 -4.286102792631e-07 0 0 -4.83791663660028e-07 0 0 -5.44475513258804e-07 0 0 -6.11002507646608e-07 0 0 -6.83713119204412e-07 0 0 -7.62945421747026e-07 0 0 -8.4903244263365e-07 0 0 -9.42298766243443e-07 0 0 -1.04305593745317e-06 0 0 -1.15159597667773e-06 0 0 -1.26818196083099e-06 0 0 -1.39303407958419e-06 0 0 -1.5263087346478e-06 0 0 -1.66806693529964e-06 0 0 -1.81822617081834e-06 0 0 -1.97648665163188e-06 0 0 -2.14221758797752e-06 0 0 -2.31428096418856e-06 0 0 -2.49075778415955e-06 0 0 -2.66852444644225e-06 0 0 -2.84260911985497e-06 0 0 -3.00526497000117e-06 0 0 -3.14483352714252e-06 0 0 -3.24516051871837e-06 0 0 -3.29085208729779e-06 0 0 
</DataArray>
</CellData>
</Piece>
</UnstructuredGrid>
</VTKFile>
