<?xml version="1.0"?>
<VTKFile type="UnstructuredGrid" version="0.1" byte_order="LittleEndian">
<UnstructuredGrid>
<Piece NumberOfPoints="201" NumberOfCells="200">
<Points>
<DataArray type="Float64" NumberOfComponents="3" format="ascii">
0 0 0 1 0 0 0.00499999999999053 0 0 0.0099999999999811 0 0 0.0149999999999717 0 0 0.0199999999999624 0 0 0.0249999999999529 0 0 0.0299999999999431 0 0 0.0349999999999326 0 0 0.0399999999999219 0 0 0.0449999999999108 0 0 0.0499999999998997 0 0 0.0549999999998886 0 0 0.0599999999998784 0 0 0.064999999999869 0 0 0.0699999999998605 0 0 0.0749999999998528 0 0 0.0799999999998452 0 0 0.0849999999998375 0 0 0.0899999999998299 0 0 0.0949999999998223 0 0 0.0999999999998146 0 0 0.104999999999807 0 0 0.109999999999799 0 0 0.114999999999792 0 0 0.119999999999783 0 0 0.124999999999774 0 0 0.129999999999761 0 0 0.134999999999747 0 0 0.139999999999733 0 0 0.144999999999718 0 0 0.149999999999704 0 0 0.154999999999689 0 0 0.159999999999675 0 0 0.16499999999966 0 0 0.169999999999645 0 0 0.174999999999631 0 0 0.179999999999616 0 0 0.184999999999602 0 0 0.189999999999587 0 0 0.194999999999572 0 0 0.199999999999558 0 0 0.204999999999543 0 0 0.209999999999529 0 0 0.214999999999514 0 0 0.2199999999995 0 0 0.224999999999485 0 0 0.22999999999947 0 0 0.234999999999456 0 0 0.239999999999441 0 0 0.244999999999427 0 0 0.249999999999412 0 0 0.254999999999398 0 0 0.259999999999383 0 0 0.264999999999368 0 0 0.269999999999354 0 0 0.274999999999339 0 0 0.279999999999325 0 0 0.28499999999931 0 0 0.289999999999295 0 0 0.294999999999281 0 0 0.299999999999266 0 0 0.304999999999252 0 0 0.309999999999237 0 0 0.314999999999223 0 0 0.319999999999208 0 0 0.324999999999193 0 0 0.329999999999179 0 0 0.334999999999164 0 0 0.33999999999915 0 0 0.344999999999135 0 0 0.349999999999121 0 0 0.354999999999106 0 0 0.359999999999091 0 0 0.364999999999077 0 0 0.369999999999062 0 0 0.374999999999048 0 0 0.379999999999033 0 0 0.384999999999019 0 0 0.389999999999004 0 0 0.394999999998989 0 0 0.399999999998975 0 0 0.40499999999896 0 0 0.409999999998946 0 0 0.414999999998931 0 0 0.419999999998917 0 0 0.424999999998902 0 0 0.429999999998887 0 0 0.434999999998873 0 0 0.439999999998858 0 0 0.444999999998844 0 0 0.449999999998829 0 0 0.454999999998815 0 0 0.4599999999988 0 0 0.464999999998785 0 0 0.469999999998771 0 0 0.474999999998756 0 0 0.479999999998742 0 0 0.484999999998727 0 0 0.489999999998713 0 0 0.494999999998702 0 0 0.499999999998694 0 0 0.5049999999987 0 0 0.50999999999871 0 0 0.514999999998723 0 0 0.519999999998736 0 0 0.524999999998749 0 0 0.529999999998763 0 0 0.534999999998776 0 0 0.539999999998789 0 0 0.544999999998802 0 0 0.549999999998815 0 0 0.554999999998828 0 0 0.559999999998842 0 0 0.564999999998855 0 0 0.569999999998868 0 0 0.574999999998881 0 0 0.579999999998894 0 0 0.584999999998907 0 0 0.58999999999892 0 0 0.594999999998934 0 0 0.599999999998947 0 0 0.60499999999896 0 0 0.609999999998973 0 0 0.614999999998986 0 0 0.619999999998999 0 0 0.624999999999013 0 0 0.629999999999026 0 0 0.634999999999039 0 0 0.639999999999052 0 0 0.644999999999065 0 0 0.649999999999078 0 0 0.654999999999092 0 0 0.659999999999105 0 0 0.664999999999118 0 0 0.669999999999131 0 0 0.674999999999144 0 0 0.679999999999157 0 0 0.684999999999171 0 0 0.689999999999184 0 0 0.694999999999197 0 0 0.69999999999921 0 0 0.704999999999223 0 0 0.709999999999236 0 0 0.71499999999925 0 0 0.719999999999263 0 0 0.724999999999276 0 0 0.729999999999289 0 0 0.734999999999302 0 0 0.739999999999315 0 0 0.744999999999329 0 0 0.749999999999342 0 0 0.754999999999355 0 0 0.759999999999368 0 0 0.764999999999381 0 0 0.769999999999395 0 0 0.774999999999407 0 0 0.779999999999421 0 0 0.784999999999434 0 0 0.789999999999447 0 0 0.79499999999946 0 0 0.799999999999473 0 0 0.804999999999487 0 0 0.8099999999995 0 0 0.814999999999513 0 0 0.819999999999526 0 0 0.824999999999539 0 0 0.829999999999552 0 0 0.834999999999566 0 0 0.839999999999579 0 0 0.844999999999592 0 0 0.849999999999605 0 0 0.854999999999618 0 0 0.859999999999631 0 0 0.864999999999645 0 0 0.869999999999658 0 0 0.874999999999671 0 0 0.879999999999684 0 0 0.884999999999697 0 0 0.88999999999971 0 0 0.894999999999724 0 0 0.899999999999737 0 0 0.90499999999975 0 0 0.909999999999763 0 0 0.914999999999776 0 0 0.919999999999789 0 0 0.924999999999803 0 0 0.929999999999816 0 0 0.934999999999829 0 0 0.939999999999842 0 0 0.944999999999855 0 0 0.949999999999868 0 0 0.954999999999881 0 0 0.959999999999895 0 0 0.964999999999908 0 0 0.969999999999921 0 0 0.974999999999934 0 0 0.979999999999947 0 0 0.98499999999996 0 0 0.989999999999974 0 0 0.994999999999987 0 0 
</DataArray>
</Points>
<Cells>
<DataArray type="Int32" Name="connectivity" format="ascii">
0 2 2 3 3 4 4 5 5 6 6 7 7 8 8 9 9 10 10 11 11 12 12 13 13 14 14 15 15 16 16 17 17 18 18 19 19 20 20 21 21 22 22 23 23 24 24 25 25 26 26 27 27 28 28 29 29 30 30 31 31 32 32 33 33 34 34 35 35 36 36 37 37 38 38 39 39 40 40 41 41 42 42 43 43 44 44 45 45 46 46 47 47 48 48 49 49 50 50 51 51 52 52 53 53 54 54 55 55 56 56 57 57 58 58 59 59 60 60 61 61 62 62 63 63 64 64 65 65 66 66 67 67 68 68 69 69 70 70 71 71 72 72 73 73 74 74 75 75 76 76 77 77 78 78 79 79 80 80 81 81 82 82 83 83 84 84 85 85 86 86 87 87 88 88 89 89 90 90 91 91 92 92 93 93 94 94 95 95 96 96 97 97 98 98 99 99 100 100 101 101 102 102 103 103 104 104 105 105 106 106 107 107 108 108 109 109 110 110 111 111 112 112 113 113 114 114 115 115 116 116 117 117 118 118 119 119 120 120 121 121 122 122 123 123 124 124 125 125 126 126 127 127 128 128 129 129 130 130 131 131 132 132 133 133 134 134 135 135 136 136 137 137 138 138 139 139 140 140 141 141 142 142 143 143 144 144 145 145 146 146 147 147 148 148 149 149 150 150 151 151 152 152 153 153 154 154 155 155 156 156 157 157 158 158 159 159 160 160 161 161 162 162 163 163 164 164 165 165 166 166 167 167 168 168 169 169 170 170 171 171 172 172 173 173 174 174 175 175 176 176 177 177 178 178 179 179 180 180 181 181 182 182 183 183 184 184 185 185 186 186 187 187 188 188 189 189 190 190 191 191 192 192 193 193 194 194 195 195 196 196 197 197 198 198 199 199 200 200 1 
</DataArray>
<DataArray type="Int32" Name="offsets" format="ascii">
2 4 6 8 10 12 14 16 18 20 22 24 26 28 30 32 34 36 38 40 42 44 46 48 50 52 54 56 58 60 62 64 66 68 70 72 74 76 78 80 82 84 86 88 90 92 94 96 98 100 102 104 106 108 110 112 114 116 118 120 122 124 126 128 130 132 134 136 138 140 142 144 146 148 150 152 154 156 158 160 162 164 166 168 170 172 174 176 178 180 182 184 186 188 190 192 194 196 198 200 202 204 206 208 210 212 214 216 218 220 222 224 226 228 230 232 234 236 238 240 242 244 246 248 250 252 254 256 258 260 262 264 266 268 270 272 274 276 278 280 282 284 286 288 290 292 294 296 298 300 302 304 306 308 310 312 314 316 318 320 322 324 326 328 330 332 334 336 338 340 342 344 346 348 350 352 354 356 358 360 362 364 366 368 370 372 374 376 378 380 382 384 386 388 390 392 394 396 398 400 
</DataArray>
<DataArray type="UInt8" Name="types" format="ascii">
3 3 3 3 3 3 3 3 3 3 3 3 3 3 3 3 3 3 3 3 3 3 3 3 3 3 3 3 3 3 3 3 3 3 3 3 3 3 3 3 3 3 3 3 3 3 3 3 3 3 3 3 3 3 3 3 3 3 3 3 3 3 3 3 3 3 3 3 3 3 3 3 3 3 3 3 3 3 3 3 3 3 3 3 3 3 3 3 3 3 3 3 3 3 3 3 3 3 3 3 3 3 3 3 3 3 3 3 3 3 3 3 3 3 3 3 3 3 3 3 3 3 3 3 3 3 3 3 3 3 3 3 3 3 3 3 3 3 3 3 3 3 3 3 3 3 3 3 3 3 3 3 3 3 3 3 3 3 3 3 3 3 3 3 3 3 3 3 3 3 3 3 3 3 3 3 3 3 3 3 3 3 3 3 3 3 3 3 3 3 3 3 3 3 3 3 3 3 3 3 
</DataArray>
</Cells>
<CellData Scalars="pressure_p0," Vectors="velocity_p0," Tensors="">
<DataArray type="Float64" Name="pressure_p0" format="ascii">
-6618.99999999972 -6618.99999999971 -6618.99999999969 -6618.99999999967 -6618.99999999964 -6618.99999999959 -6618.99999999953 -6618.99999999945 -6618.99999999935 -6618.99999999922 -6618.99999999906 -6618.99999999885 -6618.99999999857 -6618.99999999821 -6618.99999999775 -6618.99999999716 -6618.9999999964 -6618.99999999543 -6618.99999999419 -6618.99999999259 -6618.99999999054 -6618.99999998791 -6618.99999998453 -6618.99999998022 -6618.9999999747 -6618.99999996766 -6618.99999995868 -6618.99999994724 -6618.99999993268 -6618.99999991415 -6618.9999998906 -6618.99999986069 -6618.99999982272 -6618.99999977459 -6618.9999997136 -6618.99999963639 -6618.99999953872 -6618.99999941526 -6618.99999925934 -6618.99999906261 -6618.99999881458 -6618.99999850215 -6618.99999810892 -6618.99999761442 -6618.99999699312 -6618.99999621318 -6618.99999523497 -6618.99999400916 -6618.99999247448 -6618.9999905548 -6618.99998815573 -6618.99998516026 -6618.99998142357 -6618.99997676656 -6618.99997096795 -6618.99996375466 -6618.99995479 -6618.99994365933 -6618.99992985249 -6618.99991274251 -6618.99989155968 -6618.9998653601 -6618.99983298743 -6618.9997930267 -6618.99974374839 -6618.99968304082 -6618.99960832862 -6618.99951647443 -6618.99940366069 -6618.99926524743 -6618.99909560169 -6618.99888789302 -6618.99863384858 -6618.99832346057 -6618.99794463675 -6618.99748278404 -6618.99692031266 -6618.99623604684 -6618.99540452528 -6618.99439517205 -6618.99317131538 -6618.9916890282 -6618.98989575998 -6618.98772872505 -6618.98511300677 -6618.98195933096 -6618.97816145526 -6618.97359311286 -6618.96810444049 -6618.96151781045 -6618.95362297549 -6618.94417142271 -6618.93286981889 -6618.91937241438 -6618.90327225548 -6618.88409103661 -6618.86126740299 -6618.83414349209 -6618.80194947744 -6618.76378585202 -6618.71860315981 -6618.6651788532 -6618.60209092128 -6618.52768789924 -6618.44005483245 -6618.3369747305 -6618.21588500662 -6618.07382835746 -6617.90739749614 -6617.71267311054 -6617.48515437727 -6617.21968132217 -6616.91034828056 -6616.55040767621 -6616.13216330778 -6615.64685230792 -6615.08451492298 -6614.43385125412 -6613.68206410385 -6612.81468708856 -6611.81539720966 -6610.66581112586 -6609.34526443922 -6607.83057340128 -6606.0957785654 -6604.11187006005 -6601.84649433884 -6599.26364247916 -6596.32332035596 -6592.98120131201 -6589.18826228595 -6584.89040474424 -6580.02806219745 -6574.53579656489 -6568.34188618649 -6561.36790886731 -6553.5283239772 -6544.7300583156 -6534.87210118525 -6523.84511489654 -6511.53106774059 -6497.80289731677 -6482.52421297228 -6465.54904699621 -6446.72166509734 -6425.876447569 -6402.83785339022 -6377.42048031118 -6349.42923470345 -6318.65962559752 -6284.89819785875 -6247.92311983996 -6207.5049410671 -6163.40753553161 -6115.38924594994 -6063.20424387052 -6006.60411972979 -5945.33971584419 -5879.16321383941 -5807.8304861249 -5731.10371868397 -5648.75430963224 -5560.56604466228 -5466.33854660578 -5365.89099187076 -5259.06608141536 -5145.73424816823 -5025.79807636448 -4899.19690110217 -4765.91154850373 -4625.96916815665 -4479.44809997284 -4326.48270721301 -4167.26809613495 -4002.06463050778 -3831.20213605393 -3655.08367570319 -3474.18876134231 -3289.0758515001 -3100.38396711885 -2908.83323925092 -2715.22418324533 -2520.43547387617 -2325.41997512367 -2131.19875729457 -1938.85281339452 -1749.51216694474 -1564.34204593761 -1384.52578399588 -1211.24410223381 -1045.65042645787 -888.841906589617 -741.825828224506 -605.481129196481 -480.514711173643 -367.41200793218 -266.380279698061 -177.279164326102 -99.5148969708661 -31.6801212108231 
</DataArray>
<DataArray type="Float64" Name="velocity_p0" NumberOfComponents="3" format="ascii">
-6.7762635780344e-21 0 0 -4.27392496393747e-20 0 0 -6.09863722023096e-20 0 0 -7.66205675295467e-20 0 0 -1.06419864240312e-19 0 0 -1.58629619856349e-19 0 0 -2.10145486081996e-19 0 0 -2.56966756900776e-19 0 0 -3.16565350322307e-19 0 0 -4.04044202609294e-19 0 0 -5.30098968193319e-19 0 0 -7.01587225815349e-19 0 0 -9.05650337709702e-19 0 0 -1.15984153704892e-18 0 0 -1.48387704033966e-18 0 0 -1.93666155161305e-18 0 0 -2.45729001382971e-18 0 0 -3.13307864895078e-18 0 0 -4.03125883369206e-18 0 0 -5.18363021777256e-18 0 0 -6.64579068859734e-18 0 0 -8.53363061638338e-18 0 0 -1.09243831428877e-17 0 0 -1.39652070289816e-17 0 0 -1.78330603322475e-17 0 0 -2.27617241461272e-17 0 0 -2.89986134063824e-17 0 0 -3.69599370639974e-17 0 0 -4.69988360295834e-17 0 0 -5.97551359522001e-17 0 0 -7.59413636575831e-17 0 0 -9.64182672504687e-17 0 0 -1.22309725281845e-16 0 0 -1.55002502803461e-16 0 0 -1.96304431043785e-16 0 0 -2.48406200123442e-16 0 0 -3.14111995962362e-16 0 0 -3.96842031891843e-16 0 0 -5.00933029865655e-16 0 0 -6.31764725169518e-16 0 0 -7.96128272898306e-16 0 0 -1.00237014326838e-15 0 0 -1.2610100246987e-15 0 0 -1.5849567264105e-15 0 0 -1.99042076765881e-15 0 0 -2.49742921113417e-15 0 0 -3.1307611939121e-15 0 0 -3.9212092503136e-15 0 0 -4.90684749234419e-15 0 0 -6.13468526195252e-15 0 0 -7.66283349165419e-15 0 0 -9.56286794542816e-15 0 0 -1.19230413682301e-14 0 0 -1.48519738933472e-14 0 0 -1.84831019413294e-14 0 0 -2.29804006065304e-14 0 0 -2.85449506262974e-14 0 0 -3.54231604715148e-14 0 0 -4.39166344566227e-14 0 0 -5.43940422543191e-14 0 0 -6.73056092684375e-14 0 0 -8.32005331709096e-14 0 0 -1.02747920089661e-13 0 0 -1.26762001882628e-13 0 0 -1.56232398990526e-13 0 0 -1.92360660185943e-13 0 0 -2.36603707616906e-13 0 0 -2.90726085067942e-13 0 0 -3.56862158383922e-13 0 0 -4.37590708606633e-13 0 0 -5.36023258147328e-13 0 0 -6.55909693149796e-13 0 0 -8.01763342988983e-13 0 0 -9.79009630417006e-13 0 0 -1.19416182642196e-12 0 0 -1.45502905595967e-12 0 0 -1.77096194617664e-12 0 0 -2.15314179112541e-12 0 0 -2.61492135994591e-12 0 0 -3.1722249260127e-12 0 0 -3.84401758934571e-12 0 0 -4.65285489211202e-12 0 0 -5.62552521762878e-12 0 0 -6.79379940989201e-12 0 0 -8.19530418865379e-12 0 0 -9.87453760652004e-12 0 0 -1.18840477009453e-11 0 0 -1.42857981624993e-11 0 0 -1.71527476853461e-11 0 0 -2.05706727947076e-11 0 0 -2.46402677712482e-11 0 0 -2.94795592754506e-11 0 0 -3.52266768651662e-11 0 0 -4.2043025685688e-11 0 0 -5.01169122424795e-11 0 0 -5.96676791483255e-11 0 0 -7.09504100301901e-11 0 0 -8.42612720068597e-11 0 0 -9.99435681837932e-11 0 0 -1.18394578759545e-10 0 0 -1.40073276369531e-10 0 0 -1.65509005711704e-10 0 0 -1.95311224957882e-10 0 0 -2.3018041144044e-10 0 0 -2.70920239511904e-10 0 0 -3.18451144085336e-10 0 0 -3.73825386385142e-10 0 0 -4.38243743043687e-10 0 0 -5.1307394070379e-10 0 0 -5.99870960202974e-10 0 0 -7.00399332637845e-10 0 0 -8.16657547743144e-10 0 0 -9.50904689553169e-10 0 0 -1.10568940731793e-09 0 0 -1.28388131931208e-09 0 0 -1.48870493439472e-09 0 0 -1.72377615866884e-09 0 0 -1.99314143556835e-09 0 0 -2.30131954323089e-09 0 0 -2.65334604511703e-09 0 0 -3.0548203577671e-09 0 0 -3.51195536404598e-09 0 0 -4.03162945997058e-09 0 0 -4.62144087882194e-09 0 0 -5.2897640902351e-09 0 0 -6.04580802006048e-09 0 0 -6.89967578544524e-09 0 0 -7.86242558348464e-09 0 0 -8.94613231741964e-09 0 0 -1.01639494889598e-08 0 0 -1.15301708307533e-08 0 0 -1.30602911027015e-08 0 0 -1.47710654281627e-08 0 0 -1.66805665051894e-08 0 0 -1.88082389933301e-08 0 0 -2.11749503518558e-08 0 0 -2.38030373892844e-08 0 0 -2.67163477820746e-08 0 0 -2.99402758294563e-08 0 0 -3.35017917356664e-08 0 0 -3.74294637497435e-08 0 0 -4.17534725477315e-08 0 0 -4.65056173115867e-08 0 0 -5.17193130448507e-08 0 0 -5.74295787630679e-08 0 0 -6.36730163107198e-08 0 0 -7.04877796784609e-08 0 0 -7.79135348270832e-08 0 0 -8.59914101623393e-08 0 0 -9.47639379450417e-08 0 0 -1.04274987060634e-07 0 0 -1.14569687706248e-07 0 0 -1.25694348678526e-07 0 0 -1.37696368056542e-07 0 0 -1.50624138165602e-07 0 0 -1.64526945778158e-07 0 0 -1.7945486854687e-07 0 0 -1.95458668673614e-07 0 0 -2.125896847851e-07 0 0 -2.30899722910704e-07 0 0 -2.50440947330411e-07 0 0 -2.71265771876504e-07 0 0 -2.93426752020233e-07 0 0 -3.16976477746273e-07 0 0 -3.41967466796651e-07 0 0 -3.6845205733793e-07 0 0 -3.96482298442813e-07 0 0 -4.26109835953688e-07 0 0 -4.57385790265961e-07 0 0 -4.90360621280636e-07 0 0 -5.25083974151675e-07 0 0 -5.61604497398345e-07 0 0 -5.99969622326608e-07 0 0 -6.4022528932972e-07 0 0 -6.82415602268406e-07 0 0 -7.26582386429968e-07 0 0 -7.72764618077379e-07 0 0 -8.20997683697844e-07 0 0 -8.71312413877892e-07 0 0 -9.23733819078541e-07 0 0 -9.78279430797856e-07 0 0 -1.034957119379e-06 0 0 -1.093762215829e-06 0 0 -1.15467370496017e-06 0 0 -1.2176491747101e-06 0 0 -1.28261809303672e-06 0 0 -1.34947282769076e-06 0 0 -1.4180566102485e-06 0 0 -1.48814735554717e-06 0 0 -1.55943586202131e-06 0 0 -1.63149642702892e-06 0 0 -1.70374733834957e-06 0 0 -1.77539817395857e-06 0 0 -1.84538074725067e-06 0 0 -1.91226192791975e-06 0 0 -1.97414213906079e-06 0 0 -2.02855986605485e-06 0 0 -2.07246800602978e-06 0 0 -2.10248169258177e-06 0 0 -2.11638239020616e-06 0 0 
</DataArray>
</CellData>
</Piece>
</UnstructuredGrid>
</VTKFile>
