<?xml version="1.0"?>
<VTKFile type="UnstructuredGrid" version="0.1" byte_order="LittleEndian">
<UnstructuredGrid>
<Piece NumberOfPoints="201" NumberOfCells="200">
<Points>
<DataArray type="Float64" NumberOfComponents="3" format="ascii">
0 0 0 1 0 0 0.00499999999999053 0 0 0.0099999999999811 0 0 0.0149999999999717 0 0 0.0199999999999624 0 0 0.0249999999999529 0 0 0.0299999999999431 0 0 0.0349999999999326 0 0 0.0399999999999219 0 0 0.0449999999999108 0 0 0.0499999999998997 0 0 0.0549999999998886 0 0 0.0599999999998784 0 0 0.064999999999869 0 0 0.0699999999998605 0 0 0.0749999999998528 0 0 0.0799999999998452 0 0 0.0849999999998375 0 0 0.0899999999998299 0 0 0.0949999999998223 0 0 0.0999999999998146 0 0 0.104999999999807 0 0 0.109999999999799 0 0 0.114999999999792 0 0 0.119999999999783 0 0 0.124999999999774 0 0 0.129999999999761 0 0 0.134999999999747 0 0 0.139999999999733 0 0 0.144999999999718 0 0 0.149999999999704 0 0 0.154999999999689 0 0 0.159999999999675 0 0 0.16499999999966 0 0 0.169999999999645 0 0 0.174999999999631 0 0 0.179999999999616 0 0 0.184999999999602 0 0 0.189999999999587 0 0 0.194999999999572 0 0 0.199999999999558 0 0 0.204999999999543 0 0 0.209999999999529 0 0 0.214999999999514 0 0 0.2199999999995 0 0 0.224999999999485 0 0 0.22999999999947 0 0 0.234999999999456 0 0 0.239999999999441 0 0 0.244999999999427 0 0 0.249999999999412 0 0 0.254999999999398 0 0 0.259999999999383 0 0 0.264999999999368 0 0 0.269999999999354 0 0 0.274999999999339 0 0 0.279999999999325 0 0 0.28499999999931 0 0 0.289999999999295 0 0 0.294999999999281 0 0 0.299999999999266 0 0 0.304999999999252 0 0 0.309999999999237 0 0 0.314999999999223 0 0 0.319999999999208 0 0 0.324999999999193 0 0 0.329999999999179 0 0 0.334999999999164 0 0 0.33999999999915 0 0 0.344999999999135 0 0 0.349999999999121 0 0 0.354999999999106 0 0 0.359999999999091 0 0 0.364999999999077 0 0 0.369999999999062 0 0 0.374999999999048 0 0 0.379999999999033 0 0 0.384999999999019 0 0 0.389999999999004 0 0 0.394999999998989 0 0 0.399999999998975 0 0 0.40499999999896 0 0 0.409999999998946 0 0 0.414999999998931 0 0 0.419999999998917 0 0 0.424999999998902 0 0 0.429999999998887 0 0 0.434999999998873 0 0 0.439999999998858 0 0 0.444999999998844 0 0 0.449999999998829 0 0 0.454999999998815 0 0 0.4599999999988 0 0 0.464999999998785 0 0 0.469999999998771 0 0 0.474999999998756 0 0 0.479999999998742 0 0 0.484999999998727 0 0 0.489999999998713 0 0 0.494999999998702 0 0 0.499999999998694 0 0 0.5049999999987 0 0 0.50999999999871 0 0 0.514999999998723 0 0 0.519999999998736 0 0 0.524999999998749 0 0 0.529999999998763 0 0 0.534999999998776 0 0 0.539999999998789 0 0 0.544999999998802 0 0 0.549999999998815 0 0 0.554999999998828 0 0 0.559999999998842 0 0 0.564999999998855 0 0 0.569999999998868 0 0 0.574999999998881 0 0 0.579999999998894 0 0 0.584999999998907 0 0 0.58999999999892 0 0 0.594999999998934 0 0 0.599999999998947 0 0 0.60499999999896 0 0 0.609999999998973 0 0 0.614999999998986 0 0 0.619999999998999 0 0 0.624999999999013 0 0 0.629999999999026 0 0 0.634999999999039 0 0 0.639999999999052 0 0 0.644999999999065 0 0 0.649999999999078 0 0 0.654999999999092 0 0 0.659999999999105 0 0 0.664999999999118 0 0 0.669999999999131 0 0 0.674999999999144 0 0 0.679999999999157 0 0 0.684999999999171 0 0 0.689999999999184 0 0 0.694999999999197 0 0 0.69999999999921 0 0 0.704999999999223 0 0 0.709999999999236 0 0 0.71499999999925 0 0 0.719999999999263 0 0 0.724999999999276 0 0 0.729999999999289 0 0 0.734999999999302 0 0 0.739999999999315 0 0 0.744999999999329 0 0 0.749999999999342 0 0 0.754999999999355 0 0 0.759999999999368 0 0 0.764999999999381 0 0 0.769999999999395 0 0 0.774999999999407 0 0 0.779999999999421 0 0 0.784999999999434 0 0 0.789999999999447 0 0 0.79499999999946 0 0 0.799999999999473 0 0 0.804999999999487 0 0 0.8099999999995 0 0 0.814999999999513 0 0 0.819999999999526 0 0 0.824999999999539 0 0 0.829999999999552 0 0 0.834999999999566 0 0 0.839999999999579 0 0 0.844999999999592 0 0 0.849999999999605 0 0 0.854999999999618 0 0 0.859999999999631 0 0 0.864999999999645 0 0 0.869999999999658 0 0 0.874999999999671 0 0 0.879999999999684 0 0 0.884999999999697 0 0 0.88999999999971 0 0 0.894999999999724 0 0 0.899999999999737 0 0 0.90499999999975 0 0 0.909999999999763 0 0 0.914999999999776 0 0 0.919999999999789 0 0 0.924999999999803 0 0 0.929999999999816 0 0 0.934999999999829 0 0 0.939999999999842 0 0 0.944999999999855 0 0 0.949999999999868 0 0 0.954999999999881 0 0 0.959999999999895 0 0 0.964999999999908 0 0 0.969999999999921 0 0 0.974999999999934 0 0 0.979999999999947 0 0 0.98499999999996 0 0 0.989999999999974 0 0 0.994999999999987 0 0 
</DataArray>
</Points>
<Cells>
<DataArray type="Int32" Name="connectivity" format="ascii">
0 2 2 3 3 4 4 5 5 6 6 7 7 8 8 9 9 10 10 11 11 12 12 13 13 14 14 15 15 16 16 17 17 18 18 19 19 20 20 21 21 22 22 23 23 24 24 25 25 26 26 27 27 28 28 29 29 30 30 31 31 32 32 33 33 34 34 35 35 36 36 37 37 38 38 39 39 40 40 41 41 42 42 43 43 44 44 45 45 46 46 47 47 48 48 49 49 50 50 51 51 52 52 53 53 54 54 55 55 56 56 57 57 58 58 59 59 60 60 61 61 62 62 63 63 64 64 65 65 66 66 67 67 68 68 69 69 70 70 71 71 72 72 73 73 74 74 75 75 76 76 77 77 78 78 79 79 80 80 81 81 82 82 83 83 84 84 85 85 86 86 87 87 88 88 89 89 90 90 91 91 92 92 93 93 94 94 95 95 96 96 97 97 98 98 99 99 100 100 101 101 102 102 103 103 104 104 105 105 106 106 107 107 108 108 109 109 110 110 111 111 112 112 113 113 114 114 115 115 116 116 117 117 118 118 119 119 120 120 121 121 122 122 123 123 124 124 125 125 126 126 127 127 128 128 129 129 130 130 131 131 132 132 133 133 134 134 135 135 136 136 137 137 138 138 139 139 140 140 141 141 142 142 143 143 144 144 145 145 146 146 147 147 148 148 149 149 150 150 151 151 152 152 153 153 154 154 155 155 156 156 157 157 158 158 159 159 160 160 161 161 162 162 163 163 164 164 165 165 166 166 167 167 168 168 169 169 170 170 171 171 172 172 173 173 174 174 175 175 176 176 177 177 178 178 179 179 180 180 181 181 182 182 183 183 184 184 185 185 186 186 187 187 188 188 189 189 190 190 191 191 192 192 193 193 194 194 195 195 196 196 197 197 198 198 199 199 200 200 1 
</DataArray>
<DataArray type="Int32" Name="offsets" format="ascii">
2 4 6 8 10 12 14 16 18 20 22 24 26 28 30 32 34 36 38 40 42 44 46 48 50 52 54 56 58 60 62 64 66 68 70 72 74 76 78 80 82 84 86 88 90 92 94 96 98 100 102 104 106 108 110 112 114 116 118 120 122 124 126 128 130 132 134 136 138 140 142 144 146 148 150 152 154 156 158 160 162 164 166 168 170 172 174 176 178 180 182 184 186 188 190 192 194 196 198 200 202 204 206 208 210 212 214 216 218 220 222 224 226 228 230 232 234 236 238 240 242 244 246 248 250 252 254 256 258 260 262 264 266 268 270 272 274 276 278 280 282 284 286 288 290 292 294 296 298 300 302 304 306 308 310 312 314 316 318 320 322 324 326 328 330 332 334 336 338 340 342 344 346 348 350 352 354 356 358 360 362 364 366 368 370 372 374 376 378 380 382 384 386 388 390 392 394 396 398 400 
</DataArray>
<DataArray type="UInt8" Name="types" format="ascii">
3 3 3 3 3 3 3 3 3 3 3 3 3 3 3 3 3 3 3 3 3 3 3 3 3 3 3 3 3 3 3 3 3 3 3 3 3 3 3 3 3 3 3 3 3 3 3 3 3 3 3 3 3 3 3 3 3 3 3 3 3 3 3 3 3 3 3 3 3 3 3 3 3 3 3 3 3 3 3 3 3 3 3 3 3 3 3 3 3 3 3 3 3 3 3 3 3 3 3 3 3 3 3 3 3 3 3 3 3 3 3 3 3 3 3 3 3 3 3 3 3 3 3 3 3 3 3 3 3 3 3 3 3 3 3 3 3 3 3 3 3 3 3 3 3 3 3 3 3 3 3 3 3 3 3 3 3 3 3 3 3 3 3 3 3 3 3 3 3 3 3 3 3 3 3 3 3 3 3 3 3 3 3 3 3 3 3 3 3 3 3 3 3 3 3 3 3 3 3 3 
</DataArray>
</Cells>
<CellData Scalars="pressure_p0," Vectors="velocity_p0," Tensors="">
<DataArray type="Float64" Name="pressure_p0" format="ascii">
-6618.99999999995 -6618.99999999995 -6618.99999999994 -6618.99999999994 -6618.99999999994 -6618.99999999994 -6618.99999999994 -6618.99999999993 -6618.99999999993 -6618.99999999992 -6618.99999999991 -6618.9999999999 -6618.99999999989 -6618.99999999989 -6618.9999999999 -6618.99999999991 -6618.99999999992 -6618.99999999993 -6618.99999999994 -6618.99999999995 -6618.99999999995 -6618.99999999995 -6618.99999999995 -6618.99999999995 -6618.99999999996 -6618.99999999997 -6618.99999999997 -6618.99999999997 -6618.99999999997 -6618.99999999998 -6618.99999999999 -6619 -6619 -6619 -6619 -6619 -6619.00000000001 -6619.00000000001 -6619.00000000001 -6619.00000000001 -6619 -6619 -6619 -6619 -6619.00000000001 -6619.00000000001 -6619.00000000001 -6619.00000000001 -6619.00000000002 -6619.00000000002 -6619.00000000002 -6619.00000000002 -6619.00000000002 -6619.00000000001 -6619.00000000001 -6619.00000000001 -6619.00000000001 -6619.00000000001 -6619.00000000001 -6619 -6619.00000000001 -6619.00000000001 -6619.00000000002 -6619.00000000002 -6619.00000000002 -6619.00000000001 -6619 -6618.99999999999 -6618.99999999996 -6618.99999999993 -6618.9999999999 -6618.99999999986 -6618.9999999998 -6618.99999999972 -6618.9999999996 -6618.99999999943 -6618.9999999992 -6618.99999999887 -6618.99999999841 -6618.99999999776 -6618.99999999684 -6618.99999999555 -6618.99999999373 -6618.99999999119 -6618.99999998762 -6618.99999998263 -6618.99999997564 -6618.99999996587 -6618.99999995224 -6618.99999993323 -6618.99999990673 -6618.99999986982 -6618.99999981849 -6618.99999974714 -6618.99999964808 -6618.99999951068 -6618.99999932029 -6618.99999905679 -6618.99999869245 -6618.99999818924 -6618.99999749499 -6618.99999653824 -6618.99999522126 -6618.9999934105 -6618.99999092376 -6618.99998751277 -6618.99998283967 -6618.99997644538 -6618.99996770697 -6618.99995578032 -6618.99993952336 -6618.9999173931 -6618.9998873081 -6618.99984646494 -6618.99979109364 -6618.99971613272 -6618.99961479771 -6618.99947800993 -6618.99929364135 -6618.99904551857 -6618.99871211166 -6618.99826481203 -6618.99766567537 -6618.99686447003 -6618.99579482623 -6618.99436922382 -6618.99247248417 -6618.98995334078 -6618.98661354915 -6618.98219385465 -6618.97635596033 -6618.96865941881 -6618.95853210368 -6618.94523258727 -6618.92780235119 -6618.90500527123 -6618.87525123389 -6618.83650004353 -6618.78614094836 -6618.72084213403 -6618.63636338735 -6618.52732380225 -6618.38691487286 -6618.20654758153 -6617.97542014062 -6617.67999088949 -6617.30333849941 -6616.82438913382 -6616.21698760452 -6615.44878693903 -6614.47992824771 -6613.26148050842 -6611.7336080771 -6609.82343264549 -6607.44255632498 -6604.48421392791 -6600.82002580697 -6596.29632833155 -6590.73006782974 -6583.90425626541 -6575.56300375474 -6565.40616497538 -6553.08366428323 -6538.18959855836 -6520.25625795025 -6498.74825307253 -6473.05699278975 -6442.49581911415 -6406.29617392031 -6363.60524455894 -6313.48560957461 -6254.91747824686 -6186.80418417582 -6107.981648087 -6017.23256171102 -5913.30605507765 -5794.94358476442 -5660.91171039694 -5510.04229990725 -5341.28050882912 -5153.74060273471 -4946.76932179643 -4720.01600896683 -4473.50812451768 -4207.73003511493 -3923.70207967458 -3623.05585991735 -3308.10046189009 -2981.87286492754 -2648.16411528316 -2311.51091611539 -1977.14011455886 -1650.85120074021 -1338.81954459743 -1047.30112625841 -782.218936839815 -548.613721161001 -349.947761394518 -187.237163524853 -57.4073560729974 
</DataArray>
<DataArray type="Float64" Name="velocity_p0" NumberOfComponents="3" format="ascii">
-6.08237418764499e-21 0 0 -6.08237418764499e-21 0 0 -6.7762635780344e-21 0 0 -6.7762635780344e-21 0 0 0 0 0 -2.08166817116809e-21 0 0 -7.47015296842368e-21 0 0 -1.76345483354752e-20 0 0 -3.3881317890172e-20 0 0 -1.76345483354752e-20 0 0 -2.10226801244924e-20 0 0 -2.84928330929162e-20 0 0 -4.08202117940662e-21 0 0 1.35525271560688e-20 0 0 2.71050543121376e-20 0 0 1.01643953670516e-20 0 0 3.52690966709513e-20 0 0 4.61273814283926e-20 0 0 1.83284377258653e-20 0 0 3.3881317890172e-21 0 0 6.93889390389664e-22 0 0 -1.15521741478309e-20 0 0 -3.3881317890172e-21 0 0 1.90223271162546e-20 0 0 3.52690966709509e-20 0 0 1.35525271560688e-20 0 0 1.35525271560688e-20 0 0 -1.38777878077743e-21 0 0 1.96349013437145e-20 0 0 3.45752072805607e-20 0 0 2.69424239862849e-21 0 0 2.51047013038978e-20 0 0 0 0 0 -1.42464165464575e-20 0 0 2.03287907341032e-20 0 0 1.21647483752914e-20 0 0 1.62467695546973e-20 0 0 -6.7762635780344e-21 0 0 1.08582847574403e-20 0 0 6.93889390388698e-22 0 0 -1.42464165464575e-20 0 0 -4.08202117940592e-21 0 0 6.93889390388693e-22 0 0 1.76345483354747e-20 0 0 1.49403059368462e-20 0 0 -3.3881317890172e-21 0 0 -4.7759105697946e-21 0 0 2.57985906942865e-20 0 0 4.7759105697946e-21 0 0 1.76345483354747e-20 0 0 4.08202117940591e-21 0 0 -2.03287907341032e-20 0 0 -1.35525271560688e-20 0 0 -6.7762635780344e-21 0 0 6.7762635780344e-21 0 0 -1.08582847574403e-20 0 0 -1.49403059368462e-20 0 0 0 0 0 -1.63280847176236e-20 0 0 -6.93889390388713e-22 0 0 1.62467695546973e-20 0 0 1.1552174147829e-20 0 0 2.10226801244919e-20 0 0 8.1640423588118e-21 0 0 -2.44108119135091e-20 0 0 0 0 0 -3.52690966709494e-20 0 0 -6.10676873652359e-20 0 0 -7.3926325130916e-20 0 0 -9.01730946856133e-20 0 0 -1.04419511232071e-19 0 0 -1.55241488067329e-19 0 0 -1.97286848316313e-19 0 0 -2.91541964181332e-19 0 0 -3.9734925419418e-19 0 0 -5.71613069377761e-19 0 0 -7.89310023591103e-19 0 0 -1.11342684204476e-18 0 0 -1.58062040019045e-18 0 0 -2.23971232185519e-18 0 0 -3.13205407789759e-18 0 0 -4.41696917756437e-18 0 0 -6.19279475789996e-18 0 0 -8.67722777311771e-18 0 0 -1.21550339238209e-17 0 0 -1.70295635232284e-17 0 0 -2.37904205883913e-17 0 0 -3.32356917594869e-17 0 0 -4.63722213839937e-17 0 0 -6.46482487768418e-17 0 0 -9.00647666255485e-17 0 0 -1.25341214187229e-16 0 0 -1.74261023362988e-16 0 0 -2.42052477237071e-16 0 0 -3.35890316211967e-16 0 0 -4.65619285749223e-16 0 0 -6.44732569198996e-16 0 0 -8.91827947211851e-16 0 0 -1.23233680204831e-15 0 0 -1.70097556916389e-15 0 0 -2.3451907245603e-15 0 0 -3.22977300286368e-15 0 0 -4.44289336223898e-15 0 0 -6.10449777749653e-15 0 0 -8.3775843087811e-15 0 0 -1.14832602140295e-14 0 0 -1.57209633006905e-14 0 0 -2.14956633872942e-14 0 0 -2.93542407666277e-14 0 0 -4.00341629964153e-14 0 0 -5.4528141312137e-14 0 0 -7.41705715888399e-14 0 0 -1.00751825616149e-13 0 0 -1.36670406312693e-13 0 0 -1.85133916899051e-13 0 0 -2.50424304947345e-13 0 0 -3.38247916741743e-13 0 0 -4.56195187084211e-13 0 0 -6.14344011502388e-13 0 0 -8.26049570537386e-13 0 0 -1.10897572228243e-12 0 0 -1.48643880895386e-12 0 0 -1.98915393621131e-12 0 0 -2.6574988587319e-12 0 0 -3.54444117214638e-12 0 0 -4.71931297420542e-12 0 0 -6.27266493808613e-12 0 0 -8.32249097924602e-12 0 0 -1.10221869892361e-11 0 0 -1.45706965837339e-11 0 0 -1.92254037818989e-11 0 0 -2.53184647070133e-11 0 0 -3.32774264828451e-11 0 0 -4.36511697281064e-11 0 0 -5.71424329220595e-11 0 0 -7.46484388703317e-11 0 0 -9.7311447501342e-11 0 0 -1.2658141092477e-10 0 0 -1.6429330837245e-10 0 0 -2.12762190765973e-10 0 0 -2.74899468580205e-10 0 0 -3.54354527968445e-10 0 0 -4.55686351906705e-10 0 0 -5.84570444014087e-10 0 0 -7.48046985123663e-10 0 0 -9.5481677113905e-10 0 0 -1.21559205408615e-09 0 0 -1.54350988992744e-09 0 0 -1.95461594063333e-09 0 0 -2.46842681455499e-09 0 0 -3.1085788909597e-09 0 0 -3.90357107835167e-09 0 0 -4.88760801714791e-09 0 0 -6.10154876712218e-09 0 0 -7.59396394025503e-09 0 0 -9.42230147919254e-09 0 0 -1.16541577995164e-08 0 0 -1.43686468001314e-08 0 0 -1.76578543390824e-08 0 0 -2.1628360273003e-08 0 0 -2.64028042307578e-08 0 0 -3.21214651864945e-08 0 0 -3.89438189331363e-08 0 0 -4.70500321293153e-08 0 0 -5.6642347153362e-08 0 0 -6.79463090229881e-08 0 0 -8.12117846006835e-08 0 0 -9.67137256195163e-08 0 0 -1.14752631038289e-07 0 0 -1.3565467101301e-07 0 0 -1.5977144427811e-07 0 0 -1.87479352627448e-07 0 0 -2.19178589830644e-07 0 0 -2.55291756752486e-07 0 0 -2.96262128361685e-07 0 0 -3.42551610065658e-07 0 0 -3.94638428350103e-07 0 0 -4.53014601518119e-07 0 0 -5.18183227240801e-07 0 0 -5.9065560046102e-07 0 0 -6.70948132092819e-07 0 0 -7.59578967334982e-07 0 0 -8.57064089052653e-07 0 0 -9.63912515623849e-07 0 0 -1.08061992996992e-06 0 0 -1.20765965146709e-06 0 0 -1.34546919253759e-06 0 0 -1.49442957197857e-06 0 0 -1.65483282628614e-06 0 0 -1.82683032662663e-06 0 0 -2.01034982805287e-06 0 0 -2.20496141344517e-06 0 0 -2.40965968300366e-06 0 0 -2.62250888680808e-06 0 0 -2.8400664866253e-06 0 0 -3.0564615459926e-06 0 0 -3.26198786573172e-06 0 0 -3.44122375918024e-06 0 0 -3.57164197789786e-06 0 0 -3.63032158464236e-06 0 0 
</DataArray>
</CellData>
</Piece>
</UnstructuredGrid>
</VTKFile>
