<?xml version="1.0"?>
<VTKFile type="UnstructuredGrid" version="0.1" byte_order="LittleEndian">
<UnstructuredGrid>
<Piece NumberOfPoints="48" NumberOfCells="45">
<Points>
<DataArray type="Float64" NumberOfComponents="3" format="ascii">
0.000000000000000e+00 0.000000000000000e+00 0.000000000000000e+00 3.000000000000000e+00 0.000000000000000e+00 0.000000000000000e+00 0.000000000000000e+00 3.000000000000000e+00 0.000000000000000e+00 0.000000000000000e+00 0.000000000000000e+00 3.000000000000000e+00 3.000000000000000e+00 0.000000000000000e+00 3.000000000000000e+00 0.000000000000000e+00 3.000000000000000e+00 3.000000000000000e+00 0.000000000000000e+00 0.000000000000000e+00 6.000000000000000e+00 3.000000000000000e+00 0.000000000000000e+00 6.000000000000000e+00 0.000000000000000e+00 3.000000000000000e+00 6.000000000000000e+00 0.000000000000000e+00 0.000000000000000e+00 9.000000000000000e+00 3.000000000000000e+00 0.000000000000000e+00 9.000000000000000e+00 0.000000000000000e+00 3.000000000000000e+00 9.000000000000000e+00 0.000000000000000e+00 0.000000000000000e+00 1.200000000000000e+01 3.000000000000000e+00 0.000000000000000e+00 1.200000000000000e+01 0.000000000000000e+00 3.000000000000000e+00 1.200000000000000e+01 0.000000000000000e+00 0.000000000000000e+00 1.500000000000000e+01 3.000000000000000e+00 0.000000000000000e+00 1.500000000000000e+01 0.000000000000000e+00 3.000000000000000e+00 1.500000000000000e+01 0.000000000000000e+00 0.000000000000000e+00 1.800000000000000e+01 3.000000000000000e+00 0.000000000000000e+00 1.800000000000000e+01 0.000000000000000e+00 3.000000000000000e+00 1.800000000000000e+01 0.000000000000000e+00 0.000000000000000e+00 2.100000000000000e+01 3.000000000000000e+00 0.000000000000000e+00 2.100000000000000e+01 0.000000000000000e+00 3.000000000000000e+00 2.100000000000000e+01 0.000000000000000e+00 0.000000000000000e+00 2.400000000000000e+01 3.000000000000000e+00 0.000000000000000e+00 2.400000000000000e+01 0.000000000000000e+00 3.000000000000000e+00 2.400000000000000e+01 0.000000000000000e+00 0.000000000000000e+00 2.700000000000000e+01 3.000000000000000e+00 0.000000000000000e+00 2.700000000000000e+01 0.000000000000000e+00 3.000000000000000e+00 2.700000000000000e+01 0.000000000000000e+00 0.000000000000000e+00 3.000000000000000e+01 3.000000000000000e+00 0.000000000000000e+00 3.000000000000000e+01 0.000000000000000e+00 3.000000000000000e+00 3.000000000000000e+01 0.000000000000000e+00 0.000000000000000e+00 3.300000000000000e+01 3.000000000000000e+00 0.000000000000000e+00 3.300000000000000e+01 0.000000000000000e+00 3.000000000000000e+00 3.300000000000000e+01 0.000000000000000e+00 0.000000000000000e+00 3.600000000000000e+01 3.000000000000000e+00 0.000000000000000e+00 3.600000000000000e+01 0.000000000000000e+00 3.000000000000000e+00 3.600000000000000e+01 0.000000000000000e+00 0.000000000000000e+00 3.900000000000000e+01 3.000000000000000e+00 0.000000000000000e+00 3.900000000000000e+01 0.000000000000000e+00 3.000000000000000e+00 3.900000000000000e+01 0.000000000000000e+00 0.000000000000000e+00 4.200000000000000e+01 3.000000000000000e+00 0.000000000000000e+00 4.200000000000000e+01 0.000000000000000e+00 3.000000000000000e+00 4.200000000000000e+01 0.000000000000000e+00 0.000000000000000e+00 4.500000000000000e+01 3.000000000000000e+00 0.000000000000000e+00 4.500000000000000e+01 0.000000000000000e+00 3.000000000000000e+00 4.500000000000000e+01 
</DataArray>
</Points>
<Cells>
<DataArray type="Int32" Name="connectivity" format="ascii">
0 1 2 4 0 2 3 4 2 3 4 5 3 4 5 7 3 5 6 7 5 6 7 8 6 7 8 10 6 8 9 10 8 9 10 11 9 10 11 13 9 11 12 13 11 12 13 14 12 13 14 16 12 14 15 16 14 15 16 17 15 16 17 19 15 17 18 19 17 18 19 20 18 19 20 22 18 20 21 22 20 21 22 23 21 22 23 25 21 23 24 25 23 24 25 26 24 25 26 28 24 26 27 28 26 27 28 29 27 28 29 31 27 29 30 31 29 30 31 32 30 31 32 34 30 32 33 34 32 33 34 35 33 34 35 37 33 35 36 37 35 36 37 38 36 37 38 40 36 38 39 40 38 39 40 41 39 40 41 43 39 41 42 43 41 42 43 44 42 43 44 46 42 44 45 46 44 45 46 47 
</DataArray>
<DataArray type="Int32" Name="offsets" format="ascii">
4 8 12 16 20 24 28 32 36 40 44 48 52 56 60 64 68 72 76 80 84 88 92 96 100 104 108 112 116 120 124 128 132 136 140 144 148 152 156 160 164 168 172 176 180 
</DataArray>
<DataArray type="UInt8" Name="types" format="ascii">
10 10 10 10 10 10 10 10 10 10 10 10 10 10 10 10 10 10 10 10 10 10 10 10 10 10 10 10 10 10 10 10 10 10 10 10 10 10 10 10 10 10 10 10 10 
</DataArray>
</Cells>
<PointData Scalars="pressure_nodes_[L]" Vectors="">
<DataArray type="Float64" Name="pressure_nodes_[L]" format="ascii">
2.054531605742498e+03 2.068543033050594e+03 2.038998716687270e+03 1.966666666103270e+03 2.004374357012699e+03 1.928958975199485e+03 1.833333332259349e+03 1.871041023162737e+03 1.795625641346102e+03 1.699999998336361e+03 1.737707689276299e+03 1.662292307397328e+03 1.566666664431469e+03 1.604374355332578e+03 1.528958973548797e+03 1.433333330703145e+03 1.471041021560421e+03 1.395625639838793e+03 1.299999996944956e+03 1.337707687837465e+03 1.262292306049034e+03 1.166666663207422e+03 1.204374354056971e+03 1.128958972382663e+03 1.033333329750938e+03 1.071041020512869e+03 9.956256389971074e+02 8.999999964487487e+02 9.377076871927172e+02 8.622923057036026e+02 7.666666632312368e+02 8.043743539384457e+02 7.289589725413351e+02 6.333333302630218e+02 6.710410208865186e+02 5.956256396563161e+02 4.999999975331996e+02 5.377076881034025e+02 4.622923069669189e+02 3.666666649166441e+02 4.043743554634794e+02 3.289589743746864e+02 2.333333324059379e+02 2.710410229195960e+02 1.956256418999315e+02 1.454683937268440e+02 1.610012826081971e+02 1.314569665783025e+02 
</DataArray>
</PointData>
<CellData Scalars="pressure_elements_[L]," Vectors="velocity_elements_[L/T]">
<DataArray type="Float64" Name="pressure_elements_[L]" format="ascii">
2.066666666516097e+03 2.033333333036971e+03 1.999999999566276e+03 1.933333332632371e+03 1.899999999179716e+03 1.866666665726548e+03 1.799999998803820e+03 1.766666665324077e+03 1.733333331829808e+03 1.666666664842719e+03 1.633333331349433e+03 1.599999997874389e+03 1.533333330966393e+03 1.499999997543527e+03 1.466666664132141e+03 1.399999997283400e+03 1.366666663851597e+03 1.333333330402937e+03 1.266666663491130e+03 1.233333330034542e+03 1.199999996595508e+03 1.133333329789669e+03 1.099999996423179e+03 1.066666663082246e+03 9.999999964113370e+02 9.666666630928910e+02 9.333333297724673e+02 8.666666631256825e+02 8.333333298070601e+02 7.999999964974435e+02 7.333333299434544e+02 6.999999966888819e+02 6.666666634580606e+02 5.999999970488233e+02 5.666666638668648e+02 5.333333306959496e+02 4.666666643658992e+02 4.333333312086638e+02 3.999999980540697e+02 3.333333317721459e+02 2.999999986367300e+02 2.666666655090387e+02 1.999999992932121e+02 1.666666661901313e+02 1.333333330921139e+02 
</DataArray>
<DataArray type="Float64" Name="velocity_elements_[L/T]" NumberOfComponents="3" format="ascii">
4.545025467095343e-11 4.343747583845925e-15 4.344444464217483e-01   -2.805420363608905e-11 -1.122298299818494e-10 4.344444463469644e-01   -1.984523656517467e-15 3.943434467856832e-11 4.344444461952711e-01   1.317401465694701e-10 -4.357625371653739e-15 4.344444461952584e-01   1.476350002897290e-11 -3.262496426564226e-11 4.344444460782948e-01   5.148659276699163e-15 -8.194847578302245e-11 4.344444461519130e-01   -1.615625133677412e-10 3.580469254416130e-15 4.344444462041892e-01   6.271573364802219e-11 1.688660837319741e-10 4.344444464470064e-01   -2.761679773755077e-15 1.587591169638358e-11 4.344444466133758e-01   -2.329947346169092e-11 -9.464651284929460e-15 4.344444465739190e-01   -1.330826091688886e-10 -1.123442421267310e-10 4.344444464327710e-01   -5.925815393936773e-15 1.614755551493374e-10 4.344444460587070e-01   2.830651546492646e-10 -5.898059818321144e-15 4.344444459668506e-01   -1.503903598876200e-11 -2.081140179170197e-10 4.344444456453944e-01   3.608224830031759e-16 -9.527345579130042e-11 4.344444455783297e-01   -1.981201314116277e-11 3.802513859341161e-15 4.344444456879208e-01   1.043297630000846e-10 9.249606771097627e-11 4.344444458706977e-01   7.743805596760467e-15 -3.234126855211628e-11 4.344444460728554e-01   -3.398076264815586e-11 -4.607425552194400e-15 4.344444460856562e-01   -1.696429518851146e-10 -8.081800525873274e-11 4.344444459297278e-01   1.443289932012704e-15 2.494931483632001e-10 4.344444454533908e-01   2.852253988550046e-10 -5.551115123125783e-17 4.344444452673137e-01   -1.281023678338193e-10 -2.798340290198641e-10 4.344444447773915e-01   -2.831068712794149e-15 3.922448477133855e-11 4.344444444119937e-01   1.877474287148573e-10 1.221245327087672e-15 4.344444444344420e-01   3.214454917521703e-11 -9.353624761306485e-11 4.344444443087491e-01   2.331468351712829e-15 -1.384525827319294e-11 4.344444442885403e-01   2.080027816653285e-11 1.429412144204889e-15 4.344444443121515e-01   -1.221997335496920e-10 -3.260897204266428e-11 4.344444441597700e-01   3.524958103184872e-15 2.054329761858043e-10 4.344444438090610e-01   1.271353300413836e-10 3.413935800722356e-15 4.344444436296567e-01   -1.804089695920756e-10 -1.588787236417927e-10 4.344444432341112e-01   8.326672684688674e-16 1.626608847615785e-10 4.344444427785848e-01   1.820561201792970e-10 -2.386979502944087e-15 4.344444426649667e-01   -6.143973177441531e-11 -1.392994319430555e-10 4.344444423883632e-01   4.163336342344337e-17 3.234698620069310e-11 4.344444421959833e-01   5.994799101571857e-11 2.040034807748725e-15 4.344444421862970e-01   -4.471654181196586e-11 -2.190770057647957e-11 4.344444420781973e-01   2.400857290751901e-15 7.602524165761793e-11 4.344444419419480e-01   9.170719739159949e-13 5.412337245047638e-16 4.344444418671063e-01   -9.248774547147379e-11 -9.698333956907784e-13 4.344444417289548e-01   -5.967448757360216e-16 1.074177136128895e-10 4.344444415283600e-01   -4.440892098500626e-16 1.387778780781446e-16 4.344444414209422e-01   -4.691225301741338e-11 9.394491357669866e-16 4.344444413276883e-01   1.387778780781446e-17 3.151823246838603e-11 4.344444412491965e-01   
</DataArray>
</CellData>
</Piece>
</UnstructuredGrid>
</VTKFile>
