<?xml version="1.0"?>
<VTKFile type="UnstructuredGrid" version="0.1" byte_order="LittleEndian">
<UnstructuredGrid>
<Piece NumberOfPoints="6444" NumberOfCells="2148">
<Points>
<DataArray type="Float64" NumberOfComponents="3" format="ascii">
1.854221989851703e+00 4.919057320353651e+00 0.000000000000000e+00 1.894736842105409e+00 5.000000000000000e+00 0.000000000000000e+00 1.789473684210819e+00 5.000000000000000e+00 0.000000000000000e+00 1.761727974207509e+00 4.890294137299613e+00 0.000000000000000e+00 1.854221989851703e+00 4.919057320353651e+00 0.000000000000000e+00 1.789473684210819e+00 5.000000000000000e+00 0.000000000000000e+00 9.126921108264911e-02 4.747437874729231e+00 0.000000000000000e+00 0.000000000000000e+00 4.795918367346939e+00 0.000000000000000e+00 0.000000000000000e+00 4.693877551020408e+00 0.000000000000000e+00 0.000000000000000e+00 3.061224489795924e-01 0.000000000000000e+00 0.000000000000000e+00 2.040816326530610e-01 0.000000000000000e+00 9.632609441615088e-02 2.738115102943669e-01 0.000000000000000e+00 2.000000000000000e+00 4.693877551019979e+00 0.000000000000000e+00 2.000000000000000e+00 4.795918367346652e+00 0.000000000000000e+00 1.886180073786021e+00 4.742892287486169e+00 0.000000000000000e+00 2.000000000000000e+00 1.020408163263281e-01 0.000000000000000e+00 2.000000000000000e+00 2.040816326526563e-01 0.000000000000000e+00 1.916826065655924e+00 1.638313780388485e-01 0.000000000000000e+00 1.761727974207509e+00 4.890294137299613e+00 0.000000000000000e+00 1.789473684210819e+00 5.000000000000000e+00 0.000000000000000e+00 1.684210526316228e+00 5.000000000000000e+00 0.000000000000000e+00 1.671379238171647e+00 4.355565825994195e+00 0.000000000000000e+00 1.656972519506107e+00 4.264993659450348e+00 0.000000000000000e+00 1.742362910288180e+00 4.274686612473190e+00 0.000000000000000e+00 3.359160269493546e-01 6.613119939081207e-01 0.000000000000000e+00 3.652595891744679e-01 7.545548492898096e-01 0.000000000000000e+00 2.363841735149307e-01 7.296874934688182e-01 0.000000000000000e+00 9.142174725173587e-01 4.712367545816286e+00 0.000000000000000e+00 1.043103983284156e+00 4.686823006215624e+00 0.000000000000000e+00 9.872800728194056e-01 4.810542368547830e+00 0.000000000000000e+00 1.764587844538203e+00 5.512456518134270e-01 0.000000000000000e+00 1.667463593774317e+00 5.611131760755043e-01 0.000000000000000e+00 1.689211001472062e+00 4.529014916071041e-01 0.000000000000000e+00 1.164962332976885e+00 4.708689073081058e+00 0.000000000000000e+00 1.043103983284156e+00 4.686823006215624e+00 0.000000000000000e+00 1.120545679972557e+00 4.597850841802548e+00 0.000000000000000e+00 1.164962332976885e+00 4.708689073081058e+00 0.000000000000000e+00 1.286316001784507e+00 4.713364343843550e+00 0.000000000000000e+00 1.217721174034548e+00 4.795799111255508e+00 0.000000000000000e+00 1.564325884006745e+00 4.403553068152111e+00 0.000000000000000e+00 1.671379238171647e+00 4.355565825994195e+00 0.000000000000000e+00 1.684931319093551e+00 4.450594666363146e+00 0.000000000000000e+00 4.205970757819151e-01 5.958543694489439e-01 0.000000000000000e+00 3.359160269493546e-01 6.613119939081207e-01 0.000000000000000e+00 3.145434093627009e-01 5.491653808720912e-01 0.000000000000000e+00 9.872800728194056e-01 4.810542368547830e+00 0.000000000000000e+00 1.043103983284156e+00 4.686823006215624e+00 0.000000000000000e+00 1.096286039907942e+00 4.787940082264510e+00 0.000000000000000e+00 1.364646262478820e+00 4.592415066635965e+00 0.000000000000000e+00 1.459130418149962e+00 4.520124291173715e+00 0.000000000000000e+00 1.486898450120218e+00 4.623469252699420e+00 0.000000000000000e+00 9.731998290332249e-01 5.704471431595811e-01 0.000000000000000e+00 8.715730992191858e-01 5.999589335421364e-01 0.000000000000000e+00 9.025964009904515e-01 4.820800936387313e-01 0.000000000000000e+00 1.172155379345141e+00 6.712425757120589e-01 0.000000000000000e+00 1.072739201998409e+00 7.413529383884035e-01 0.000000000000000e+00 1.058169957782242e+00 6.325564283781506e-01 0.000000000000000e+00 7.694604707706209e-01 2.730531642794763e-01 0.000000000000000e+00 8.638861567287028e-01 2.417663344562214e-01 0.000000000000000e+00 8.676639121183823e-01 3.629112901794028e-01 0.000000000000000e+00 7.466817710519089e-01 3.879264348176992e-01 0.000000000000000e+00 7.694604707706209e-01 2.730531642794763e-01 0.000000000000000e+00 8.676639121183823e-01 3.629112901794028e-01 0.000000000000000e+00 1.364646262478820e+00 4.592415066635965e+00 0.000000000000000e+00 1.286316001784507e+00 4.713364343843550e+00 0.000000000000000e+00 1.240449671207480e+00 4.600906599908907e+00 0.000000000000000e+00 1.120545679972557e+00 4.597850841802548e+00 0.000000000000000e+00 1.172986079106911e+00 4.490918440524887e+00 0.000000000000000e+00 1.240449671207480e+00 4.600906599908907e+00 0.000000000000000e+00 1.564325884006745e+00 4.403553068152111e+00 0.000000000000000e+00 1.684931319093551e+00 4.450594666363146e+00 0.000000000000000e+00 1.572184068992192e+00 4.523523004927910e+00 0.000000000000000e+00 4.205970757819151e-01 5.958543694489439e-01 0.000000000000000e+00 3.145434093627009e-01 5.491653808720912e-01 0.000000000000000e+00 4.068115365931686e-01 4.849111945291972e-01 0.000000000000000e+00 1.172155379345141e+00 6.712425757120589e-01 0.000000000000000e+00 1.058169957782242e+00 6.325564283781506e-01 0.000000000000000e+00 1.167556212236738e+00 5.444613863691833e-01 0.000000000000000e+00 1.021509204635148e+00 4.306457964956466e+00 0.000000000000000e+00 9.249760607483019e-01 4.240686137320751e+00 0.000000000000000e+00 1.038824927240161e+00 4.193215529783378e+00 0.000000000000000e+00 6.140477785890850e-01 3.877958985257381e-01 0.000000000000000e+00 5.876865370665139e-01 4.641260454764261e-01 0.000000000000000e+00 4.985233412333956e-01 3.890769376372188e-01 0.000000000000000e+00 8.505257454769971e-01 4.304742794075727e+00 0.000000000000000e+00 9.249760607483019e-01 4.240686137320751e+00 0.000000000000000e+00 9.136899430584577e-01 4.366528851416208e+00 0.000000000000000e+00 1.217721174034548e+00 4.795799111255508e+00 0.000000000000000e+00 1.286316001784507e+00 4.713364343843550e+00 0.000000000000000e+00 1.330893336073056e+00 4.802100079534701e+00 0.000000000000000e+00 1.406791892218053e+00 4.712958382166945e+00 0.000000000000000e+00 1.286316001784507e+00 4.713364343843550e+00 0.000000000000000e+00 1.364646262478820e+00 4.592415066635965e+00 0.000000000000000e+00 1.406791892218053e+00 4.712958382166945e+00 0.000000000000000e+00 1.520349647702894e+00 4.725934894083145e+00 0.000000000000000e+00 1.444546878142265e+00 4.805729320756690e+00 0.000000000000000e+00 1.053976804423518e+00 5.111783379913616e-01 0.000000000000000e+00 1.058169957782242e+00 6.325564283781506e-01 0.000000000000000e+00 9.731998290332249e-01 5.704471431595811e-01 0.000000000000000e+00 9.457540055120633e-01 4.479990664125721e+00 0.000000000000000e+00 9.632120590257134e-01 4.593187479877926e+00 0.000000000000000e+00 8.488186929971376e-01 4.554461656195955e+00 0.000000000000000e+00 9.457540055120633e-01 4.479990664125721e+00 0.000000000000000e+00 9.136899430584577e-01 4.366528851416208e+00 0.000000000000000e+00 1.014058322891562e+00 4.409974741154480e+00 0.000000000000000e+00 7.146634246400515e-01 2.040887189500951e-01 0.000000000000000e+00 7.694604707706209e-01 2.730531642794763e-01 0.000000000000000e+00 6.726976395708967e-01 2.876661831819204e-01 0.000000000000000e+00 5.818851688336567e-01 3.023927590216423e-01 0.000000000000000e+00 6.726976395708967e-01 2.876661831819204e-01 0.000000000000000e+00 6.140477785890850e-01 3.877958985257381e-01 0.000000000000000e+00 1.014058322891562e+00 4.409974741154480e+00 0.000000000000000e+00 1.102033040334790e+00 4.388774056858976e+00 0.000000000000000e+00 1.052086496550295e+00 4.507933889775317e+00 0.000000000000000e+00 4.209153525333582e-01 7.498504268552800e-02 0.000000000000000e+00 3.157894736834524e-01 0.000000000000000e+00 0.000000000000000e+00 4.210526315779366e-01 0.000000000000000e+00 0.000000000000000e+00 1.691353031592377e-01 4.630297596376645e+00 0.000000000000000e+00 8.942628353205506e-02 4.620093306112614e+00 0.000000000000000e+00 1.385973799677695e-01 4.526400513386682e+00 0.000000000000000e+00 0.000000000000000e+00 4.591836734693878e+00 0.000000000000000e+00 0.000000000000000e+00 4.489795918367347e+00 0.000000000000000e+00 6.272666977118209e-02 4.533107743441798e+00 0.000000000000000e+00 6.272666977118209e-02 4.533107743441798e+00 0.000000000000000e+00 8.942628353205506e-02 4.620093306112614e+00 0.000000000000000e+00 0.000000000000000e+00 4.591836734693878e+00 0.000000000000000e+00 1.799696768310902e+00 3.849467768943328e-01 0.000000000000000e+00 1.689211001472062e+00 4.529014916071041e-01 0.000000000000000e+00 1.686356173437979e+00 3.249782898249454e-01 0.000000000000000e+00 1.686356173437979e+00 3.249782898249454e-01 0.000000000000000e+00 1.689211001472062e+00 4.529014916071041e-01 0.000000000000000e+00 1.587728198134857e+00 3.856392649237406e-01 0.000000000000000e+00 1.769553905740010e+00 4.371856910377475e+00 0.000000000000000e+00 1.671379238171647e+00 4.355565825994195e+00 0.000000000000000e+00 1.742362910288180e+00 4.274686612473190e+00 0.000000000000000e+00 2.358029283033816e-01 6.115643578091313e-01 0.000000000000000e+00 3.359160269493546e-01 6.613119939081207e-01 0.000000000000000e+00 2.363841735149307e-01 7.296874934688182e-01 0.000000000000000e+00 1.807134692036463e+00 4.570268112811003e+00 0.000000000000000e+00 1.697248708035143e+00 4.555627372102794e+00 0.000000000000000e+00 1.789234515049053e+00 4.469528438896718e+00 0.000000000000000e+00 1.923020723436804e-01 4.226788259659692e-01 0.000000000000000e+00 2.984553457856924e-01 4.475639080980484e-01 0.000000000000000e+00 2.220588771909371e-01 5.108576444228085e-01 0.000000000000000e+00 7.368421052615994e-01 0.000000000000000e+00 0.000000000000000e+00 8.421052631561770e-01 0.000000000000000e+00 0.000000000000000e+00 8.134038824017621e-01 8.223092854573356e-02 0.000000000000000e+00 8.134038824017621e-01 8.223092854573356e-02 0.000000000000
[...]
<PointData Scalars="conc_conc," Vectors="" Tensors="">
<DataArray type="Float64" Name="conc_conc" format="ascii">
9.521334424558321e-08 -2.262676633269382e-08 -2.501020325638232e-08 1.530155382503818e-07 3.147428436289637e-07 -1.045999049313270e-07 3.469116798477140e-07 3.239992594812223e-07 1.766509009618177e-06 2.272985346216423e-05 2.028141696560567e-05 2.296501998994947e-05 1.960414167988867e-06 4.431438054909746e-07 -9.492371706978980e-07 1.907879841679769e-05 2.142188719351550e-05 2.109627757170534e-05 1.658967065636985e-07 -3.225635740299680e-08 1.512860352051506e-07 9.864052812463265e-03 9.893909985192706e-03 3.692057184034681e-03 5.030099764602793e-05 5.821928838443658e-05 4.922230021342310e-05 3.109185564899880e-07 -7.470408286632694e-08 -1.020888502715203e-07 4.051290272833836e-05 4.499736278832294e-05 3.846484967219511e-05 1.123041522961601e-06 -2.366140750075261e-07 1.158058335944546e-06 2.092304945748971e-06 -3.890340912172923e-06 2.560831267450195e-06 1.973748528517981e-02 9.992489689307417e-03 1.116432053426146e-02 4.803571015621090e-05 5.038269441657435e-05 4.277843804641506e-05 -2.130799424470651e-08 -1.866546321031636e-08 -2.514808570354846e-08 -1.741155970110643e-03 4.728916618291622e-03 5.425177736475745e-03 1.203663770118573e-05 1.634476773029932e-05 1.343083320180311e-05 1.946628184616097e-05 1.494489713087970e-05 1.296607859084778e-05 1.655053352367120e-05 1.165945298930871e-05 1.317157798950163e-05 2.026728690323553e-05 1.672841151252917e-05 1.309241292150219e-05 -2.001043328843821e-04 -2.163572040079796e-05 7.741732625992483e-06 4.835526337979062e-06 -4.861564892143245e-06 -1.064325684669523e-05 1.951389013112878e-02 1.140765644520394e-02 2.695312093341451e-02 4.780903523592054e-05 4.299025245437511e-05 4.116729909406004e-05 1.951085954043058e-05 1.290101458557547e-05 1.714241593352857e-05 2.390260606053214e-06 -4.397607722520607e-06 5.801339451865007e-07 2.963689721065993e-05 3.436183631026832e-05 3.529224000341601e-05 -2.911497578391820e-05 -5.747607998601538e-06 9.301174182335435e-07 3.321081155914053e-06 -3.682435215832093e-06 2.938674423474142e-06 -1.953933182187050e-04 -2.506339149538426e-05 -2.356046225206869e-04 -5.326478051151609e-04 2.067785767174939e-03 -6.182720083955781e-04 1.185703712277114e-05 1.319165418555837e-05 1.210008596214594e-05 7.277718560526792e-07 1.078465814593690e-06 -6.555156704100359e-07 1.709734487099972e-06 -1.798240552049496e-06 1.518611306583721e-06 1.817548603839523e-05 1.667897492608698e-05 2.249744317746576e-05 2.807601368241665e-05 2.267456322378084e-05 2.941108073952216e-05 9.935696560465980e-07 -1.167239808503736e-07 1.125412383983759e-06 2.362810959507783e-05 2.131319162037955e-05 2.201752573541796e-05 -1.244631777288888e-04 -2.018639484934831e-05 -9.390143172165731e-05 4.073410652435853e-06 -3.476887640770506e-06 -1.378290677146828e-05 -1.563473647677745e-05 -1.360634224512753e-05 5.549194013716847e-06 3.148103305642718e-05 3.834609186717663e-05 3.276364552589466e-05 3.267187772797170e-05 3.860670528778103e-05 3.669326619560773e-05 1.578186359947418e-03 9.680768855122455e-03 3.674476262286252e-03 4.194155080650917e-05 5.037733940537923e-05 4.898829181067149e-05 -1.210635030497032e-03 3.863193731063022e-03 3.900080657314443e-04 3.119025482829593e-05 3.683450669653241e-05 3.625598165507900e-05 1.340523405023228e-05 9.729451369809223e-06 1.146954125159759e-05 1.156652409004498e-05 1.657556434057028e-05 1.339317756888301e-05 1.031382248413014e-05 1.174836021236601e-05 1.404576987427046e-05 1.811742107447610e-05 1.680113464110243e-05 1.415168031541087e-05 1.819641892335472e-05 2.261418967664864e-05 2.322343703308936e-05 -4.027186166372677e-05 7.094553293347856e-07 -1.808065699912055e-05 -1.624657165558059e-05 2.332476577196960e-06 -4.420613017178222e-05 -6.841683849464912e-05 7.403485798255501e-06 9.308427679451563e-07 5.073074369825994e-05 4.772339250752455e-05 5.362495227046130e-05 5.059517917483165e-05 5.378492366242458e-05 5.820461459680696e-05 4.515840418818859e-05 4.039504194393653e-05 4.680355774232054e-05 4.497540989929124e-05 4.704103737676175e-05 5.273012508559643e-05 1.212258079350439e-02 1.181609007600562e-02 1.626752101739570e-02 8.576855351247071e-03 1.762251909557168e-02 3.993072978790010e-03 8.428984166541414e-04 8.168955276508919e-03 3.949507637693271e-03 -1.124405143655179e-07 1.058087980240857e-06 1.100529361700142e-06 1.677689947368859e-03 -5.028563917673001e-04 8.103138288412151e-03 1.005227445881868e-02 1.255077612234205e-03 9.016731128467702e-03 4.199476027617898e-05 3.626226681517802e-05 4.267177115440254e-05 5.017344213935580e-05 4.214230553014252e-05 4.262023357862242e-05 4.197059028638449e-05 3.653925965990188e-05 3.883846938084457e-05 4.511706881381678e-05 4.215295658070968e-05 3.864579914823446e-05 1.716417706304144e-06 3.887355545718132e-06 -1.873883745047668e-06 7.877527056905698e-07 6.003039635172670e-07 -2.436249743170046e-07 6.817277465722924e-07 -1.786861197347382e-07 -9.311401604138418e-08 4.020853283888952e-07 3.498040453486889e-07 -1.404965955546681e-07 1.159980290588935e-05 1.038682620960849e-05 8.613284517096069e-06 4.879018088739130e-06 2.957792150346006e-06 -8.521696632729987e-06 8.651358031880662e-06 -1.247120647161483e-05 -1.222273810379407e-05 -1.596728647552984e-04 -9.082594173248596e-05 2.324578311829556e-05 1.660223970019041e-06 -1.427602337893586e-04 2.371997570331083e-05 7.327095582573289e-07 9.323815934703668e-07 4.648491485370644e-07 6.530182833013685e-07 4.237756138802295e-07 3.786393850997303e-07 1.141025635864615e-06 1.444611287480948e-06 -1.710669641735456e-06 2.778364406662089e-06 -2.386117626551998e-06 -5.529862168121253e-06 3.429511483187395e-05 2.950893093853220e-05 2.808105334208659e-05 3.271895698623559e-03 2.579235834379636e-02 7.827644064893065e-03 1.979465874254173e-05 1.311475244108513e-05 1.660679197954795e-05 2.786062229329324e-05 2.959335580051529e-05 2.059808192227024e-05 2.773793045767731e-05 2.055134559865712e-05 2.012137782754364e-05 -2.668825724945517e-06 2.308298794494354e-06 1.616147149304991e-06 -3.426665295755145e-06 2.147439381349587e-06 -5.075144419325490e-07 1.665451278527690e-05 1.812922054736976e-05 1.409856761532635e-05 1.651023655794608e-05 1.417089609120321e-05 1.170197355969700e-05 -1.522845503917701e-03 -9.591125298994181e-04 4.464506600777195e-03 5.005614776735561e-03 -2.722303081428007e-03 5.970588792782562e-03 -8.303148040499664e-05 -1.914629897149647e-04 -5.058819501634932e-06 -6.769391197664340e-05 -1.192791214445473e-05 4.526856796182393e-06 -1.920134349277567e-04 -3.632567446780075e-04 3.401743482589596e-04 -1.187275493733196e-03 -1.084928816436788e-04 3.752919069206928e-03 3.120707197524810e-05 2.719333262852113e-05 3.146160747735691e-05 3.131918840479175e-05 3.144202071622025e-05 3.669143596325622e-05 2.791580365045290e-05 2.965772341265046e-05 3.516955810833760e-05 2.910527486475000e-05 2.816352801244198e-05 3.490192615730145e-05 1.168199563507789e-05 1.380992863168723e-05 1.676257279355584e-05 1.314375318254550e-05 1.167570809860871e-05 1.675497780601265e-05 2.074827841863020e-05 2.940381078047870e-05 2.258180487147368e-05 2.059832904374592e-05 2.257671918339373e-05 1.660538080874340e-05 4.210647992553641e-06 1.514903979282624e-07 -1.223555675946361e-05 4.686472067104686e-06 -1.277112644321026e-05 -3.428698769237876e-06 2.796429136547861e-05 2.313054717751949e-05 2.277700683893404e-05 -1.960604141936098e-05 -1.195227804595284e-05 -8.682596959321847e-05 1.162727898390379e-05 1.034480667290824e-05 1.402456311307540e-05 1.151758822399939e-05 1.413881152539079e-05 1.669846829698777e-05 3.680688643484727e-05 4.254138089410524e-05 3.639204954970091e-05 3.690178940619828e-05 4.139417693818158e-05 4.274355528246901e-05 5.580537216295233e-03 8.467549389108596e-03 -8.547009424609617e-04 -4.017495109638125e-03 3.599225792847659e-02 4.823156563615775e-03 8.379911443380671e-03 2.950543025183201e-02 8.617460678837303e-03 3.227682925361892e-05 2.911372983894170e-05 3.508759632411313e-05 5.068455163229826e-02 1.086497258652936e-02 2.416501866338536e-03 2.649357961266410e-02 4.439107626272248e-02 7.572476540768223e-03 7.708309380297920e-03 3.632861208614292e-02 3.050871441592481e-02 3.033010439649277e-02 -6.511002777729746e-03 7.823689613454683e-03 6.106621564307335e-03 -7.645897466226408e-03 3.281538683991504e-02 1.732690981021792e-02 1.284188211278543e-02 6.174891116772498e-02 1.560783890095973e-02 5.400156376633492e-02 1.345268099428536e-02 3.199008388291719e-05 2.863989624290400e-05 3.101451930340273e-05 -1.647423978267324e-05 3.047672246669079e-06 -3.627533209896123e-05 3.005526477217814e-05 3.360551607830248e-05 3.372728763552375e-05 4.060447416379852e-05 3.785855541619324e-05 4.230501235604225e-05 3.955932625718702e-05 3.550227511509551e-05 4.023245006284535e-05 -5.542096278065230e-05 -4.083652067151511e-05 -5.226217383347048e-05 5.602387259340573e-10 -3.714450804719794e-10 -5.500224421274525e-10 1.750171308793954e-05 1.346966183563484e-05 1.656818535208290e-05 2.310760385643246e-05 1.670674974903488e-05 1.824044955491158e-05 8.772057801374091e-08 4.141182588808464e-06 1.577423005872445e-06 1.772608837943605e-06 -2.395269121396431e-07 -4.347050115801556e-07 4.804760526782207e-05 3.235155626746492e-05 -1.443741832330570e-04 5.187198160209393e-03 7.178873658321889e-03 -5.326055582484161e-03 1.418146180956682e-06 -8.876515459183584e-06 5.255175902021251e-06 5.251037019956704e-06 -9.188657106161829e-06 1.556429543178659e-06 2.329107614399270e-07 2.184178549958849e-07 -1.034952737556425e-07 -2.490510954939702e-07 3.940299865673184e-07 7.397764889299110e-07 2.009709132701890e-05 2.024643893788347e-05 1.806504178052063e-05 2.301582012235089e-05 2.018812876015632e-05 2.021917624936140e-05 2.225192773430931e-05 2.182294988825941e-05 2.520310251200319e-05 1.024333787527182e-04 7.819231207058616e-05 5.814566403707867e-05 6.354045440063256e-05 7.567275083675117e-05 9.961164846818345e-05 1.042407935990779e-04 1.030804740454366e-04 8.316521716018179e-05 4.610477892930550e-04 1.274486839813633e-04 4.245380345310858e-05 1.300120909754543e-04 1.758821632863244e-04 3.210228677688786e-04 2.850846907612063e-04 1.467600028133480e-04 1.068778063598796e-04 8.019351564308354e-05 9.537662752155203e-05 1.662714258162538e-04 1.868207357684729e-04 1.099518452738916e-04 9.517310004248836e-05 4.422403616505255e-03 3.258662700210312e-03 2.455452690962846e-03 2.246220427732017e-03 1.295019907578726e-03 1.032304544092552e-03 1.166576888732303e-03 1.455504815837587e-03 2.313788974608815e-03 1.672415711277369e-04 1.852382186372247e-04 1.651625868539125e-04 1.651249711134670e-04 1.489331824083791e-04 1.670288768475914e-04 1.760977179447066e-04 1.939731016406395e-04 1.665014796186541e-04 1.668875301956038e-04 1.495404618539316e-04 1.753772903234717e-04 -3.030877723068984e-05 -5.020049697830867e-05 1.673350715748698e-04 5.906134306966788e-05 4.898417438112430e-05 3.222407139770593e-05 6.154058327238106e-05 5.755113881598107e-05 4.364574869258194e-05 1.159737160376925e-04 9.401721698069611e-05 4.408632371317578e-05 5.214816305595114e-05 1.086179494588683e-04 1.306081206883889e-04 4.993572146758266e-04 4.226201137484937e-04 2.865891604233795e-04 3.151887413069598e-04 4.518263850859294e-04 4.925353229692566e-04 5.924270819524942e-04 6.620360905174353e-04 9.209907983773472e-04 8.995106429860372e-04 6.137251548961545e-04 5.554792007546196e-04 5.734298377379609e-04 1.261598255358261e-03 1.147693404186678e-03 1.330537009851050e-03 1.420020761000225e-03 7.240719376651102e-04 7.804571868350487e-03 1.223191036224662e-02 9.732318269236312e-03 8.121098019526650e-05 9.285345201900719e-05 7.599944081301370e-05 7.125121543978149e-05 6.395423810766791e-05 7.637059353527569e-05 3.044158043619088e-04 1.436199010630114e-04 2.929372697533167e-04 3.285750343386326e-04 1.732577014072901e-04 3.457359032396450e-04 2.307637749777958e-05 2.105950402552973e-05 1.819669601199904e-05 -1.446003906977508e-04 1.354210310692536e-04 -3.369077281678075e-04 6.360869674786979e-05 6.354465292279004e-05 5.404587458550336e-05 6.264230018956741e-04 5.096186941407630e-04 5.447675309475989e-04 6.974708922904393e-04 5.048787681161974e-04 6.301834501116082e-04 5.483256295216982e-04 5.016709826453105e-04 6.423036540009617e-04 1.332427463577110e-04 1.103617641692117e-04 1.822348681750423e-04 1.841113384456289e-04 1.087125415321026e-04 1.887255051185188e-04 1.644830472686899e-04 9.544540422553241e-05 1.189479708421772e-04 1.683849916257506e-04 9.379735290516695e-05 1.663077993474614e-04 1.436503688099212e-03 2.007065945506458e-03 4.082332160222040e-04 5.708489151814371e-04 1.782135086339669e-03 1.506673964284504e-03 3.246917161973405e-04 3.167946044787641e-04 4.889521545429504e-04 3.220887819771714e-04 2.799306424904293e-04 1.910979149339255e-04 4.945503167670661e-04 2.889653153667877e-04 3.011862055060691e-04 1.702187801355585e-04 2.609093695629489e-04 2.987359541010790e-04 2.667559547634736e-03 7.466012050363065e-03 4.526016422040281e-03 2.792478629013228e-04 2.189336985479919e-04 2.644563220702938e-04 2.585035348860924e-04 2.246250312317992e-04 2.816714998947670e-04 4.170886820269442e-04 5.484582938364071e-04 5.034018580692635e-04 4.121946201876658e-04 2.614547165778715e-04 3.435870709919235e-04 4.974983413386119e-04 5.510157186851099e-04 4.303055465511641e-04 3.560629603171810e-04 2.809207042935084e-04 4.271406582115071e-04 2.993719433418596e-06 1.901451691578989e-06 -7.961034425551719e-07 5.245362548254647e-03 4.592872832728777e-03 4.223721023438389e-03 4.412257341655622e-03 3.627350158695611e-03 5.046375125142091e-03 5.208387542772525e-05 4.705126424116598e-05 5.237772801453395e-05 1.826307161411960e-05 2.079820630312773e-05 1.585289636963557e-05 1.839233876173645e-05 2.088572512962760e-05 1.632309845077959e-05 6.147251715224329e-05 6.399384367968790e-05 7.112960650872533e-05 7.081010667169340e-05 6.229571230824095e-05 6.185742695892937e-05 1.531945597479620e-05 1.787549574362895e-05 1.661964646657228e-05 6.966476018608955e-05 6.201621910951747e-05 7.110503388400916e-05 1.961732228416434e-05 2.093809971024054e-05 2.496709169747121e-05 2.427205666561649e-03 1.289153704613949e-03 2.272926843978324e-03 2.332373735516944e-03 1.454814592431367e-03 2.528323214385049e-03 1.895771399793239e-05 2.921424086118187e-05 2.698879268539412e-05 2.134913609472312e-06 6.155707454769625e-07 1.347537556078328e-06 2.556448158197830e-05 2.145415071212356e-05 2.324010675198751e-05 2.057018404886056e-05 2.223663584311142e-05 2.375660219659361e-05 2.404513236633939e-05 2.187746876754972e-05 2.559314084453754e-05 2.903083856183914e-07 8.927928288734269e-07 -2.852547647857007e-07 3.235009696493230e-06 -2.527058171021139e-05 6.342642242394793e-06 2.434511049211375e-05 2.104655892439615e-05 2.397059624190032e-05 5.417477713753030e-05 6.337028732689536e-05 5.385843227657430e-05 1.451715867621339e-05 1.494351137597814e-05 1.537347775159754e-05 1.905433805812471e-05 1.822771801877155e-05 1.524852576229384e-05 1.533488671253465e-05 1.516751617604851e-05 1.895464736034262e-05 7.076132127149062e-04 6.416706626958191e-04 7.390368783942563e-04 7.090885947980658e-04 6.198991838791066e-04 7.261195241756251e-04 2.063186712721024e-10 -9.207503743979886e-09 -1.565252383127416e-08 3.749651631700126e-10 -1.031445811086506e-08 7.226645487643119e-10 3.033035539158026e-04 3.715048594478937e-04 4.627263949335288e-04 4.404600328995976e-04 3.491392287149106e-04 2.842336619701435e-04 2.091557928142587e-05 1.950866260405474e-05 1.506771037858499e-05 1.514805173914256e-05 1.579181994530480e-05 2.079241523307202e-05 4.108838580970401e-05 4.217779364534039e-05 4.869045403215135e-05 4.867270528181044e-05 4.186298443364169e-05 4.540765570686195e-05 1.156141609687914e-04 2.218094851099142e-04 1.617315824243484e-04 1.754692096563070e-04 2.321910347041275e-04 1.271566460011876e-04 4.497790700603078e-03 9.022434166741375e-04 4.510923110770704e-03 -9.169789932822041e-08 5.015580095072881e-07 2.215531636819380e-06 2.467423738013482e-06 3.816523514811660e-06 -2.409052200453368e-07 4.200862468934217e-05 4.845740476918055e-05 4.030472214972690e-05 4.019347349132484e-05 4.853391817034388e-05 4.066274076041489e-05 1.608939077418279e-03 3.365803875324857e-03 -1.482923135582126e-04 2.081319692204850e-05 1.706881989395375e-05 1.353134235161153e-05 5.843392641586318e-04 1.139010494603234e-03 3.384083372120124e-04 1.658101116684214e-04 1.505192327376455e-04 1.459889881179679e-04 1.416666751736035e-04 1.512212359133150e-04 1.657987115247846e-04 4.624586731885655e-04 1.321332723188278e-03 7.316757963001021e-04 8.005143619569119e-03 8.910695421629766e-03 1.262687466530426e-02 4.765452058448686e-03 9.191518750453700e-03 7.576697542682472e-03 4.921327126264018e-04 -1.063524926861358e-04 1.855895816189592e-04 2.082743251595793e-04 -1.065400047012231e-04 4.891973162852477e-04 1.383640002632776e-05 1.353908794025262e-05 1.013743653116386e-05 -3.067967970085114e-05 -7.571658311846412e-06 -3.617149723009242e-05 3.063982812571072e-05 3.638549354829219e-05 3.216890380545305e-05 3.201572021100762e-05 2.736262256246596e-05 3.075506388849781e-05 4.817858948506379e-04 1.236943611304788e-03 5.823395492032171e-04 7.310151115335033e-04 1.397396206845582e-03 6.054898787193206e-04 -5.876857918353566e-08 3.008682189561157e-07 -1.096824159672308e-07 5.441536366707128e-04 4.221993603892880e-04 4.600277550920724e-04 4.620467972891310e-04 4.185251198815955e-04 3.429189292105994e-04 4.619446705411879e-04 4.356819669940568e-04 5.459738638621378e-04 3.556663681374833e-04 4.321644666674937e-04 4.643066650857604e-04 5.258401329965886e-05 5.744629384694947e-05 6.295688660668015e-05 6.731485813713677e-03 1.255606567941215e-02 7.033238099553970e-03 1.137387940604563e-02 1.274355850888261e-02 6.615103955867292e-03 1.667585869528695e-04 1.336303235747789e-04 2.666899838770086e-04 3.298082150271834e-04 4.511905974824587e-04 2.659487086472860e-04 2.700742254636552e-04 1.299723612658048e-04 3.215854202594146e-04 2.367193471165181e-04 1.101888181116655e-04 1.435687731559967e-04 2.355824636052542e-04 4.206971348289605e-04 2.942740681183954e-04 2.860760809832707e-04 1.063422236065370e-04 2.401063407999552e-04 3.124057684210345e-03 7.995319430747430e-03 1.012944088918815e-03 5.522169478397067e-07 -1.924427495844387e-07 2.248789861251230e-07 4.058278567527889e-07 5.143983236035466e-07 9.501505703222408e-07 4.740171690201488e-03 7.161899298929832e-03 1.160162205170936e-03 1.082901849807008e-03 7.221113379722584e-03 2.578092062924036e-03 -7.138070043178087e-04 3.372424577316153e-04 -2.877422616421217e-04 4.221363114700860e-05 4.700356666858009e-05 4.583818045602310e-05 2.069780463180968e-05 1.733708501689531e-05 1.686043255028971e-05 2.071316062989376e-05 2.331004916031465e-05 2.467177966433848e-05 1.683502328984390e-05 2.306382607311032e-05 2.083561293552131e-05 7.162271039095281e-05 6.303521320236837e-05 1.001545779562678e-04 7.054757580140021e-05 1.246853873471106e-04 1.003708037423182e-04 1.011324160623374e-04 1.241266670002094e-04 7.124032939259015e-05 -3.385950977447453e-05 -5.526566312311810e-05 3.623142591396733e-06 2.138217663896202e-05 1.477098255239710e-05 1.989263891599679e-05 2.171953446088737e-05 2.908552424777172e-05 1.907294830263366e-05 1.912233296111370e-05 1.478765883718162e-05 2.139396203498417e-05 -4.384027335347916e-04 1.521947486569725e-03 -1.094762788948754e-03 2.514876896780796e-05 3.133527663028579e-05 2.723819545269975e-05 1.038649618620897e-04 8.344179498599234e-05 8.562179133458423e-05 1.002802424229324e-05 1.042154224870785e-05 1.327955753967841e-05 1.333522151839361e-05 1.182604595262079e-05 9.987424148053013e-06 3.543700734102055e-04 1.588225363719047e-03 1.114033662434414e-04 1.647808347700333e-03 1.718047807132193e-03 3.116220038496601e-04 3.484366633690004e-05 3.631953166057540e-05 4.177196120022164e-05 5.464695956855994e-04 6.440323927586847e-04 5.987607008417943e-04 6.126568805138256e-04 6.254747660765349e-04 5.477188864899931e-04 2.587226306156051e-04 -1.695393568741307e-04 -2.452357263188075e-04 -9.280256668656579e-05 -8