<?xml version="1.0"?>
<VTKFile type="UnstructuredGrid" version="0.1" byte_order="LittleEndian">
<UnstructuredGrid>
<Piece NumberOfPoints="568" NumberOfCells="1054">
<Points>
<DataArray type="Float64" NumberOfComponents="3" format="ascii">
0 0 0 0 0.050000000000207989 0 0.058433525112266523 0.058433525112214509 0 0.032369857048753323 0.032369857048862027 0 0.049999999999899652 0 0 0.099999999999814668 0 0 0.094457855579284614 0.040058458469418363 0 0.098076845682915317 0.099172414730993488 0 0.040058458469319477 0.094457855579157729 0 0 0.10000000000041601 0 0 0.15000000000062411 0 0.054872692726595548 0.13410685639845171 0 0.038839999600931263 0.17949825993190149 0 0 0.20000000000083221 0 0.056452228708379938 0.23456580837661581 0 0.099694771212264055 0.22074048840547039 0 0.08287507656968085 0.1788186348829835 0 0.089689702191541126 0.13851380458662241 0 0.12294765968567151 0.14825146416195439 0 0.16901316006868169 0.16800219386663079 0 0.12587517708284679 0.1889683322666954 0 0.15899695163321451 0.22783674912227669 0 0.20596721135052939 0.19972517895396219 0 0.2115548431873881 0.2417444767741872 0 0.18922011052115781 0.12644206653611201 0 0.22626394058331961 0.15465946819838111 0 0.21720615046484709 0.1044394548351292 0 0.1484760565886207 0.1122209074004519 0 0.18172590289758209 0.08161197406129285 0 0.18035159017842109 0.039190336535090492 0 0.1383574446607988 0.058995933918849157 0 0.14999999999970359 0 0 0.19999999999955789 0 0 0.23167460333446299 0.05534377469531044 0 0.24999999999941211 0 0 0.29999999999926641 0 0 0.28320804985300141 0.050843339082505573 0 0.25714619498771307 0.1041399906845497 0 0.29506339503703888 0.1011380892434444 0 0.32242731191769902 0.068937933438140794 0 0.33076700644279272 0.1195922550481146 0 0.35582258519414178 0.085418764257258431 0 0.36246243089534252 0.044218366607477223 0 0.32361955853288599 0.032799927825624707 0 0.34999999999912063 0 0 0.3999999999989749 0 0 0.40685581827241191 0.041139877312511682 0 0.44999999999882923 0 0 0.49999999999869432 0 0 0.48492433058289169 0.037321398276272413 0 0.44692795014265252 0.051801877645060238 0 0.47574662421782782 0.077626823840590969 0 0.46567857652706018 0.1143680615275231 0 0.43122735573933979 0.088176999192917438 0 0.39061628640684498 0.081525103161991672 0 0.37516171960683908 0.121918126660369 0 0.3972892400718947 0.16563993209502181 0 0.43240736009008851 0.18205680965402779 0 0.41732862935313042 0.12986698634362279 0 0.45952001838826873 0.15666487330524251 0 0.46229330881044273 0.19890916456654811 0 0.49999999999997108 0.21968641114982909 0 0.42421838472613971 0.22246502005787769 0 0.38103425680679859 0.2047839516297037 0 0.33179683980498331 0.2223019939720311 0 0.3603074848216346 0.15401470087110539 0 0.33080167595110582 0.18179111300269291 0 0.29914271679297122 0.15649620970120659 0 0.26318949769601319 0.14610173397257309 0 0.26017196519013502 0.20370391303005 0 0.30107969069289831 0.20280020009141189 0 0.28840285102268098 0.24960955320708811 0 0.25082138072344978 0.25770010742236849 0 0.29747949118041711 0.2964111573808435 0 0.26014443552207939 0.29262390443653519 0 0.28473805236128291 0.34355768118673757 0 0.3231032570156932 0.32141443408924047 0 0.34804757266227387 0.35750068079406011 0 0.35481435458309307 0.30398436674998969 0 0.32373692627050221 0.27286413781593999 0 0.3579628846738841 0.25683522786710378 0 0.40180462628983732 0.2561903397585753 0 0.39162098771181342 0.29503699292854563 0 0.43059486795334201 0.30395973419063538 0 0.45533136021725079 0.2525687312087147 0 0.48378871228000903 0.29745177826977359 0 0.47253211736503098 0.34081710830804929 0 0.49854341599767982 0.37075914768127122 0 0.43301393728221038 0.35984320557492139 0 0.39120887188745579 0.33407577688404289 0 0.39222057657781068 0.38067796690227418 0 0.39419886675318527 0.41912225240070788 0 0.42930823106401639 0.40626685012722968 0 0.46543211128216788 0.38788423543681888 0 0.46102425708533701 0.43254199134332588 0 0.46152714345798918 0.47344359412352599 0 0.41009598069569558 0.49083935749285379 0 0.42340342337193693 0.44762131874855388 0 0.37702386074717259 0.45819417564476811 0 0.33436424489304489 0.47849603121740791 0 0.33382663527330159 0.44130125047503482 0 0.35481422397128459 0.40312981465069342 0 0.2963043386970643 0.4298320229681446 0 0.30597655500381687 0.3934681685211931 0 0.25582605936799319 0.39507969989513358 0 0.26247584734598628 0.44764943295894732 0 0.29988655052531688 0.46700727827593119 0 0.262418491288269 0.49071922292154141 0 0.23232476702437141 0.46634525369567709 0 0.19218127164496679 0.46593838964869538 0 0.16001314202358469 0.49771727055909287 0 0.1444847662218138 0.45353891581271188 0 0.17845774482872559 0.43087117257049429 0 0.14869578771858949 0.40481452396082068 0 0.197169318452384 0.38703015239362498 0 0.21968801783855879 0.43306783640023788 0 0.22269553095687891 0.35837423432538801 0 0.19152147653881049 0.32791879770215432 0 0.2360419540479583 0.32191828326940741 0 0.22001518176882229 0.28602682846307981 0 0.1685376717739448 0.27232483159280108 0 0.14392209494791439 0.30620070203545702 0 0.15401470087117619 0.36030748482174652 0 0.073296788161418117 0.34226957089850552 0 0.11603400219493119 0.33748134585014028 0 0.099492119481027347 0.30746398533281638 0 0.1104775404132264 0.2631175359816938 0 0.053730171687646627 0.28825077189828552 0 0 0.25000000000104028 0 0 0.30000000000124832 0 0.032220921767546963 0.32901489214487523 0 0.033457646040922301 0.36364842331228431 0 0 0.35000000000145642 0 0 0.40000000000166441 0 0.06053051438015096 0.39514626428972788 0 0.10935320311385981 0.37839190921727089 0 0.097100979577207341 0.43590673999053198 0 0.1091992745981364 0.48758069708049778 0 0.064893331803534807 0.48669777060454478 0 0.043612803661092707 0.44006111182840391 0 0 0.45000000000187229 0 0.029444907164209121 0.47500000000196552 0 0 0.50000000000205869 0 0.037321398276215258 0.51507566941747263 0 0.051801877645083663 0.55307204985745195 0 0 0.55000000000173355 0 0 0.60000000000138687 0 0.041139877312483641 0.59314418172763017 0 0.088176999192898689 0.56877264426067353 0 0.081525103161997597 0.6093837135931508 0 0.1219181266603569 0.62483828039315903 0 0.1143680615274819 0.53432142347292733 0 0.07762682384055844 0.52425337578226128 0 0.1566648733051971 0.54047998161174216 0 0.2196864111498267 0.50000000000003153 0 0.1989632851005598 0.53769147668950479 0 0.2224870800581388 0.57577541371134155 0 0.2047839516296828 0.61896574319320252 0 0.1656399320949789 0.60271075992809464 0 0.18205680965398621 0.56759263990989739 0 0.12986698634359389 0.58267137064684615 0 0.1540147008710982 0.63969251517836956 0 0.1817911130026923 0.66919832404888702 0 0.22230199397202771 0.66820316019503168 0 0.2028002000914135 0.69892030930711557 0 0.249609553207091 0.71159714897732929 0 0.20370391303007401 0.73982803480989479 0 0.1564962097012354 0.70085728320703999 0 0.13725179499972981 0.74154628962856628 0 0.091072812796719582 0.74198804864687795 0 0.099018722548963364 0.70475631558365193 0 0.1195922550481313 0.66923299355722787 0 0.085418764257258195 0.64417741480586865 0 0.068937933438162791 0.67757268808231053 0 0.032357843506722522 0.67660040198578164 0 0.04421836660747535 0.63753756910470205 0 0 0.65000000000104008 0 0 0.7000000000006934 0 0.04863291748797445 0.71789175274016204 0 0 0.75000000000034661 0 0 0.79999999999999982 0 0.052938001421335763 0.77688977118331159 0 0.11231692802445629 0.78020430794084028 0 0.086813039193431391 0.81709574086842884 0 0.1229476596857173 0.85174853583809695 0 0.087041706119416085 0.85382799508926188 0 0.052469033166843738 0.86696410734366991 0 0.043889462445437968 0.82675923981951283 0 0 0.84999999999965292 0 0 0.89999999999958358 0 0.040058458469322648 0.90554214442079806 0 0 0.94999999999979179 0 0.030452409610489669 0.96954759038951022 0 0 1 0 0.050000000000207989 1 0 0.058433525112254137 0.94156647488774581 0 0.10000000000041601 1 0 0.094457855579188163 0.95994154153068711 0 0.097990957645208238 0.90045039720880915 0 0.14688274318541941 0.88962265630811932 0 0.1817259028976386 0.91838802593888857 0 0.13834721989462789 0.94095916274077984 0 0.15000000000062411 1 0 0.18045991219397989 0.960710939969875 0 0.20000000000083221 1 0 0.23222643817617661 0.94420751116970569 0 0.18958721034944021 0.87660297360394568 0 0.22131139331094829 0.9041449437198319 0 0.22893929024737289 0.83990878992727813 0 0.1322615032692282 0.8130603300143705 0 0.17101873536300011 0.82898126463696109 0 0.16253691950235041 0.78284912262768558 0 0.20359074765364421 0.79422489417871855 0 0.24335844191347281 0.78651189793387466 0 0.28602682846308641 0.77998481823117594 0 0.32191828326940508 0.76395804595204586 0 0.35837423432538362 0.77730446904312345 0 0.32791879770213411 0.80847852346120164 0 0.36030748482174152 0.84598529912882459 0 0.30619531169472608 0.85607519768342955 0 0.27254997832041528 0.8312019486901443 0 0.26305414557470391 0.88949062093136155 0 0.30738136326657722 0.90051880305435028 0 0.25000000000104028 1 0 0.30000000000124832 1 0 0.28790752038294382 0.94635952848702642 0 0.32894624184180998 0.96779701826738929 0 0.35000000000145642 1 0 0.36363861612613613 0.96654491682121313 0 0.3422695708985129 0.92670321183858773 0 0.33748026778199908 0.88396545633134682 0 0.37839190921727062 0.89064679688614412 0 0.43590673999053309 0.90289902042279657 0 0.39514626428973221 0.93946948561985189 0 0.40000000000166441 1 0 0.44006111182840962 0.9563871963389079 0 0.45000000000187229 1 0 0.47500000000196563 0.970555092835793 0 0.48669777060454272 0.93510666819646593 0 0.48758069708049379 0.89080072540186539 0 0.49771727055908782 0.83998685797641781 0 0.45353891581270822 0.85551523377818905 0 0.40481452396081791 0.85130421228141606 0 0.43087117257049001 0.8215422551712771 0 0.38703015239361932 0.80283068154761972 0 0.43306783640023289 0.78031198216144404 0 0.46634612187967051 0.76767585524061377 0 0.46593838964869061 0.80781872835503554 0 0.49073113440598592 0.73759004618730417 0 0.44764943295894188 0.73752415265401661 0 0.46736891737654429 0.7001
[...]
<CellData Scalars="pressure_p0," Vectors="velocity_p0," Tensors="">
<DataArray type="Float64" Name="pressure_p0" format="ascii">
6.851497462880871e-13 2.7766008906728312e-12 2.9043146337806446e-12 6.5139914136636486e-12 3.6105826255365828e-11 1.26041747496849e-10 1.5803368275449479e-11 1.3750973053039493e-11 3.0458232521453499e-11 9.4790854346857308e-11 1.6769498234260266e-10 2.5795070922115942e-11 1.2818157804329945e-11 3.3603099796249023e-12 7.8550361495269846e-13 7.51775473836805e-13 2.4358729569174852e-12 2.8895959600945578e-12 7.8820358186581058e-12 6.5181775560176834e-13 1.1861828546146972e-12 8.1771077664149021e-12 2.5852794634523553e-12 2.1090876930126671e-11 3.8138184430054304e-11 1.6238123146625163e-10 5.9793414048777045e-11 9.0714708037335669e-11 1.7645665890380485e-11 4.7793563361072272e-11 6.4147620377494512e-11 4.6563545026459957e-10 1.2016903407752844e-09 3.0310575457174772e-10 2.0651905285014281e-10 5.5945514046378519e-10 1.7578190153025718e-09 1.7461608652084137e-09 3.5194307158759298e-09 2.5618107099561426e-08 1.3275115722256471e-08 1.6778503027285586e-08 3.644601039316417e-08 5.064468716972835e-09 3.8849644556929026e-09 7.5367414706291593e-09 3.6325097828262913e-08 1.842035133308642e-08 2.0654268233463903e-08 7.9205305936170289e-09 3.7847036900883384e-09 1.428885420103797e-09 2.2313237488244889e-10 7.0407776857630771e-10 1.2562252355859531e-09 2.4813491463662806e-10 7.9604939944983222e-10 2.116320169687184e-09 4.530225922344155e-09 6.3161009602357273e-09 1.6660736950945839e-08 1.356182738478573e-07 3.6729199378211087e-07 4.998398617491165e-07 5.1022709991145541e-08 1.2599482306897739e-07 5.4725434090002182e-08 9.0226517482398749e-08 3.1947955896973825e-07 1.3528289892713646e-06 5.9888187914334456e-07 6.1538210752634829e-06 2.8853341872725677e-06 2.1574264572006931e-06 5.0428509374652437e-06 1.4029600239697755e-06 9.6019536241351814e-07 2.1508153375644033e-06 5.7521817883203607e-06 1.2410751537366635e-05 1.0154925931044543e-05 4.8685590325031322e-05 6.5541403035581757e-05 3.5672258523033025e-05 0.00016603020837900647 0.00033368459528201178 0.00022617212774762152 0.00050618235039567513 0.00015661136867847514 0.00011802635493456595 0.00041087840687540429 7.4491476534973295e-05 2.8124732810017617e-05 2.3455430697244411e-05 1.3630645053175256e-05 6.7372792451434627e-06 1.4663639626801157e-05 7.1432753467874425e-06 1.8264395314064527e-05 2.9910026221985212e-05 6.7303330262114696e-05 0.00011244087049631839 0.00028447517757777937 0.00056815470392813558 0.00025994251546814862 0.00011281224861555767 7.0101540471307965e-05 0.00043677804091229197 0.00023609712653655047 0.0004366499900090951 9.583155422348057e-05 4.4422672523403011e-05 2.6776313905287508e-05 7.1382372634927731e-06 1.6602850555944779e-05 2.9514516178653083e-06 5.5046745900259211e-07 6.8972407372505492e-07 2.012328834191786e-06 3.0707618774847137e-06 2.9998506274865836e-06 1.5419020231633476e-06 6.9216359772987241e-07 4.3483398225706135e-07 4.1726258549937688e-07 1.6396380621768681e-07 9.4986617368769124e-08 1.4225783937455125e-07 1.698249131666634e-07 3.8679467740432123e-07 6.7993063435322573e-08 6.6021582392467991e-08 3.1767509676064937e-07 1.287122965302492e-07 1.1832559231727027e-07 5.2984158509642477e-08 5.0692430051868009e-08 2.8916841631354662e-07 6.8174795373802315e-07 1.5881235637340685e-06 5.3635109344288537e-07 3.938957931756031e-06 4.4821255263517443e-06 1.1228084628652158e-06 5.1535101887669621e-07 1.3357711615572033e-06 1.8884506835912253e-06 8.9151430613630441e-06 7.0273959399602538e-06 1.821586721136319e-05 2.1766148168531387e-05 5.1029198176642742e-05 0.00035175946997770301 0.00013774164430082909 0.00017703235073499008 8.846534701853755e-05 0.00047046660469503456 0.00057762432877119017 0.00030499448334475436 0.00013752468307497582 3.3320350579324292e-05 1.9254117063820205e-05 6.7280344085182064e-06 7.1365832165566469e-06 1.8387069515326667e-05 5.8328346728628334e-06 2.8005925747511649e-05 3.2111129615773435e-05 7.8730936872700269e-05 0.0004680047686944713 0.00049512621848905912 0.00029136361049941642 6.5394558229446261e-05 0.00011553465014462093 0.00010046957442294975 0.00027674000307796088 0.00047115690510631881 0.00023611515611301624 7.9103343472859805e-05 5.3173391382224434e-05 1.8465837646846278e-05 1.4460903122177215e-05 7.8994047489489564e-06 2.8746326692683923e-06 6.8392614711169644e-07 1.9107664590897698e-06 2.6378213504380818e-06 3.8701467615553183e-06 1.3061221923551653e-06 1.0612355313711393e-06 4.557799646210499e-07 1.761691181660867e-07 1.5334337106750852e-07 8.4172865440920971e-08 9.2827684243938747e-08 3.5968531065786854e-08 3.9114821631599394e-07 1.4970359012034866e-07 4.5053920411208436e-07 1.7503198313466841e-07 1.9138453993457354e-08 1.9415998786050876e-08 7.1665161668299344e-09 3.2817995781227783e-09 7.0702932849186849e-09 2.7372276527118605e-09 8.6387399420951431e-10 2.675033211986282e-10 1.1551798469242448e-09 5.992736434775794e-10 1.5245457404296965e-09 2.0027557226451557e-10 2.9029250734365319e-10 1.0089376696136878e-09 4.0504543051546173e-09 3.0852035564155321e-08 1.3938313205509682e-08 1.3050980347326986e-08 4.9466028195941844e-09 9.2012955028517191e-09 3.3526270227017064e-08 2.0998417403067892e-08 1.2760392346926e-08 2.7193011113256366e-08 4.2528146319737299e-09 3.1401667670361682e-09 8.2656547737612124e-09 1.0551523071697881e-09 4.6249227274799129e-10 3.4616075346772208e-10 2.7698223254900784e-10 8.2732591139483326e-10 1.9166894780403261e-09 1.6222887221704362e-10 5.0895974385475222e-11 2.1409366487416586e-11 1.5913593586531432e-11 4.0867209428810838e-11 1.1928358015070858e-10 1.1489327932364865e-10 1.8701041657679489e-11 3.4444727438805713e-11 3.9354474693847663e-12 1.1293620033620412e-12 1.9270018928502564e-12 4.8398061891895757e-13 5.681234314787171e-12 3.8903104439522431e-12 6.8150931892625931e-12 1.1409062391250471e-12 5.0801103075835014e-13 7.8102959516369481e-13 2.9549587749936813e-12 2.3159468124371721e-12 3.2879522172396456e-11 1.1706682786657157e-10 1.1621324787061936e-11 1.2239037389542829e-11 9.8805067881689432e-11 2.4454001763738189e-11 3.1787495307154207e-11 3.7164432618026707e-12 4.3111920304024538e-12 1.5350144335546751e-12 4.5937259477738475e-13 1.2408490182036425e-12 5.8205884532036764e-13 6.518996060010943e-12 8.4884333033972775e-12 2.0062836754038579e-12 6.208547843292225e-13 2.2308294109005778e-12 1.7258571762095094e-12 6.0050899195481897e-12 8.0997086217973332e-12 1.3792461277934664e-11 8.4231138598645783e-11 4.7729474087698406e-11 7.8866008128047227e-11 3.5743750992710598e-11 1.4030613642248963e-11 5.4696862073336812e-11 1.8020217220380138e-10 3.8152626726499131e-10 2.1182573254177502e-10 1.5605097258358318e-09 1.200784675953758e-09 3.3861504897031355e-09 2.8315348112517849e-08 1.2032322732454446e-08 1.2233570881632153e-08 4.0773625168983408e-09 4.5972453463238416e-09 2.7180836669982373e-08 2.4425204190748366e-08 1.3520524557916733e-08 2.0025606106896285e-09 1.3010672638841928e-09 7.4351586341189824e-10 5.9859658022431447e-10 2.7151504189644927e-10 4.0238038837147663e-10 1.8064938179829209e-10 5.2660737741436112e-10 5.3592309976890818e-10 1.8207501727773483e-09 4.6159693134272133e-09 1.335251325198839e-08 3.3264085705491224e-08 4.2837645857646583e-09 9.2557539217433089e-09 2.6633118224483233e-09 1.1840948857589635e-08 2.3061782306543005e-08 1.0696393601476163e-09 1.6134802078459981e-09 1.5730564063024567e-10 2.3737934421451476e-10 8.0214036976335627e-11 2.3314851551425215e-11 1.0256837579237458e-11 1.4426433704110789e-11 4.2833829061388003e-11 6.7968971564655555e-11 3.659473971353078e-11 1.0105524186064537e-11 1.2055505826748451e-11 3.2162954790646702e-11 4.2765667073958961e-12 6.8847267401428235e-13 1.4429944456274995e-12 4.6868846952368501e-13 1.6917319683668282e-12 4.8745587470774956e-12 2.7881724491206683e-12 8.6246516336813564e-13 9.8149851038827551e-13 2.4932311359445185e-12 8.7213654764822631e-12 3.0156305349691989e-11 9.8937659728979044e-11 8.1927248366906646e-11 2.6869967979684658e-11 1.6017372247857909e-11 4.6904426203794785e-11 1.008381238327496e-10 6.0692330930955112e-11 2.3508766710953991e-11 2.4942726244720143e-12 8.7433773756811695e-12 7.4277879788704226e-13 2.683875999602094e-12 7.2784570584294749e-13 3.187024399284719e-12 7.4792183832772341e-13 2.657047542303763e-12 2.4770711315537705e-12 6.079788263603661e-13 5.9337037738327882e-12 1.480283387860374e-11 3.3585502212571936e-11 1.1727212586899447e-10 8.9896486314330308e-11 1.3085789834378098e-11 2.8917849223944679e-11 1.186262784404012e-11 1.6278759256355285e-10 1.3352906829044133e-09 6.5733413994787571e-10 2.0822547787748931e-10 2.3124815513662594e-10 1.9299963920250891e-09 7.4440584330932815e-10 1.2319450259523017e-09 5.846699732423836e-09 4.4991475238673984e-09 1.5082190464088008e-08 2.3470624575459578e-08 8.5975069464666611e-09 3.8226031632696452e-09 2.1293020827561967e-08 3.346019307702086e-08 4.9555934796665367e-09 8.0193910784990607e-09 3.9551958373777632e-09 1.1909049917540811e-09 4.674196398540697e-10 3.2773370956282977e-10 1.6528953633370536e-09 5.9902783595200705e-10 2.5739888939777496e-10 2.9729203721866971e-10 1.1747896390303744e-09 2.8731574326934452e-09 8.2629929630048636e-09 1.2587830033845576e-08 1.9519623407447548e-08 5.6276804196223803e-08 1.1176637959897217e-07 7.7418236800210284e-08 4.4896213408935655e-07 2.457247637208222e-07 2.7078686804363133e-07 1.5292881785448108e-06 3.0723599392618472e-06 1.1371855415181981e-06 1.1123583242237992e-06 3.2925385374214046e-06 3.2290410821085918e-06 1.290692010791525e-06 3.45876339193094e-07 1.2804571058434348e-07 4.5065709768675932e-08 2.1783043251793414e-07 1.7330940185399212e-07 6.224777012659028e-08 4.8955100472513368e-08 1.2533029390204679e-07 3.6103210887807143e-07 7.2654211766960755e-07 8.8517712421150586e-07 5.270383833881905e-06 2.0005697950939514e-06 4.5569503583028959e-06 1.8201121785399484e-06 5.9772239821858933e-06 5.348838153539755e-07 5.7262670966006719e-07 1.0056013535890363e-06 2.552278842528827e-06 2.2189088783248965e-05 4.2388030417451538e-05 1.9261563122210135e-05 9.6285869800154289e-06 5.1478463161272367e-05 2.4962728523247536e-05 0.00020553973268343831 0.00012587126185669179 0.00029069130719803349 0.00062993044036736454 0.00050502299112016938 0.00023815237790696673 0.00063122794251887918 0.00013013229182269647 0.0001538672998364543 0.00033521946677332045 0.00024412816068103145 0.00010591951720225883 5.6043864919227079e-05 7.8318874318288211e-06 8.3528899156377921e-06 5.0011753893709388e-05 2.0440906033750461e-05 3.1037823638713555e-05 1.9110590739323484e-05 7.2867874779214902e-06 4.3309922528691461e-05 0.00010057627529079222 0.00012786113680664197 8.0040613629514469e-05 0.00043285161240489973 0.00028678055555264858 0.0004032485691620932 0.00021432770338031623 0.000219069483346784 9.7274421668726199e-05 8.7951077904037102e-05 0.00049632595807944861 0.00039782419354387393 0.00032568559874658664 0.00013729631209129527 0.0001638697307153711 3.8739323247534733e-05 1.8445986547575366e-05 3.7297156946701937e-05 5.8720292648280345e-05 1.1769456892657113e-05 7.9704916252479559e-06 1.6844777519803915e-05 4.0329700063415461e-05 4.134994877165972e-06 6.1671519382036267e-06 6.7662374529602665e-07 6.8675995824791653e-07 4.6903820269571947e-07 7.0824547888151909e-08 9.2065345237156339e-08 1.3961189741229359e-07 2.8522234124390174e-07 2.5425246637740822e-07 3.643540311970279e-08 1.1164297427540648e-07 1.6434061496516668e-07 1.1359639450485348e-06 8.7938605472280394e-07 1.4871641806381934e-06 3.4707380095668723e-06 2.6817169108892955e-06 2.5180330620870502e-06 1.0886439415480186e-06 4.2347788601652782e-07 4.3160338508179694e-07 7.4371373210368601e-08 8.5048329179895462e-08 1.572300429326643e-07 1.6478041934277492e-07 8.7743203132133079e-08 1.0183749574864777e-06 1.1243739642450477e-06 4.3698133093519261e-07 1.0186353583009343e-06 2.0520684096088539e-06 5.0559855150739634e-06 1.0973696277246566e-05 3.5199119486773726e-05 2.345941614629793e-05 4.8959966630094168e-05 9.3716951548429219e-06 6.5081857291611133e-06 6.9519999234423387e-06 1.2459140038037646e-05 6.8368534266752251e-05 3.4496577272312868e-05 4.8915549687346376e-05 0.00018451261486659529 0.00041678371751419075 0.00025257624146244982 0.00012507492314833626 0.00012919758625772073 0.00030419059183156891 0.0017990685094409109 0.0040061140427758149 0.0054110990131092914 0.00075702643571896617 0.0013254359383679233 0.00066279847769898067 0.0010304615281779526 0.0049743796920625758 0.0033533501181438495 0.011593726231611168 0.021029564558479919 0.017238609726738588 0.013856193933349532 0.01050062864546605 0.0083779785899821251 0.036718163019538376 0.027328523956266674 0.074221350687117785 0.16338469008130208 0.23861428084321967 0.53640595915353373 0.75159809878794226 1.3522156143728266 0.27270348949835371 0.53191074951244377 0.83930579813072481 0.64846887314292956 0.56432577596446332 0.15151200261759068 0.24983225978846754 0.18545516313477714 0.047339778645362221 0.083335131234716503 0.068661451355317066 0.060268225022115034 0.11757832314225868 0.24276924600614241 0.29264905340429848 1.3562393331816371 1.1262783061715422 0.37043559266295517 0.63955489246609942 0.96126233298064778 0.3570188987251981 0.62100067032447082 0.13601877931725492 0.25443766703903581 0.14722573173604253 0.052834544805781043 0.10484329270721468 0.03232945881123088 0.0079663575254360335 0.015201010365719143 0.016860250516522027 0.036607727854270897 0.042415401410608587 0.017599952840007881 0.010701025542597279 0.005002409718142458 0.0025209245446866989 0.0026490234591946028 0.00065890784663926274 0.0013542010802990302 0.0028174046799718478 0.0031959875648114406 0.0012686524271480629 0.0010360365514366469 0.0017929384231484059 0.00098653724830066562 0.0056369677202787391 0.0042129045934911798 0.0085117972709296032 0.037368130868138005 0.018927997776785208 0.013795040583774978 0.011732992398166818 0.01869944461395481 0.038433541061106795 0.021930822923139234 0.040386674734412396 0.0060240248616638317 0.00418547981967516 0.0035583365431805132 0.001622719311352782 0.0015930693997689412 0.00084893841126700573 0.0011545489338019084 0.0058601119530326071 0.0036702872643348747 0.0029196216772024702 0.00088943844591451689 0.0019318077561086798 0.001548254457086753 0.0028331713156106433 0.0076528317071117204 0.011802019940633263 0.0065078171427945079 0.028338085504835322 0.030333444263146624 0.014328459377122677 0.012771163676960951 0.023740383666068312 0.084560523970081597 0.044862755304094212 0.25066997256395823 0.1399344173943661 0.10299557464976311 0.051703601243998414 0.11175650361458642 0.052618129538012606 0.21376728012375751 0.14703472195873787 0.31204578504718244 0.39584270591831039 0.7605325286240161 1.4904037894007247 1.3646144823275699 0.70561701270050459 0.40379130575107558 0.86689603990129338 0.84754833544972896 0.30964341905028536 0.3162863503090329 0.60178366708409115 0.2302901487669046 0.12695543286820341 0.081533535135180996 0.07723737388009605 0.22180768507787282 0.10596530528909279 0.078693241876004891 0.26699565873305642 0.33818030762121021 0.63003042945357157 0.57503590138201666 0.98415103957470129 1.8449793778912331 2.7229566448604241 2.6244824899841896 5.6543892620764877 7.4001740399276201 20.54841910321564 12.900355334020364 7.5703239532561684 17.705590443834215 15.19979272019259 9.2488855439083366 5.813244585182769 3.9988297430242148 5.0695608843357185 1.6832934228969187 2.306558821758105 1.6378567107100932 5.1703908660608882 3.9900872904824012 2.2304645735457784 2.821065487254371 5.6717702973769253 5.0446653019651677 8.4427374420459884 20.510124674496264 12.909920471019674 13.142209868158798 20.385792154307893 9.4664312956787651 8.5121791943188079 11.186740867917552 18.721921784439811 22.92553407583479 50.335172138629233 39.200567687708016 50.424154223279714 26.831851516077727 24.873319561744367 41.143143141649048 49.164571623235446 63.340109013750457 78.136123528521736 91.193924761691136 75.816739106680714 89.047580139718235 73.994676491757176 89.045652483642016 89.230102691872077 53.941977126463613 73.824926414371021 73.794879826204166 39.572777064267626 36.486412395944171 28.810307888734705 42.804887416211038 31.008136695219527 22.310058791150666 37.708473480701286 54.721625139207873 74.665317953866548 84.925635256192081 85.540055845055818 71.312093319580185 77.02188704152843 91.198034829542138 82.216127894572992 90.883380993844852 56.962949961305213 63.466440394341596 58.736725122572913 44.145470234325458 41.059643485215616 31.313829896039351 32.754903112124616 22.557503248097191 23.514837243722681 37.467314919691638 46.11246788292091 14.462193436631328 15.840317344621454 9.3730003539519142 4.7133978231357565 2.5039049958633823 1.7233746455348231 1.9480560084560099 5.5480155931139103 3.3608013455360402 3.2712688616465906 1.6046588696902782 4.3871647099664015 7.1978689465426378 10.314071421321392 16.4569857561779 20.287938363903638 16.789307291736993 19.223612100018798 11.643792732217083 8.2516478363194938 9.7517903636980172 2.7355505990962206 2.8502282917645787 1.6433051455517431 4.9834886563264718 3.4056274555954964 5.1207265536347251 1.952330907287636 1.9631236167291237 5.9678255124846373 3.4128398587666346 9.9314190089468077 8.7483448730965279 16.648495656922048 36.059599672015345 39.363387000845812 48.81586878897032 23.91434891294934 23.462601614542208 36.836647647582041 49.723022979937326 72.651492950021449 75.072354201947661 88.243678731341959 80.468153353114246 64.040189500693131 65.433139301251686 82.014478210312944 91.999945040176598 89.856072889464627 76.251997361610819 57.066656976354331 54.140336335861001 30.873935962682367 25.973268409228879 33.923104583947705 45.59310171012315 47.45092821124895 31.205857555919088 26.454460114475996 57.202132907424556 53.656003994779944 75.374782696603759 88.800956938857908 77.172983717166645 79.288174430632822 88.002733584395685 61.847937424514981 91.023534251275507 77.540068055646159 86.242700067662639 72.04454392975569 60.240530213618499 45.347410512913456 38.94619249304467 47.921349355524555 23.855827752027285 32.838000588507327 35.194995025673549 47.150428182381042 49.659096363316053 26.67368016153052 32.660391729905186 18.325130297471091 7.3679458360284782 12.764154063064133 12.965230395035888 20.658128168160406 17.90151665065796 9.5425080549348955 7.1920135989151035 3.2386989716437995 6.3568559262696827 2.0850832143960019 2.6866275164061415 1.5396698881029487 4.433497086207451 4.480358786089206 2.5659870675839827 1.9744617988189941 2.5557990250432456 1.6829363529875221 4.4364160867620237 6.7062507945254506 8.2269242607338509 16.354288489865205 13.994704760309521 11.877240536460512 11.217335113897661 7.3672966423988502 17.800066987267385 19.96741462033307 14.962503407626006 8.7907760930352339 5.7640209080802514 4.5660292030998413 2.7182133866056786 1.6907409191919034 2.8615050450458628 0.86667739978511626 0.59218790672924448 0.87275109934494977 0.91408983317295156 0.28398552184463632 0.28795394865100998 0.58395732379128962 0.15619652198640704 0.062629522058275752 0.064580169711019653 0.073957263026048076 0.27075089914779005 0.15526455894653624 0.16334550957343094 0.077621538840707327 0.037433501346097561 0.036016895598865291 0.01981692061072414 0.0056011820205990031 0.0088514078608157402 0.0057601167036610314 0.002249462786653297 0.0012401652761135824 0.0021710060549023605 0.0013422609952162723 0.001230475294283633 0.0023234837286961771 0.0067514483466408169 0.011271323382045961 0.028705736327011573 0.030086085177103809 0.032795451482385274 0.0084535801403292452 0.015399627722596473 0.0066089802674657834 0.011672447287638329 0.0027711140191183899 0.0013892928914776607 0.0021615555796370397 0.0042331176431483902 0.0039514943180541506 0.00093360248118093663 0.0008517264355162302 0.0019052275228303313 0.001978955930161703 0.0092990872906931268 0.042395671814176875 0.017501556949456203 0.061593039095097862 0.2384820848865174 0.22043710245742532 0.061759119549735772 0.15990435204619236 0.18128798576164618 0.11957156940969671 0.42593361007752617 0.3998841610046