<?xml version="1.0"?>
<VTKFile type="UnstructuredGrid" version="0.1" byte_order="LittleEndian">
<UnstructuredGrid>
<Piece NumberOfPoints="568" NumberOfCells="1054">
<Points>
<DataArray type="Float64" NumberOfComponents="3" format="ascii">
0 0 0 0 1 0 1 1 0 1 0 0 0.049999999999899652 0 0 0.099999999999814668 0 0 0.14999999999970359 0 0 0.19999999999955789 0 0 0.24999999999941211 0 0 0.29999999999926641 0 0 0.34999999999912063 0 0 0.3999999999989749 0 0 0.44999999999882923 0 0 0.49999999999869432 0 0 0.5499999999988151 0 0 0.59999999999894682 0 0 0.64999999999907843 0 0 0.69999999999921003 0 0 0.74999999999934175 0 0 0.79999999999947335 0 0 0.84999999999960507 0 0 0.89999999999973679 0 0 0.94999999999986839 0 0 1 0.049999999999899652 0 1 0.099999999999814668 0 1 0.14999999999970359 0 1 0.19999999999955789 0 1 0.24999999999941211 0 1 0.29999999999926641 0 1 0.34999999999912063 0 1 0.3999999999989749 0 1 0.44999999999882923 0 1 0.49999999999869432 0 1 0.5499999999988151 0 1 0.59999999999894682 0 1 0.64999999999907843 0 1 0.69999999999921003 0 1 0.74999999999934175 0 1 0.79999999999947335 0 1 0.84999999999960507 0 1 0.89999999999973679 0 1 0.94999999999986839 0 0.94999999999979179 1 0 0.89999999999958358 1 0 0.84999999999965292 1 0 0.79999999999999982 1 0 0.75000000000034661 1 0 0.7000000000006934 1 0 0.65000000000104008 1 0 0.60000000000138687 1 0 0.55000000000173355 1 0 0.50000000000205869 1 0 0.45000000000187229 1 0 0.40000000000166441 1 0 0.35000000000145642 1 0 0.30000000000124832 1 0 0.25000000000104028 1 0 0.20000000000083221 1 0 0.15000000000062411 1 0 0.10000000000041601 1 0 0.050000000000207989 1 0 0 0.94999999999979179 0 0 0.89999999999958358 0 0 0.84999999999965292 0 0 0.79999999999999982 0 0 0.75000000000034661 0 0 0.7000000000006934 0 0 0.65000000000104008 0 0 0.60000000000138687 0 0 0.55000000000173355 0 0 0.50000000000205869 0 0 0.45000000000187229 0 0 0.40000000000166441 0 0 0.35000000000145642 0 0 0.30000000000124832 0 0 0.25000000000104028 0 0 0.20000000000083221 0 0 0.15000000000062411 0 0 0.10000000000041601 0 0 0.050000000000207989 0 0.50333998054938722 0.50119715791968966 0 0.70252050881959183 0.70358884261915833 0 0.29641115738084339 0.70252050881958938 0 0.70358884261915744 0.29747949118041561 0 0.29747949118041711 0.2964111573808435 0 0.50000000000002642 0.7803135888501761 0 0.2196864111498267 0.50000000000003153 0 0.78031358885017377 0.49999999999997569 0 0.49999999999997108 0.21968641114982909 0 0.8289812646369813 0.82898126463698818 0 0.17101873536300011 0.82898126463696109 0 0.83199780613337848 0.1690131600686714 0 0.16901316006868169 0.16800219386663079 0 0.56566515596461675 0.63670464971409091 0 0.35984320557492089 0.56698606271778873 0 0.640156794425081 0.43301393728221721 0 0.43301393728221038 0.35984320557492139 0 0.63969251517836323 0.84598529912890386 0 0.1540147008710982 0.63969251517836956 0 0.84598529912889664 0.36030748482164038 0 0.3603074848216346 0.15401470087110539 0 0.84598529912884157 0.63969251517827153 0 0.36030748482174152 0.84598529912882459 0 0.63969251517826664 0.15401470087115929 0 0.15401470087117619 0.36030748482174652 0 0.4434591735942961 0.66641640622551224 0 0.66548584431530877 0.55616712808283064 0 0.33382663527330159 0.44130125047503482 0 0.5586987495249669 0.33382663527330653 0 0.53432142347292233 0.88563193847251998 0 0.1143680615274819 0.53432142347292733 0 0.88561059063756964 0.46572761956237563 0 0.46567857652706018 0.1143680615275231 0 0.74198804864688339 0.90892718720327403 0 0.091072812796719582 0.74198804864687795 0 0.89586000931544074 0.25714619498770419 0 0.25714619498771307 0.1041399906845497 0 0.88949062093135778 0.73694585442531257 0 0.73688246401832591 0.11047754041323141 0 0.26305414557470391 0.88949062093136155 0 0.1104775404132264 0.2631175359816938 0 0.59819537371016407 0.74380966024143391 0 0.25619033975856881 0.59819537371016862 0 0.74380966024142703 0.40180462628984132 0 0.40180462628983732 0.2561903397585753 0 0.74417394063200648 0.6049203001048884 0 0.39507969989512881 0.74417394063201048 0 0.60492030010488373 0.25582605936799729 0 0.25582605936799319 0.39507969989513358 0 0.90045039720880915 0.9020090423547924 0 0.90082758526900886 0.098076845682916511 0 0.097990957645208238 0.90045039720880915 0 0.098076845682915317 0.099172414730993488 0 0.43590673999053309 0.90289902042279657 0 0.097100979577207341 0.43590673999053198 0 0.90289902042272274 0.56409326000946114 0 0.56409326000946236 0.097100979577281268 0 0.73982803480991577 0.79629608696991705 0 0.20370391303007401 0.73982803480989479 0 0.79629608696994103 0.26017196519011448 0 0.26017196519013502 0.20370391303005 0 0.77998481823117694 0.71397317153691997 0 0.28602682846308641 0.77998481823117594 0 0.71397317153692708 0.22001518176882201 0 0.22001518176882229 0.28602682846307981 0 0.49189101320880302 0.59024331187324797 0 0.57387636360620708 0.54318431390135336 0 0.41009598069569558 0.49083935749285379 0 0.54901591374940373 0.42306523525165751 0 0.6519524273377173 0.64249931920594539 0 0.35944937237716967 0.65164789808436319 0 0.6424993192059415 0.3480475726622802 0 0.34804757266227387 0.35750068079406011 0 0.81709574086843206 0.91318696080656769 0 0.086813039193431391 0.81709574086842884 0 0.91838802593870927 0.18172590289757809 0 0.18172590289758209 0.08161197406129285 0 0.91838802593884228 0.81827409710237209 0 0.82118136511706341 0.082875076569723011 0 0.1817259028976386 0.91838802593888857 0 0.08287507656968085 0.1788186348829835 0 0.51484304721220842 0.69707233951836334 0 0.30292766048163949 0.51484304721221474 0 0.70015119067225129 0.48481914991727459 0 0.48378871228000903 0.29745177826977359 0 0.60938371359314658 0.91847489683800321 0 0.081525103161997597 0.6093837135931508 0 0.91890123454466932 0.39094742729597309 0 0.39061628640684498 0.081525103161991672 0 0.92670321183853355 0.65773042910151081 0 0.65773042910151891 0.073296788161472337 0 0.3422695708985129 0.92670321183858773 0 0.073296788161418117 0.34226957089850552 0 0.43087117257049001 0.8215422551712771 0 0.8215422551712277 0.56912882742954496 0 0.17845774482872559 0.43087117257049429 0 0.56912882742954041 0.17845774482877461 0 0.46102425708533701 0.43254199134332588 0 0.56759263990989184 0.81794319034601648 0 0.18205680965398621 0.56759263990989739 0 0.81794319034597418 0.43240736009009317 0 0.43240736009008851 0.18205680965402779 0 0.66820316019503978 0.77769800602796979 0 0.22230199397202771 0.66820316019503168 0 0.77769800602796679 0.33179683980497482 0 0.33179683980498331 0.2223019939720311 0 0.67757268808231397 0.93106206656183088 0 0.068937933438162791 0.67757268808231053 0 0.93106206656185309 0.32242731191769503 0 0.32242731191769902 0.068937933438140794 0 0.43565339604028508 0.55159384357101338 0 0.58981073711177334 0.48140931020849848 0 0.49854341599767982 0.37075914768127122 0 0.44764943295894188 0.73752415265401661 0 0.73752415265401194 0.55235056704108476 0 0.26247584734598628 0.44764943295894732 0 0.55175647814720108 0.26104505532086641 0 0.39419886675318527 0.41912225240070788 0 0.48669777060454272 0.93510666819646593 0 0.064893331803534807 0.48669777060454478 0 0.93510666819640953 0.51330222939551939 0 0.5133022293955174 0.064893331803591428 0 0.40653508887824003 0.61580573377480397 0 0.49771727055908782 0.83998685797641781 0 0.16001314202358469 0.49771727055909287 0 0.83998574657308889 0.50228528270184081 0 0.50228272944093777 0.16001314202359701 0 0.70085728320704077 0.84350379029875056 0 0.1564962097012354 0.70085728320703999 0 0.84350379029877964 0.29914271679296989 0 0.29914271679297122 0.15649620970120659 0 0.839908789927305 0.77106070975262608 0 0.22893929024737289 0.83990878992727813 0 0.77216325087772952 0.15899695163319821 0 0.15899695163321451 0.22783674912227669 0 0.76395804595204597 0.67808171673060369 0 0.32191828326940508 0.76395804595204586 0 0.67808171673060202 0.23604195404795861 0 0.2360419540479583 0.32191828326940741 0 0.64518564541690571 0.69601563325001548 0 0.30421635384321521 0.64514939193436716 0 0.69601563325001248 0.35481435458309712 0 0.35481435458309307 0.30398436674998969 0 0.61233489393901674 0.60846740003560018 0 0.60122390529523662 0.39097801071820221 0 0.93946948561981514 0.60485373571037115 0 0.6048537357103756 0.060530514380187868 0 0.39514626428973221 0.93946948561985189 0 0.06053051438015096 0.39514626428972788 0 0.64455163611866495 0.50369301794551069 0 0.94156647488778256 0.058433525112256718 0 0.058433525112266523 0.058433525112214509 0 0.94156647488775558 0.94156647488774259 0 0.058433525112254137 0.94156647488774581 0 0.77688977118331393 0.94706199857866258 0 0.052938001421335763 0.77688977118331159 0 0.94465622530468663 0.23167460333446291 0 0.23167460333446299 0.05534377469531044 0 0.9442075111696665 0.76777356182390766 0 0.76543419162344684 0.056452228708420968 0 0.23222643817617661 0.94420751116970569 0 0.056452228708379938 0.23456580837661581 0 0.78284912262770068 0.83746308049763585 0 0.16253691950235041 0.78284912262768558 0 0.84534053180161173 0.2262639405833009 0 0.22626394058331961 0.15465946819838111 0 0.55307204985744796 0.94819812235491685 0 0.051801877645083663 0.55307204985745195 0 0.94812782820415209 0.44708943904932719 0 0.44692795014265252 0.051801877645060238 0 0.85607519768343354 0.69380468830529196 0 0.69379929796456197 0.14392209494791061 0 0.30619531169472608 0.85607519768342955 0 0.14392209494791439 0.30620070203545702 0 0.51172471858873747 0.64015771271794875 0 0.35815651743779398 0.51113440447909086 0 0.57051182622447827 0.69668652018496713 0 0.30429740679959738 0.56913905146460098 0 0.69595787604187809 0.43071000156707989 0 0.43059486795334201 0.30395973419063538 0 0.54465502325161819 0.74717983044080061 0 0.25287139441262568 0.54458355434492378 0 0.74730218607442667 0.45539100053644521 0 0.45533136021725079 0.2525687312087147 0 0.86696410734367158 0.94753096683315619 0 0.052469033166843738 0.86696410734366991 0 0.94100406608115506 0.1383574446607955 0 0.1383574446607988 0.058995933918849157 0 0.94095916274074942 0.861652780
[...]
<CellData Scalars="pressure_p0," Vectors="velocity_p0," Tensors="">
<DataArray type="Float64" Name="pressure_p0" format="ascii">
0.0095947633420317043 5.521757800516645 0.00013961579538716203 0.34035864052726006 0.50969922683751745 0.89597861089659803 1.1229659485429595 1.1412033800633639 7.3454112494417689 1.9548131772538569e-07 61.819357644823867 9.7452860212155428e-05 41.429632266238627 2.0691643010014073e-08 2.1017151405462543e-08 1.1462616819016496e-06 41.443373986264163 92.364187800123034 92.367489361514316 1.1829771017896185e-06 82.225811782993844 2.0294180320524902e-05 16.014831963879157 6.2388011304252914e-08 82.108043413669037 14.85659311473739 1.972790925497363e-05 6.3088931495961988e-08 0.080956703860397994 1.3771326961028218e-05 17.326387366694291 0.046989880643874771 11.343274681790813 2.8252093154497321e-08 89.523981550270889 4.0698125291396956e-05 89.433473986972501 10.707727384268875 3.9089882121185835e-05 3.22225829063875e-08 79.577805901339474 6.9883946193940352 9.2197857867333931e-05 8.5348108156167728e-08 33.786117578326738 6.3777713671498877e-06 0.010073494051030734 8.2819500478633348 6.724193161092736e-05 0.32792537116509263 37.043931278940349 6.3139900083402189e-08 6.6428518822029902e-08 1.8225477837419447e-06 36.942398581610377 81.405030009365959 81.421608105824305 1.8790738457811393e-06 1.4961760996450211e-06 9.3650480080357372 38.676467361328733 5.1390996361000792e-05 4.993109877054323 3.5048044787929874e-07 54.398619056746419 0.00017775777668971847 0.98603799040936502 56.302769019206693 3.4246070263528738e-07 0.0025699621777907859 0.11094634349716531 6.6896827415247806e-06 22.322857323194405 0.03374386202051257 30.896405668394664 3.2059658486771928e-06 31.025181765961293 3.1827611153177618e-06 1.7566507651920335e-06 13.233433443208007 33.521748356945594 6.3806751513226551e-06 0.0010417364185735403 8.1111942215409556 7.1843884133614353e-05 1.7205764620838511 0.00010709737191947443 2.9841412422513899e-07 60.286967929539657 6.5015861266179424 2.5143587063338636e-05 36.931029354129826 0.0020640305669284735 7.3590240254797461 9.2503359271224131e-05 1.1042940133521453 0.18027524825864216 80.525493246313843 0.44175536860904574 0.0069671108580899796 7.1877825473137229e-08 0.021063718376665867 2.273672844336017e-07 62.554014545295786 0.18297296087790985 0.24135330103735675 89.851266122560517 4.9499361008377312 0.00017894153028335188 3.0700535168615162e-08 35.524236844248207 0.011927095547427845 0.29399173492976061 1.7715597539447739e-06 39.999184583695559 0.49745685463218753 0.0063380773399878167 1.2014656097146497e-06 4.3663363617731852 0.0054517130647210189 0.50998273186671939 0.00022666495344243078 0.17086485012764141 0.00022339158587742348 4.4963353323585222 0.022034117523033601 67.491076847847637 1.6350124928637067e-05 17.181322020182037 1.7374364352246676e-07 67.36075377592941 16.331561663860935 1.6312772321249094e-05 1.6382928379928665e-07 0.30882586433866088 0.00014026549308411113 5.6728684392753506 0.011255820226926149 17.050591625213752 0.00029299650228536815 3.875577844593102 1.3182315552197016e-05 23.274552415036148 3.4334590855168217 0.00036156199768247954 5.9593771367674162e-06 2.8824883095480485 0.00186071945368088 1.1337211026535212 0.00049843980822658119 1.7433364227433805 2.5131031225867146 3.6161827505710011e-06 3.6274081950415219e-06 28.129333759187883 27.861413805815019 0.0010396801417870054 0.00059374296111599383 0.045731878201622896 0.13736702329600708 0.031260492793677 4.6622557456970049e-07 51.954695839384982 0.12819387450228154 0.083732454074528534 0.14846670010279894 1.395422846696178 47.769899044484269 0.0014607751007184437 6.4461469594308456e-07 20.459331970460756 1.770006967743038e-05 16.038274636916498 8.4525519674254487e-06 19.933188654115433 0.0017458721776403229 1.2743653660055674 9.0830354889832249e-06 0.96475622914399306 9.8913665267765758 4.26826271956947e-07 13.997131474947707 3.9789901266937589e-07 10.8438086102664 16.132929122961443 1.2145907716219231e-05 8.2307854910547438e-06 18.764637186135715 21.610561553139483 4.3241551620298228e-05 1.7864917432602835e-05 54.771605842205048 63.885086585408089 54.845905789393186 2.2401328961251096e-07 63.810102806444007 4.1349325347346032e-07 2.2964924150404198e-07 4.0290780408742971e-07 52.623181950650036 0.0057915333076201045 0.53635272726101402 4.6323498831945831e-07 1.1070409473520191 0.0008353801109362522 2.0177963482423151 0.0020002567330364663 91.741920477652826 0.30019704765282779 0.011222388441152429 2.3123846008254726e-08 81.537881170146903 2.4904787577091374e-07 62.947679630410732 81.532075330638094 62.936994625752391 7.1679864866501325e-08 7.352535480501047e-08 2.4163560349333414e-07 0.27027703632814981 5.8592707759046721e-08 82.538302465157756 0.012992607920802129 16.807748289246724 3.6498218288521996e-06 5.527095173357166 5.9256439356407257e-06 23.275184331447321 0.00015081505351170174 0.072978651191805313 1.6590016235003074e-06 36.363162635044645 0.054865416307189607 4.698452962954196e-07 0.00022324679836049357 4.437770389925209 53.180062009960722 12.682220797440687 0.00045007016772237527 2.8733617063155692 2.6474885524751909e-05 28.136733299068425 1.5263331702328022e-05 2.0708231006803546 2.5753362945893343 9.168163050322292 0.00031665949510536822 3.4931730918918644 5.1907979285991168e-05 43.58559246550886 2.0904426343023437e-07 63.806803452629502 63.722928175911832 43.525950369595719 9.7310642484883867e-07 9.4826364045167345e-07 2.1914260623956619e-07 0.27692482424877862 0.092500727082783965 1.3579756288679048 0.04682594981411084 1.2127131537894554e-05 17.741158212911351 0.08215471228910215 4.547361440479321 1.9471157387917463e-06 34.000216106170043 0.0002161383982463421 4.7368949990875482 0.0026705835686314659 0.89643300674243054 0.00020533038093581164 29.940307854047781 7.2764757779229399 8.7132326451589656e-05 3.1792927023175325e-06 0.57483320528382609 0.011081971453501246 0.0089680874275289337 0.012617633984994117 0.0093375423683777926 39.036114134095953 4.5765159679091618e-05 0.0032279106596391043 7.6960077720982119 6.7970361627197925e-08 80.140454231631253 9.2055067197725315e-05 63.277560461271577 0.34239138906490268 0.0097708641942262937 2.1624500048681844e-07 0.0087844113437096291 0.016490183943978165 0.025710470894779833 0.99928162333456161 2.176793002414041e-08 91.603762676392691 0.0024909733886576803 8.8492643339346131 4.858244571694743e-05 9.856484402473118 5.8205780343464843e-05 82.915042009486015 1.243700247399218e-07 73.799374244055457 6.432745347355687e-08 82.910165990184026 73.792279436232349 1.1801560556035974e-07 6.108254737578118e-08 52.301006783978167 1.740316054297282e-06 55.051271144747709 54.784711064297113 4.1118574108772439e-06 4.2885643658360801e-06 52.116205423184844 1.8151600274900737e-06 0.44441280046625276 0.38766185914614376 0.0016742931776601534 14.880219517812005 1.823864075780458e-05 1.2733493491331656 0.0026434841303387847 0.0015339902312883377 0.00416994267064273 0.10934643833114316 2.815466057915643e-06 30.720533647485752 0.035361519590579066 0.0029657955763768102 2.6018268382787753 0.0010364791550902712 1.7120316585087081 0.0005820958025041645 4.3942365011447304 1.1431188949121646e-05 18.408900255896668 0.00022403240329741295 0.0082743229425309463 8.3804171924467816 6.3300471444644056e-06 23.44074042795987 7.500964278019253e-05 0.39786132398855578 24.638151992990927 2.0813665853830816 0.00082584856644623531 5.0348941474265809e-06 2.6720344280749818e-05 11.057694785886628 3.7019611184062784e-05 12.823685596880168 0.039804020720116767 0.3812452707597106 0.70017537532283258 4.7596521008067478 0.00045833627020438697 6.6311740913576163 0.00058594669452226408 2.999820826114985 0.00017766555984594985 2.564636161188905 9.9865344182556675e-05 5.6521464809592183 9.005381447763367e-07 40.456895048117275 0.00014323156473677569 0.81949659702658506 1.2947431835385577 5.6267482344992047e-05 3.7781484254140798e-05 9.1973704434849974 10.750005653057071 0.0030261697501474715 0.0016390563419019899 69.035401146596286 1.0832124822073856 0.0021741612440048077 1.4334922720728434e-07 1.685307787033036 0.00072441940917356484 2.1869839339976038 0.0010682270109521454 6.0579727743993317 5.3258663986448706e-05 9.4812752408005654 0.00011956470890182701 0.011097675654635165 0.0087409986192257434 92.173408999143646 1.9770846473228317e-08 0.3855936428767498 92.367691743617186 4.4251568170206508e-07 56.2666374984247 2.098462184753553e-08 92.364915180263466 56.277535431838587 4.2856328571667799e-07 2.1465974570059106e-08 31.661248664932558 4.8639391233841502 0.00018441564909729284 2.6079355354925351e-06 0.093667529465029042 0.00014499308261707605 5.6241338809898416 0.040910446722342619 1.2711256910209703 0.27802726219229107 0.011795547242882586 1.2819315972931875 8.8503406019710064e-06 20.155434604040106 0.0016669715801863236 0.68611171760416623 4.8767146474384471e-08 83.89933432685811 0.0041728144030352462 1.2017630049596013 0.72259772581265636 0.37699685003943773 0.00082637896443018579 1.9934334587422691 0.0084306688686231514 0.73614048365902973 82.341063829022872 5.9581312561967585e-08 0.0036088291416996338 0.082761543349629263 6.4397930234789101e-05 8.4322925519406162 0.046866664503432562 0.0058761212380443861 3.6080133553602104e-05 11.406621375224319 0.50141890449790028 8.5299779679409795 0.00016983109248057621 4.9636191521972322 6.1299616845452034e-05 0.097575583156794488 0.015256640449970616 1.5422981117268448 1.7530087098214678e-05 15.051098000701259 0.0012708782329569136 28.652325416162256 1.4841866179132863e-05 0.82638297811824946 0.68206681091328014 0.20581560247417213 0.25909575265472773 1.8917016292906914e-06 4.0228671974838138e-06 34.093625554236766 26.727294315389248 0.018460093513654116 0.013462865816464373 3.0639809077066555 1.4982641487673249e-06 37.1255885390567 0.00041907108218844732 20.073672851505531 7.1140363182026269e-05 8.1001094153527795 8.6512666551564643e-06 33.794354097467796 7.3687596964300761e-05 0.032218317357670556 5.3329096543149945e-06 24.012117236009221 0.11734227617076312 0.063126023197564177 0.00083535017104012803 0.86134827083560173 2.9897999160867648e-06 29.511508961242608 0.0028459747872812912 2.0671812004327972 0.20295757038344198 0.095847155850210766 0.58939356392377573 2.2783643037679513e-06 32.261567915287863 0.0047847813494956027 0.0024264391173638967 0.018506967067047766 6.5030984290979913e-06 22.300419327505864 0.1904712474764142 53.172856283388874 56.623466619252156 4.9051780900384065e-05 2.4047734853540762e-05 0.13851616586619175 2.3895608671144003e-06 23.155915048982965 8.2906075044510459 10.122751016552071 1.0429723732729918e-06 2.3232357627023707e-06 13.543321745492308 3.3294953768763161e-07 57.847856645124985 2.5282071375022428e-05 9.0859355011110718 4.9714491786426812e-07 53.40712145391737 5.3971707529796445e-05 4.6667228537468546 6.0147294135057336 0.00019120105448028937 0.00012261410131254868 4.9872483515978381 6.0745190796234336 0.00018607757508803534 0.00011723463287426785 40.124810697773938 0.00026295668697480154 4.0022277804145165 1.1860286688752827e-06 0.33803623064007793 1.9830416872835626 2.7934696314803902 17.460417918540241 3.9007052357573993e-06 36.027725345567802 2.3713304754933554e-05 37.727520041561647 3.6928136129636174e-07 36.783628486519568 1.2397371907377401 0.0017154126390941016 1.5355611272549216e-06 22.14316585298398 9.6766816758892814e-07 5.1543216922682795 2.5356414964911682e-08 90.36275613168425 0.00018247911421443089 0.15558273689500907 5.3947925967714754e-08 83.21034065506332 0.024569486801466443 0.10015573473673042 45.391735595577096 6.8963674853315518e-06 0.12095835713881753 61.440122380164276 66.367362729282348 28.036329497224838 6.1812761665775062e-08 6.2428166633975733e-06 66.775101761171896 1.5884183455172269e-07 24.502079907152133 4.4158589676820261e-06 81.497326961603079 6.0256249465027332e-08 27.329515406788687 81.534360052865452 4.5428606303685896e-06 66.82108464889015 6.3227084876847927e-06 0.013723751185122828 0.068764424037373373 0.00080773290454279475 0.00092733152688436642 0.0057812650989028311 0.15668320785864714 32.565513240030825 1.9509010885354345 0.00090258171739187752 2.2486607518544904e-06 0.0039873485091229304 0.0080716403078826132 15.999896205321743 1.5678782994524111e-05 0.38929221156136251 28.373773094780002 1.7212235756960354e-07 23.412471433952479 2.6740771816358474e-07 15.494644303120968 0.00012847045905023746 6.080209039716574 1.6229242603437681e-05 0.099312161883639005 0.25292662708950869 21.978956032606387 1.0577270462565226e-06 17.2021002218315 3.5223650677138388e-05 11.430821920858865 1.3732144403570891e-05 2.2352491768047256 2.6468796336016234 0.32652769108246388 0.47479909719110219 0.30317385082688608 0.45029947434040485 1.6808600840016339e-07 2.4558019568022529e-07 0.010787863468949931 0.0066252057100137339 0.15322558356864779 0.0013018966775458038 0.10155773952729527 0.00079267970331779389 36.872118663223269 3.4603942409255806e-07 28.534294596255741 2.895273579758391e-07 3.5408310582333362 2.547953476682723e-07 59.898907952078886 0.0003415047553319159 0.31899544307054439 6.1858374901565646e-05 8.4908160002951298 0.010386343598499923 0.23125623308817214 0.47045696329244041 0.00021210674731975159 4.4900788341634987 0.0063860814016014917 0.11734731941133689 3.4798248421974141e-05 11.457499801800425 0.031818613529851984 0.16051852083853749 0.00045387639638017042 0.23189806952090303 0.00080033442377650736 0.61856694381468103 9.4519602337901277e-07 43.005935872622025 0.0045383470184674141 0.13300537488146227 1.0190000151694426e-07 74.301363377919074 0.028386772566280256 0.18570286406427133 8.0916287755401534e-06 20.263943804743079 0.019213836990494206 0.037521458781820845 4.6432225894465189 2.882018010676062e-05 12.260774571999008 0.00019916461996300364 0.0061840963358232208 0.00335441438597576 7.6141662916963167e-06 21.530166788891798 23.735475188071902 5.7692789835002853e-06 0.47555042295609368 0.76517894380962004 1.9702007811944764 0.76587672089143899 0.0032936155674728818 39.502134483418409 1.4646264525578209e-06 39.357886598239716 1.4947013426835376e-06 0.0016128047454602099 58.953611550452294 2.9064792417723675 0.00049016930076182705 2.7652245569052916e-07 0.021404736820951498 0.00045523655151486457 83.807942120373269 3.2413422783787418 0.00038214099682484391 5.1447093985429492e-08 0.4344819530979559 0.53076901765120499 3.7900159270816025e-05 1.7517367989480374e-05 10.759281887227814 14.997676528806 0.0054049831562426503 0.0072990339055043736 0.83312053680159748 7.1406952511953528e-06 21.487288792053057 0.0029975464936964642 0.25239808044291501 9.0858882268856661e-07 47.50545580417392 0.014239624010283685 0.42014910815582962 6.3523289826309604e-07 42.678918236602755 0.0073962472127322701 0.39772393347280305 4.5842777564541118e-06 25.84603218081449 0.0078126301855740571 10.648481748829877 0.00010532341739594059 6.535877353298746 3.6385875617050788e-05 16.284441491799029 0.015516773858404224 0.22264222886670776 1.39770137496237e-05 70.431766116836528 2.5628865870708184 0.00060326229259655693 1.2662333663851809e-07 0.045164874705349023 0.00045495571065467735 0.088901894580249163 6.7602257277155289e-07 47.374195161384002 0.044277621017043092 0.062873093445517489 16.337518107483874 9.1721264624891906e-07 35.019872287882592 7.2115789714624768e-07 26.986628309963741 6.1601981634097205e-07 0.52231514482950847 9.6433185894618109e-06 19.118806539538113 0.0056897659884239549 44.702991295481425 7.1686099755613429e-06 0.050030565306302635 0.035504216412312842 2.7136433213512334 0.00030135621802082992 3.697082843946772 0.00048956203370390092 0.0059260930270891576 0.060832581941168806 3.775954776157803e-07 54.888758943731517 0.065240504144722905 0.0096492586654268169 0.0058683973561272345 0.32431596000070501 21.723193330134748 2.2100200374800436e-08 92.530196741608066 9.0519086557364302e-06 92.505335764825702 21.204875184096863 8.7220349218133105e-06 1.9410094688929208e-08 1.9396721069654359 0.00032656245706977674 3.5557818283404847 0.00084241486136380547 0.03907994244486953 2.2345776964937352e-06 32.682129708016028 0.1008368560634746 3.3982654022276693 0.00059181811125939181 2.4799685718805473 0.00033242620056607284 74.002598189834444 1.6274689038750436 9.5758635524026108e-08 0.0011693290368043423 93.863817323074116 2.2843881484325963 0.00070288410489211667 1.5373346670752943e-08 1.6096201192546466e-08 0.0024110675263882856 0.9992906024082473 93.632294159732368 25.793314826567098 6.1298546964617011e-07 35.965625970024739 7.499028489681312e-07 0.75829399971497957 1.0264559940173368 0.00012839292709322268 0.00021707360688187855 5.7992042806076647 4.5135656767434451 0.0034160568875643755 0.0021775922892357845 23.063519990674653 2.5528842606440206e-06 26.391743878119819 0.011137587449555647 0.2984204219383465 4.038069336708112e-06 0.037299762549623486 0.021916344583961838 0.0031538860870353818 32.863866478023382 2.2829903801213322e-06 0.80731397607956157 0.81808181741731678 0.82298723201722779 0.00043578966058807628 2.889523694437421 0.0029498109772833772 0.0030329865386157211 11.193576240648419 3.7186688491649989e-05 0.81825883995018744 0.01792676311033755 0.20686365083006075 0.25707596870480842 0.0015240797329334655 0.36904635006941083 0.10527714893563429 1.831686143346699e-08 92.904725525125627 0.038418524759437821 12.82880158432198 0.020997671779490776 0.1699486175390269 2.4410232578006684e-05 0.13517798471162332 0.020897771395410415 0.032161458922954675 1.8265191969964582e-08 84.528975028171061 93.847117231658046 6.0365591058701472e-08 84.524926710016672 93.845413632604433 5.6438016573459024e-08 1.6749128693173682e-08 0.003682666145788353 0.0057345408995148721 0.0049047867568758185 0.72103500986380864 1.3611605955360591e-07 69.185084838184451 0.0037071511615442638 2.7600992787557326 7.154185502502749e-05 7.9789812240809788 0.00050781983543572316 0.13607319108724636 0.0028492720820631296 3.4617475417963375 4.6401516485983445e-08 3.0292347047611319 1.1253468912057337e-07 84.199835546128739 0.00037094742011304233 71.583893939145455 0.0004584852199094502 47.461374871559542 1.4873633012069314e-05 12.522330293244575 0.00086981854739968749 1.8704845676913808 2.8028358663494863e-05 16.388782561357139 7.2301842335985509e-07 0.015252427222629247 0.023564011160506222 1.0907590825077944e-06 40.513107740152535 0.16332772662272232 0.050921530827650649 0.02973208045792506 0.00023079536544920776 0.00015073942409039146 4.2803710617059698 5.2255107391651894 1.8672123856195815 4.7358693541746643e-07 51.231138083503446 0.00093408187601744176 1.32923254267368 1.7135429105891347e-06 34.703818168769871 0.0016080187484226083 0.050992353716337549 39.278203495124309 0.00052537927728583435 2.6342222807117186 1.2220965312595391e-06 14.058684926693825 2.1145788522054233e-06 1.8256310823857711 7.6162859677500607e-05 7.6786445320353032 0.00095249877060132057 0.022653101911070818 2.363532935128148 1.5146518405546794e-08 93.747149728762068 0.00071460404139647498 0.05623860399795956 0.035090060816498805 1.4460571788323549e-08 94.404440109720795 0.11405957376336781 45.771526814358744 1.4579545037508541e-05 0.049834494393415238 0.56986111519073734 0.81078046781358382 4.2458961202471858e-08 0.020696291925503603 0.17509971575938801 86.22328593526683 0.50224658612789352 0.00043408339844778191 2.8838506763012832 0.0057219674124385916 0.001484893905129993 0.0069675713664946563 3.1568992685487762 3.4325760303296322e-05 11.136001578454795 0.00040356673391509439 0.0019951754870064105 2.6688023252001098 5.7045493020620982e-07 49.13639257840282 0.00052926736038685527 0.16316924622406698 5.0755302170795116e-07 0.023157380782823211 0.0030064500369711318 87.362769809051912 0.068365091675816156 75.38625984569461 0.075687644516832422 3.6102786044560081e-08 0.058531221099578937 0.051709697645506314 9.1246277057827622e-08 0.18750484304520582 2.5210230318342364e-07 0.019492762867791218 2.9888589776695929 8.2609735551612167e-06 19.959982022012042 0.00043874173641342794 0.0012461933904731677 0.017971049401710411 9.221347154513623 4.983688101495099