<?xml version="1.0"?>
<VTKFile type="UnstructuredGrid" version="0.1" byte_order="LittleEndian">
<UnstructuredGrid>
<Piece NumberOfPoints="568" NumberOfCells="1054">
<Points>
<DataArray type="Float64" NumberOfComponents="3" format="ascii">
0 0 0 0.049999999999899652 0 0 0.032369857048753323 0.032369857048862027 0 0.058433525112266523 0.058433525112214509 0 0 0.050000000000207989 0 0 0.10000000000041601 0 0.040058458469319477 0.094457855579157729 0 0.098076845682915317 0.099172414730993488 0 0.094457855579284614 0.040058458469418363 0 0.099999999999814668 0 0 0.056452228708379938 0.23456580837661581 0 0 0.20000000000083221 0 0.038839999600931263 0.17949825993190149 0 0 0.15000000000062411 0 0.054872692726595548 0.13410685639845171 0 0.089689702191541126 0.13851380458662241 0 0.12294765968567151 0.14825146416195439 0 0.08287507656968085 0.1788186348829835 0 0.099694771212264055 0.22074048840547039 0 0.15899695163321451 0.22783674912227669 0 0.12587517708284679 0.1889683322666954 0 0.16901316006868169 0.16800219386663079 0 0.18922011052115781 0.12644206653611201 0 0.22626394058331961 0.15465946819838111 0 0.20596721135052939 0.19972517895396219 0 0.2115548431873881 0.2417444767741872 0 0.18035159017842109 0.039190336535090492 0 0.14999999999970359 0 0 0.1383574446607988 0.058995933918849157 0 0.1484760565886207 0.1122209074004519 0 0.18172590289758209 0.08161197406129285 0 0.21720615046484709 0.1044394548351292 0 0.23167460333446299 0.05534377469531044 0 0.19999999999955789 0 0 0.24999999999941211 0 0 0.28320804985300141 0.050843339082505573 0 0.29999999999926641 0 0 0.32361955853288599 0.032799927825624707 0 0.36246243089534252 0.044218366607477223 0 0.34999999999912063 0 0 0.35582258519414178 0.085418764257258431 0 0.32242731191769902 0.068937933438140794 0 0.33076700644279272 0.1195922550481146 0 0.29506339503703888 0.1011380892434444 0 0.25714619498771307 0.1041399906845497 0 0.26318949769601319 0.14610173397257309 0 0.29914271679297122 0.15649620970120659 0 0.26017196519013502 0.20370391303005 0 0.30107969069289831 0.20280020009141189 0 0.28840285102268098 0.24960955320708811 0 0.33179683980498331 0.2223019939720311 0 0.33080167595110582 0.18179111300269291 0 0.3603074848216346 0.15401470087110539 0 0.3972892400718947 0.16563993209502181 0 0.43240736009008851 0.18205680965402779 0 0.41732862935313042 0.12986698634362279 0 0.38103425680679859 0.2047839516297037 0 0.42421838472613971 0.22246502005787769 0 0.46229330881044273 0.19890916456654811 0 0.49999999999997108 0.21968641114982909 0 0.45952001838826873 0.15666487330524251 0 0.46567857652706018 0.1143680615275231 0 0.47574662421782782 0.077626823840590969 0 0.48492433058289169 0.037321398276272413 0 0.49999999999869432 0 0 0.44999999999882923 0 0 0.44692795014265252 0.051801877645060238 0 0.40685581827241191 0.041139877312511682 0 0.3999999999989749 0 0 0.39061628640684498 0.081525103161991672 0 0.37516171960683908 0.121918126660369 0 0.43122735573933979 0.088176999192917438 0 0.42930823106401639 0.40626685012722968 0 0.39222057657781068 0.38067796690227418 0 0.39419886675318527 0.41912225240070788 0 0.37702386074717259 0.45819417564476811 0 0.41009598069569558 0.49083935749285379 0 0.42340342337193693 0.44762131874855388 0 0.46152714345798918 0.47344359412352599 0 0.46102425708533701 0.43254199134332588 0 0.46543211128216788 0.38788423543681888 0 0.49854341599767982 0.37075914768127122 0 0.47253211736503098 0.34081710830804929 0 0.48378871228000903 0.29745177826977359 0 0.45533136021725079 0.2525687312087147 0 0.43059486795334201 0.30395973419063538 0 0.39162098771181342 0.29503699292854563 0 0.40180462628983732 0.2561903397585753 0 0.43301393728221038 0.35984320557492139 0 0.39120887188745579 0.33407577688404289 0 0.34804757266227387 0.35750068079406011 0 0.3231032570156932 0.32141443408924047 0 0.3579628846738841 0.25683522786710378 0 0.35481435458309307 0.30398436674998969 0 0.32373692627050221 0.27286413781593999 0 0.29747949118041711 0.2964111573808435 0 0.26014443552207939 0.29262390443653519 0 0.25082138072344978 0.25770010742236849 0 0.28473805236128291 0.34355768118673757 0 0.25582605936799319 0.39507969989513358 0 0.2963043386970643 0.4298320229681446 0 0.30597655500381687 0.3934681685211931 0 0.35481422397128459 0.40312981465069342 0 0.33382663527330159 0.44130125047503482 0 0.33436424489304489 0.47849603121740791 0 0.29988655052531688 0.46700727827593119 0 0.26247584734598628 0.44764943295894732 0 0.262418491288269 0.49071922292154141 0 0.19218127164496679 0.46593838964869538 0 0.23232476702437141 0.46634525369567709 0 0.21968801783855879 0.43306783640023788 0 0.197169318452384 0.38703015239362498 0 0.17845774482872559 0.43087117257049429 0 0.14869578771858949 0.40481452396082068 0 0.1444847662218138 0.45353891581271188 0 0.16001314202358469 0.49771727055909287 0 0.22001518176882229 0.28602682846307981 0 0.19152147653881049 0.32791879770215432 0 0.2360419540479583 0.32191828326940741 0 0.22269553095687891 0.35837423432538801 0 0.15401470087117619 0.36030748482174652 0 0.14392209494791439 0.30620070203545702 0 0.1685376717739448 0.27232483159280108 0 0.1104775404132264 0.2631175359816938 0 0.099492119481027347 0.30746398533281638 0 0.073296788161418117 0.34226957089850552 0 0.11603400219493119 0.33748134585014028 0 0.033457646040922301 0.36364842331228431 0 0 0.35000000000145642 0 0.032220921767546963 0.32901489214487523 0 0.053730171687646627 0.28825077189828552 0 0 0.30000000000124832 0 0 0.25000000000104028 0 0.064893331803534807 0.48669777060454478 0 0.1091992745981364 0.48758069708049778 0 0.097100979577207341 0.43590673999053198 0 0.10935320311385981 0.37839190921727089 0 0.06053051438015096 0.39514626428972788 0 0 0.40000000000166441 0 0 0.45000000000187229 0 0.043612803661092707 0.44006111182840391 0 0.029444907164209121 0.47500000000196552 0 0 0.50000000000205869 0 0 0.55000000000173355 0 0.051801877645083663 0.55307204985745195 0 0.037321398276215258 0.51507566941747263 0 0.07762682384055844 0.52425337578226128 0 0.1143680615274819 0.53432142347292733 0 0.1219181266603569 0.62483828039315903 0 0.088176999192898689 0.56877264426067353 0 0.081525103161997597 0.6093837135931508 0 0.041139877312483641 0.59314418172763017 0 0 0.60000000000138687 0 0 0.65000000000104008 0 0.032357843506722522 0.67660040198578164 0 0.04421836660747535 0.63753756910470205 0 0 0.7000000000006934 0 0.04863291748797445 0.71789175274016204 0 0.091072812796719582 0.74198804864687795 0 0.099018722548963364 0.70475631558365193 0 0.085418764257258195 0.64417741480586865 0 0.068937933438162791 0.67757268808231053 0 0.1195922550481313 0.66923299355722787 0 0.1540147008710982 0.63969251517836956 0 0.1817911130026923 0.66919832404888702 0 0.13725179499972981 0.74154628962856628 0 0.1564962097012354 0.70085728320703999 0 0.20370391303007401 0.73982803480989479 0 0.2028002000914135 0.69892030930711557 0 0.249609553207091 0.71159714897732929 0 0.22230199397202771 0.66820316019503168 0 0.2047839516296828 0.61896574319320252 0 0.2224870800581388 0.57577541371134155 0 0.2196864111498267 0.50000000000003153 0 0.1989632851005598 0.53769147668950479 0 0.1566648733051971 0.54047998161174216 0 0.12986698634359389 0.58267137064684615 0 0.1656399320949789 0.60271075992809464 0 0.18205680965398621 0.56759263990989739 0 0.10000000000041601 1 0 0.094457855579188163 0.95994154153068711 0 0.050000000000207989 1 0 0 1 0 0.030452409610489669 0.96954759038951022 0 0 0.94999999999979179 0 0.058433525112254137 0.94156647488774581 0 0 0.89999999999958358 0 0.040058458469322648 0.90554214442079806 0 0.097990957645208238 0.90045039720880915 0 0.1229476596857173 0.85174853583809695 0 0.086813039193431391 0.81709574086842884 0 0.087041706119416085 0.85382799508926188 0 0.052469033166843738 0.86696410734366991 0 0 0.84999999999965292 0 0.043889462445437968 0.82675923981951283 0 0 0.79999999999999982 0 0 0.75000000000034661 0 0.052938001421335763 0.77688977118331159 0 0.11231692802445629 0.78020430794084028 0 0.16253691950235041 0.78284912262768558 0 0.24335844191347281 0.78651189793387466 0 0.20359074765364421 0.79422489417871855 0 0.22893929024737289 0.83990878992727813 0 0.17101873536300011 0.82898126463696109 0 0.1322615032692282 0.8130603300143705 0 0.14688274318541941 0.88962265630811932 0 0.1817259028976386 0.91838802593888857 0 0.18958721034944021 0.87660297360394568 0 0.22131139331094829 0.9041449437198319 0 0.23222643817617661 0.94420751116970569 0 0.20000000000083221 1 0 0.18045991219397989 0.960710939969875 0 0.13834721989462789 0.94095916274077984 0 0.15000000000062411 1 0 0.35000000000145642 1 0 0.36363861612613613 0.96654491682121313 0 0.32894624184180998 0.96779701826738929 0 0.30000000000124832 1 0 0.25000000000104028 1 0 0.28790752038294382 0.94635952848702642 0 0.26305414557470391 0.88949062093136155 0 0.30738136326657722 0.90051880305435028 0 0.33748026778199908 0.88396545633134682 0 0.3422695708985129 0.92670321183858773 0 0.36030748482174152 0.84598529912882459 0 0.30619531169472608 0.85607519768342955 0 0.27254997832041528 0.8312019486901443 0 0.28602682846308641 0.77998481823117594 0 0.32191828326940508 0.76395804595204586 0 0.32791879770213411 0.80847852346120164 0 0.35837423432538362 0.77730446904312345 0 0.38703015239361932 0.80283068154761972 0 0.43306783640023289 0.78031198216144404 0 0.46634612187967051 0.76767585524061377 0 0.46593838964869061 0.80781872835503554 0 0.49771727055908782 0.83998685797641781 0 0.45353891581270822 0.85551523377818905 0 0.43087117257049001 0.8215422551712771 0 0.40481452396081791 0.85130421228141606 0 0.37839190921727062 0.89064679688614412 0 0.43590673999053309 0.90289902042279657 0 0.48758069708049379 0.89080072540186539 0 0.48669777060454272 0.93510666819646593 0 0.44006111182840962 0.9563871963389079 0 0.47500000000196563 0.970555092835793 0 0.45000000000187229 1 0 0.39514626428973221 0.93946948561985189 0 0.40000000000166441 1 0 0.33231497408081678 0.60779218732873663 0 0.37104651296145419 0.60545170748311072 0 0.35984320557492089 0.5669
[...]
<CellData Scalars="pressure_p0," Vectors="velocity_p0," Tensors="">
<DataArray type="Float64" Name="pressure_p0" format="ascii">
2.7765525172162423e-12 6.8515229673864543e-13 6.513898126587892e-12 2.9043197678078445e-12 7.8558748340458774e-13 7.5187973412982634e-13 3.3604227738221319e-12 1.3751274899816915e-11 3.0458402764090745e-11 1.2818944133773832e-11 2.5796212450727134e-11 1.6770090401745693e-10 9.4791053748179691e-11 1.2603968802896015e-10 3.6105138289431352e-11 1.5803185854763974e-11 1.1862793632401608e-12 8.1777054625865544e-12 2.5854857274852881e-12 7.8826139606866706e-12 6.5187842548642294e-13 2.4360844043874952e-12 2.8900292627051565e-12 1.7646758394654482e-11 4.7796104450202825e-11 6.4150212377505275e-11 9.0719571985688828e-11 2.1092266196974268e-11 5.9797037542080515e-11 1.6238964598256209e-10 3.8140414599806515e-11 1.7578873959973175e-09 2.0653091483724198e-10 5.5948357047008343e-10 1.7462329929993908e-09 3.0312054293329847e-10 4.6565427947416023e-10 1.2017330417948387e-09 7.5369615756446372e-09 3.8851158924786413e-09 3.6326030945232382e-08 1.6779033446893903e-08 3.6447125809130525e-08 5.0646475577566003e-09 1.3275489066498618e-08 2.5618711912528496e-08 3.519545354499356e-09 1.2562199539273777e-09 2.1162786799191753e-09 2.4813145368888297e-10 7.9603923643651605e-10 7.0408477715460778e-10 2.2313532588563468e-10 1.4289042902602465e-09 7.9205058763869034e-09 3.7847555124345871e-09 1.8420727562872653e-08 2.0654189484324524e-08 4.5301907910554325e-09 6.315993119910538e-09 1.6660660066169566e-08 1.3561877571636641e-07 5.1022806763335839e-08 4.9984118633624494e-07 3.6729322642191934e-07 9.6019857174310554e-07 1.4029671590089192e-06 2.1508208840553309e-06 5.7521774385668788e-06 6.153839699761389e-06 2.8853506627541739e-06 5.0428571406964131e-06 2.1574320025439719e-06 1.3528346205300912e-06 5.988806789169121e-07 3.1947659659685159e-07 1.2599348273222132e-07 5.4724926739815575e-08 9.0228085766923664e-08 9.4989204744837181e-08 4.348432042223278e-07 4.1726801068422126e-07 1.6396766247236025e-07 6.7994437087451497e-08 1.4226059803311817e-07 1.6982905562596062e-07 3.8680087969409486e-07 5.5047298235540824e-07 6.8973600637954519e-07 2.0123560803494836e-06 2.9514765463689445e-06 1.5419285682570403e-06 6.9217737473213197e-07 3.0707962447824562e-06 2.9998794838452132e-06 1.4663695682182395e-05 6.7373197502985644e-06 1.826446343638846e-05 7.1433166324359993e-06 2.9910111445528312e-05 6.730346430407311e-05 1.6602936946792322e-05 7.1382752746000557e-06 2.6776409378894867e-05 4.4422822060720056e-05 9.5831753670784362e-05 7.0101697710299785e-05 0.00043677846992712214 0.00023609747836855863 0.00043665061626140748 0.00011244102322353109 0.00011281242823488649 0.00025994279031164868 0.00056815497155454663 0.00028447541063243134 0.00041087860340424144 7.4491566229280818e-05 0.00015661147181066849 0.00011802641551054464 0.00050618252765885084 0.00022617222046584538 0.00033368471027742097 0.00016603027018711694 4.8685591319129613e-05 3.5672223637727857e-05 6.554140038396432e-05 1.241073625528685e-05 1.0154924147402541e-05 1.3630683376837498e-05 2.8124784886708125e-05 2.3455444062941005e-05 2.800592323477165e-05 3.2111278183635407e-05 7.1366058547397205e-06 1.8387121857308568e-05 5.8328263292906615e-06 1.4460880419835314e-05 1.8465774875295222e-05 7.8993349526033819e-06 5.3173206544981599e-05 0.00010046940104301945 7.910292124172516e-05 0.00023611416736111284 0.00047115572422799551 0.00027673966921097225 0.00049512649224172593 0.00029136400540634259 6.5394516890873803e-05 0.00011553477424953603 7.8731209875722299e-05 0.000468005836223586 0.00057762590939774083 0.00030499534641719871 0.00047046784548694469 8.8465668881046363e-05 0.00017703288756342064 0.00013752515383086427 0.00035176013124669066 0.00013774199279809664 5.1029345101393089e-05 2.1766191233137095e-05 1.8215918613318074e-05 7.0274186459234959e-06 8.9151608321506491e-06 3.3320489030260276e-05 1.9254220527942725e-05 6.7280660311433613e-06 5.363554362820538e-07 6.8175159504039261e-07 3.9389738424924451e-06 1.5881298981796105e-06 1.8884558563866749e-06 4.4821351730519598e-06 5.1535305858921099e-07 1.1228120131165271e-06 1.3357811423735231e-06 1.2871345459717896e-07 3.1767764471516241e-07 1.1832565919538171e-07 6.6022541073240131e-08 2.891696951494885e-07 5.2983887094323121e-08 5.0692758765772403e-08 8.4172522105567419e-08 4.5578211630856687e-07 1.7617055223751514e-07 1.5334486619639895e-07 1.3061330007304744e-06 1.0612419902387373e-06 2.6378189466086938e-06 3.8701652889431069e-06 2.8745978969593787e-06 1.9107540889652405e-06 6.8391893738364061e-07 1.7502625267512804e-07 4.5052908787049409e-07 1.4970168488218708e-07 3.9114581228781979e-07 3.5966721396369313e-08 9.2824910932416982e-08 1.9136953224659432e-08 2.7368171159195479e-09 7.0696011169211607e-09 3.2814522738841387e-09 7.1658942074857691e-09 1.9414723073699979e-08 3.0850981948694662e-08 1.3938136207457717e-08 1.3050290349651795e-08 4.0501501261336231e-09 5.9917404712647656e-10 1.5244094231285282e-09 1.0088830004616756e-09 2.9027551728491825e-10 2.0023726065695787e-10 2.6741646549947105e-10 8.6367088263379649e-10 1.1549728167882458e-09 4.2529721139559567e-09 2.719360393702698e-08 1.2760793896133501e-08 2.0998734960703825e-08 8.2658177651872098e-09 3.1402481377764767e-09 9.2013387664938412e-09 3.3526285095125407e-08 4.9465484552161831e-09 1.9166645882156319e-09 1.6222718033909408e-10 2.7698443247851187e-10 8.2732952622539108e-10 1.0551751608160313e-09 3.46170597924329e-10 4.6251168227532367e-10 1.870211866176531e-11 1.148967004436758e-10 3.4446094121081498e-11 1.5914061108057933e-11 1.1928544490142019e-10 4.0867880890688342e-11 5.0896439775225456e-11 2.1408689468619727e-11 3.8903132186669029e-12 6.8149022207439987e-12 5.0798763501424127e-13 1.1409151323450657e-12 4.839907148870054e-13 5.6813935810714014e-12 1.9270779143226997e-12 1.1294320590967384e-12 3.9357292515248233e-12 1.2234397216837167e-11 3.1774848006791325e-11 2.4441300128966863e-11 9.8773698709139239e-11 1.1705298387509569e-10 3.2875997297115977e-11 1.1618977320315871e-11 2.9543544648217146e-12 2.315765057240017e-12 7.8076298335553625e-13 1.5342586197543638e-12 4.3090475572188451e-12 3.7141550876102921e-12 4.5907757989753578e-13 1.2399528426360937e-12 5.8156981782141465e-13 2.0047373365993403e-12 8.4834020655267071e-12 6.51492414828712e-12 1.4022640462656351e-11 3.5725428379715476e-11 7.8829573116247472e-11 5.4669739863131635e-11 8.4201397592876795e-11 4.7708484780453528e-11 1.3785166461109593e-11 6.0018943986426815e-12 8.0938732509327055e-12 2.2283462215834603e-12 6.2018712393751797e-13 1.72463677773314e-12 1.442584469357587e-12 6.880997342273305e-13 4.6857087871496162e-13 4.2756427027536799e-12 8.6224635883313642e-13 1.6914417507858823e-12 4.8737268630097863e-12 2.7872838815323923e-12 1.0253993079553098e-11 2.3310827256658797e-11 1.4424176371420549e-11 8.0201077182910506e-11 1.205163031970612e-11 1.0103442633526735e-11 3.2159104148859774e-11 4.2828215158163414e-11 3.6585638798785611e-11 6.7958089631315791e-11 1.8061312145792563e-10 5.2656313107518464e-10 5.3585702063304733e-10 1.8205358923160736e-09 1.0695599853240141e-09 1.5728515972461951e-10 2.3735359047126928e-10 1.6133951352451108e-09 2.663171771406333e-09 9.2553005451987756e-09 1.1840471689263039e-08 2.3060774255287807e-08 4.6156189669078984e-09 4.2835384291170659e-09 3.3263028701470905e-08 1.3351668684059331e-08 2.4423295352324927e-08 1.3519059238816828e-08 4.5965670968115867e-09 2.717794466980728e-08 1.2232000177024618e-08 2.8312561093806919e-08 1.2030787320113507e-08 3.385521980197112e-09 4.0766126150874274e-09 1.5600272934346114e-09 1.2003776502365315e-09 3.8136882861213668e-10 1.8012615305623181e-10 2.1173616952025728e-10 5.9837763539278988e-10 2.7142626831540526e-10 4.0227459980034219e-10 2.0021161859033139e-09 1.3007829987198808e-09 7.4328679881203767e-10 1.1713672124110871e-10 1.4781190660154612e-11 3.3540787966587284e-11 5.9217566423413448e-12 6.065216169628515e-13 2.4711408656562837e-12 2.6512593456610614e-12 3.1819289106553227e-12 7.4660969808176939e-13 7.2682639937947639e-13 1.1850871493078546e-11 1.307049567551015e-11 2.888540892496137e-11 8.9808910773108878e-11 1.62688444698835e-10 6.0650356824743083e-11 1.0078496100144392e-10 4.6874729523184155e-11 1.600620430784979e-11 2.3489907980430738e-11 8.735636365533048e-12 2.4914615867990481e-12 2.6807713383332993e-12 7.4204391623921531e-13 8.7160045511365856e-12 2.4914882340881156e-12 9.8096857600034206e-13 3.0147759073330265e-11 2.6858486813863493e-11 8.1895489902500871e-11 9.8917079951696944e-11 1.1746370123204543e-09 2.9723500054419019e-10 5.988539695667728e-10 2.5732649231058822e-10 1.6525070598458283e-09 2.8727585187761519e-09 8.2619329007591615e-09 1.9517976460023185e-08 1.2585566528928673e-08 8.0170121692493677e-09 4.9544446734521655e-09 3.3454683720616713e-08 3.9539632670092546e-09 1.1903912637710009e-09 3.2758883824879661e-10 4.6719882476018549e-10 2.0807377375693753e-10 6.5692275733819238e-10 1.3346627473026522e-09 3.8211010014953687e-09 2.128748470012074e-08 2.3463315880720051e-08 8.5942566234644205e-09 4.496957479303416e-09 5.8436371475780427e-09 1.507539530545107e-08 1.9287403963849228e-09 7.438010274087922e-10 1.2311600487090826e-09 2.3101474807161798e-10 2.0003391479470556e-06 5.2698968990171575e-06 1.8199162048442105e-06 4.5565709030591963e-06 7.2644204454111248e-07 8.8504598406625803e-07 3.6095733745033147e-07 1.2529101056657956e-07 4.8937591952736448e-08 1.7327398777219954e-07 6.2230951156514342e-08 2.1780047566063703e-07 5.725656615111616e-07 1.0054976459249077e-06 5.3480555143913816e-07 5.9768516014427572e-06 2.5520817526205562e-06 3.2288208229110625e-06 3.2923930482817492e-06 1.1122830195962484e-06 1.2905876495504348e-06 4.5056994755262879e-08 1.280267126808346e-07 3.4584328362022159e-07 4.4894029473197978e-07 2.4570250267312258e-07 7.7408704352332976e-08 1.117612748555351e-07 5.6272264613204493e-08 2.7077712658205986e-07 1.5292665976559469e-06 1.1371468852924538e-06 3.07228146167395e-06 7.2867177033890477e-06 1.911046405693225e-05 3.1037448758119153e-05 4.3309888115379546e-05 0.0001005762149822529 0.00040324883882449347 0.00043285048403459315 0.00028678023615772151 0.00012786080111876528 8.0039839695996448e-05 0.00010591809981968069 0.00024412645605406902 0.00033521649106310429 5.6042369286467077e-05 5.0010390694301784e-05 2.0440231663487077e-05 8.3525237528166607e-06 7.8314742443067535e-06 1.9260751258331028e-05 4.238667548723079e-05 2.2188228191045529e-05 0.00015386506671751226 0.00063122187766537262 0.00023814917535917033 0.00013012960657486866 0.00020553553901619731 0.00050501583567038677 0.00029068560636231729 0.00062992115541899481 0.00012586779455980989 5.1476084691699888e-05 2.4961295599556677e-05 9.6278435151929066e-06 1.088607677699867e-06 2.6816822287746946e-06 2.5179679692819083e-06 5.0558765538549113e-06 2.0520134636997791e-06 1.0183448200216817e-06 1.124350544932695e-06 4.3695530748422209e-07 1.0185979806969664e-06 1.6476461365817208e-07 8.7736647507822579e-08 8.5040830988709867e-08 1.5721990771361817e-07 4.3158891628976939e-07 4.2345923047149715e-07 7.4366274504981582e-08 1.1163947309207588e-07 3.6434034227202544e-08 2.8521730273647282e-07 2.5424894911700991e-07 1.6433323088437858e-07 7.0821991338579878e-08 1.3960875541153967e-07 9.2063267179443729e-08 4.6903138813637507e-07 6.8674909592141189e-07 6.766184768791498e-07 6.1671458376720215e-06 4.1349620044729095e-06 3.4707372214268774e-06 1.4871589476993563e-06 1.1359459193705714e-06 8.793762554477981e-07 1.1769406903941904e-05 7.9705033108694697e-06 3.8739403433495239e-05 1.8446054698870161e-05 5.8720248626832183e-05 3.7297017094466121e-05 1.6844811657550137e-05 4.0329757772526259e-05 0.0002143279016555957 0.00021906993516970384 9.7274601372640613e-05 8.7951224832774101e-05 0.00049632724288152606 0.00013729628979478606 0.00016387002403699965 0.00039782510739040568 0.00032568560997880806 0.00041678277958666636 0.00025257473662648001 0.00018451179857913278 6.8368116880922211e-05 3.4496122891487734e-05 4.8914941084038381e-05 6.5080263304146927e-06 6.9519108011562674e-06 1.2458893242355729e-05 1.0973548830778907e-05 9.3714881464008905e-06 4.8959464401398376e-05 2.3459036663630716e-05 3.5198785015618777e-05 0.00012507392472392695 0.00012919664583848259 0.00030418907466492773 0.0017990635410961814 0.00075702336444822952 0.0040061054855650424 0.0054110864945194365 0.008377966169021301 0.010500617440878504 0.013856170538482263 0.017238584887154296 0.036718123087978546 0.027328502680123164 0.021029533993042859 0.011593714462608422 0.0049743728610814799 0.0033533402382930014 0.0013254298178315316 0.00066279514956332525 0.0010304591268630037 0.00065890899391006985 0.0013542033669730552 0.0050024160536323069 0.0026490254262371607 0.0025209228545134028 0.0012686554859845205 0.0028174103702475286 0.0031959946512114552 0.0079663700170246529 0.01520103223321142 0.016860269216749383 0.036607752663241608 0.032329491920429457 0.010701034723784128 0.017599953675445999 0.04241539756475237 0.29264902174891483 0.24276923449526516 0.060268237696035551 0.11757833936397857 0.10484334066410411 0.052834580778132689 0.14722578220788918 0.25443771290497319 0.13601883203600029 0.35701893718719524 0.62100067295389683 0.63955486738972933 0.96126233238588665 0.37043558723000469 1.1262782762097565 1.3562392761794557 0.56432569733925031 0.64846882160965613 0.83930570262322113 1.3522155634838025 0.75159803992315899 0.53640593002863102 0.53191064935143906 0.2727033313299716 0.23861420595367061 0.16338455912366071 0.074221274731614453 0.083335057564140752 0.047339733060602657 0.068661418194080254 0.15151194974795076 0.24983217132669017 0.18545504280461533 0.028338042197128179 0.030333406336191294 0.0076528107808070175 0.0065077948735973437 0.011801991759908025 0.0028331506293955895 0.0015482369024563906 0.001931792554799831 0.00088942964625781187 0.0029196090732927166 0.0036702693199970149 0.0011545413574305489 0.0058601004202692066 0.012771147282995051 0.014328436015440434 0.023740363369106871 0.040386661212121047 0.021930809385320393 0.038433541212176209 0.018699449107548234 0.011732987801110904 0.0060240186043516546 0.0041854694185009013 0.00084893233307832571 0.001593061674423548 0.0016227162969115706 0.00355833405110888 0.0056369671642986872 0.00098653567968066741 0.0010360376334846726 0.0017929387093408261 0.0042129064432047756 0.0085118059398222468 0.01379504661612912 0.037368156738934358 0.018928011085452938 0.078693274338763233 0.10596533089798527 0.22180772590134176 0.26699571950511702 0.33818036795957107 0.9841510721392599 0.57503592069155995 0.63003047240229659 0.30964343908809716 0.84754832784691203 0.60178361890529353 0.31628631867880674 0.23029014929331054 0.12695542057200368 0.077237373164479387 0.081533509144101124 0.08456048523184205 0.04486271819085165 0.10299551011959024 0.05170355392853633 0.1399343645457346 0.25066991179096676 0.86689592975151331 0.70561687406628826 1.3646142439488753 0.4037911978465123 0.31204567106562298 1.4904034788125387 0.76053232569008045 0.39584256590104611 0.21376715580465888 0.14703463306317863 0.1117564102694935 0.052618062937946242 20.510123873188874 13.142209136652724 12.909919735019596 8.4427367871497481 2.821064954422607 5.6717695996252484 5.0446646358969742 3.9900868616895204 2.2304642785641891 1.6378565365113937 5.1703905464125004 11.186740147807896 8.5121787416513612 9.4664304035400253 20.385791615627497 18.721921284255266 15.199792494151136 17.705590321839896 9.2488853210807775 3.9988296494898283 5.8132445958294454 1.683293399664747 2.3065587119233664 5.0695609556026326 2.6244825220903434 2.7229566604822231 1.8449793731376198 5.6543892624155436 20.548419053729184 7.4001739823271464 7.5703239986064901 12.900355336442797 22.310058726823776 31.008136530935207 42.804887388668817 37.708473504015181 84.925635230179864 54.721625166476393 74.665317915030201 53.941977311216391 73.824926632670696 89.230102789076795 73.794879964496317 39.5727770246109 36.486412250606676 28.810307685775246 22.925533743182328 26.831850942575763 50.424154031377313 39.200567289653137 50.335172069469536 89.045652644335377 89.04758026715308 73.994676446036692 75.816739048101468 91.193924780699263 78.136123446202944 63.340108796329275 41.143142516083941 49.164571237361727 24.873318501072124 11.643792542183263 8.2516476744317124 9.7517901156939555 16.789306853138743 19.223611705984816 16.648495494426726 9.9314190174210886 8.7483448538666018 5.120726676861004 3.4056274941975131 5.96782555113192 3.4128398777217699 1.9631236310940183 1.9523308090842726 1.6433050157504285 4.9834886547946047 2.8502281927972648 2.7355504999085594 1.6046588165266731 3.2712687645995979 4.3871645832161184 2.5039048949854186 1.7233745988445106 1.9480559715548882 5.548015479297467 3.3608012717972544 4.7133976858802411 9.373000271876645 14.462193384660878 15.840317333975074 7.1978687853907264 10.314071272613027 16.456985552340619 20.287937966168911 31.313829452984805 32.754902929962846 22.557503164365144 44.145470209414796 41.059642941744016 23.514837265882157 37.467314985440836 46.112468003249049 71.3120934818254 77.021887285553163 85.540056013633901 56.962949790720153 63.466440503050613 58.736725312656631 91.198034955333512 90.883380989427394 82.21612804219717 88.243678567422961 72.651492341839997 75.07235386555304 36.836646643169551 49.723021930476762 23.462600951449453 23.914348559808811 48.815868110878249 39.363386553923966 36.059599186375522 65.433138900058111 64.040189002547038 80.468153111719531 82.014477959136258 91.999944952845226 89.856072759891902 76.25199709077377 57.066656688807008 54.140335976930238 77.172983620674557 75.374782306767003 88.800956687525584 53.656003775418256 57.202132987130355 47.450928231499532 31.205857859314385 26.454460837247112 45.593101419323887 25.973268498227956 33.923104270620875 30.873935490094144 19.967414396818281 14.962503353575649 8.7907761532104729 7.3672970980249914 17.80006714681786 11.877241132870907 16.354289952621784 13.994706469915675 6.7062518694440794 8.2269257371035458 11.21733613516408 4.4364168959842232 2.5557997713129179 1.9744626536841188 1.682936809632116 2.7182137897696776 2.8615051971380439 1.6907410132878202 5.7640208797088199 4.5660297561984402 3.2386993905557948 6.3568564601350275 2.0850835069803666 2.6866281924264639 1.5396704207835943 2.565987949884259 4.4803598729881511 4.4334980754135067 7.3679468958735237 18.32513127264189 12.965231206659388 12.764154684497257 17.901516722348077 20.658128330796131 7.1920144273033806 9.5425083062947991 23.855827513697822 45.347410019162957 38.946191721549418 47.921348651416892 32.66039230153978 26.673680625159477 32.838000354029717 35.194994992694838 49.659096366763706 47.150428479300167 61.84793708773541 91.023533986133373 79.288173905782543 88.002733445993186 72.044543478201433 60.240529908376544 77.540067752389547 86.242699771913266 85.064244129530266 74.850435005505986 54.93322536556105 89.273653919777786 73.820651689610827 73.887277967759971 54.026995797301367 36.297951275635754 39.281966460361133 28.096626012570628 29.187135295492851 22.574426784289148 37.476394762706903 41.449659952975409 63.342822866465809 91.194670575759474 78.137483525768545 75.81907481130483 73.99829606698944 89.050800546239003 89.051080603230872 50.437110263326751 22.809747868669973 26.778827828683205 21.131999305409856 39.278435509171516 50.510292510133048 49.169447857129683 24.874681530952653 41.145691146888339 8.0865160156303073 12.376885881410299 20.419584686465527 10.291757949299786 13.309031479271363 19.528738936685862 12.071893794067496 8.6069257117128011 5.1830677162152634 2.0215813756204986 1.9341494805656603 3.7904135455420103 4.460433311126903 5.2690773739764651 2.5420972083015476 8.2437318282010814 9.6549211943166995 6.5301272116417586 17.645012539384791 13.25628424134921 19.572634910196633 17.428089459033103 15.29465721253653 9.303869000277988 5.0310399628692704 5.4726236694677555 3.6030506513573926 1.5861892471237886 2.8118633131520205 3.4511966948861015 2.2333312376086942 0.70088467352906414 1.1253976196340354