<?xml version="1.0"?>
<VTKFile type="UnstructuredGrid" version="0.1" byte_order="LittleEndian">
<UnstructuredGrid>
<Piece NumberOfPoints="568" NumberOfCells="1054">
<Points>
<DataArray type="Float64" NumberOfComponents="3" format="ascii">
0 0 0 0 1 0 1 1 0 1 0 0 0.049999999999899652 0 0 0.099999999999814668 0 0 0.14999999999970359 0 0 0.19999999999955789 0 0 0.24999999999941211 0 0 0.29999999999926641 0 0 0.34999999999912063 0 0 0.3999999999989749 0 0 0.44999999999882923 0 0 0.49999999999869432 0 0 0.5499999999988151 0 0 0.59999999999894682 0 0 0.64999999999907843 0 0 0.69999999999921003 0 0 0.74999999999934175 0 0 0.79999999999947335 0 0 0.84999999999960507 0 0 0.89999999999973679 0 0 0.94999999999986839 0 0 1 0.049999999999899652 0 1 0.099999999999814668 0 1 0.14999999999970359 0 1 0.19999999999955789 0 1 0.24999999999941211 0 1 0.29999999999926641 0 1 0.34999999999912063 0 1 0.3999999999989749 0 1 0.44999999999882923 0 1 0.49999999999869432 0 1 0.5499999999988151 0 1 0.59999999999894682 0 1 0.64999999999907843 0 1 0.69999999999921003 0 1 0.74999999999934175 0 1 0.79999999999947335 0 1 0.84999999999960507 0 1 0.89999999999973679 0 1 0.94999999999986839 0 0.94999999999979179 1 0 0.89999999999958358 1 0 0.84999999999965292 1 0 0.79999999999999982 1 0 0.75000000000034661 1 0 0.7000000000006934 1 0 0.65000000000104008 1 0 0.60000000000138687 1 0 0.55000000000173355 1 0 0.50000000000205869 1 0 0.45000000000187229 1 0 0.40000000000166441 1 0 0.35000000000145642 1 0 0.30000000000124832 1 0 0.25000000000104028 1 0 0.20000000000083221 1 0 0.15000000000062411 1 0 0.10000000000041601 1 0 0.050000000000207989 1 0 0 0.94999999999979179 0 0 0.89999999999958358 0 0 0.84999999999965292 0 0 0.79999999999999982 0 0 0.75000000000034661 0 0 0.7000000000006934 0 0 0.65000000000104008 0 0 0.60000000000138687 0 0 0.55000000000173355 0 0 0.50000000000205869 0 0 0.45000000000187229 0 0 0.40000000000166441 0 0 0.35000000000145642 0 0 0.30000000000124832 0 0 0.25000000000104028 0 0 0.20000000000083221 0 0 0.15000000000062411 0 0 0.10000000000041601 0 0 0.050000000000207989 0 0.50333998054938722 0.50119715791968966 0 0.70252050881959183 0.70358884261915833 0 0.29641115738084339 0.70252050881958938 0 0.70358884261915744 0.29747949118041561 0 0.29747949118041711 0.2964111573808435 0 0.50000000000002642 0.7803135888501761 0 0.2196864111498267 0.50000000000003153 0 0.78031358885017377 0.49999999999997569 0 0.49999999999997108 0.21968641114982909 0 0.8289812646369813 0.82898126463698818 0 0.17101873536300011 0.82898126463696109 0 0.83199780613337848 0.1690131600686714 0 0.16901316006868169 0.16800219386663079 0 0.56566515596461675 0.63670464971409091 0 0.35984320557492089 0.56698606271778873 0 0.640156794425081 0.43301393728221721 0 0.43301393728221038 0.35984320557492139 0 0.63969251517836323 0.84598529912890386 0 0.1540147008710982 0.63969251517836956 0 0.84598529912889664 0.36030748482164038 0 0.3603074848216346 0.15401470087110539 0 0.84598529912884157 0.63969251517827153 0 0.36030748482174152 0.84598529912882459 0 0.63969251517826664 0.15401470087115929 0 0.15401470087117619 0.36030748482174652 0 0.4434591735942961 0.66641640622551224 0 0.66548584431530877 0.55616712808283064 0 0.33382663527330159 0.44130125047503482 0 0.5586987495249669 0.33382663527330653 0 0.53432142347292233 0.88563193847251998 0 0.1143680615274819 0.53432142347292733 0 0.88561059063756964 0.46572761956237563 0 0.46567857652706018 0.1143680615275231 0 0.74198804864688339 0.90892718720327403 0 0.091072812796719582 0.74198804864687795 0 0.89586000931544074 0.25714619498770419 0 0.25714619498771307 0.1041399906845497 0 0.88949062093135778 0.73694585442531257 0 0.73688246401832591 0.11047754041323141 0 0.26305414557470391 0.88949062093136155 0 0.1104775404132264 0.2631175359816938 0 0.59819537371016407 0.74380966024143391 0 0.25619033975856881 0.59819537371016862 0 0.74380966024142703 0.40180462628984132 0 0.40180462628983732 0.2561903397585753 0 0.74417394063200648 0.6049203001048884 0 0.39507969989512881 0.74417394063201048 0 0.60492030010488373 0.25582605936799729 0 0.25582605936799319 0.39507969989513358 0 0.90045039720880915 0.9020090423547924 0 0.90082758526900886 0.098076845682916511 0 0.097990957645208238 0.90045039720880915 0 0.098076845682915317 0.099172414730993488 0 0.43590673999053309 0.90289902042279657 0 0.097100979577207341 0.43590673999053198 0 0.90289902042272274 0.56409326000946114 0 0.56409326000946236 0.097100979577281268 0 0.73982803480991577 0.79629608696991705 0 0.20370391303007401 0.73982803480989479 0 0.79629608696994103 0.26017196519011448 0 0.26017196519013502 0.20370391303005 0 0.77998481823117694 0.71397317153691997 0 0.28602682846308641 0.77998481823117594 0 0.71397317153692708 0.22001518176882201 0 0.22001518176882229 0.28602682846307981 0 0.49189101320880302 0.59024331187324797 0 0.57387636360620708 0.54318431390135336 0 0.41009598069569558 0.49083935749285379 0 0.54901591374940373 0.42306523525165751 0 0.6519524273377173 0.64249931920594539 0 0.35944937237716967 0.65164789808436319 0 0.6424993192059415 0.3480475726622802 0 0.34804757266227387 0.35750068079406011 0 0.81709574086843206 0.91318696080656769 0 0.086813039193431391 0.81709574086842884 0 0.91838802593870927 0.18172590289757809 0 0.18172590289758209 0.08161197406129285 0 0.91838802593884228 0.81827409710237209 0 0.82118136511706341 0.082875076569723011 0 0.1817259028976386 0.91838802593888857 0 0.08287507656968085 0.1788186348829835 0 0.51484304721220842 0.69707233951836334 0 0.30292766048163949 0.51484304721221474 0 0.70015119067225129 0.48481914991727459 0 0.48378871228000903 0.29745177826977359 0 0.60938371359314658 0.91847489683800321 0 0.081525103161997597 0.6093837135931508 0 0.91890123454466932 0.39094742729597309 0 0.39061628640684498 0.081525103161991672 0 0.92670321183853355 0.65773042910151081 0 0.65773042910151891 0.073296788161472337 0 0.3422695708985129 0.92670321183858773 0 0.073296788161418117 0.34226957089850552 0 0.43087117257049001 0.8215422551712771 0 0.8215422551712277 0.56912882742954496 0 0.17845774482872559 0.43087117257049429 0 0.56912882742954041 0.17845774482877461 0 0.46102425708533701 0.43254199134332588 0 0.56759263990989184 0.81794319034601648 0 0.18205680965398621 0.56759263990989739 0 0.81794319034597418 0.43240736009009317 0 0.43240736009008851 0.18205680965402779 0 0.66820316019503978 0.77769800602796979 0 0.22230199397202771 0.66820316019503168 0 0.77769800602796679 0.33179683980497482 0 0.33179683980498331 0.2223019939720311 0 0.67757268808231397 0.93106206656183088 0 0.068937933438162791 0.67757268808231053 0 0.93106206656185309 0.32242731191769503 0 0.32242731191769902 0.068937933438140794 0 0.43565339604028508 0.55159384357101338 0 0.58981073711177334 0.48140931020849848 0 0.49854341599767982 0.37075914768127122 0 0.44764943295894188 0.73752415265401661 0 0.73752415265401194 0.55235056704108476 0 0.26247584734598628 0.44764943295894732 0 0.55175647814720108 0.26104505532086641 0 0.39419886675318527 0.41912225240070788 0 0.48669777060454272 0.93510666819646593 0 0.064893331803534807 0.48669777060454478 0 0.93510666819640953 0.51330222939551939 0 0.5133022293955174 0.064893331803591428 0 0.40653508887824003 0.61580573377480397 0 0.49771727055908782 0.83998685797641781 0 0.16001314202358469 0.49771727055909287 0 0.83998574657308889 0.50228528270184081 0 0.50228272944093777 0.16001314202359701 0 0.70085728320704077 0.84350379029875056 0 0.1564962097012354 0.70085728320703999 0 0.84350379029877964 0.29914271679296989 0 0.29914271679297122 0.15649620970120659 0 0.839908789927305 0.77106070975262608 0 0.22893929024737289 0.83990878992727813 0 0.77216325087772952 0.15899695163319821 0 0.15899695163321451 0.22783674912227669 0 0.76395804595204597 0.67808171673060369 0 0.32191828326940508 0.76395804595204586 0 0.67808171673060202 0.23604195404795861 0 0.2360419540479583 0.32191828326940741 0 0.64518564541690571 0.69601563325001548 0 0.30421635384321521 0.64514939193436716 0 0.69601563325001248 0.35481435458309712 0 0.35481435458309307 0.30398436674998969 0 0.61233489393901674 0.60846740003560018 0 0.60122390529523662 0.39097801071820221 0 0.93946948561981514 0.60485373571037115 0 0.6048537357103756 0.060530514380187868 0 0.39514626428973221 0.93946948561985189 0 0.06053051438015096 0.39514626428972788 0 0.64455163611866495 0.50369301794551069 0 0.94156647488778256 0.058433525112256718 0 0.058433525112266523 0.058433525112214509 0 0.94156647488775558 0.94156647488774259 0 0.058433525112254137 0.94156647488774581 0 0.77688977118331393 0.94706199857866258 0 0.052938001421335763 0.77688977118331159 0 0.94465622530468663 0.23167460333446291 0 0.23167460333446299 0.05534377469531044 0 0.9442075111696665 0.76777356182390766 0 0.76543419162344684 0.056452228708420968 0 0.23222643817617661 0.94420751116970569 0 0.056452228708379938 0.23456580837661581 0 0.78284912262770068 0.83746308049763585 0 0.16253691950235041 0.78284912262768558 0 0.84534053180161173 0.2262639405833009 0 0.22626394058331961 0.15465946819838111 0 0.55307204985744796 0.94819812235491685 0 0.051801877645083663 0.55307204985745195 0 0.94812782820415209 0.44708943904932719 0 0.44692795014265252 0.051801877645060238 0 0.85607519768343354 0.69380468830529196 0 0.69379929796456197 0.14392209494791061 0 0.30619531169472608 0.85607519768342955 0 0.14392209494791439 0.30620070203545702 0 0.51172471858873747 0.64015771271794875 0 0.35815651743779398 0.51113440447909086 0 0.57051182622447827 0.69668652018496713 0 0.30429740679959738 0.56913905146460098 0 0.69595787604187809 0.43071000156707989 0 0.43059486795334201 0.30395973419063538 0 0.54465502325161819 0.74717983044080061 0 0.25287139441262568 0.54458355434492378 0 0.74730218607442667 0.45539100053644521 0 0.45533136021725079 0.2525687312087147 0 0.86696410734367158 0.94753096683315619 0 0.052469033166843738 0.86696410734366991 0 0.94100406608115506 0.1383574446607955 0 0.1383574446607988 0.058995933918849157 0 0.94095916274074942 0.861652780
[...]
<CellData Scalars="pressure_p0," Vectors="velocity_p0," Tensors="">
<DataArray type="Float64" Name="pressure_p0" format="ascii">
4.032627453926462e-05 0.83930466770086842 8.4142349163935533e-08 0.0092990087953689279 0.017599779112021957 0.042415123180958927 0.062629147733670704 0.064579836122701462 1.364613991407293 1.0240493443115654e-11 47.921347987106103 5.4710718007621234e-08 24.87331867998347 7.2651935626321535e-13 7.5064375190702508e-13 1.1714675375900613e-10 24.874680989109287 89.045652617464881 89.051080226406285 1.2594512629214239e-10 74.850434795234278 6.3136936989676342e-09 5.0446643960526814 2.4887257479533754e-12 74.665317715771863 4.4604327148481602 5.8434323311353316e-09 2.5808381909916949e-12 0.00098651138997238362 3.3834823088142756e-09 5.7640181074039738 0.00043676827965042204 2.8210648163899807 9.7960578263579682e-13 85.064244001586815 1.6655479202976844e-08 84.92563511381033 2.5420967038669411 1.5075065237426669e-08 1.1841092791738402e-12 71.312093126185786 1.2664306060692778 4.8936204224612644e-08 3.9295982735255016e-12 17.705589629960727 1.19002121412366e-09 4.3306349419935093e-05 1.6433037487974858 3.0838916333954746e-08 0.0087661088969446486 20.510123641050047 2.6794328188229759e-12 2.8857367374453276e-12 2.3102940885934036e-10 20.419584042267715 73.79487994223814 73.820651330790668 2.4796773241251061e-10 1.6222787272073491e-10 2.0215808483240472 22.310057994747627 2.1283481782813613e-08 0.70561661212989646 2.3282132085497901e-11 38.946190829933336 1.2596496015971073e-07 0.051397441249440734 41.059641993346702 2.1382788865734314e-11 5.976495301504902e-06 0.0016226878010359739 1.1996274872724823e-09 8.7907731965166818 0.00025993552343037677 15.199791848649301 4.6702351055469784e-10 15.294656565950239 4.6529946243502793e-10 2.0634024907058533e-10 3.6030500396745779 17.4280888216764 1.2009510800243641e-09 1.5290057769086204e-06 1.6046579605274969 3.3514194164325047e-08 0.12383500387498733 6.2225215052135423e-08 1.8677057321194058e-11 46.112467331445416 1.1090331012039596 8.0151155221902512e-09 20.548418411516757 4.1343871341271065e-06 1.3562383699831095 5.0675818896766783e-08 0.06159286095473742 0.0033532690442178012 72.651491855308166 0.014498118106340645 2.4960773443270698e-05 2.9502448537252965e-12 0.00013012593351892935 1.2219668655850796e-11 48.815866507646803 0.0036878887271943224 0.0054109894058211724 85.540055882791819 0.7076803947098852 1.2528995313307461e-07 1.127411391304355e-12 19.223609859602906 5.6039723710860923e-05 0.0075030625809563642 2.0007363210532335e-10 23.462599506024187 0.017223026019305154 2.2187059154343787e-05 1.1694751261546338e-10 0.56432486239489121 1.6842911155527258e-05 0.017501435301085728 1.7611926907051908e-07 0.0031959292816194041 1.6471379969741468e-07 0.59218675677471055 0.00013773579703127471 54.933224990721612 4.5283013576382116e-09 5.6717693483101552 8.7071950836836244e-12 54.721624832714895 5.2690767220368659 4.4964879510990395e-09 8.1643555523341579e-12 0.0079662604953904086 8.5008165515848523e-08 0.87274988131618669 5.1026391380261495e-05 5.5480145804456695 2.4565761290975802e-07 0.47880884038754867 3.1384649074105439e-09 9.3729993294223792 0.38484909203450318 3.4579005327101323e-07 1.0544710265032085e-09 0.29264842082576842 3.4700987113909634e-06 0.06175886730258752 5.3623540738972849e-07 0.12695516064026827 0.23028979657203269 5.3536832821303964e-10 5.2608504099608378e-10 12.965228865285248 12.764152760972383 1.5417124618003773e-06 6.9205918565641345e-07 0.00041676290487748381 0.0023234273716860668 0.00023814218076175688 3.1740371390878472e-11 36.059597233246073 0.0020889426294444422 0.0010304244528500984 0.0025208621258629312 0.088834783308726864 31.313828555364374 2.5518673939637709e-06 5.0839359539404691e-11 7.570323193166395 4.9525836804054084e-09 5.0310392728422784 1.7450874064383446e-09 7.1978676854601646 3.2920408443544921e-06 0.077798558748922164 1.9155588283080251e-09 0.047339442917925592 2.2304639611218118 3.0114213756120533e-11 3.9900865358815496 2.6831583254732643e-11 2.6244817522628394 5.0695601390041594 2.8712607380307641e-09 1.6516879223995413e-09 6.530126394978109 8.2437310820518128 1.6772197930911625e-08 5.0620919658450959e-09 39.200567270180471 50.510291873014424 39.278434944593982 1.3067031147453748e-11 50.424154151395143 3.0428730906713572e-11 1.3735498177112557e-11 2.8880538486868468e-11 36.836645405527733 1.9259842052289088e-05 0.01986550090115019 3.2841607542906705e-11 0.060267914963840832 1.1356279224437731e-06 0.15990386412829014 3.9384103640870489e-06 88.243678269319872 0.0078204983262311189 5.1475324922523096e-05 7.7950837392599508e-13 73.998295961840398 1.5786013295798372e-11 49.169447793808722 73.994676762211981 49.164571892262472 3.1816069865186444e-12 3.355757931999206e-12 1.4781837374348774e-11 0.0065077635960596319 2.2255164252687929e-12 75.374781281955066 6.5539002613037049e-05 5.472623001231967 5.5904320270601524e-10 0.84754776569236556 1.0687902014155644e-09 9.5425071825514269 9.4961776682073289e-08 0.00084891601107173155 1.7997745575460135e-10 19.967411929973842 0.00056814405641514363 3.4403315503250383e-11 1.7325736718978963e-07 0.5881295693303914 37.467314193685539 3.3608003818273167 4.4885383801464456e-07 0.28519478234243417 8.2620420376297712e-09 12.900354565718334 3.952765391951758e-09 0.16338399442563073 0.23861344126328815 1.9480551574074734 2.707105787306331e-07 0.39244984833213981 2.0990431830829551e-08 26.831850550091254 1.184545811255038e-11 50.437109625022067 50.335172296221231 26.778827196431735 9.471324388296944e-11 8.9796182706406164e-11 1.2802974137514707e-11 0.0067513382394941129 0.0012304381349092881 0.083334671990473869 0.00043283583290568866 2.7350415829649604e-09 5.9678227934622381 0.0010107405265573923 0.60178320080969561 2.3714474688680897e-10 17.901515592037256 1.6392670083599686e-07 0.64846803204226067 6.1663073273534386e-06 0.042395493191166422 1.53301578094671e-07 14.462192562817604 1.3214764145754352 4.5048081947338189e-08 4.6210416719648209e-10 0.021029338213280676 4.8954810949787363e-05 3.5195175177114199e-05 5.8714566381199598e-05 3.7292857008674938e-05 22.574425981584412 1.8413085173989201e-08 7.8981563763617544e-06 1.4904033177462863 2.7831469174514435e-12 72.044543181207388 5.1009556216606543e-08 49.723020789421014 0.0094966419925251594 4.2385152542760746e-05 1.1605186712517846e-11 3.4492285035606779e-05 8.8460030401936641e-05 0.00017702442051661487 0.052618003908563728 6.8686203727078537e-13 88.00273311280543 5.7517355163481255e-06 1.844978584842272 1.9510093392948269e-08 2.2333305371709566 2.5608770484918541e-08 75.819075097481573 6.5050869896735649e-12 63.342823237417761 2.9000487850331116e-12 75.816739692441345 63.340109835834916 5.9238247073839747e-12 2.6521848788722111e-12 36.486412224312289 2.0802024972027481e-10 39.572776615070254 39.281966131163699 6.567792744066177e-10 7.0365413573436749e-10 36.297950834476069 2.2297054481391249e-10 0.01385599484380037 0.011672309508201632 3.0718867651008574e-06 4.3871635547809174 4.9440855956842045e-09 0.076919519923376964 5.8319392673084566e-06 2.6373499448151219e-06 1.176766603844592e-05 0.0015930390416303659 3.8110244770116573e-10 14.962500668830598 0.00028446812857847313 6.9506387780571288e-06 0.24276868124830564 1.4868086263904246e-06 0.11957122523682648 6.8161282633893399e-07 0.57503534345892027 2.661417570016304e-09 6.3568550965124659 1.69785345431028e-07 3.2108279226973525e-05 1.6832927542565437 1.173883369400585e-09 9.6549202645437688 3.643433246046198e-08 0.011593569094780288 10.314070268373843 0.17163943202472162 1.1121374332761051e-06 8.2675995341923785e-10 8.2582663884021361e-09 2.7229558611210924 1.3269440800154308e-08 3.4511959777198697 0.0003256674065143367 0.011271165100161634 0.028705460780445283 0.6395541620938443 4.6890708393729928e-07 1.1262774951453216 6.8660238750582965e-07 0.31418768814734033 1.1829065787875643e-07 0.23848176279538252 5.2966012547207434e-08 0.86689557376306947 8.0115854065406413e-11 23.855826538552094 9.0200198980124141e-08 0.037367930549379771 0.078692968061074148 2.4410481091775556e-08 1.3343610639382706e-08 1.974460693158278 2.5659859952607147 7.1375772313428215e-06 2.9511221887963846e-06 56.962949266966831 0.060740653562381529 4.556336512259094e-06 6.805006187122107e-12 0.11757791120187484 8.7912522519313632e-07 0.18128753427467162 1.5878587081774204e-06 0.98415034885594199 2.305079200799147e-08 2.0850826334319503 6.797279626013795e-08 4.8910125550700483e-05 3.5670652830533314e-05 88.800956251738398 6.1927435385474903e-13 0.011801953599861369 89.050800234664905 3.6073201752779637e-11 41.143143046719892 7.4651139095576967e-13 89.04758031674973 41.145690955827313 3.3544155929867152e-11 7.8433351521728454e-13 15.840316431571853 0.68448575935836053 1.2800526222425175e-07 3.4587986307567599e-10 0.0012686193612378486 8.7703698974057679e-08 0.86667597668850838 0.00035174881854209433 0.074220880455875354 0.0066088763145147403 5.3168314434340473e-05 0.077237124945497948 1.8191190712293823e-09 7.3679443413486743 3.0704398792979758e-06 0.028337982064139788 1.7218694721760673e-12 77.172982762751928 1.2409987600696111e-05 0.068661066730832304 0.030085857798842125 0.010700891397326301 1.0883255617976538e-06 0.15619590470928224 3.3317833337339455e-05 0.03210867443995441 75.07235364204027 2.3120095202849579e-12 9.6275749118734867e-06 0.0010360061049192707 2.8299772088268763e-08 1.6907390209003599 0.00043663883008604985 1.910865089158712e-05 1.304476222313943e-08 2.8502268804563373 0.017305739009960675 1.7233738185719707 1.1172753889467917e-07 0.70088415996584086 2.7183465229327208e-08 0.0013253898932968739 7.9096409432926192e-05 0.1059650050164828 4.6124086512187346e-09 4.480357641610671 2.0120880951280717e-06 13.256283538984688 3.8828728628922293e-09 0.037433158115057485 0.02732822596361989 0.0041854250018460897 0.0060239542356148104 2.1154826065231842e-10 5.9791592041727639e-10 17.800064490877819 11.877238124883016 0.00011243705910619824 6.7300201117238934e-05 0.31628597789921931 1.5712554503761739e-10 20.658126864645848 4.1718986994872401e-07 7.4001731987232473 3.3445123337720072e-08 1.5861887112901649 1.756570195430208e-09 17.645011642406175 3.6312211853322311e-08 0.0002441162548505943 8.6307075182358452e-10 9.9314161941604091 0.0017667018044439501 0.00065888150181024803 1.1240817597398949e-06 0.040386475699529738 4.0189490771617325e-10 13.994703395175653 6.7366816082082757e-06 0.16334479071527644 0.0040060180512323622 0.0012401212972464877 0.021930675062458944 2.7116633077508482e-10 16.354286813922542 1.4662583236373009e-05 5.0550095129705876e-06 0.00010591239007492932 1.1542188515894511e-09 8.7483424531510234 0.0037039432308434697 37.476394034817844 41.44965941256951 2.0647194094415519e-08 7.9173923237165801e-09 0.0022493987447144391 3.0285407839751812e-10 9.303868326017227 1.637856145292607 2.3065581696917858 9.8817211902670938e-11 2.9698614778366022e-10 3.7904129595291165 2.1061064416585702e-11 42.80488698616994 8.5930512465083534e-09 1.9341489892062138 3.809419866547757e-11 37.70847290822546 2.3460365981581305e-08 0.62099999457970512 0.96126161496882978 1.3956296386525759e-07 7.079639544609342e-08 0.71373996870435796 0.99491811524160412 1.2867820416787421e-07 6.6001794179148638e-08 23.514836349026293 2.1776771052513751e-07 0.49005377038264808 1.1477176189989679e-10 0.0088512538372001858 0.15526389377870908 0.27075002828527767 5.8132438635773465 5.9848426496076399e-10 19.572634246608168 7.5331082043640991e-09 21.131998615381878 2.5766317478804924e-11 20.287936915926455 0.072495368838538937 3.2285289675357596e-06 1.6207045925384997e-10 8.6069250516340361 9.0619255867939701e-11 0.76053223663163994 8.6067774148740691e-13 86.242699637161607 1.3559007078187224e-07 0.0028331366637978448 2.0013688340346017e-12 76.25199618653005 0.00016602569661263393 0.0013892539440405656 28.81030713086454 1.33426678246814e-09 0.0017990103688876853 47.450926111838903 53.656001922362186 12.909919186150114 2.4901389224116399e-12 1.2310440642228416e-09 53.941976917463535 7.8704986915291904e-12 10.291757161685288 7.438033544830814e-10 73.824926446947899 2.4319656359452483e-12 12.376885171404057 73.887277809746209 7.9559495762569552e-10 54.026995529381338 1.2555642695798253e-09 6.8361547955248238e-05 0.00075699206278671892 1.061022647700099e-06 1.3058803197695141e-06 1.8385036524276551e-05 0.0027710547719627145 16.456984568067043 0.15282383998853208 1.2904319454082224e-06 2.7673436205027501e-10 1.0972076190430151e-05 3.1035054558924548e-05 4.983486885845088 4.0479709646899616e-09 0.011440602654982875 13.142208492825295 8.7300881861774995e-12 9.4664300288079986 1.5993994605475781e-11 4.7133968676414852 7.7389637802794362e-08 0.99011728104484586 4.2503580266128173e-09 0.0013422166793294187 0.0056010675803319261 8.5121783275510854 1.007201903331695e-10 5.6543884728792921 1.2581126195205938e-08 2.8118626700983262 3.5174016358318949e-09 0.18545447432759415 0.24983153520912482 0.0084534698777142293 0.015399477735116041 0.0076527663147793286 0.014328369455750539 8.0821289703756644e-12 1.3765719231013343e-11 4.8683532368312839e-05 2.3454159929703937e-05 0.002648961506415492 2.0515740709574515e-06 0.001354160403355638 1.0180946325866121e-06 20.385790884324518 2.3477720298518066e-11 13.309030681473146 1.7622787128141534e-11 0.40379097937470809 1.4403675969164514e-11 45.347409044851332 3.194192322981349e-07 0.0085116975508449273 2.7165084835284583e-08 1.6829347133019059 4.4420257667100382e-05 0.0049742806630745304 0.01520086830979493 1.5716249533957054e-07 0.58395639544687616 2.1764453809416061e-05 0.0017928961181116398 1.2024330688862546e-08 2.8615027680072838 0.00023608994577241466 0.0028173435294569322 4.3683169958413658e-07 0.0050023196790481041 1.0183414227763245e-06 0.023740246957573555 8.4105006521645834e-11 26.454457921772232 1.3629679178632085e-05 0.0021919729780913531 4.3030375462159221e-12 64.040187384594333 0.00020553167757943725 0.0035582827174821174 1.5589677621010669e-09 7.3672939254360159 0.00011280778943840506 0.0003041716989679425 0.6300298240001696 9.2501505808058349e-09 3.2386981853848922 1.4222152555722556e-07 2.043886547501444e-05 8.3518580455037523e-06 1.5234653872984158e-09 8.2516460965273293 9.7517888183085439 1.0082123337667574e-09 0.01599222858388874 0.033844897018703857 0.1515114373765889 0.032795226013294085 7.9692270252712165e-06 22.925533255331171 1.6262498209847595e-10 22.809747321148485 1.6755572409685771e-10 2.8740394225463401e-06 44.145469557787031 0.30052503138947373 5.3475635863277387e-07 1.5891394933337024e-11 0.00012918689182815366 4.5566246375479644e-07 77.021887103281614 0.35839106365721773 3.6093717644197377e-07 1.923573506676638e-12 0.013794915793711294 0.018927851307010142 1.3511461922822741e-08 4.5934411653878624e-09 2.5557974819072036 4.4364140237116052 1.6601653085827886e-05 2.6774671999392755e-05 0.038433340311766997 1.2997537990267839e-09 8.2269227439254564 7.1426383697420675e-06 0.0058600435145918298 7.8741401233980191e-11 31.20585522017457 7.4488485090491886e-05 0.012771066039256493 4.7647814044278787e-11 25.973265990045743 2.8123189579140467e-05 0.011732881893378955 7.4271759827440152e-10 11.217332947959378 2.9908200522283686e-05 2.5039040831440929 5.6253712024740346e-08 1.1253970599601477 1.275481170744987e-08 5.1207243921049841 8.0034798056216543e-05 0.0047939137880855971 3.2794878383423732e-09 58.736724920136176 0.24306566305029267 7.2638145508666111e-07 5.6719211970127243e-12 0.00039780535910612612 4.5039545418880072e-07 0.001154519395243369 5.4611655529860931e-11 30.873933402726038 0.00041086992515212625 0.00066276637214025672 5.1703901409985136 8.1824578264539405e-11 18.721920642703843 6.061949228227078e-11 12.071893127326874 4.7738017564705173e-11 0.018699300360517673 2.0006660904920447e-09 6.7062487086184142 1.8263103710048549e-05 28.096625510414988 1.4280994287932413e-09 0.00047113345269007899 0.00027672352262499535 0.25443715514557608 2.5415927975746564e-07 0.42593309753844905 5.1524677071177025e-07 1.9252296746339803e-05 0.00063120848917509352 2.4411230391366844e-11 39.363384529263072 0.00075701837642219141 3.8735382227128394e-05 1.844374078374515e-05 0.0083778245095711013 8.4427362767191081 7.4135411783021234e-13 89.27365388395981 2.115339827300875e-09 89.230102730449417 8.0865153666952203 1.9286982576284979e-09 6.5060715050869645e-13 0.14722532218251058 2.8511491068164517e-07 0.39988359601864898 1.1226158405889296e-06 0.00033520549284299139 2.6720031390193462e-10 16.648492748744815 0.0014109305965064728 0.37043496173579449 6.7643304139578472e-07 0.22043670500015897 2.8909812746059523e-07 63.4664403048548 0.11617551068738736 3.8834363127401527e-12 1.8197823117481057e-06 91.198034992955172 0.20319455796223415 8.8498839292857557e-07 4.8295084893482368e-13 5.0691345943736427e-13 5.2696991361579326e-06 0.053481066195733479 90.883381035311885 11.186739704270448 4.6843717967461911e-11 19.528738331655813 6.408189626099338e-11 0.032329255264545526 0.052834267573717036 7.4333343373814653e-08 1.6426827488717237e-07 0.91408896584296451 0.60000724093553437 8.9142896511498564e-06 4.4815708221107197e-06 9.2488847457812202 3.2740663659382542e-10 11.643790621696176 5.0007697167716675e-05 0.0076041430733926373 5.9874732686510844e-10 0.00030497967254990008 0.00013751655255953964 7.8309285724821131e-06 16.789305602372309 2.9004080052070845e-10 0.036536848836569422 0.036717809961457001 0.036607474708329604 4.314439010645163e-07 0.2879532659556962 7.0265537548311379e-06 7.2858621664082599e-06 2.7355494103091766 1.3932285377589032e-08 0.037100845471621721 0.00010046166124222458 0.0042330525565684304 0.0057599982993984658 2.6810264633356158e-06 0.01050045990777094 0.0015482296576002075 5.805470430261692e-13 89.856072265549528 0.00033367773932565825 3.4056252936845257 0.00012785310167372918 0.0031081877177316745 7.16194533328353e-09 0.0021615104775897288 0.00012506437470168272 0.00023609944886080053 6.8402369132745946e-13 78.137483829926225 91.194670723939538 2.7724828442478688e-12 78.136124094451645 91.193925034107181 2.4725166848691344e-12 6.0674186782674907e-13 9.3700746897648219e-06 1.846355623766185e-05 1.4459041231947869e-05 0.030333324032025925 5.9925114943918955e-12 57.202131263935279 1.01542163814894e-05 0.26699518426467966 3.3246444585525833e-08 1.5396691034274648 5.5036186123396923e-07 0.0021709432897837329 6.7271945376421345e-06 0.39584248493793239 1.6883830388820284e-12 0.31204552906449534 4.8656625744361887e-12 77.540067372506314 3.6723032271406634e-07 60.24052906049814 4.9975996766112225e-07 31.008136086473552 3.8201826991158258e-09 3.2712678435892055 1.1369607048211237e-06 0.1417144655532796 9.1974056959782659e-09 5.1830670851175364 5.97242214805246e-11 7.8725234525621121e-05 0.00015385878552749509 9.8680208679618408e-11 23.914346323161858 0.0030639940184523638 0.00049630592007973381 0.00021905770828419682 1.7496427574881233e-07 9.2788417881417245e-08 0.53640472596129829 0.75159670476327423 0.13993415039271995 3.2115537827964796e-11 35.194993191565821 1.3526416705733326e-06 0.08153329648263638 1.8041702270351914e-10 18.325128536211153 2.9995214655920261e-06 0.00049510297502931659 22.557502221334264 5.7248860452809792e-07 0.24796471709753964 1.1915356927487347e-10 3.9988290749879569 2.5711828848146573e-10 0.13601841615811938 3.6414853479816658e-08 1.4371381862073549 1.3355699560191299e-06 0.00013728557905488947 0.21376709245430134 4.676403577981378e-13 91.02353389420287 9.600707149542474e-07 0.0005776030495720253 0.00029068181998733475 4.5822026239180725e-13 91.999944588169726 0.0017768028298465392 29.187134774496421 3.7828036671170884e-09 0.00047044985535703375 0.019816669625051929 0.036016556383082099 1.5318330607982283e-12 0.00012586540185572341 0.0034153496696240856 80.468152296570437 0.016860084635835017 4.2332302455256281e-07 0.2839847594668341 1.8214200883745743e-05 2.5174012098479785e-06 2.345621940575078e-05 0.33817981170034778 1.1833570289473593e-08 2.6866266271016812 3.8671268916047888e-07 3.8695463434850094e-06 0.25066964283607895 4.2774846692112194e-11 32.83799891968538