<?xml version="1.0"?>
<VTKFile type="UnstructuredGrid" version="0.1" byte_order="LittleEndian">
<UnstructuredGrid>
<Piece NumberOfPoints="69" NumberOfCells="124">
<Points>
<DataArray type="Float64" NumberOfComponents="3" format="ascii">
0.000000000000000e+00 1.000000000000000e+00 0.000000000000000e+00 1.000000000000000e+00 1.000000000000000e+00 0.000000000000000e+00 1.000000000000000e+00 0.000000000000000e+00 0.000000000000000e+00 0.000000000000000e+00 0.000000000000000e+00 0.000000000000000e+00 2.500000000000000e-01 -0.000000000000000e+00 0.000000000000000e+00 0.000000000000000e+00 2.500000000000000e-01 0.000000000000000e+00 5.000000000000000e-01 5.000000000000000e-01 -0.000000000000000e+00 7.500000000000000e-01 1.000000000000000e+00 0.000000000000000e+00 6.875000000000000e-01 8.750000000000000e-01 0.000000000000000e+00 6.250000000000000e-01 7.500000000000000e-01 0.000000000000000e+00 5.625000000000000e-01 6.250000000000000e-01 0.000000000000000e+00 1.249999999997599e-01 3.124999999998800e-01 0.000000000000000e+00 2.499999999996086e-01 3.749999999998043e-01 0.000000000000000e+00 3.749999999997349e-01 4.374999999998674e-01 0.000000000000000e+00 4.375000000000694e-01 3.750000000001388e-01 0.000000000000000e+00 3.750000000002776e-01 2.500000000005551e-01 0.000000000000000e+00 3.125000000002082e-01 1.250000000004163e-01 0.000000000000000e+00 1.000000000000000e+00 8.333333333335646e-01 0.000000000000000e+00 1.000000000000000e+00 6.666666666673605e-01 0.000000000000000e+00 1.000000000000000e+00 5.000000000013877e-01 0.000000000000000e+00 1.000000000000000e+00 3.333333333344898e-01 0.000000000000000e+00 1.000000000000000e+00 1.666666666673605e-01 0.000000000000000e+00 8.750000000000000e-01 1.000000000000000e+00 0.000000000000000e+00 5.625000000008674e-01 1.000000000000000e+00 0.000000000000000e+00 3.750000000006939e-01 1.000000000000000e+00 0.000000000000000e+00 1.875000000005205e-01 1.000000000000000e+00 0.000000000000000e+00 0.000000000000000e+00 8.125000000010408e-01 0.000000000000000e+00 0.000000000000000e+00 6.250000000006939e-01 0.000000000000000e+00 0.000000000000000e+00 4.375000000003469e-01 0.000000000000000e+00 0.000000000000000e+00 1.250000000003469e-01 0.000000000000000e+00 1.249999999997554e-01 0.000000000000000e+00 0.000000000000000e+00 4.374999999991326e-01 0.000000000000000e+00 0.000000000000000e+00 6.249999999989591e-01 0.000000000000000e+00 0.000000000000000e+00 8.124999999994795e-01 0.000000000000000e+00 0.000000000000000e+00 2.798796021293082e-01 8.344274147057053e-01 0.000000000000000e+00 2.645244370067465e-01 5.156353158163987e-01 0.000000000000000e+00 4.139414069912184e-01 6.056325264010037e-01 0.000000000000000e+00 4.492710539671537e-01 8.556512408515589e-01 0.000000000000000e+00 2.758946705068648e-01 6.605885315643570e-01 0.000000000000000e+00 1.390078959961168e-01 7.261831610706000e-01 0.000000000000000e+00 1.492912418697525e-01 4.458279356810638e-01 0.000000000000000e+00 5.014585693307863e-01 7.367466304650486e-01 0.000000000000000e+00 1.392858751591214e-01 5.733980610567744e-01 0.000000000000000e+00 3.813620468049507e-01 7.403859221383123e-01 0.000000000000000e+00 1.271010713601231e-01 8.709480661820344e-01 0.000000000000000e+00 5.677751205718758e-01 8.470224641095303e-01 0.000000000000000e+00 5.698670717843664e-01 3.776209365087199e-01 0.000000000000000e+00 7.125974780784441e-01 6.384669131570183e-01 0.000000000000000e+00 8.608728669021763e-01 2.520652359795942e-01 0.000000000000000e+00 8.578792739151740e-01 7.535325208825020e-01 0.000000000000000e+00 5.447576766858295e-01 1.431838882066932e-01 0.000000000000000e+00 7.150899340618379e-01 1.571595685477760e-01 0.000000000000000e+00 8.612746697781972e-01 5.794807697879764e-01 0.000000000000000e+00 7.533843026232094e-01 4.929444342317560e-01 0.000000000000000e+00 8.055298449100090e-01 8.871112287212741e-01 0.000000000000000e+00 8.656940847709105e-01 4.098367391676661e-01 0.000000000000000e+00 7.182603949284063e-01 3.456402071721618e-01 0.000000000000000e+00 6.323653418237701e-01 5.029675640633227e-01 0.000000000000000e+00 6.110846258508276e-01 2.575059958234323e-01 0.000000000000000e+00 4.945749328930023e-01 2.625170377655549e-01 0.000000000000000e+00 7.385779517043357e-01 7.773678856428465e-01 0.000000000000000e+00 8.769890164881212e-01 1.160638338657984e-01 0.000000000000000e+00 9.063795342218008e-01 9.020858332805730e-01 0.000000000000000e+00 4.287911518546233e-01 1.545544542796670e-01 0.000000000000000e+00 2.403886547178353e-01 2.418881479267384e-01 0.000000000000000e+00 1.840276181286450e-01 1.117324051466445e-01 0.000000000000000e+00 3.381944444444832e-01 3.381944444445634e-01 0.000000000000000e+00 1.008171452988615e-01 1.888570369725047e-01 0.000000000000000e+00 8.435242216391163e-02 8.645171265626619e-02 0.000000000000000e+00 
</DataArray>
</Points>
<Cells>
<DataArray type="Int32" Name="connectivity" format="ascii">
7 8 8 9 9 10 10 6 5 11 11 12 12 13 13 6 6 14 14 15 15 16 16 4 13 36 35 13 6 36 5 11 28 8 7 23 36 38 35 34 39 38 28 40 42 24 37 23 28 42 27 24 34 37 24 25 34 34 38 43 23 37 45 8 23 45 10 36 6 28 11 40 0 26 44 13 35 12 25 0 44 26 27 39 12 40 11 38 39 42 37 34 43 34 44 39 10 41 36 25 44 34 12 35 40 35 38 42 10 9 41 36 41 43 8 45 9 9 45 41 27 42 39 36 43 38 26 39 44 35 42 40 37 41 45 37 43 41 46 56 57 53 57 56 49 47 52 4 31 16 49 60 47 52 55 19 51 48 56 52 53 55 31 32 50 54 49 62 17 62 49 17 49 18 21 20 48 32 51 50 33 51 32 18 49 52 1 62 17 53 56 55 18 52 19 52 47 53 16 31 63 51 61 48 20 19 55 14 46 6 51 56 58 10 47 9 55 56 48 8 54 7 22 7 54 20 55 48 33 61 51 33 2 61 31 50 63 6 46 57 21 61 2 10 57 47 46 58 56 51 58 50 53 47 57 14 59 46 9 47 60 10 6 57 54 60 49 8 60 54 15 59 14 1 22 62 21 48 61 8 9 60 46 59 58 16 63 15 15 63 59 50 59 63 22 54 62 50 58 59 14 6 13 11 67 64 4 65 30 4 16 65 13 12 66 15 14 66 65 64 67 16 15 64 12 11 64 15 66 64 12 64 66 11 5 67 16 64 65 14 13 66 3 68 29 3 30 68 29 67 5 30 65 68 29 68 67 67 68 65 
</DataArray>
<DataArray type="Int32" Name="offsets" format="ascii">
2 4 6 8 10 12 14 16 18 20 22 24 27 30 33 36 39 42 45 48 51 54 57 60 63 66 69 72 75 78 81 84 87 90 93 96 99 102 105 108 111 114 117 120 123 126 129 132 135 138 141 144 147 150 153 156 159 162 165 168 171 174 177 180 183 186 189 192 195 198 201 204 207 210 213 216 219 222 225 228 231 234 237 240 243 246 249 252 255 258 261 264 267 270 273 276 279 282 285 288 291 294 297 300 303 306 309 312 315 318 321 324 327 330 333 336 339 342 345 348 351 354 357 360 
</DataArray>
<DataArray type="UInt8" Name="types" format="ascii">
3 3 3 3 3 3 3 3 3 3 3 3 5 5 5 5 5 5 5 5 5 5 5 5 5 5 5 5 5 5 5 5 5 5 5 5 5 5 5 5 5 5 5 5 5 5 5 5 5 5 5 5 5 5 5 5 5 5 5 5 5 5 5 5 5 5 5 5 5 5 5 5 5 5 5 5 5 5 5 5 5 5 5 5 5 5 5 5 5 5 5 5 5 5 5 5 5 5 5 5 5 5 5 5 5 5 5 5 5 5 5 5 5 5 5 5 5 5 5 5 5 5 5 5 
</DataArray>
</Cells>
<CellData Scalars="porosity,age_conc,U235_conc," Vectors="" Tensors="">
<DataArray type="Float64" Name="porosity" format="ascii">
2.500000000000000e-01 2.500000000000000e-01 2.500000000000000e-01 2.500000000000000e-01 2.500000000000000e-01 2.500000000000000e-01 2.500000000000000e-01 2.500000000000000e-01 2.500000000000000e-01 2.500000000000000e-01 2.500000000000000e-01 2.500000000000000e-01 2.500000000000000e-01 2.500000000000000e-01 2.500000000000000e-01 2.500000000000000e-01 2.500000000000000e-01 2.500000000000000e-01 2.500000000000000e-01 2.500000000000000e-01 2.500000000000000e-01 2.500000000000000e-01 2.500000000000000e-01 2.500000000000000e-01 2.500000000000000e-01 2.500000000000000e-01 2.500000000000000e-01 2.500000000000000e-01 2.500000000000000e-01 2.500000000000000e-01 2.500000000000000e-01 2.500000000000000e-01 2.500000000000000e-01 2.500000000000000e-01 2.500000000000000e-01 2.500000000000000e-01 2.500000000000000e-01 2.500000000000000e-01 2.500000000000000e-01 2.500000000000000e-01 2.500000000000000e-01 2.500000000000000e-01 2.500000000000000e-01 2.500000000000000e-01 2.500000000000000e-01 2.500000000000000e-01 2.500000000000000e-01 2.500000000000000e-01 2.500000000000000e-01 2.500000000000000e-01 2.500000000000000e-01 2.500000000000000e-01 2.500000000000000e-01 2.500000000000000e-01 2.500000000000000e-01 2.500000000000000e-01 2.500000000000000e-01 2.500000000000000e-01 2.500000000000000e-01 2.500000000000000e-01 2.500000000000000e-01 2.500000000000000e-01 2.500000000000000e-01 2.500000000000000e-01 2.500000000000000e-01 2.500000000000000e-01 2.500000000000000e-01 2.500000000000000e-01 2.500000000000000e-01 2.500000000000000e-01 2.500000000000000e-01 2.500000000000000e-01 2.500000000000000e-01 2.500000000000000e-01 2.500000000000000e-01 2.500000000000000e-01 2.500000000000000e-01 2.500000000000000e-01 2.500000000000000e-01 2.500000000000000e-01 2.500000000000000e-01 2.500000000000000e-01 2.500000000000000e-01 2.500000000000000e-01 2.500000000000000e-01 2.500000000000000e-01 2.500000000000000e-01 2.500000000000000e-01 2.500000000000000e-01 2.500000000000000e-01 2.500000000000000e-01 2.500000000000000e-01 2.500000000000000e-01 2.500000000000000e-01 2.500000000000000e-01 2.500000000000000e-01 2.500000000000000e-01 2.500000000000000e-01 2.500000000000000e-01 2.500000000000000e-01 2.500000000000000e-01 2.500000000000000e-01 2.500000000000000e-01 2.500000000000000e-01 2.500000000000000e-01 2.500000000000000e-01 2.500000000000000e-01 2.500000000000000e-01 2.500000000000000e-01 2.500000000000000e-01 2.500000000000000e-01 2.500000000000000e-01 2.500000000000000e-01 2.500000000000000e-01 2.500000000000000e-01 2.500000000000000e-01 2.500000000000000e-01 2.500000000000000e-01 2.500000000000000e-01 2.500000000000000e-01 2.500000000000000e-01 2.500000000000000e-01 2.500000000000000e-01 2.500000000000000e-01 
</DataArray>
<DataArray type="Float64" Name="age_conc" format="ascii">
9.999224179550044e-01 9.998427471303588e-01 9.997599375421795e-01 9.996718496361390e-01 9.990224649127117e-01 9.991804975547782e-01 9.993436078588268e-01 9.995084637541143e-01 9.994988436692878e-01 9.993280304825531e-01 9.991616699527810e-01 9.990027814888762e-01 9.954059957276840e-01 9.959892419365227e-01 9.935543683006776e-01 9.996065676728302e-01 9.963318341863319e-01 9.973061254518543e-01 9.947671870294753e-01 9.994313863467953e-01 9.956128583289370e-01 9.988601430979138e-01 9.991784147254299e-01 9.978266109823350e-01 9.987357298552080e-01 9.992970208930345e-01 9.967105956447248e-01 9.939959619992149e-01 9.987717683425762e-01 9.948627845399964e-01 9.992273768437262e-01 9.973963954247195e-01 9.939807057644949e-01 9.967786570613557e-01 9.982911379771058e-01 9.982138544430912e-01 9.973058750485448e-01 9.987622172500600e-01 9.944716677438028e-01 9.959016733314368e-01 9.979341987226242e-01 9.972824953237143e-01 9.988547447668559e-01 9.984263034846632e-01 9.963495109195485e-01 9.969244699085851e-01 9.979722479061153e-01 9.954440598676395e-01 9.983058623093748e-01 9.978619577215930e-01 9.960549476558764e-01 9.964954461522262e-01 9.976377297620042e-01 9.928643046199120e-01 9.974909068218478e-01 9.984510508021496e-01 9.969335111049387e-01 9.977131258788592e-01 9.949104252669914e-01 9.985547700693695e-01 9.989445367473242e-01 9.990979895136174e-01 9.990399912409919e-01 9.954834746076959e-01 9.968469668455022e-01 9.985411032131665e-01 9.995012342106611e-01 9.972101638328588e-01 9.989940846279048e-01 9.971750488679595e-01 9.932806029284287e-01 9.976183037695818e-01 9.990335159417291e-01 9.948529029668944e-01 9.962242589236141e-01 9.966074815241861e-01 9.974988544740739e-01 9.985224791747337e-01 9.991036502879638e-01 9.985189466931796e-01 9.974070561511104e-01 9.987059149149913e-01 9.939342523876138e-01 9.952961597299815e-01 9.991503560085251e-01 9.960925850976093e-01 9.956243683571472e-01 9.957834660267297e-01 9.966661428668409e-01 9.944181164616033e-01 9.970850690996971e-01 9.956471630328766e-01 9.980955054021948e-01 9.979795091768313e-01 9.939771468083043e-01 9.994852832398574e-01 9.986528007670925e-01 9.974825526883783e-01 9.951757954108368e-01 9.931843355366340e-01 9.936200701201138e-01 9.944771173986870e-01 9.990552041370910e-01 9.948749084003737e-01 9.985517747144934e-01 9.951406736473922e-01 9.935565446917852e-01 9.946519906427765e-01 9.976412186357182e-01 9.976345354127985e-01 9.940304963879789e-01 9.961717555319347e-01 9.961982850606478e-01 9.965563618112214e-01 9.965698076425484e-01 9.947109262567815e-01 9.951315051753098e-01 9.978602845045698e-01 9.924036876079676e-01 9.922684042065406e-01 9.937755088992246e-01 9.929129074889795e-01 9.930433811390120e-01 9.933100518973130e-01 
</DataArray>
<DataArray type="Float64" Name="U235_conc" format="ascii">
9.999222289623415e-01 9.998423651144320e-01 9.997593563488776e-01 9.996710589510636e-01 9.990201495136586e-01 9.991785498929835e-01 9.993420409827846e-01 9.995072846967171e-01 9.994976453942364e-01 9.993264332825210e-01 9.991596865077000e-01 9.990004293413315e-01 9.953961053147731e-01 9.959804579148303e-01 9.935412470223870e-01 9.996056219408801e-01 9.963237222198478e-01 9.973000255158757e-01 9.947561264359774e-01 9.994300303664856e-01 9.956033783311738e-01 9.988574605850260e-01 9.991764792098055e-01 9.978216202027506e-01 9.987327554297978e-01 9.992953414257542e-01 9.967032421411617e-01 9.939835709482543e-01 9.987688966260962e-01 9.948518965321536e-01 9.992255584785790e-01 9.973904937494911e-01 9.939682825069613e-01 9.967714596751012e-01 9.982871715319048e-01 9.982097237149359e-01 9.972997554787078e-01 9.987593198924873e-01 9.944600866130784e-01 9.958927227331934e-01 9.979294264944851e-01 9.972763274141078e-01 9.988520383445727e-01 9.984226227749112e-01 9.963414525532133e-01 9.969175586529038e-01 9.979675867653983e-01 9.954342337278097e-01 9.983019162566440e-01 9.978570307977337e-01 9.960463230658364e-01 9.964876983119453e-01 9.976323539370019e-01 9.928501143940009e-01 9.974851867909673e-01 9.984474692921275e-01 9.969266889551871e-01 9.977079312018737e-01 9.948997072678691e-01 9.985513866952296e-01 9.989420455448683e-01 9.990958671369109e-01 9.990377568369582e-01 9.954738106165415e-01 9.968399828597578e-01 9.985377077232780e-01 9.995000410003685e-01 9.972038972294746e-01 9.989917387590980e-01 9.971686885760837e-01 9.932670584578551e-01 9.976129410262785e-01 9.990312662610503e-01 9.948419914719941e-01 9.962160103950457e-01 9.965999252290737e-01 9.974932180748064e-01 9.985190400621970e-01 9.991015386199762e-01 9.985155222773160e-01 9.974012406880264e-01 9.987029061849089e-01 9.939217806076337e-01 9.952860618573072e-01 9.991483713554097e-01 9.960840053018114e-01 9.956149103245058e-01 9.957743559998841e-01 9.966587310027162e-01 9.944064364248772e-01 9.970784966454336e-01 9.956377192864707e-01 9.980910949734304e-01 9.979748601768348e-01 9.939647102229402e-01 9.994840527522908e-01 9.986496765757417e-01 9.974768279610805e-01 9.951654952214515e-01 9.931706130918868e-01 9.936070454501880e-01 9.944655680959147e-01 9.990529656036851e-01 9.948640685385279e-01 9.985484090234604e-01 9.951308846759132e-01 9.935543516802127e-01 9.946439074191309e-01 9.976358897786952e-01 9.976291944692591e-01 9.940202544699431e-01 9.961636018763811e-01 9.961901714684892e-01 9.965488226298946e-01 9.965622911641585e-01 9.947032964077007e-01 9.951217203942153e-01 9.978553919847477e-01 9.924075493453492e-01 9.922727687815168e-01 9.937740745938857e-01 9.929112376771666e-01 9.930415563880846e-01 9.933004773274248e-01 
</DataArray>
</CellData>
</Piece>
</UnstructuredGrid>
</VTKFile>
