<?xml version="1.0"?>
<VTKFile type="UnstructuredGrid" version="0.1" byte_order="LittleEndian">
<UnstructuredGrid>
<Piece NumberOfPoints="599" NumberOfCells="1080">
<Points>
<DataArray type="Float64" NumberOfComponents="3" format="ascii">
0.000000000000000e+00 0.000000000000000e+00 0.000000000000000e+00 0.000000000000000e+00 2.000000000000000e-01 0.000000000000000e+00 1.000000000000000e+00 2.000000000000000e-01 0.000000000000000e+00 1.000000000000000e+00 0.000000000000000e+00 0.000000000000000e+00 0.000000000000000e+00 2.222222222217273e-02 0.000000000000000e+00 0.000000000000000e+00 4.444444444434547e-02 0.000000000000000e+00 0.000000000000000e+00 6.666666666653878e-02 0.000000000000000e+00 0.000000000000000e+00 8.888888888873894e-02 0.000000000000000e+00 0.000000000000000e+00 1.111111111109777e-01 0.000000000000000e+00 0.000000000000000e+00 1.333333333332549e-01 0.000000000000000e+00 0.000000000000000e+00 1.555555555555226e-01 0.000000000000000e+00 0.000000000000000e+00 1.777777777777613e-01 0.000000000000000e+00 2.040816326525713e-02 2.000000000000000e-01 0.000000000000000e+00 4.081632653051426e-02 2.000000000000000e-01 0.000000000000000e+00 6.122448979577139e-02 2.000000000000000e-01 0.000000000000000e+00 8.163265306102853e-02 2.000000000000000e-01 0.000000000000000e+00 1.020408163262857e-01 2.000000000000000e-01 0.000000000000000e+00 1.224489795915428e-01 2.000000000000000e-01 0.000000000000000e+00 1.428571428567999e-01 2.000000000000000e-01 0.000000000000000e+00 1.632653061220571e-01 2.000000000000000e-01 0.000000000000000e+00 1.836734693873142e-01 2.000000000000000e-01 0.000000000000000e+00 2.040816326525713e-01 2.000000000000000e-01 0.000000000000000e+00 2.244897959178285e-01 2.000000000000000e-01 0.000000000000000e+00 2.448979591830856e-01 2.000000000000000e-01 0.000000000000000e+00 2.653061224483563e-01 2.000000000000000e-01 0.000000000000000e+00 2.857142857136316e-01 2.000000000000000e-01 0.000000000000000e+00 3.061224489789068e-01 2.000000000000000e-01 0.000000000000000e+00 3.265306122441821e-01 2.000000000000000e-01 0.000000000000000e+00 3.469387755094573e-01 2.000000000000000e-01 0.000000000000000e+00 3.673469387747326e-01 2.000000000000000e-01 0.000000000000000e+00 3.877551020400078e-01 2.000000000000000e-01 0.000000000000000e+00 4.081632653052831e-01 2.000000000000000e-01 0.000000000000000e+00 4.285714285705583e-01 2.000000000000000e-01 0.000000000000000e+00 4.489795918358336e-01 2.000000000000000e-01 0.000000000000000e+00 4.693877551011089e-01 2.000000000000000e-01 0.000000000000000e+00 4.897959183663840e-01 2.000000000000000e-01 0.000000000000000e+00 5.102040816316877e-01 2.000000000000000e-01 0.000000000000000e+00 5.306122448970195e-01 2.000000000000000e-01 0.000000000000000e+00 5.510204081623515e-01 2.000000000000000e-01 0.000000000000000e+00 5.714285714276833e-01 2.000000000000000e-01 0.000000000000000e+00 5.918367346930153e-01 2.000000000000000e-01 0.000000000000000e+00 6.122448979583471e-01 2.000000000000000e-01 0.000000000000000e+00 6.326530612236790e-01 2.000000000000000e-01 0.000000000000000e+00 6.530612244890109e-01 2.000000000000000e-01 0.000000000000000e+00 6.734693877543428e-01 2.000000000000000e-01 0.000000000000000e+00 6.938775510196746e-01 2.000000000000000e-01 0.000000000000000e+00 7.142857142850065e-01 2.000000000000000e-01 0.000000000000000e+00 7.346938775503385e-01 2.000000000000000e-01 0.000000000000000e+00 7.551020408156776e-01 2.000000000000000e-01 0.000000000000000e+00 7.755102040810377e-01 2.000000000000000e-01 0.000000000000000e+00 7.959183673463979e-01 2.000000000000000e-01 0.000000000000000e+00 8.163265306117582e-01 2.000000000000000e-01 0.000000000000000e+00 8.367346938771183e-01 2.000000000000000e-01 0.000000000000000e+00 8.571428571424785e-01 2.000000000000000e-01 0.000000000000000e+00 8.775510204078387e-01 2.000000000000000e-01 0.000000000000000e+00 8.979591836731990e-01 2.000000000000000e-01 0.000000000000000e+00 9.183673469385591e-01 2.000000000000000e-01 0.000000000000000e+00 9.387755102039194e-01 2.000000000000000e-01 0.000000000000000e+00 9.591836734692796e-01 2.000000000000000e-01 0.000000000000000e+00 9.795918367346398e-01 2.000000000000000e-01 0.000000000000000e+00 1.000000000000000e+00 1.777777777778356e-01 0.000000000000000e+00 1.000000000000000e+00 1.555555555556712e-01 0.000000000000000e+00 1.000000000000000e+00 1.333333333334779e-01 0.000000000000000e+00 1.000000000000000e+00 1.111111111112750e-01 0.000000000000000e+00 1.000000000000000e+00 8.888888888903346e-02 0.000000000000000e+00 1.000000000000000e+00 6.666666666675342e-02 0.000000000000000e+00 1.000000000000000e+00 4.444444444448301e-02 0.000000000000000e+00 1.000000000000000e+00 2.222222222224152e-02 0.000000000000000e+00 9.795918367347222e-01 0.000000000000000e+00 0.000000000000000e+00 9.591836734694444e-01 0.000000000000000e+00 0.000000000000000e+00 9.387755102041666e-01 0.000000000000000e+00 0.000000000000000e+00 9.183673469388888e-01 0.000000000000000e+00 0.000000000000000e+00 8.979591836736109e-01 0.000000000000000e+00 0.000000000000000e+00 8.775510204083332e-01 0.000000000000000e+00 0.000000000000000e+00 8.571428571430554e-01 0.000000000000000e+00 0.000000000000000e+00 8.367346938777775e-01 0.000000000000000e+00 0.000000000000000e+00 8.163265306124998e-01 0.000000000000000e+00 0.000000000000000e+00 7.959183673472220e-01 0.000000000000000e+00 0.000000000000000e+00 7.755102040819442e-01 0.000000000000000e+00 0.000000000000000e+00 7.551020408166664e-01 0.000000000000000e+00 0.000000000000000e+00 7.346938775514311e-01 0.000000000000000e+00 0.000000000000000e+00 7.142857142862099e-01 0.000000000000000e+00 0.000000000000000e+00 6.938775510209887e-01 0.000000000000000e+00 0.000000000000000e+00 6.734693877557676e-01 0.000000000000000e+00 0.000000000000000e+00 6.530612244905465e-01 0.000000000000000e+00 0.000000000000000e+00 6.326530612253253e-01 0.000000000000000e+00 0.000000000000000e+00 6.122448979601041e-01 0.000000000000000e+00 0.000000000000000e+00 5.918367346948830e-01 0.000000000000000e+00 0.000000000000000e+00 5.714285714296617e-01 0.000000000000000e+00 0.000000000000000e+00 5.510204081644406e-01 0.000000000000000e+00 0.000000000000000e+00 5.306122448992194e-01 0.000000000000000e+00 0.000000000000000e+00 5.102040816339983e-01 0.000000000000000e+00 0.000000000000000e+00 4.897959183687205e-01 0.000000000000000e+00 0.000000000000000e+00 4.693877551033862e-01 0.000000000000000e+00 0.000000000000000e+00 4.489795918380517e-01 0.000000000000000e+00 0.000000000000000e+00 4.285714285727172e-01 0.000000000000000e+00 0.000000000000000e+00 4.081632653073828e-01 0.000000000000000e+00 0.000000000000000e+00 3.877551020420483e-01 0.000000000000000e+00 0.000000000000000e+00 3.673469387767139e-01 0.000000000000000e+00 0.000000000000000e+00 3.469387755113794e-01 0.000000000000000e+00 0.000000000000000e+00 3.265306122460450e-01 0.000000000000000e+00 0.000000000000000e+00 3.061224489807106e-01 0.000000000000000e+00 0.000000000000000e+00 2.857142857153762e-01 0.000000000000000e+00 0.000000000000000e+00 2.653061224500417e-01 0.000000000000000e+00 0.000000000000000e+00 2.448979591846930e-01 0.000000000000000e+00 0.000000000000000e+00 2.244897959193020e-01 0.000000000000000e+00 0.000000000000000e+00 2.040816326539109e-01 0.000000000000000e+00 0.000000000000000e+00 1.836734693885198e-01 0.000000000000000e+00 0.000000000000000e+00 1.632653061231287e-01 0.000000000000000e+00 0.000000000000000e+00 1.428571428577377e-01 0.000000000000000e+00 0.000000000000000e+00 1.224489795923465e-01 0.000000000000000e+00 0.000000000000000e+00 1.020408163269555e-01 0.000000000000000e+00 0.000000000000000e+00 8.163265306156431e-02 0.000000000000000e+00 0.000000000000000e+00 6.122448979617323e-02 0.000000000000000e+00 0.000000000000000e+00 4.081632653078215e-02 0.000000000000000e+00 0.000000000000000e+00 2.040816326539119e-02 0.000000000000000e+00 0.000000000000000e+00 6.635856282261660e-01 9.999999997353709e-02 0.000000000000000e+00 6.017099942173270e-01 1.018372095310263e-01 0.000000000000000e+00 6.429359032934795e-01 1.033597382548348e-01 0.000000000000000e+00 6.841497426478215e-01 9.999999991616094e-02 0.000000000000000e+00 5.227754852549503e-01 1.000000000000000e-01 0.000000000000000e+00 5.852103129142072e-01 9.999999999992476e-02 0.000000000000000e+00 5.466304762188327e-01 1.018543566178084e-01 0.000000000000000e+00 7.089060871209075e-01 1.015797878639597e-01 0.000000000000000e+00 3.294481376357450e-01 1.003360704178975e-01 0.000000000000000e+00 2.908770926829877e-01 1.003043475985618e-01 0.000000000000000e+00 4.098368213291410e-01 9.754255884196135e-02 0.000000000000000e+00 3.629933349000901e-01 1.000000001223464e-01 0.000000000000000e+00 7.622961987180608e-01 9.605473387378186e-02 0.000000000000000e+00 8.491644596128544e-01 9.182168396222394e-02 0.000000000000000e+00 5.007586314432788e-01 9.999999999999999e-02 0.000000000000000e+00 9.230159322774689e-01 1.007268675471269e-01 0.000000000000000e+00 8.664701418664117e-01 1.076712491225906e-01 0.000000000000000e+00 2.366315426938473e-01 9.999985271154266e-02 0.000000000000000e+00 2.168388896782212e-01 1.000000000000000e-01 0.000000000000000e+00 1.745660379747517e-01 1.007160508754716e-01 0.000000000000000e+00 1.972011010366781e-01 1.002115461984506e-01 0.000000000000000e+00 1.538550720344377e-01 1.018757379169621e-01 0.000000000000000e+00 1.326290201259390e-01 1.059650753151715e-01 0.000000000000000e+00 7.741354350281675e-02 1.003020340445231e-01 0.000000000000000e+00 2.552339814142309e-01 1.000027269880509e-01 0.000000000000000e+00 4.409363782274157e-02 7.706114571179593e-02 0.000000000000000e+00 9.561458207326632e-01 1.229301525610412e-01 0.000000000000000e+00 4.993865626717942e-02 1.499516781439215e-01 0.000000000000000e+00 9.550725189111069e-01 4.829411318820009e-02 0.000000000000000e+00 4.395097424174637e-02 3.288070253644709e-02 0.000000000000000e+00 9.562058539142814e-01 1.671301644007421e-01 0.000000000000000e+00 9.679759360039387e-01 3.254350244928760e-02 0.0000000000000
[...]
<CellData Scalars="A_conc," Vectors="">
<DataArray type="Float64" Name="A_conc" format="ascii">
1.755599397193158e-10 3.999982762314320e+01 3.974931809302476e+01 3.988652355045478e+01 4.367574593260703e-09 1.608483598082933e-09 3.996141641192887e+01 3.999704879284710e+01 3.999945191896582e+01 5.413365656134647e-10 3.999999996850790e+01 3.999987183970334e+01 9.832658979808912e-10 3.989060162476267e+01 5.435376832427521e-10 3.995351515740390e+01 3.999983644775337e+01 3.999704082414979e+01 1.756082513827626e-06 7.061598199004539e-03 6.107239487661661e-03 5.486829250665659e+00 5.380255791292808e+00 5.752032189566348e+00 5.902833553684912e+00 1.891971184311036e+01 1.898029804390032e+01 1.812831456420916e+01 1.807685415682973e+01 4.475884808948517e-06 3.894911322818520e+01 5.842491310612308e-07 6.233486108678505e-07 1.867827892778029e+01 1.843999997848406e+01 1.873176324524211e+01 1.849416910985159e+01 3.657516085458924e+01 3.863837078968669e+01 3.860979099678178e+01 1.351373059152780e-08 1.626738653494650e-08 3.914938065407424e+01 1.225640661423089e-08 2.856672051037254e-09 7.913731630398111e-09 3.963045794848049e+01 3.907974630599588e+01 1.939414779610800e+01 1.905973251921624e-07 2.968831337452552e+01 3.396917688237471e+01 3.508958846097721e-08 3.966429185534832e+01 3.968458046221465e+01 4.503458414125286e-09 3.792546157024910e-09 3.980437732074419e+01 3.997729713101789e+01 1.818286675814177e+01 1.884492964191322e+01 1.862686707587560e+01 1.828583283904217e+01 1.881380326583494e+01 1.860690467596416e+01 2.604523967645927e-07 9.877653028772410e-08 2.732028256817045e+01 3.258288341853369e+01 3.999764270075708e+01 1.147704035183845e+01 5.162181183497674e+00 4.595238956383153e+00 3.783516031101685e+00 3.810765968253718e+00 7.386832843091867e+00 7.275285966734019e+00 2.418902180974744e-02 1.140797620628735e-02 1.369527817617021e-02 2.381870008546156e-02 1.306131620503334e-02 1.427273542119630e-02 1.560700341904494e+01 1.535882490954119e+01 1.424846152978119e+01 1.426614833536906e+01 1.562043390098532e+01 1.564293898984945e+01 1.452766751825016e+01 1.429962293426909e+01 1.237034819987361e-01 1.078827575417416e-01 1.152837485879941e-01 8.497998817723714e-05 9.115410434497426e-05 4.832214767677671e-04 1.062077701905845e-04 7.969425643144117e-04 3.632475728829028e-03 3.146973436120337e-04 3.338987856529436e-04 9.940042108838922e-01 1.033007455456727e+00 3.999987712910077e+01 3.999957107109015e+01 3.999802329691421e+01 1.297766453062477e+01 1.287334711756011e+01 1.115854989741727e+01 1.163523210720314e+01 1.299522914041205e+01 1.296368957600658e+01 1.142372981966546e+01 1.133789288032356e+01 8.932776893072315e+00 1.104258570192984e+01 9.514142480049866e+00 1.093359171131321e+01 9.647127706903818e+00 7.608780640801637e-01 7.164979766792350e-01 3.506196659521629e+00 4.467194609940647e+00 2.090978882179910e-01 1.721160387690414e-01 3.054578709715123e-01 3.673321724155160e-01 2.277934069991368e-01 1.749103175373284e-01 3.080632497772033e-01 3.959951287211135e-01 4.681089314266085e-03 1.887545715583488e+01 1.891311004547304e+01 1.897779798366891e+01 1.890229016681634e+01 2.413694775219904e+01 4.855286841584855e-06 3.351646427875260e-03 1.025846317861096e-02 6.992799996344575e-03 1.462402684885484e-02 3.192313177483453e-05 1.242146380296320e-05 1.926301712646000e+00 4.358202400926736e+00 6.938859828744072e-03 6.279439093338652e-05 1.890362075609595e+01 1.901082566936309e+01 1.884509813420029e+01 1.866591881709436e+01 1.814014363221553e+01 1.857438395039242e+01 1.759594980683211e+01 1.763372832976119e+01 6.677496585657151e-01 1.164017438042735e+00 1.661778908067078e+01 1.775051144740533e+00 1.757031988112852e+01 1.659888666526387e+01 4.977286775925548e-04 1.854845161654706e-04 2.374179270083387e+00 1.895808771438725e+01 1.907865713507831e+01 1.890204329739303e+01 1.752007939445799e+01 1.655657869540492e+01 2.724249513420551e+00 4.401796906308111e-04 1.877323685391059e-04 1.862176303845908e+01 1.809973311801568e+01 1.852285796464070e+01 1.774184243326325e+01 1.776319075349774e+01 1.676200381047875e+01 6.292809467758004e-01 1.121949327394360e+00 1.730048821175852e+00 1.311212881888354e-01 1.469864427574696e-06 3.855695965683844e-06 2.424590164308580e+01 1.506743674897579e+01 3.960728920054713e+01 3.984998915366828e+01 3.951508781759068e+01 3.894460537066258e+01 1.215388492132334e-09 3.905654402821921e-09 3.649575485275479e+01 3.686108290560928e+01 3.339695004885468e+01 3.769058908757391e+01 3.668588524106183e+01 5.862986859407028e-08 1.677090659338773e-07 4.686368349156051e-08 3.457152804367849e-08 3.997929029697661e+01 3.992673735141541e+01 1.014392585766753e-09 1.541906424400510e-09 3.996557928563429e+01 3.997995700050764e+01 1.200466515961773e-09 3.831462736424638e-09 3.794410121284643e+01 3.831054632739043e+01 3.912743041073780e+01 3.658146668104520e+01 2.397286865792096e-08 2.327664571065227e-08 8.791211438762451e-09 7.188056029626055e-08 8.449689828999375e+00 1.102665724185599e-07 1.117309333194251e-07 1.259357628135466e+01 1.368523806857968e+01 1.941208048090599e+01 7.809108737935651e-01 9.674943253427424e-05 1.534284014596699e+01 1.547216288684465e+01 8.010897817845041e-04 1.321983936201639e+01 1.661496126906609e+01 1.957161730175662e+01 2.649425964592676e+01 3.860552292873299e+00 1.551308355704226e+00 3.276007094021505e+01 3.472340745536700e+01 1.262261226133225e+01 4.043935498650332e-03 1.628284400027854e-03 3.356425602606273e-03 1.336126288819398e-03 3.140932180364222e-02 2.766341952849933e-02 2.715298793152844e-02 5.323715144904529e-03 2.776960386757603e-02 2.798251756135182e-01 1.796395741213594e-01 3.374546706948924e-01 2.028504260264191e-01 1.022745708511454e-05 1.716112904132544e-05 1.975912084953826e-04 4.245914461918281e-02 4.183295701647173e-02 1.709234679984231e+01 1.707814403783908e+01 1.783191277095495e+01 1.662540005329872e+01 1.706279939097587e+01 1.704874909703024e+01 1.779495646383960e+01 1.660058799324431e+01 3.004327345830357e-02 4.394046254264018e+00 1.871144041235538e+01 1.893660799208624e+01 1.881555301399523e+01 1.902074350822694e+01 4.783439432411637e+00 4.767779355464389e+00 3.553222295242411e+01 1.805227158031438e+01 1.812098179369521e+01 1.829080517355617e+01 4.314183265428083e-04 1.614288350970500e+01 7.885822015733822e-08 1.042209374309116e+01 9.829934194871125e+00 9.414257782234491e-03 1.260595538193955e-02 7.261002821024981e-02 3.505896273464548e-03 1.759873080073274e+00 1.595985602015023e+00 2.949378496673288e+01 1.570544490632588e+01 1.616259629884782e+01 1.682147783955850e+01 1.553803336313183e+01 1.599493428917215e+01 1.665968887730061e+01 1.888585865090534e+01 1.775218853771247e+01 1.770587065417794e+01 1.328802219954112e+01 1.313539665180805e+01 1.866902072236985e+01 1.872068684131423e+01 1.872301299050042e+01 1.873446862322214e+01 2.279970123157824e-06 2.095261409780131e-06 6.097297602441804e-06 7.936101638126920e-09 2.804031862984952e-09 1.023917172496086e-02 1.344331560028962e-03 3.957443895770815e+01 3.979816043941400e+01 2.833109453978104e-02 7.190941413097538e-03 6.583772479054561e+00 5.766101236495347e-01 5.075272892539611e-01 5.229150595899307e-01 5.100254015949115e-01 9.126915488301730e+00 1.098779029613855e+01 9.145645019923908e+00 1.088082555547314e+01 1.417395547260892e+01 1.260916193825441e+01 1.392727316594514e+01 1.212365211424503e+01 2.559115914589237e-01 6.422432780170536e-01 6.143691474868689e-01 1.243682591303875e+01 1.263629936532359e-10 2.116602147326352e-10 2.062169639090266e-01 1.892574182833845e-01 1.596980424867581e-04 3.999999996184012e+01 3.999959496902756e+01 7.360762731584726e-01 2.900413364788175e-07 1.007020171286292e-07 6.952376468800860e-04 1.173088094513154e+00 2.191845798619612e+00 4.234352263632861e-01 4.380632768919966e-03 2.012238788094035e-03 2.993412817866911e+01 3.069587073299483e-04 3.999999999239855e+01 3.999969226850957e+01 2.817216788906587e-09 4.125981688037778e-09 1.000361964075902e+01 1.023781277433325e+01 5.426849564512852e-05 1.371572622395753e-04 9.376178608119771e-01 1.437968074514441e+00 7.777489293918703e-05 1.654978815402112e-04 2.827625310571244e-04 8.819087850022923e-04 2.135938112002628e-03 2.652744067210526e-02 4.575142979249788e-03 2.754651109112420e-03 1.262905490422377e-05 1.135573686285010e-05 2.951168967854058e-05 2.434645144908359e+01 1.786929748141504e+01 1.820189311769461e+01 1.782956160062841e+01 1.818437407895983e+01 8.240057953724706e-07 8.407070111101035e-07 2.208028292909274e+01 2.500791037687200e+01 5.084617453423825e-06 4.057387686523100e-06 2.250365025571327e-04 2.105279614432225e-03 3.637224928027623e-04 1.506187606280829e+01 1.557491222761638e+01 1.413704741476165e+01 1.475333365022560e+01 1.430016142066716e+01 1.492203990755745e+01 1.493831530159481e-03 2.088532768135235e-03 1.724062163208200e+01 1.721705774882179e+01 1.750270333403304e+01 1.689147372215210e+01 7.342080553151393e-05 3.370302716917322e-05 4.458150380664695e-03 2.726752629287739e-07 9.738479322674693e-08 3.039690049351527e+01 5.948856751158610e-03 2.145321385609338e-01 3.235813708587102e-01 2.265151450202577e-01 3.551451553424581e-01 1.241477511552581e-03 2.356216731115408e-01 8.030582051977894e-01 6.094041372675159e-02 6.796227871787035e+00 8.010320914850373e+00 4.332054233323741e-06 1.849497971777707e-04 1.629361719113161e-04 1.750316775671448e-04 1.763387719263605e-02 2.177330767896274e-01 1.461755031940951e-01 1.922149120792126e-01 1.321311604769297e-01 1.389552733516298e-05 3.175643490165627e-05 1.523654193966729e-03 8.656421825058109e-04 1.173938910403631e-03 2.437603590912557e-04 1.823201044747338e-10 4.015334514688399e-10 5.114067001086032e-10 3.999941912878288e+01 3.999665007060253e+01 3.999791475554457e+01 3.988303491883974e+01 3.956149314642907e+01 4.918294999917761e-09 1.216521104018932e-08 5.788215548070545e-09 2.227199691223724e-08 3.097892849891990e-08 3.941847792063902e+01 3.985889990319794e+01 3.865368501221344e+01 3.816570228388334e+01 3.999959324162998e+01 3.999835712667569e+01 3.999839566337182e+01 8.183615835962417e-10 3.130774295036891e-09 9.806904685090248e-10 1.884075432830218e+01 1.884495865331203e+01 1.859965899261923e+01 1.857158950174610e+01 1.889919311451604e+01 1.889175169076849e+01 1.865885581126433e+01 1.870788916183725e+01 3.239217050558614e+01 3.735860421227423e+01 8.489037961355999e-07 2.443660807836302e-06 3.201255521463862e-07 8.170708663466765e-03 3.842774829347446e-03 6.945476602702469e-03 1.617754544208038e-02 5.133921435342506e-06 1.796731186063168e-06 5.369565319425180e-06 1.395780966572536e-05 3.490511194791961e-05 4.078989379152248e-05 3.239107640688434e+00 2.149913833238741e+00 9.714538066004129e-01 1.283735289752335e+00 8.878650054249000e-01 8.962718082046944e-01 1.257943744743218e+00 9.031477192963255e-01 7.812845855398195e-04 3.726768081117810e-04 7.512577879760461e-04 1.802991815991958e-03 6.153173444662610e+00 2.970832304425960e+00 1.386481793025947e+00 6.470427030741289e-08 5.650107734746156e-02 2.613636540108832e-01 1.416725813933679e-01 5.189810966479157e-01 1.772653862585445e+01 1.826579481886413e+01 1.780199442900969e+01 1.837107750433466e+01 1.778132505759263e+01 1.831665403436707e+01 1.836415260182680e+01 8.861323622621537e-05 1.737831839422247e-04 6.800310461868629e-05 3.527296771258961e+00 2.305565344893653e+00 2.606105237075546e+00 3.250740071239704e-03 1.509682318680061e-03 1.665085221684776e-03 7.102446315821998e-04 1.720140260307578e+01 1.724181015756927e+01 1.643732028986258e-04 8.307777238946135e-05 3.969549618635130e+00 3.041707549220870e+00 4.129604012998099e+00 3.171945693085392e+00 9.439584429223981e+00 9.337045148706986e+00 1.043028336048164e-01 6.552159888335515e-02 1.330971392203034e-04 1.185920197608800e-04 1.318334953684525e+01 1.187594830617776e+01 4.051990689348984e-01 1.280767892138825e-01 7.478080331218130e-01 8.808704744581842e-01 5.273937707553321e-01 6.894181409067851e-01 8.565330544198434e-01 5.184967982639206e-01 1.373284115817474e+00 1.972624730018853e+00 1.286314210648783e+00 1.866201330037484e+00 3.953293440351261e+01 1.046627640536354e+01 1.277788034789387e+01 1.044342431094820e+01 1.256853733448984e+01 3.636582524119488e-01 3.447112954618303e-01 1.758660579597818e+01 1.731106964960715e+01 3.549890620108780e-05 1.253244916154215e-05 7.713969114826491e-02 1.244549169271242e-01 1.535579195683474e-01 7.629320110510363e-02 1.231631733866617e-01 1.534048980209040e-01 7.119713974617453e-04 7.945496253853481e-04 1.032194072679372e+00 1.000222117866480e+00 1.653167907823633e+01 1.700208115546309e+01 1.692808269975242e+01 1.720309484000946e+01 1.321365721315945e+00 4.342405829006671e-01 3.105575261290122e+00 3.505392419037324e-01 3.016052986019728e-01 5.253343630313302e-01 7.263562453223715e-01 3.202327289290576e-01 2.790463305151559e-01 5.021359726889454e-01 7.000593566886999e-01 6.244828697843738e-06 5.957548587779713e-06 2.390715367543725e-06 1.506521410426970e-03 6.009251627036045e-04 1.777063311534219e-04 1.625453495990452e-05 4.038766430460180e-05 7.879661656638364e-05 2.168040018089372e+00 2.092271464060901e+00 3.999988698112335e+01 3.999201990954406e+01 1.668256062639973e-10 2.405800798065991e-10 2.784536786806050e-08 1.115687261709996e-08 3.913203734805826e-08 1.085274805174435e-02 4.135468912587449e-03 2.090570926879325e-09 1.654107469022431e+01 1.511728853564521e+01 1.601876481853267e+01 1.655344767457454e+01 1.551375712852400e+01 1.624193051718248e+01 6.370514695363972e-09 1.362610498460113e-08 1.964203496255492e+00 1.556287507616996e+00 1.924920100057530e+00 1.531759301342666e+00 3.598184198747850e-02 3.973542775575668e-02 1.871632289417230e+01 1.853916271786568e+01 1.891075722270015e+01 1.877955235205839e+01 1.860664670921917e+01 1.890766368945460e+01 1.165891069687983e+00 1.555299911248315e+00 3.487849919094325e-02 7.100560134738564e+00 8.335046103806572e+00 7.066283900710267e+00 8.341626079818695e+00 4.514587468860622e-02 1.842836744697426e-01 6.750598598378619e-01 4.309818583414819e-02 4.705940642319398e-07 1.585684553450851e-07 3.998856925771607e+01 3.999935221799522e+01 3.996252268644170e+01 4.885066897720838e-10 3.661306651887487e-10 5.799657581941303e-10 3.479986210784216e+01 2.676762509261791e+01 2.979613356116908e+01 3.154480616173404e+01 5.944505536830869e+00 6.464278291877072e+00 4.887096193897287e+00 2.699405060281678e-10 2.871086776446235e-10 3.999999875128630e+01 3.999327416361314e+01 2.074351755339326e-02 1.977798174239042e-01 5.130067610321550e-02 1.878435930295698e+01 1.890294045723282e+01 1.878382843002718e+01 1.888194030583163e+01 1.542887668160770e+01 1.469053646799561e+01 1.554704555784188e+01 1.457380873295704e+01 3.321439969318689e-09 2.002278122135599e-09 5.466279580838491e-09 1.369210352002519e-08 9.830512590268243e-10 4.941207077414863e+00 5.092900159038369e+00 1.792425735558900e-01 1.535060535802742e-01 1.363810677235955e+01 1.413101970244570e+01 1.496048658236793e+01 2.722639957406516e+00 1.866703823966590e+00 9.621275447920661e+00 5.353532019616379e+00 5.818357086247678e+00 5.350020635679234e+00 5.773241215253558e+00 5.247138274298959e+00 2.129771796832752e-01 3.032832237441802e-01 4.687382995094422e+00 2.823297660627563e+00 3.853332413222884e+00 4.654354869826682e+00 2.878199183126271e+00 3.815141788687894e+00 3.252989765763161e-07 5.741299230327365e-07 9.905553303730645e-07 1.560754716097650e-06 1.825263893170867e+01 1.873931425495932e+01 1.833346727727604e+01 1.837894593509284e+01 1.883231355192345e+01 1.844461872044353e+01 5.150061866495988e-02 8.666898765841889e-02 8.541873640544564e-02 5.351602444899792e-02 9.044835180061186e-02 9.511102334226651e-02 3.567260177471935e+01 3.826329658785151e+01 1.063837832430154e-02 1.397999075152317e-03 4.948482331695988e-03 8.774963612514423e-03 4.325012505218602e-03 2.745700883228306e-03 4.894905036585265e-04 3.489881728816259e-04 3.466569598646813e-05 1.471108508622662e-05 1.597077189734054e+01 1.680845386381311e+01 1.351724508801257e+01 1.475771547295606e+01 2.027084240170511e+00 1.995198091920463e+00 1.513212636188966e+00 1.065635496606790e+00 1.300516967442671e+01 1.551382005536088e+01 1.602201580692298e+01 1.419427963197264e+01 1.638537248866525e+01 4.675561308872384e+00 3.828321446934624e+00 2.160314002298240e+00 2.614803191416857e+00 3.109660347501771e+00 1.778661779565200e+00 4.620466419347053e+00 3.875377120910154e+00 2.142629503555575e+00 2.668984279239989e+00 3.161246344091247e+00 1.820537555239087e+00 1.240077640312967e+01 1.681528169130998e+01 1.565259454939599e+01 1.401030708957035e+01 1.243484813770328e+01 1.676839550479793e+01 1.573374573637771e+01 1.415245874604133e+01 4.760704476704213e-01 2.378138296455971e-01 5.002803431328535e-01 2.349315191260105e-01 7.828748948046297e-04 5.219638127027731e-04 1.494406368104063e-03 5.220886331094592e-04 2.084274096177246e-09 6.842238717731586e+00 6.741600261941090e+00 8.473694218518002e+00 8.569689277566964e+00 2.384701510714888e-05 1.067826498610265e-05 2.731448624132656e-05 2.695908721660536e+00 2.735882879464814e+00 1.555815276689521e-02 1.062641926634744e-02 1.942746445138701e-01 4.663541924082332e-01 2.775994783011174e-01 3.028663961938803e-01 1.904338155456334e-01 2.904111571382240e-09 1.601528640274580e-01 4.243105168216559e-01 2.712094126103469e-01 2.538975700745998e-01 1.867403441382576e-01 3.161785902173771e+00 1.500012608253709e+00 2.272015681398518e+00 3.051699740458954e+00 1.337478570894483e+00 2.064226555473911e+00 7.460077512390053e+00 3.664573481856475e+00 3.868099810916046e+00 3.080047040379559e+00 3.756811679253881e+00 3.177263586530751e+00 4.330637630076695e+00 3.038587761894063e+00 3.675433353040153e+00 3.593338284124821e+00 6.911585326617822e-01 8.321471802755303e-01 7.327286484194583e-01 7.705819553572689e-02 2.026109917054528e-02 1.152077953911670e-02 1.382472277018064e-02 8.245006808778575e-04 3.850103615497237e-04 3.569048305167356e-04 7.608528234836277e-04 3.752775884326535e-03 9.242015446745372e-02 2.565667745479872e-02 3.990114817878209e+01 3.999315301753878e+01 3.997205410841399e+01 8.983112414124320e-02 5.344190737098168e-02 4.489139004218520e+00 3.541547966981437e+00 4.382287563484328e+00 3.356762996118208e+00 7.759310413408557e+00 6.558795216272056e+00 1.307438508177503e+01 3.112672469392613e+01 3.568635119908928e+01 2.548451290450150e+01 8.539824138214644e-02 4.190409693238463e-02 3.559059901509815e-09 2.808486490015977e-09 1.215779461312311e+00 1.411264737449265e+00 1.571435160368638e+00 2.879120478838249e+00 2.663917629575416e+00 3.416282782673041e+00 1.611165482256780e+00 2.904913565966962e+00 2.677806351468560e+00 3.426412851318505e+00 1.635390099694724e+00 4.037472815684176e-02 2.175100204389094e-02 7.428280735818066e-07 1.252665041980561e-07 2.654100820458953e-07 2.571915579936057e-07 3.533953485217560e+00 1.650235606039410e-02 3.353073520734365e-02 2.164888753286372e-02 2.028245376606586e-02 2.550478004757374e-02 2.611222002783770e+01 3.182044747817307e+01 8.746868307183751e-01 1.046801808108548e+00 4.253356711809356e-02 9.532660723691860e-02 4.219648179990373e-02 9.214872515436671e-02 1.757779376136662e-03 1.171815474520101e+01 1.900723683222749e+01 2.581107148583051e-09 1.708927903131248e-01 4.245849718271329e-02 3.737960318113542e-01 1.132146443573674e+00 6.031178215469815e-01 1.856147919343143e-03 1.683079017780909e+01 1.823232605275068e+01 1.772106950867949e+01 2.737366248292812e+00 2.596025129639917e+00 2.883642183102902e+00 4.703797811273362e-01 3.442866828407721e-01 5.722184223554768e-01 4.680308234940668e-01 3.504902824159694e-01 5.220728155134406e-01 5.209435024542144e-01 4.394526782284064e-01 6.493116290878676e-07 2.240214187145116e-07 1.481901055675904e-06 1.778055105101188e-06 6.560410934217348e-02 1.107139497541949e-01 6.182624920814020e-02 5.925233302849439e-02 3.470537191493537e-02 7.838156233720189e-02 4.485984182992940e-02 5.453794919329802e-02 1.228698145225333e-01 1.226760196959771e-02 2.068915209658631e-02 1.206539159818584e-02 7.721148227102047e-02 3.199776736908738e-01 7.530538614326390e-02 4.879145448405893e+00 8.078279336293051e+00 7.880278475619635e+00 6.46657532444503