<?xml version="1.0"?>
<VTKFile type="UnstructuredGrid" version="0.1" byte_order="LittleEndian">
<UnstructuredGrid>
<Piece NumberOfPoints="714" NumberOfCells="1306">
<Points>
<DataArray type="Float64" NumberOfComponents="3" format="ascii">
0 0 0 0.099999999999928008 0 0 0.082799035591426873 0.082799035591510806 0 0 0.10000000000041601 0 0.066361468125430589 0.15903440181097661 0 0 0.20000000000083221 0 0 0.30000000000124832 0 0.089078158003765312 0.2493007687782936 0 0.140351188660986 0.16130415108589741 0 0.21725788110387281 0.17316968768743621 0 0.17318221359491059 0.27409688392309489 0 0.24783073444672249 0.24783073444648379 0 0.29145143692666958 0.13500804559578439 0 0.20669143849501961 0.085546078947938975 0 0.19999999999983389 0 0 0.29999999999973409 0 0 0.35933948296838258 0.073809900849860513 0 0.43504744109702559 0.077628892606360606 0 0.39999999999966429 0 0 0.49999999999959438 0 0 0.59999999999951659 0 0 0.57505385014294308 0.072457888465917331 0 0.50264032148191051 0.12292784096123539 0 0.49255105193724569 0.22337579986912359 0 0.5565830077206213 0.19095699352548859 0 0.58612580217118482 0.27813894450229909 0 0.41589935411558732 0.26752529264016389 0 0.40428440976105728 0.1643886070295453 0 0.33604819894646598 0.23280286076243209 0 0.34318159319555042 0.3314386771104964 0 0.38593969585746768 0.44843324941957241 0 0.42544665781957403 0.3726599289372452 0 0.49272830291620878 0.32528628960011152 0 0.56509579243166053 0.39588847936247551 0 0.47711113382803011 0.43513410852522788 0 0.55763912874459476 0.49619993861770217 0 0.56379254693201075 0.58472273515948836 0 0.46433624429412901 0.61260020600107856 0 0.45232393232070839 0.53082724112931345 0 0.34793494568226019 0.52426775179830853 0 0.38240158409674341 0.60644575028138747 0 0.27661118526457179 0.58730386222759956 0 0.16324260003398389 0.62262730759772122 0 0.1946526892501724 0.54636184660733622 0 0.27220668248394869 0.50912429725145214 0 0.29987747321592639 0.43430880093746571 0 0.2371857680100064 0.35865548441110112 0 0.16486701364709541 0.41592657376307979 0 0.21928696632013719 0.4676461135047027 0 0.083393126324559225 0.42307471369029392 0 0.13897501191807771 0.34545639364066222 0 0.0632094674441709 0.3449112819864934 0 0 0.40000000000166441 0 0 0.50000000000205869 0 0.12353277228144981 0.51086097771927308 0 0.070553891733833127 0.57745844360881338 0 0 0.60000000000138687 0 0 0.7000000000006934 0 0.089684836063650353 0.74720097194875412 0 0.079752623936563252 0.65630726580969023 0 0.25446499951716589 0.69023946426646743 0 0.22047232289835689 0.77501739045979867 0 0.16551550920047911 0.70947866912672319 0 0.29792158491427922 0.79537096033156995 0 0.2235202862591317 0.88873896332704583 0 0.1332109546178302 0.87498377138822103 0 0.1533088418661793 0.80370257472597129 0 0.074918724681641777 0.83311952320732263 0 0 0.79999999999999982 0 0 0.89999999999958358 0 0.075231054453351903 0.92314074346405706 0 0 1 0 0.14716362552681639 0.93861610753355362 0 0.099999999999999645 1 0 0.19999999999999929 1 0 0.30000000000000071 1 0 0.39999999999999952 1 0 0.49999999999999911 1 0 0.59999999999999964 1 0 0.5499999999999996 0.93976792513729512 0 0.56701461556202259 0.86335846433862784 0 0.62017612851329729 0.81451802170669263 0 0.51076728641122882 0.81691863363193817 0 0.45907587517201498 0.90165918271477563 0 0.37337282601342481 0.92616598444216514 0 0.31535921456193688 0.88154045330654418 0 0.36912581253574028 0.83088590731704637 0 0.43819239467549531 0.79296936871720936 0 0.33985912385126898 0.73174041004507751 0 0.32437633398017029 0.65970549827478953 0 0.42824324229177341 0.6924957961634054 0 0.5174764925733939 0.65338828204098198 0 0.52912171753951986 0.73993242892488531 0 0.62152629835360762 0.73285157302339954 0 0.59670004617370476 0.65981579440137683 0 0.6754414170471299 0.67700559910555169 0 0.69085763855200755 0.76120667115691065 0 0.74547688787239819 0.70026419381674654 0 0.81910554849723838 0.69100245438023977 0 0.90192269692920224 0.70295054578552552 0 0.84477163403336131 0.77519844632340484 0 0.91372311269140116 0.80486176357476358 0 0.93540888248908083 0.88281232945237675 0 0.8793859710393791 0.93083561064221121 0 0.82192606283926717 0.87651855948129354 0 0.73937541854631073 0.9288754054780668 0 0.76404828705430583 0.78174230667165401 0 0.71722872346306721 0.85096302760907838 0 0.64588148000090029 0.91512139508160772 0 0.70000000000000018 1 0 0.79999999999999982 1 0 0.89999999999999947 1 0 0.94997493298435887 0.94717135651053852 0 0.99999999999999911 1 0 1.1000000000000001 1 0 1.1999999999999991 1 0 1.246238897717278 0.90016207822659 0 1.2104878010462079 0.79638517641579154 0 1.130022579458912 0.80264790230838934 0 1.1492841477515361 0.89495863909300122 0 1.035017143854235 0.92577305964649748 0 1.039491394416145 0.83402983011495258 0 1.0785590511537511 0.75365885686631617 0 0.98491966670915287 0.745702719141624 0 0.9749171938312049 0.68304286407835557 0 1.05 0.67063679245255348 0 1.1595355377629719 0.69612720023346242 0 1.2316049928421089 0.71268197388690568 0 1.160572984923127 0.60155304747043781 0 1.1544259370261769 0.49580194535795907 0 1.2482752740169289 0.44264463249545388 0 1.1787318575418491 0.43180077319900678 0 1.193211192060164 0.36417169501775798 0 1.11366617971111 0.39530889117858181 0 1.049999999998295 0.45311778235774403 0 1.0499999999982661 0.33749999999944968 0 0.97284972811175952 0.32057650487681749 0 0.97803218086495292 0.39957666910545891 0 0.95438428234324713 0.50021891445525024 0 1.0610070115193291 0.56187728740506249 0 0.95554667482020261 0.61387123313571723 0 0.89730215834238125 0.56352362508531118 0 0.82099888937423493 0.54529350322201742 0 0.85383906663538056 0.62014574817393608 0 0.74991769371388628 0.60451627361984739 0 0.65500944633069913 0.60601350811213128 0 0.66278242936710119 0.53985356489900171 0 0.74775703275407246 0.49059679564787018 0 0.71094001953927277 0.41472992215547572 0 0.64897033023755402 0.45530630145656431 0 0.65823561246403328 0.35502292901158627 0 0.83603391221093415 0.31708941802047369 0 0.79315209058920677 0.38802315963964318 0 0.84897848255088726 0.46000674997733482 0 0.9184189969982266 0.43608586792060411 0 0.89716106756302072 0.36571612550017968 0 0.91043121937362004 0.26518856856736223 0 0.8520969719592798 0.19112077159544111 0 0.81051762114363357 0.25355176211442859 0 0.7545004114404561 0.31098089234202853 0 0.68811979868824935 0.26566684131589419 0 0.64669101990832323 0.1799054750174742 0 0.75284581776561577 0.20455093921856349 0 0.75434135135171976 0.12888799631625769 0 0.66267222434682926 0.078497159578092612 0 0.69999999999928797 0 0 0.73796379772146625 0.059893436010741673 0 0.79999999999899607 0 0 0.8072276847200428 0.07509171132446453 0 0.87151744524583186 0.1145610820769897 0 0.89999999999870417 0 0 0.99999999999841238 0 0 1.0527907183502181 0.1005001786211816 0 0.95940036225003311 0.0802667348803804 0 0.96758455917765662 0.17206502793490561 0 1.0273907165533489 0.25089655084417212 0 1.0673059847957449 0.1861726764986896 0 1.14543293599463 0.16096823716187 0 1.1317936052402791 0.27327200211975772 0 1.2189485028845071 0.28846717556219142 0 1.225209211892335 0.20648826945283069 0 1.09999999999812 0 0 1.1494214575391031 0.075340014825429069 0 1.199999999997829 0 0 1.2999999999975369 0 0 1.254652873386052 0.105753482544517 0 1.3681535985071449 0.13698083382674339 0 1.349999999997392 0.060567969661089648 0 1.399999999997245 0 0 1.4999999999969531 0 0 1.542152768646126 0.073248247890105089 0 1.53341268746562 0.14194251306413061 0 1.456639397274391 0.1016053838939758 0 1.4156792278190771 0.19574754335211339 0 1.4905184776249101 0.20629734327603311 0 1.545236949037224 0.29434567071731399 0 1.473286192129879 0.27883707652097373 0 1.3878996413210389 0.26723502210068018 0 1.316869459340541 0.18778020585802921 0 1.291408388555241 0.26372433042992383 0 1.2615469736996101 0.34090999671933891 0 1.347125314110625 0.32447518420453242 0 1.385017785528226 0.40713366384701549 0 1.3198129865007471 0.39133224900025881 0 1.2709684905841181 0.55537862536316829 0 1.3860523322451299 0.56073196187600105 0 1.3462106466432811 0.48060664220838062 0 1.4795754400412069 0.53983964974648579 0 1.445918816848357 0.6075709531782556 0 1.5386621965636409 0.60828218080060537 0 1.550364457075788 0.50467902559054656 0 1.551956040519719 0.40384519109247291 0 1.4491802319415681 0.4666714614197911 0 1.4507225717793131 0.3561247496431208 0 1.6419306970571019 0.3436055112169133 0 1.645895854313963 0.45222881216869149 0 1.645263810758179 0.55814977621663464 0 1.7537858687071439 0.50406839622489796 0 1.742806034420483 0.6006074591026016 0 1.8544400981153091 0.62488101477716596 0 1.8316048184152021 0.54157006606434721 0 1.850967139686138 0.45738417241574703 0 1.7808296409871709 0.43587276890434401 0 1.71976181471802 0.39635806210359681 0 1.787749129254824 0.36176402170097799 0 1.8620515405159661 0.32644761881501039 0 1.799219293849516 0.26438879273789773 0 1.8480644103363271 0.19193194889233381 0 1.7304700827703301 0.17386188770806579 0 1.714493154391862 0.28897291620938281 0 1.6351951680630969 0.23707571199064051 0 1.567491488875842 0.20218805454405439 0 1.6799832100487111 0.082202015566833181 0 1.609545399082946 0.1308291592921435 0 1.599999999996661 0 0 1.6999999999963691 0 0 1.75369588639865 0.074917217572982864 0 1.8299024103288899 0.1151394713368583 0 1.799999999996077 0 0 1.8999999999957851 0 0 1.894432874635162 0.07551835003504323 0 1.9999999999955109 0 0 1.9480526939991849 0.12898730409406539 0 1.949071218763063 0.20551835056699769 0 1.889482378851052 0.25355176211435237 0 1.9370762551310139 0.30659376302738528 0 2.0131266155023031 0.26735551396116869 0 2.0579369465445829 0.18492358211896681 0 2.109175777466048 0.28747319291998968 0 2.1529249143000921 0.20760117016104621 0 2.145863811971962 0.09449602309195497 0 2.0499999999955518 0.089783354580979427 0 2.0999999999955929 0 0 2.1999999999957449 0 0 2.2631085279260659 0.078835433122263737 0 2.2171573042311432 0.14903409558359759 0 2.2999999999958969 0 0 2.3999999999960488 0 0 2.
[...]
<CellData Scalars="A_conc,As-lin_conc,Bs-lang_conc,Cs-freund_conc," Vectors="" Tensors="">
<DataArray type="Float64" Name="A_conc" format="ascii">
2.2479447196009862e-11 8.7038052047140432e-15 2.0947515236173723e-14 1.7232764393322952e-19 5.3874082707264511e-23 1.2659526637749295e-26 1.7689685708378607e-30 7.0255249383649809e-32 5.2688865176224979e-36 1.9721242430730522e-45 1.1298838307342882e-37 2.6290890855544425e-33 3.4291389961678149e-28 1.0029203854233389e-37 1.4917216200748619e-29 6.9988194425201188e-58 1.2635238784167211e-49 7.2149226514191862e-34 3.1649073628012414e-30 2.6925376882910027e-21 6.6304546688212438e-25 6.5178229099917634e-11 1.1198355131390543e-10 1.6620210853652244e-17 5.0977659452376741e-14 1.5417487939067634e-10 3.4106832939608231e-22 1.48182656116031e-18 3.6762687683081293e-21 1.7300117784220508e-10 9.0535400171422182e-14 2.6046134564631221e-17 6.0559585237176006e-14 1.9503619674511482e-10 8.2593922574808426e-14 3.6919332402402968e-22 1.063038947010162e-25 1.4641340487259365e-119 1.8608053570512534e-29 3.990410453165843e-115 2.1914051291723768e-124 7.0376979601921975e-129 2.227053535302035e-37 2.6771351144437864e-33 3.087735867685699e-41 1.9153908317683524e-26 1.3253168236368445e-45 7.3518460152063065e-142 1.8076837779524078e-146 3.4441562840354137e-137 1.590905108086712e-132 1.2608536423718624e-133 3.5515543672607916e-138 4.1270697487885385e-128 7.0088606332847325e-119 2.1472912506960016e-123 3.2344035558923868e-128 1.9564354581493985e-123 8.8741763672880794e-133 1.3000943205767961e-137 2.3361921928855954e-138 1.1377632568674455e-133 7.8631370410971037e-129 4.9043542209708922e-130 3.4018127064392005e-143 4.1062701256447393e-139 2.3515787165141485e-152 8.350807872878631e-148 6.2382302629952318e-147 3.1079590533617083e-142 1.9463590383379648e-151 8.6797844255702908e-153 4.3086228712223893e-157 6.1930194868369062e-166 1.7881394263651887e-76 1.0011087738329753e-80 3.087876693322145e-170 1.657032056476863e-165 1.2838919454024776e-160 3.0560984096028938e-161 5.1544237794577013e-156 5.9735633580766332e-156 3.6088962525491793e-151 7.1356583106254364e-54 5.1554251892738934e-62 6.1999025660976952e-67 1.6143830885633345e-160 1.8451236616272917e-165 3.6081175945105585e-170 4.0911722323965146e-71 1.5760585741383028e-41 1.3705908982438842e-47 1.5069662713780946e-51 1.1929701183090742e-49 3.2269066411452445e-56 4.4267981343406665e-175 1.8576421913318654e-89 2.4910038882532764e-66 5.85449581158789e-85 1.8889474295832445e-70 3.1105889012017171e-75 6.5948884336845273e-50 1.4138737289452713e-45 3.7030093782513973e-49 2.3188448739179807e-37 1.2673395670782995e-41 8.5046919044906261e-62 1.1041982187183471e-57 7.4019636900106195e-72 1.4107087574408394e-67 5.0254906274579232e-63 6.6162320710551677e-49 5.3648999831947915e-45 6.3029140961727011e-53 1.3856737069670244e-33 3.6578760437958279e-33 2.1311993762261332e-29 4.644780881005984e-22 9.2164262007612778e-26 2.2937619542644449e-17 1.6451080133170276e-17 5.4276795930101127e-21 9.2803856585759601e-25 5.2347942187410542e-41 6.1952478640877324e-37 6.1237567997377791e-45 2.3467366544582214e-32 1.9399273415056536e-28 3.7243765523241666e-11 1.4731975714636195e-14 6.3072058631505721e-14 1.3655622585688904e-10 6.3936272513432978e-14 1.0868574790432412e-10 1.9238985442769138e-10 8.5690516276174517e-14 1.571003128565803e-10 8.257731548337299e-14 8.8512170962119089e-14 2.6139514366881341e-10 9.0506016825159761e-18 9.3833541483363831e-33 3.1471027853933975e-42 1.0431539411038767e-36 3.7908741546681562e-46 3.6846684386360939e-29 2.0589102849887243e-21 2.0450397888652396e-25 7.2765049152371226e-18 7.2766178546017581e-14 2.9368142116417702e-21 3.699400710918162e-37 5.0121360516473285e-25 6.414517568593342e-41 6.5394578510927486e-33 1.4856886473967666e-54 1.7713847920589019e-50 5.9141552560869039e-59 5.8242297835185191e-148 2.529715772148424e-143 1.0218917855996157e-138 6.7549092432758561e-134 3.5286094850056783e-119 9.3943254054636372e-125 1.4976887414632553e-134 2.7348729629845509e-129 2.2752590033839976e-125 6.4513068294484393e-121 2.2091029487152764e-124 8.0909069409053447e-120 1.183068507683121e-114 1.8856450651115841e-115 5.8844489202279201e-111 1.3069331895685179e-106 5.3466033993563525e-112 2.1890879490719191e-116 5.3272390669416917e-110 1.9266723934036424e-105 4.4686994499870514e-101 1.0892693915207206e-91 6.1392048565484683e-96 2.3110043236697256e-100 2.7174436871171753e-102 8.298814888670433e-97 4.8448101917608307e-88 1.7810478636867349e-92 1.2224857827108527e-91 3.6931728225722154e-87 3.1448539826993355e-14 1.230130816318667e-17 1.9187154208142192e-21 3.23534597075905e-101 1.2154626363481303e-105 4.3430216827122468e-110 4.5454766723098302e-29 3.9809011348578522e-25 1.8873060609178094e-10 5.3097165689226985e-14 1.3865349453503525e-10 9.7315948404800162e-11 9.6778503785595163e-15 2.1508297686434285e-11 2.4662055968004605e-78 3.8504368956783318e-74 7.4703906673687734e-70 1.3435326123640273e-65 3.4270812490324277e-57 1.7803258062249819e-65 2.2413017854387457e-61 2.8262786798309268e-61 1.2902197813998207e-69 6.8502321891448208e-74 1.1470795704312157e-74 5.414219139058062e-79 5.8907411240428045e-83 3.7247028354758991e-87 1.2907575766577293e-83 2.0818312404521109e-78 9.5693476703464594e-83 1.5750547013607301e-83 5.3003056820330883e-92 1.0268452591994515e-87 1.2599498695263635e-96 1.1554586850217973e-92 4.9456859634376614e-80 3.1944865038893102e-79 1.221024413809319e-70 9.6765826248316813e-75 1.840353248522698e-66 2.3409089390426214e-62 1.131361766147466e-75 3.2704544756717931e-71 3.3473011757065885e-94 7.8968859180024812e-90 3.1924217229314848e-94 3.7794921294170812e-85 9.0499606061628959e-89 7.5290231555035851e-84 1.0404186584365923e-79 5.4763748278551271e-75 1.4098677508001066e-83 2.2728384656421832e-79 7.127544783726842e-97 4.3325791077724379e-88 1.6814670607141515e-92 4.6434801351169194e-88 2.5368754045495301e-92 1.6232137020120687e-92 3.2469675949951066e-88 5.8943595022471467e-97 4.0114857884524138e-101 7.1640111258729458e-99 2.4786142932736429e-103 5.6896079502914907e-89 1.35933979624374e-84 9.6556982616360412e-94 1.9688066365918843e-102 6.1760638557434112e-98 1.5142342687406512e-102 7.3072644049119928e-107 2.4724034667820844e-111 2.2673222439635425e-111 7.1331511800015149e-107 2.1701605817613587e-129 8.2534929321639798e-125 3.1274725929321118e-124 9.54363431492413e-116 3.0578428860617731e-120 6.676088728766229e-115 2.2503406885515139e-119 6.7155664522831762e-119 6.3702301047446781e-110 2.3857706196856622e-114 1.9741220030597766e-105 4.8678227640335084e-101 6.533939710623212e-106 1.6134200637277917e-110 1.8496108165157948e-101 1.5839358344864154e-105 4.082734684629467e-97 3.3853230180635135e-92 1.8506729928356427e-96 1.1570157849645054e-87 2.3627154423371747e-87 1.2293750889421466e-96 4.1858450269465261e-96 1.0236888317262467e-91 7.2697548291012516e-97 3.1929395914123431e-101 5.8588192631292742e-105 1.1761762165777906e-100 1.1411465368055047e-110 3.3475556616409677e-114 1.1242487530954172e-109 3.9954194645832194e-106 4.0040357169914418e-101 5.4559384480130364e-18 1.5479318078073038e-21 1.4352963802898336e-25 1.5913685973152246e-18 1.7661867401620364e-10 8.6972996820654269e-14 1.9562939565431886e-10 9.9390287415290805e-11 5.6754211845812564e-14 4.0066302811835574e-92 4.8963025414120731e-22 4.0643357801060399e-83 7.8675901249872612e-15 3.0421748677890313e-18 3.5390294712828439e-74 2.3014878343716129e-11 5.6827047008120457e-70 1.0176365434415096e-74 1.921700288887138e-70 8.2466941924405146e-79 5.8474045111131802e-83 1.0896640278962276e-87 2.7482146764309089e-83 4.4597452565159199e-79 3.5440218546903109e-74 1.6673510169799251e-78 6.0395513423052937e-70 8.169337913890506e-66 4.7623014190180981e-75 4.2495595168599379e-70 6.7626010069057935e-66 2.8681855763464932e-61 6.4373996121880694e-62 4.0423507118861523e-66 1.9326106742461871e-61 1.0239775341927163e-65 2.9739695351789863e-57 4.8625560318588395e-49 3.7630721992095969e-53 3.3705187764753477e-49 6.1470231737752574e-53 4.1995652685505039e-45 8.0336726442793643e-41 7.5758146175387069e-45 6.3911982183500858e-37 5.3832438572040415e-33 4.0451987034348216e-29 7.5077074762772569e-33 4.5378269799102757e-29 5.3893899609717886e-37 1.024930306986729e-44 1.4086523126908188e-45 7.9445834087849115e-41 4.3029627978358912e-45 1.5539108900982521e-45 2.1230692722814121e-49 4.3107811983075769e-54 2.0295659293248507e-54 1.5506600689622755e-49 1.4983648329082546e-57 1.7635910898196652e-62 1.977213641142985e-53 9.4475460110602606e-49 4.1082825291325391e-57 1.1403236785183859e-61 1.0503147676035821e-66 9.2684968539986436e-71 3.5926050839425521e-71 4.9367064591907967e-63 1.7675600701317966e-58 5.1054037845957032e-67 8.284610561331788e-72 2.614550007596364e-72 4.9245328386878192e-76 1.4153240179285915e-75 8.8162422312869486e-81 8.6053129058177019e-90 1.7972480687856311e-85 4.6905918101493957e-81 1.1783868383913108e-130 5.3759937027103663e-126 1.9331645380079436e-121 4.0853706984050237e-121 3.9030642372789364e-112 1.233989903832705e-116 7.1776977888015346e-117 4.4035330882359784e-113 5.5586370971260968e-68 6.0270342746092711e-64 2.1893204413014591e-59 3.0422837259918275e-55 3.0858128459369308e-130 3.2634109582985626e-125 1.8498665113050288e-120 1.4527490018848376e-108 8.7245645114940937e-130 8.0847329222934256e-104 8.4530169088095355e-108 4.52751155496656e-103 1.2719381327861366e-94 1.36612487723449e-98 2.2163764206804245e-99 3.3116586054712002e-90 1.0599186846949472e-85 6.0354129119262062e-107 1.2432789756624337e-116 1.6203546111726761e-111 6.1502435188041404e-116 5.2846223806962564e-121 9.4223382465712203e-126 2.3867397026956533e-112 3.5946134298641479e-117 2.1633506699671916e-123 3.1753314776877379e-39 4.0906770221570329e-30 1.065262085739875e-34 1.2091369083156483e-121 1.2231329783222596e-38 8.9970127780908155e-47 8.1855996290399431e-51 1.2520669054385954e-41 3.6184701652769619e-41 2.3914213334840566e-37 1.1941893728232774e-33 1.4887970105961074e-42 2.405001700353917e-29 2.574969138962587e-25 8.7551068257156122e-22 4.5589823231681555e-18 1.5909388268647618e-14 5.3725917598507164e-18 3.243519232872996e-11 1.4884188162960459e-25 5.7663911396831723e-22 1.2331647158009719e-14 3.633797483970323e-11 4.6625262890293859e-18 4.6729018925650873e-11 1.2229096561202717e-14 4.1367969273257463e-23 2.9507944885586574e-26 1.0113155563512506e-21 8.0228129218152107e-31 2.6090462655101761e-35 6.7736067254416521e-119 2.923293886445844e-150 6.9448450108863287e-141 7.91950474016821e-146 2.8916785649764248e-146 5.1492428435561783e-27 5.2360482699281351e-137 2.6206031813957263e-136 1.3467255574092421e-141 2.4096203508417033e-132 1.3735874095687765e-178 8.8355120244371697e-174 1.9246973995915968e-19 3.9094419061465532e-11 1.2945779152414611e-14 3.1286288922899192e-11 1.0587062450630714e-11 3.1588051417638486e-15 7.7930866405031098e-175 2.9326565882958871e-165 5.4413351811784845e-170 1.766794010901146e-169 1.1001986152153541e-164 6.7877284588789992e-160 4.1790479859451667e-155 2.3330516997849581e-150 5.9348456058555285e-156 2.0484809299683275e-146 2.728681380517866e-151 7.2857354334608147e-156 1.8206880090690681e-160 1.3582329089536678e-154 2.555924055277611e-155 4.7574108314900936e-151 1.1089515766269696e-150 7.1515454851863673e-146 3.630745519025019e-140 1.1297696710641929e-144 2.7325747633873589e-149 3.4805221885288787e-159 3.998560697416665e-164 7.5596044354447983e-169 8.5398482032445031e-128 3.2188575238961588e-123 2.6990132281093943e-122 8.1528178554560342e-118 3.7417783537679254e-113 9.256629001763678e-109 2.5262731882285891e-109 1.7953643689970643e-118 5.3224759664985056e-114 5.9253277283566057e-105 1.6903687801014936e-135 1.5990976679863489e-100 3.0426547860555217e-96 1.0753142486247989e-99 4.7086962351350947e-95 1.3075508020755126e-90 5.2378332743243878e-90 2.6567727893971739e-94 7.6761722203590315e-99 1.6222366193598682e-64 8.6445608848038893e-69 4.9415117766038198e-104 7.0791821254405369e-74 4.0783300645034142e-78 2.2563745928157855e-82 3.0112138031665203e-63 2.6417970226961276e-67 1.6142215585862294e-71 8.7974172472812951e-80 2.0959040945685613e-84 1.4401143628712178e-80 3.358273431508601e-85 2.8871456443194649e-76 7.3117918243463248e-87 5.0518500520662297e-127 1.3198235146919011e-131 3.4328863758773e-91 9.069508352150335e-96 4.580633507055702e-94 5.3968856767464318e-100 1.3220023045713575e-109 1.9270420630364499e-104 5.7680320467916854e-114 5.5167856239575525e-108 1.4416643437588594e-98 1.7444018739088843e-103 1.5947526353386015e-102 1.5456965537893285e-89 2.9506482044571225e-93 9.5075763967345494e-89 9.2767373248371668e-98 2.4826142700115965e-81 1.6124040440720195e-76 1.0526088422082215e-80 2.8925299034700721e-72 2.2176527021547583e-88 1.1345754352876711e-67 1.2346049236493199e-63 1.0544625347354291e-45 9.0909381235421135e-42 2.8139671476873104e-26 4.0554486040561115e-22 1.8814152829159752e-18 1.0650716041085055e-33 1.6959066201118251e-37 1.2475084192737138e-29 3.9981944674330589e-21 7.0261623052451086e-22 6.6152751460687919e-14 8.5792584219607517e-26 4.5045711670023072e-51 3.641538342375959e-55 3.2931117193830272e-59 1.3943019927790659e-75 8.7447176181861717e-80 5.1515373425419211e-84 2.4393061129792249e-71 1.3294973881231235e-75 3.2792649875126815e-67 5.5052639866775674e-63 5.1414755427768115e-47 2.2512611574479409e-50 7.0116127968015231e-55 9.3533637765127408e-59 6.1634408039848741e-60 5.9444504225585651e-56 1.8717948358259793e-84 6.6841971961843649e-52 1.8156514857605574e-46 1.7483118342361742e-42 2.6660122803249587e-46 5.8711480461994729e-27 7.2793780375588354e-42 7.6099333457721271e-38 7.974708465163589e-23 6.3247088600832086e-15 7.9298870634104188e-31 1.9378777912889647e-39 1.396229557687607e-34 1.9744880982874576e-38 6.4004926551420076e-43 2.627326158487494e-18 3.719899674395792e-14 8.9359970556821034e-11 2.040467539633769e-11 1.8957319457390528e-22 8.2988076571856378e-19 1.7260106852014081e-10 2.6616512421821383e-17 2.7923258649394393e-10 1.4789005471650238e-13 1.774557069520926e-10 5.7522323743268363e-14 5.3465438780562343e-22 2.592687535896936e-18 9.047584464948385e-15 1.5492652319066538e-11 5.6476976047860884e-11 2.53019413476482e-14 2.8710682992748458e-18 5.0654019719542012e-19 9.1369075633566808e-22 3.0814033420227751e-26 1.5974768739825505e-37 4.6853752554631485e-30 1.0151224263229457e-33 1.1700897170308597e-49 8.8665433044202671e-54 4.7875873499747448e-85 1.5155137718032581e-89 6.8658937006809706e-47 6.9254922342666612e-43 3.7551807547414852e-51 5.1209087421271166e-94 6.7584994239357633e-64 3.263694503069447e-59 3.8486032128047254e-55 2.2485554904972402e-30 2.4320970812703455e-34 1.1409522309312179e-26 4.8239919250361312e-30 1.5668795233359883e-22 1.3441284910320048e-25 8.9128885448857732e-30 1.357131946807814e-33 2.8952347482864806e-33 3.3666712417638031e-45 1.2506986944963206e-41 6.4360393070913494e-46 1.0548746600336951e-37 3.1163465894404635e-38 1.4001190178665398e-42 1.415349078501547e-46 4.9073055227823551e-68 2.9114087399824439e-72 1.5703894913068175e-76 1.7345286356014989e-50 5.6733391640502696e-50 7.4878654689485693e-59 1.0168577947734269e-54 4.5138498481480745e-63 4.5412364515364564e-67 4.8909448383154411e-54 4.1030422003741781e-58 3.6558327617397169e-53 4.7170486594399966e-49 4.7358409709297811e-49 4.8443291145293663e-53 3.9418588784357664e-57 5.7824276819556831e-45 6.1318667847185284e-41 3.4373451225854306e-37 2.1115778939172088e-29 5.4561821880024944e-15 1.563498311614544e-18 1.7827273121010941e-11 9.256172911564631e-12 4.5624428908111024e-15 2.7752783588828456e-49 5.6547243064671664e-22 2.0420378747147463e-53 1.7078187436327815e-57 3.5385987247160161e-45 3.8028836091922721e-50 3.7545463654082983e-54 5.5829291462376646e-80 1.3301537830158449e-84 5.5122618265801901e-89 3.2494343355343466e-58 1.7303137836128107e-62 1.3075444550459404e-66 1.118770342665113e-75 7.4295906837689381e-71 3.9598347597067664e-70 1.8882379063211553e-26 8.5711721718477851e-66 9.722744225544197e-62 5.6590812198021531e-19 1.2746107524772812e-22 6.1448299803169634e-27 3.9229859505910166e-22 1.2692406912230804e-29 2.6001732465601577e-34 1.3743793520630638e-30 3.5159796630386279e-30 2.775219639589798e-74 5.0631426329651051e-35 2.3792489761870432e-78 5.5089786414171427e-80 4.8409764845597464e-83 1.5405144177319013e-43 6.8649105754223379e-52 1.8121085694991994e-47 7.7721868324461408e-39 1.4606881143252938e-46 3.9491283649064462e-51 9.1438733203901471e-56 7.8042683662660685e-60 3.4759499211703831e-55 2.6637704412140126e-59 8.2880942922167793e-55 1.969576305018482e-45 1.1894773105056388e-50 1.3549144494481169e-42 3.2314141781695302e-38 1.6250551106214837e-37 2.1946998024310906e-33 2.4788948091194788e-41 1.9375009216783847e-15 5.7782223291241793e-12 2.6056246421631899e-37 7.2915554651107784e-26 2.9539205015179135e-12 3.6643275996452164e-11 5.1586602639837366e-19 4.2999943405595327e-11 1.8491586106873522e-14 6.1026516097205897e-12 2.8960466406850949e-15 1.2954544457201314e-14 3.4593442865597249e-11 1.6602817854416197e-14 3.818938668115557e-11 1.8109805728501701e-14 6.5893568962485962e-38 5.476073723308646e-34 6.4749049547208669e-54 5.2400268069598837e-58 9.7712830239379775e-27 2.632271365004172e-62 6.3960158388243899e-19 2.1929873660032035e-22 5.4472837357863769e-30 4.3024975156216721e-26 1.0389078917845416e-33 2.7445060384155721e-19 1.8303356533991273e-30 1.5840060892023536e-34 8.4567701851412882e-72 2.0754880552804608e-38 4.6497504280764078e-76 3.4562735550762185e-80 9.9255873950810004e-65 6.5650870821375674e-69 1.4791599279168439e-67 3.8724629810942768e-63 5.9625137527129358e-59 1.7070052735720503e-60 3.0811546304230712e-52 2.607702808945515e-56 8.9435676609821419e-44 8.6118956727827665e-48 1.1762044972046808e-50 1.077593965403139e-54 6.6667545003780466e-46 7.1230411193315438e-50 3.3780484334496421e-30 1.9441491698255038e-26 7.3879219676370891e-23 7.3773081964285389e-38 5.6797109168657036e-42 2.0700264873912332e-38 4.5881376055141373e-34 1.8817331576021493e-30 1.2330423339487075e-15 7.4280477703948557e-19 4.2744548793720768e-23 9.7719145636617209e-27 6.736303714691479e-32 8.7975666536628447e-36 1.2270526276999128e-39 4.1307867316192698e-76 5.9761945832048662e-72 1.5253571804300382e-63 1.1518264706660448e-67 3.2741718810808673e-72 1.304496321944458e-80 2.5520733538399751e-76 1.3068768965936173e-80 6.6184225889273845e-85 1.369601585966299e-89 6.3089420122768351e-77 1.5985872754010186e-77 5.1138818715678275e-82 6.8686120374026266e-102 6.016905700746529e-102 1.7720504450741649e-97 4.0320576154624513e-91 1.9172008773169003e-106 2.2619056163103599e-86 1.5117202622165531e-95 1.1288117362694074e-104 2.7192204291468033e-100 1.0026729438970838e-98 4.7574414879705555e-103 1.5419342188726244e-89 5.5818456177326158e-94 5.5851950357163209e-94 7.007790533989105e-85 4.2949633293880086e-61 8.2170529421103323e-99 1.1228756629229716e-107 1.9410467883066968e-69 3.6290860178259597e-65 3.5908549117563363e-73 2.6201154062620286e-77 1.3500692781251997e-81 8.1423902607344668e-86 5.1120021668319469e-82 1.996841495220394e-86 7.4868451264386282e-78 1.8237045115642058e-73 3.5835888556800291e-112 3.7585792813552164e-117 1.1110983295454023e-121 8.0003240392705914e-92 1.8254288930153262e-126 5.2107549335717772e-131 1.1201291763033465e-116 3.9364750258666059e-121 4.6988901445467754e-126 5.6231626721053271e-112 2.7583218586901595e-103 1.5822057416316752e-107 4.3062142364019324e-109 1.9892609035036756e-113 8.0600968979948538e-114 1.4629804267214509e-109 1.9051162828700914e-118 6.4175904022099352e-123 4.7823810011976916e-118 2.1068938480558827e-122 1.3892880705484994e-130 5.8035704837629753e-135 2.9774016116935016e-141 1.5875980546880353e-139 1.429364608965375e-136 5.6280925482552291e-132 1.8285175934815033e-127 7.9008549479021014e-141 1.4376231458695656e-145 6.9200540632474015e-142 9.2404929766922077e-146 4.6453543783539758e-141 2.3881247066495482e-136 1.0796865728746883e-131 3.3311297199457856e-136 1.472550538430613e-131 5.8802848046252681e-127 1.7727595938842136e-122 4.3684593561335482e-127 7.1698742105787133e-118 2.6047893676384128e-113 8.7697739113525989e-109 8.0903049362440829e-118 2.2292051