<?xml version="1.0"?>
<VTKFile type="UnstructuredGrid" version="0.1" byte_order="LittleEndian">
<UnstructuredGrid>
<Piece NumberOfPoints="714" NumberOfCells="1306">
<Points>
<DataArray type="Float64" NumberOfComponents="3" format="ascii">
0 0 0 0 0.10000000000041601 0 0.082799035591426873 0.082799035591510806 0 0.099999999999928008 0 0 0.19999999999983389 0 0 0.20669143849501961 0.085546078947938975 0 0.29145143692666958 0.13500804559578439 0 0.29999999999973409 0 0 0.24783073444672249 0.24783073444648379 0 0.21725788110387281 0.17316968768743621 0 0.17318221359491059 0.27409688392309489 0 0.089078158003765312 0.2493007687782936 0 0.140351188660986 0.16130415108589741 0 0 0.20000000000083221 0 0.066361468125430589 0.15903440181097661 0 0 0.30000000000124832 0 0.0632094674441709 0.3449112819864934 0 0 0.40000000000166441 0 0.083393126324559225 0.42307471369029392 0 0.13897501191807771 0.34545639364066222 0 0.070553891733833127 0.57745844360881338 0 0 0.60000000000138687 0 0 0.50000000000205869 0 0.12353277228144981 0.51086097771927308 0 0.16324260003398389 0.62262730759772122 0 0.1946526892501724 0.54636184660733622 0 0.27220668248394869 0.50912429725145214 0 0.27661118526457179 0.58730386222759956 0 0.16486701364709541 0.41592657376307979 0 0.21928696632013719 0.4676461135047027 0 0.29987747321592639 0.43430880093746571 0 0.2371857680100064 0.35865548441110112 0 0.34318159319555042 0.3314386771104964 0 0.38593969585746768 0.44843324941957241 0 0.42544665781957403 0.3726599289372452 0 0.38240158409674341 0.60644575028138747 0 0.34793494568226019 0.52426775179830853 0 0.45232393232070839 0.53082724112931345 0 0.46433624429412901 0.61260020600107856 0 0.55763912874459476 0.49619993861770217 0 0.56379254693201075 0.58472273515948836 0 0.49272830291620878 0.32528628960011152 0 0.47711113382803011 0.43513410852522788 0 0.56509579243166053 0.39588847936247551 0 0.58612580217118482 0.27813894450229909 0 0.49255105193724569 0.22337579986912359 0 0.5565830077206213 0.19095699352548859 0 0.59999999999951659 0 0 0.57505385014294308 0.072457888465917331 0 0.49999999999959438 0 0 0.50264032148191051 0.12292784096123539 0 0.43504744109702559 0.077628892606360606 0 0.39999999999966429 0 0 0.35933948296838258 0.073809900849860513 0 0.33604819894646598 0.23280286076243209 0 0.41589935411558732 0.26752529264016389 0 0.40428440976105728 0.1643886070295453 0 0 1 0 0.099999999999999645 1 0 0.14716362552681639 0.93861610753355362 0 0.19999999999999929 1 0 0.30000000000000071 1 0 0.29792158491427922 0.79537096033156995 0 0.2235202862591317 0.88873896332704583 0 0.1332109546178302 0.87498377138822103 0 0.075231054453351903 0.92314074346405706 0 0 0.89999999999958358 0 0 0.79999999999999982 0 0.074918724681641777 0.83311952320732263 0 0.1533088418661793 0.80370257472597129 0 0.089684836063650353 0.74720097194875412 0 0 0.7000000000006934 0 0.079752623936563252 0.65630726580969023 0 0.16551550920047911 0.70947866912672319 0 0.22047232289835689 0.77501739045979867 0 0.25446499951716589 0.69023946426646743 0 0.32437633398017029 0.65970549827478953 0 0.33985912385126898 0.73174041004507751 0 0.42824324229177341 0.6924957961634054 0 0.5174764925733939 0.65338828204098198 0 0.59670004617370476 0.65981579440137683 0 0.62152629835360762 0.73285157302339954 0 0.52912171753951986 0.73993242892488531 0 0.51076728641122882 0.81691863363193817 0 0.62017612851329729 0.81451802170669263 0 0.56701461556202259 0.86335846433862784 0 0.45907587517201498 0.90165918271477563 0 0.43819239467549531 0.79296936871720936 0 0.36912581253574028 0.83088590731704637 0 0.37337282601342481 0.92616598444216514 0 0.31535921456193688 0.88154045330654418 0 0.39999999999999952 1 0 0.49999999999999911 1 0 0.59999999999999964 1 0 0.5499999999999996 0.93976792513729512 0 0.70000000000000018 1 0 0.79999999999999982 1 0 0.89999999999999947 1 0 0.8793859710393791 0.93083561064221121 0 0.93540888248908083 0.88281232945237675 0 0.91372311269140116 0.80486176357476358 0 0.82192606283926717 0.87651855948129354 0 0.73937541854631073 0.9288754054780668 0 0.64588148000090029 0.91512139508160772 0 0.76404828705430583 0.78174230667165401 0 0.71722872346306721 0.85096302760907838 0 0.69085763855200755 0.76120667115691065 0 0.6754414170471299 0.67700559910555169 0 0.74547688787239819 0.70026419381674654 0 0.81910554849723838 0.69100245438023977 0 0.84477163403336131 0.77519844632340484 0 0.90192269692920224 0.70295054578552552 0 0.9749171938312049 0.68304286407835557 0 0.98491966670915287 0.745702719141624 0 1.0785590511537511 0.75365885686631617 0 1.05 0.67063679245255348 0 1.1595355377629719 0.69612720023346242 0 1.2316049928421089 0.71268197388690568 0 1.130022579458912 0.80264790230838934 0 1.2104878010462079 0.79638517641579154 0 1.246238897717278 0.90016207822659 0 1.1492841477515361 0.89495863909300122 0 1.035017143854235 0.92577305964649748 0 1.039491394416145 0.83402983011495258 0 0.99999999999999911 1 0 0.94997493298435887 0.94717135651053852 0 1.1000000000000001 1 0 1.1999999999999991 1 0 0.8520969719592798 0.19112077159544111 0 0.81051762114363357 0.25355176211442859 0 0.91043121937362004 0.26518856856736223 0 0.87151744524583186 0.1145610820769897 0 0.89999999999870417 0 0 0.8072276847200428 0.07509171132446453 0 0.79999999999899607 0 0 0.75434135135171976 0.12888799631625769 0 0.73796379772146625 0.059893436010741673 0 0.69999999999928797 0 0 0.66267222434682926 0.078497159578092612 0 0.64669101990832323 0.1799054750174742 0 0.75284581776561577 0.20455093921856349 0 0.7545004114404561 0.31098089234202853 0 0.68811979868824935 0.26566684131589419 0 0.65823561246403328 0.35502292901158627 0 0.64897033023755402 0.45530630145656431 0 0.71094001953927277 0.41472992215547572 0 0.65500944633069913 0.60601350811213128 0 0.66278242936710119 0.53985356489900171 0 0.74775703275407246 0.49059679564787018 0 0.74991769371388628 0.60451627361984739 0 0.85383906663538056 0.62014574817393608 0 0.82099888937423493 0.54529350322201742 0 0.89730215834238125 0.56352362508531118 0 0.79315209058920677 0.38802315963964318 0 0.83603391221093415 0.31708941802047369 0 0.84897848255088726 0.46000674997733482 0 0.9184189969982266 0.43608586792060411 0 0.89716106756302072 0.36571612550017968 0 0.97284972811175952 0.32057650487681749 0 0.97803218086495292 0.39957666910545891 0 1.049999999998295 0.45311778235774403 0 1.0499999999982661 0.33749999999944968 0 0.95554667482020261 0.61387123313571723 0 0.95438428234324713 0.50021891445525024 0 1.0610070115193291 0.56187728740506249 0 1.160572984923127 0.60155304747043781 0 1.1544259370261769 0.49580194535795907 0 1.11366617971111 0.39530889117858181 0 1.1787318575418491 0.43180077319900678 0 1.2482752740169289 0.44264463249545388 0 1.193211192060164 0.36417169501775798 0 1.2189485028845071 0.28846717556219142 0 1.225209211892335 0.20648826945283069 0 1.14543293599463 0.16096823716187 0 1.1317936052402791 0.27327200211975772 0 1.0273907165533489 0.25089655084417212 0 1.0673059847957449 0.1861726764986896 0 0.96758455917765662 0.17206502793490561 0 0.99999999999841238 0 0 0.95940036225003311 0.0802667348803804 0 1.0527907183502181 0.1005001786211816 0 1.1494214575391031 0.075340014825429069 0 1.09999999999812 0 0 1.199999999997829 0 0 1.2999999999975369 0 0 1.254652873386052 0.105753482544517 0 1.3681535985071449 0.13698083382674339 0 1.399999999997245 0 0 1.349999999997392 0.060567969661089648 0 1.291408388555241 0.26372433042992383 0 1.316869459340541 0.18778020585802921 0 1.3878996413210389 0.26723502210068018 0 1.473286192129879 0.27883707652097373 0 1.4156792278190771 0.19574754335211339 0 1.4905184776249101 0.20629734327603311 0 1.545236949037224 0.29434567071731399 0 1.456639397274391 0.1016053838939758 0 1.53341268746562 0.14194251306413061 0 1.542152768646126 0.073248247890105089 0 1.4999999999969531 0 0 1.599999999996661 0 0 1.6999999999963691 0 0 1.6799832100487111 0.082202015566833181 0 1.609545399082946 0.1308291592921435 0 1.567491488875842 0.20218805454405439 0 1.6351951680630969 0.23707571199064051 0 1.714493154391862 0.28897291620938281 0 1.7304700827703301 0.17386188770806579 0 1.799219293849516 0.26438879273789773 0 1.8480644103363271 0.19193194889233381 0 1.8299024103288899 0.1151394713368583 0 1.799999999996077 0 0 1.75369588639865 0.074917217572982864 0 1.7537858687071439 0.50406839622489796 0 1.742806034420483 0.6006074591026016 0 1.8544400981153091 0.62488101477716596 0 1.8316048184152021 0.54157006606434721 0 1.850967139686138 0.45738417241574703 0 1.8620515405159661 0.32644761881501039 0 1.787749129254824 0.36176402170097799 0 1.7808296409871709 0.43587276890434401 0 1.71976181471802 0.39635806210359681 0 1.645895854313963 0.45222881216869149 0 1.6419306970571019 0.3436055112169133 0 1.645263810758179 0.55814977621663464 0 1.5386621965636409 0.60828218080060537 0 1.550364457075788 0.50467902559054656 0 1.4795754400412069 0.53983964974648579 0 1.445918816848357 0.6075709531782556 0 1.551956040519719 0.40384519109247291 0 1.4491802319415681 0.4666714614197911 0 1.4507225717793131 0.3561247496431208 0 1.347125314110625 0.32447518420453242 0 1.385017785528226 0.40713366384701549 0 1.3198129865007471 0.39133224900025881 0 1.2615469736996101 0.34090999671933891 0 1.3860523322451299 0.56073196187600105 0 1.3462106466432811 0.48060664220838062 0 1.2709684905841181 0.55537862536316829 0 1.2546738886072291 0.63615646469940468 0 1.3545060270195819 0.65002758689694418 0 1.4000454837723419 0.73943313674757749 0 1.3035852436207409 0.73866974635260263 0 1.2914654457895349 0.81843301378315825 0 1.3255948392482531 0.88328132587465524 0 1.3864786876100039 0.92208751032957958 0 1.386174597084219 0.82350876346868962 0 1.482119963281066 0.782586299849238 0 1.463012078585596 0.89209645917012148 0 1.546104640467868 0.9195568013001878 0 1.535346256113697 0.70153336654872078 0 1.4534042830965781 0.68426123045930609 0 1.2999999999999989 1 0 1.399999999999999 1 0 1.5 1 0 1.599999999999999 1 0 1.6999999999999991 1 0 1.7999999999999989 1 0 1.6597641702579149 0.778
[...]
<CellData Scalars="A_conc,As-lin_conc,Bs-lang_conc,Cs-freund_conc," Vectors="" Tensors="">
<DataArray type="Float64" Name="A_conc" format="ascii">
2.0041591092690819e-13 1.9814653785709358e-10 2.0527570050398589e-27 5.4325912557265038e-24 8.6256352236435962e-21 1.0385230897988598e-17 4.7918181526320837e-13 5.7080514969350531e-10 3.1471801614268953e-22 4.7677900276182965e-19 1.1075189108964881e-15 9.8290942539203325e-10 2.1568028703006525e-44 2.5392324727008266e-30 4.081810307332834e-27 1.9149027930518514e-26 9.721821137284967e-34 9.9000883137147288e-52 1.0902904452826389e-33 9.2105574478555891e-30 1.471522120398148e-25 8.1528190839481168e-29 1.4855695982339902e-40 1.6686112686697043e-32 3.2185397930762472e-46 2.5477916989719807e-44 1.9738136500786361e-50 1.4945442220309926e-63 2.4626727890467302e-172 1.032452384760618e-42 4.228767731428609e-37 7.0400763107435766e-63 3.5033525296496418e-67 1.100357523281308e-176 6.30850586787324e-80 6.3506597323935101e-76 3.1068827760522295e-59 3.5109369384803427e-72 2.0515528560677108e-68 7.9269933176382289e-160 5.578828052398823e-164 8.3029635594647905e-152 1.2042640178112675e-151 1.0857459330835178e-155 6.4151167037548958e-156 7.579445982036778e-60 2.1323822230764051e-55 4.2367202161967963e-164 3.5387061366259284e-168 4.60589257305822e-160 3.5697339713320145e-156 3.4884812836234757e-48 6.9838352643724398e-148 5.4835072376596318e-152 1.1045815053444315e-143 1.0980828879390781e-139 4.6861530111866317e-144 3.9150600217175341e-148 1.213859217383563e-147 8.3371848431400209e-144 1.2823541269931499e-147 2.6614854529534402e-139 1.8206895225567654e-143 1.8089841299773035e-143 2.9473217929805044e-139 3.4065360213980074e-135 9.132140614805864e-132 3.3302147402239794e-135 6.9041895880432554e-131 9.4865319654263712e-123 9.8965674006911258e-127 9.626953634767685e-124 9.4832398439645891e-136 3.0144354174056273e-131 3.4493836293228407e-127 3.4122725500775921e-127 8.948971229815511e-136 1.0480657836132316e-131 3.1051396258153173e-140 1.9089383808586344e-26 5.8266548304001989e-145 6.4474146411936332e-141 5.2252635823121854e-20 1.6696883820551117e-12 1.6699570982504127e-09 1.3544545728777364e-12 1.5346036351903264e-15 4.0326647254301151e-23 5.7559290360737634e-19 9.9191122845959028e-17 1.6827943246748984e-09 2.3003486283819195e-12 1.4929301506468046e-09 1.2893060141480483e-12 6.0672431822299076e-20 9.1340385080909676e-24 6.6213746408851732e-37 7.9789338575390112e-41 2.743598456065442e-144 7.4955857362587973e-30 1.7175421926003606e-33 2.9443404368285913e-13 2.8495968307012183e-10 1.3411251012281552e-12 1.1116795708142232e-09 1.3926957745213055e-12 9.0640551235763849e-10 1.5238939912154426e-15 4.3616324198291396e-23 8.2002809823619417e-20 2.7275739496888071e-26 1.2776312892975308e-29 9.4414637632950755e-16 8.2770001440270254e-19 3.7931916382392049e-22 2.1444456370777013e-25 7.0797588839434314e-29 4.5990099428238e-40 5.9601941608102751e-33 1.4003037623280031e-36 3.3900947367332355e-37 2.2307457931437895e-33 7.8850708714729147e-44 1.061835715140501e-40 1.404266605782931e-44 3.5888900034306351e-55 2.8101590118432336e-64 1.5935434181001446e-51 3.14360987435819e-47 4.8396055379777715e-30 1.152222537436669e-43 3.2953837258155831e-40 2.1603015794830753e-56 1.7922463114096351e-60 1.5574455675056588e-139 8.6947062383695713e-53 3.1425497173594617e-45 7.5485187283424644e-49 1.919302479557265e-135 4.3599422853251609e-127 2.2409354299398271e-131 5.2889712589316356e-123 9.8076095030464327e-128 6.4535989913256236e-114 5.5395867824833251e-119 3.8573321037518427e-26 2.3719525242247379e-41 7.0139716051710836e-38 8.3607482385850985e-33 4.9183023638747608e-16 2.7301800504225869e-29 2.9733173352816238e-19 7.9164978342405549e-23 5.051804354302668e-16 1.8682874935906455e-29 2.9111728244327956e-33 1.4034715706812357e-36 2.4780833026062418e-22 1.8348099983356152e-12 5.4171005561517964e-19 1.8573528700352066e-09 2.2580082126479609e-12 1.5848504057821539e-09 2.0244203194188975e-12 2.4532405999366804e-09 1.8256206048618772e-12 1.2594119297818791e-12 1.4901435803762135e-09 1.2589231464893291e-09 7.8259295150473707e-10 4.33526420668214e-85 2.8257997047486588e-89 2.971986096397616e-85 4.1178539641924197e-90 3.8997753444255024e-86 5.6012265610172977e-94 6.6056790092510688e-13 6.8071794623708469e-16 2.8216565852025905e-19 1.5693523077866491e-22 4.8463714514386271e-26 8.0407386921429727e-106 7.340425507694937e-102 6.4790404440168687e-98 7.9445034107568886e-103 1.0947608999794504e-110 1.0963370735097848e-106 1.4885096552110797e-114 6.826861985638532e-110 1.1983865518769064e-115 1.3099120837495413e-118 1.3618264833078314e-119 1.2836378256214563e-111 1.0064234530717763e-107 1.2365993225632337e-105 1.458828366457722e-101 4.6264343197162909e-97 5.4787471991817662e-99 2.5176085557344099e-89 4.1422259985637271e-93 1.1219643254947322e-97 1.0661562674536122e-93 4.2449971303744316e-90 8.263604100432292e-86 1.225183904018897e-89 4.4852031273318713e-82 2.7244961563102784e-81 1.9823649817871093e-78 1.6580369666961602e-74 1.7819550470094628e-70 4.7436621792118125e-63 9.6898927226566102e-67 3.2717688643441214e-78 1.7000552970895094e-70 3.6235930296405857e-74 1.7959534351152255e-69 2.564712852085228e-73 5.7258206781186133e-62 4.5409985168658932e-62 9.3721028745309898e-66 4.2963263736412727e-74 2.1317723755777948e-77 2.9970695450066102e-85 3.6763016631442319e-82 1.6773980378207919e-81 5.5461500770317716e-78 3.1472462020764078e-81 2.525499639404334e-77 1.441725636921256e-73 1.0399539383826383e-69 7.0731812155096325e-66 2.7208374557683295e-58 5.5734913196064239e-160 2.6776599348738651e-159 4.6507128147736545e-160 3.4034164966541435e-164 4.0529269793123814e-155 5.9762016265928364e-151 2.073993302603925e-151 4.8099636091818578e-147 1.725963031682445e-13 1.7581900444489115e-16 7.5536996808014701e-10 1.1266316527317375e-12 1.124182525432277e-155 7.5201853554243753e-20 2.1510942011813484e-19 2.8531618294363641e-16 1.3110737565852118e-09 1.3667891791087336e-09 1.5224371839950468e-12 8.475664256354554e-17 5.3470601659121749e-23 5.1840175682316941e-169 3.0246049670785267e-164 1.2536223137710054e-163 1.0720391539340144e-167 7.6597971618532646e-137 1.0206827286027254e-127 7.8412101337047913e-132 3.957088554221359e-123 7.0452876356659253e-119 6.8550683024107111e-115 2.0858870433445214e-119 2.1675450947702378e-123 1.8975346593216486e-118 1.6363561012055844e-122 1.1504598662838442e-118 2.1886404957682823e-114 2.1551774490393437e-110 1.6427674327788155e-106 1.6858172105260531e-102 1.726914254620122e-102 1.7912951538250479e-106 1.1866226894940975e-98 1.631182869819397e-94 1.5428538621818944e-98 3.2064003258801549e-125 2.9306701806970465e-129 1.1420351219731085e-120 5.5311949736833492e-111 1.2601828795601757e-116 1.1676862167048957e-112 7.1054198279967188e-113 1.2781799599232254e-159 1.4470906444314813e-155 8.6622024130136497e-156 1.1070034087408666e-151 1.0656749461886832e-108 5.7504719406136088e-105 3.6820078823158051e-144 3.3561320054660646e-148 8.7359504626919273e-91 1.0256237833716818e-96 1.0529453985129421e-100 1.5149604558151158e-82 1.7920773564137506e-86 1.5676730699607994e-92 1.25240957001242e-128 1.3500302770166829e-88 2.9498013970517841e-84 6.3180647090843557e-136 6.1303252850902003e-140 9.7622601890990365e-137 7.8566046931612774e-141 1.0711872319243862e-135 1.0613711598618713e-132 1.0759460184107427e-131 8.8677912256911717e-128 1.0755340293352439e-127 3.0434288521361655e-126 2.5897017611563604e-130 8.758572323911341e-132 1.058218312585774e-125 3.7787458006208558e-130 3.652433732725962e-134 4.9551170551625463e-147 5.4938022219986679e-143 2.9153408953688737e-138 1.9023494455964511e-142 9.7649889264188229e-147 2.9757751451488069e-151 2.0259693120028691e-138 1.9327986477255686e-10 6.6678739703114732e-143 5.8267108680526743e-139 8.0890615257483805e-135 2.3915941395740057e-134 4.9622185021749185e-126 3.296109995646451e-130 1.3013749780241255e-130 1.6530959452004752e-126 6.3701457974450753e-122 7.0556189253127734e-118 8.4068741317890643e-114 5.8276240258894626e-114 1.6561351016346177e-117 7.0860736892841125e-110 1.4079379022603258e-105 1.2782245440356494e-109 9.3729281682229604e-120 1.2044467985878216e-123 1.2644789056811609e-121 3.8970919463536904e-122 2.5035923290440227e-113 4.5799933044673257e-114 4.1175121547123396e-118 1.1241177290479628e-115 1.1413411509381462e-107 5.3495427850946069e-110 4.5574741512212694e-106 2.1341411525585832e-105 2.3538062975058702e-98 5.8858765465058377e-98 1.0712995527360379e-103 3.7266880047007518e-102 1.2468847590451389e-101 2.6506405562272377e-109 1.7625607075669671e-97 1.6116477726491305e-101 1.4008606522812519e-93 1.2487609706477356e-93 1.263780788511713e-97 6.4820107792487846e-86 1.1584130142667969e-89 4.5309677053238978e-82 3.6359226470862459e-78 3.227311560279436e-82 4.5291147274862656e-94 2.9236342159262743e-90 1.9126470022526448e-91 1.7354710173573659e-94 1.5848296440170978e-87 1.534736854548497e-86 2.0865784935306261e-83 1.1407326567851999e-75 1.4484165918539353e-79 2.3335985078824299e-86 1.422980606020987e-78 1.7642999493264888e-72 3.5744968172511058e-71 1.6017014664016926e-66 7.0670892360200684e-67 1.5768963466581152e-70 2.186065596916086e-74 2.5178519812856823e-78 1.3809177140665882e-74 2.1534567877186722e-89 5.9948947667176095e-91 3.8393696101714802e-85 5.251406892268143e-87 2.4776364778217484e-83 1.6111640324663781e-82 2.5636412050084294e-90 5.9348167883659729e-93 3.9834649433545687e-89 9.1581263397655725e-91 6.9851565694092464e-97 2.4265002080303109e-98 3.6727995320039318e-94 9.9018751587317824e-96 8.3342741306727714e-106 2.5973421171291722e-102 1.3082820973084827e-101 1.2088290523343033e-97 2.3757117607877324e-93 9.7784713896537704e-98 1.1147545530622758e-105 9.615279485091703e-102 1.577902845472752e-109 1.554872499583403e-113 1.2288279221649833e-113 1.0470495362378714e-117 1.6315174694605684e-117 1.0380204270757023e-99 7.6981734906992462e-110 6.3135033097131208e-108 4.3385429790080767e-104 3.9707767580253496e-112 1.275563004602491e-111 5.9763507887774994e-116 4.857957082976908e-112 5.7620733539442856e-116 5.5770033395800076e-120 7.434105831639657e-124 6.3597895879634096e-120 1.5962254286508707e-76 1.3468242053329707e-72 9.3704343610768254e-122 6.7253693172258021e-126 1.680905531481923e-124 2.3926380728886895e-80 9.3576189145511096e-67 3.5796963421213351e-63 1.2617472605688642e-55 2.3269168229165784e-59 7.3267239482440473e-52 3.2581891803053513e-59 1.5508480358629331e-55 1.5356900164256792e-54 3.1293919798796407e-58 6.090112574923619e-51 6.1145474304316803e-51 1.1589262662810081e-54 2.8584995495799581e-44 3.4571585986613368e-48 1.8080418019176194e-47 1.293983826363526e-36 6.0665503619395267e-37 1.0516226200277566e-40 1.2157075581353355e-40 2.9750898941972405e-48 1.2522247194604356e-44 5.1042725522320104e-61 9.0492390559502646e-65 1.4750714475896908e-68 8.7655946656758107e-52 3.1052405712123229e-47 3.4258856417219484e-40 1.4010267998850858e-43 4.368227426744514e-33 2.6703714658312685e-26 1.383170670863442e-19 6.8918933249220677e-23 1.5262131104074209e-16 2.021447936235043e-13 1.7272214593801469e-10 5.453959217675649e-46 1.9511602644570987e-98 2.3784731482624768e-57 1.6007952588411427e-49 3.9279240574545866e-53 1.8206469806214241e-33 4.2545917472599746e-37 1.8441414852595257e-33 1.3357228282093228e-29 2.5954025503390145e-26 1.9559312848155571e-27 4.4378951021568974e-30 4.6195250844502876e-24 1.0481833210093743e-33 4.4661701021932149e-23 5.1103132909902786e-20 6.0434195115656585e-17 2.4181924366603335e-30 4.0900673890674065e-27 1.3102301803873757e-44 2.8434573737763671e-48 1.2635207726399153e-38 3.5169119792092479e-42 2.2030726307333308e-94 2.7075562527556031e-90 1.4657310715128538e-82 2.3624323817668501e-86 1.456667585405848e-78 1.0875505119140957e-78 1.8029178328944766e-74 8.4833995327200875e-71 4.1646293461094796e-41 1.278927618352147e-37 9.0828307086646501e-24 4.8830104208682806e-20 8.5241066121912049e-17 1.9565267777965947e-30 8.5807680331195953e-34 8.3969907847822129e-27 3.862469118855362e-19 9.1283478589056845e-13 6.5228816097117271e-20 2.1351179263353628e-23 2.9050504917840213e-59 2.9502590459988657e-67 1.7913473852729633e-63 5.9323615657242395e-71 1.0808773560985815e-74 1.001997488391325e-66 5.0325020399215162e-63 3.0943016504109759e-67 1.1865611879612085e-09 1.0046738393631728e-12 2.5433940004558343e-12 1.8384464005123785e-09 9.675702109073431e-16 9.1179356898524232e-10 4.9325783918308336e-13 4.5356198671930223e-10 8.8106468818609286e-11 9.3828881734818439e-33 2.8405205467083761e-29 7.7260018456649251e-45 6.8914257528183755e-49 2.6597273698590429e-52 8.0591051349076577e-60 1.5934263134601462e-55 4.5776330354270439e-56 8.6287576809882508e-48 9.8440693224516093e-52 9.1791148383867417e-17 1.042155274358847e-40 7.1353166933324477e-14 3.2685810261402275e-44 2.665402555732688e-48 4.5783753607608872e-37 3.9475955934389809e-33 3.1380832641442324e-37 1.1797604218631565e-33 2.1973622918819904e-41 7.5363566290987997e-38 3.2269325139356915e-41 1.7524229374053315e-53 5.841458054962584e-50 2.2935652427486301e-46 5.3379475631349354e-75 7.5177681527850713e-84 4.6764232902508033e-80 1.1673718886794432e-80 1.3324090645962048e-84 2.0152218061516743e-58 1.348595475773205e-57 6.9719451654715209e-88 2.1240856614049845e-61 1.1098586760630302e-65 4.7237981761596286e-62 7.601070109052467e-66 1.364502973558926e-69 6.4917778634534391e-60 2.5036625798436283e-56 7.5582232393467849e-65 3.7895535363610118e-61 1.9385221544731473e-61 8.3512993204948719e-58 3.7146848639341902e-57 1.6881063611815677e-53 7.162629388754088e-54 2.6850782570515462e-50 2.2203773048038694e-54 7.6214987341903354e-51 8.2017522102027139e-47 9.3756012305524696e-39 8.8380310910218031e-43 1.0781939671193532e-27 9.8389138003449801e-32 3.9289948027496353e-35 9.456901475903074e-39 3.1652860924447076e-46 8.5299817371744406e-50 5.1935766964284251e-23 1.0423566856609412e-19 2.5650060747926739e-23 2.1737012257418092e-24 1.2558098214918267e-26 2.8915526076963913e-30 1.1312846369502894e-33 1.9426430849529983e-26 7.184571239592695e-30 2.4514851555432397e-33 3.7281741056707666e-37 1.1345788591564193e-40 2.559889865941091e-44 1.4641788578392756e-40 7.1773113620262108e-37 3.5814904875343567e-42 1.141757582089229e-44 2.9639087931098708e-48 1.1898850200879035e-49 5.2629670178103162e-46 2.7886784282283727e-53 8.8156363028858901e-52 4.9211470424626816e-56 4.3480085550686209e-64 1.01382313321469e-59 3.5344670521717599e-44 4.0298832611099096e-48 8.9071409093917341e-53 8.3712103009342518e-48 1.7135539606436934e-51 2.6304277592317298e-55 1.6083750771059237e-56 9.8626709369560856e-63 2.7603020652556572e-67 1.0283089822149424e-62 6.2007513024440424e-59 2.2975629665512045e-67 8.1140388419464988e-68 1.7213856252497467e-63 1.9081297850693554e-60 1.1729259098302467e-68 3.1381212749295247e-64 6.2558521524582442e-71 9.341133427230672e-75 1.4178962562162591e-79 1.7232702076850616e-75 8.7903174475085844e-72 7.0249314992553393e-73 4.6567978209746437e-69 3.4375176046734949e-73 5.998689473003162e-77 4.0617051771601191e-77 2.6633818029646087e-81 5.5725032624090989e-87 6.2540691540139087e-87 6.24514786750928e-79 6.1973059590905422e-83 1.1130725007554765e-79 7.7248481613816259e-76 9.7694260353095501e-72 4.3976134992311454e-75 5.9676466438535675e-71 1.1853429600133297e-63 6.4069692323462664e-68 5.9712160129833895e-69 1.6056159260215528e-57 3.0157539808182766e-61 1.8554590354499047e-65 9.8096117573162259e-73 0.38765260562551351 0.37873295764868131 0.39967349532412944 0.42004746046744756 0.42684806108411516 0.4084959721337218 0.43289558500398906 0.44398247642357613 0.43140094815799468 0.43052098393646798 0.44167126835217996 0.43059194664041478 0.41970303678336074 0.42018642492442493 0.41320077529009247 0.44254050585057658 0.43147705731451058 0.43906582454143245 0.42156768355318747 0.40010806927143067 0.39775557742195378 0.40955139835338578 0.40532333167475665 0.37638060532794337 0.38510889417386546 0.38036427296251041 0.39051757099927664 0.40446116578429547 0.3926285731997905 0.39628137977828054 0.38503926495423213 0.37334244068536493 0.37250754094451555 0.34626548646305166 0.36301749947055589 0.35832097144790154 0.3375413616337678 0.37064556132406368 0.35699316969659578 0.36487956434105984 0.35066192509041871 0.33786908061333798 0.33002373478691438 0.34497517129630256 0.29377331333806728 0.31975334860756466 0.28942003949656031 0.30175492077251176 0.23820945965862472 0.25339160151516005 0.32659673569037623 0.30278597022387699 0.32244036201249404 0.23719497807033801 0.20421804354208933 0.22465020970010724 0.26590799892282402 0.3102252229005425 0.32297919226049221 0.36613310797507836 0.35642299872224736 0.34700579905878087 0.33306859961020752 0.38004344368616311 0.38929920697393244 0.3923196759638421 0.40526499886707268 0.4012826907983118 0.42013775628199634 0.4205636317719047 0.40901985560650955 0.43289558589193605 0.44398247745917185 0.43184972848101655 0.43165590957324346 0.41174944595963969 0.42000070232382769 0.41830861180699491 0.44167127350983687 0.43059196108970932 0.43906583353362816 0.43120820883277261 0.41019898460645693 0.40415784150294087 0.39297267005980807 0.37801151052019699 0.38174436371529008 0.39118847271918311 0.38497953943002194 0.38195721776984853 0.39316439757531507 0.40242790475390766 0.39255012081353757 0.40285757694241997 0.40068750809867876 0.42097597504501005 0.42185284978481685 0.44227663092952052 0.43038039563391051 0.43824869171059666 0.41217281725274968 0.41517650077864654 0.42650166868174261 0.4384746594209416 0.43087826209788477 0.4206349822222869 0.40859562522397863 0.39966015830735102 0.38925532546096797 0.37922511626466177 0.38732907875588574 0.36010395575670096 0.36910480536486512 0.35815365794186443 0.3487705300576327 0.3372161398441279 0.33728703774527746 0.35068463865004906 0.31490208421664245 0.32913418921535703 0.30280612846013233 0.2518984190437199 0.1833814961919854 0.32386816036948318 0.31274299288128238 0.32446226243559062 0.30957831398203001 0.29423920190903574 0.20079394470586182 0.25912096831227283 0.13804656018475214 0.30452095585526034 0.33589874223515226 0.34881193511796915 0.34766988219444789 0.37035421327258866 0.35894124340183509 0.36031442849707351 0.37342042597890601 0.36936520862139866 0.35883589863263265 0.37002552557223711 0.33343476416506779 0.34876348862057316 0.32849194506940266 0.31385252616578652 0.24499807216453101 0.29440401263931887 0.23930304831968521 0.29639489246009931 0.31462241978254668 0.32665367584661054 0.30768126867503109 0.20018523436965091 0.25504832019648804 0.2162515328343339 0.29371844155615223 0.31940512855827069 0.34686686468024241 0.33281673330698247 0.34112764283454211 0.35415414024983871 0.36426606323605915 0.3595792765327952 0.37238293172833875 1.0145464579603188e-22 1.2941522508718186e-19 3.7153125257406745e-20 3.6613344752893701e-13 2.6834390775926744e-16 2.0814283276555527e-09 0.046735885733996244 0.00025389259967159052 1.0370273623982058e-09 7.4839304088299497e-15 7.4218180333069685e-05 2.9652985806071208e-10 0.10559464522073046 0.044870386660485366 0.071787114254988293 0.00092942229403132973 9.7944530281092023e-09 4.4060855511624583e-14 2.8450057525714783e-19 2.133609158449806e-15 5.8119372588329801e-21 5.1306766406271884e-31 4.4616422676992378e-26 8.708732741361325e-30 1.5901806619825532e-24 1.0867120644561774e-28 2.4399743529530654e-23 5.8937030720395151e-29 3.3909995559739207e-18 7.4207676993736037e-13 8.2578485242554289e-08 0.0055982402555624436 8.6703641266560293e-05 0.054246661782289228 4.8720837833892231e-10 1.8583446271161968e-15 5.5045735785715273e-09 3.4387923443290891e-05 0.041249307658928626 0.0010595123485093918 0.057990115838949766 1.2444088594517103e-08 1.0281951879065553e-13 4.7127514235305333e-24 6.0902098237440467e-19 4.1471077265663558e-21 2.2810916289504552e-26 7.8790617262501753e-32 3.4293397819547211e-29 2.7594600716202634e-40 2.3384356463841464e-45 8.6889909522864171e-37 1.1593407110886729e-39 5.1755732459427117e-42 8.1335551172128503e-45 2.422414769485237e-55 2.7274911128005544e-50 4.8886924436034371e-61 2.5656538666433462e-50 2.8765568697824263e-55 1.0124080487911326e-65 4.3379292335639539e-65