<?xml version="1.0"?>
<VTKFile type="UnstructuredGrid" version="0.1" byte_order="LittleEndian">
<UnstructuredGrid>
<Piece NumberOfPoints="568" NumberOfCells="1054">
<Points>
<DataArray type="Float64" NumberOfComponents="3" format="ascii">
0 0 0 0.0499999999998997 0 0 0.0323698570487533 0.032369857048862 0 0.0584335251122665 0.0584335251122145 0 0 0.050000000000208 0 0 0.100000000000416 0 0.0400584584693195 0.0944578555791577 0 0.0980768456829153 0.0991724147309935 0 0.0944578555792846 0.0400584584694184 0 0.0999999999998147 0 0 0.0564522287083799 0.234565808376616 0 0 0.200000000000832 0 0.0388399996009313 0.179498259931901 0 0 0.150000000000624 0 0.0548726927265955 0.134106856398452 0 0.0896897021915411 0.138513804586622 0 0.122947659685672 0.148251464161954 0 0.0828750765696809 0.178818634882983 0 0.0996947712122641 0.22074048840547 0 0.158996951633215 0.227836749122277 0 0.125875177082847 0.188968332266695 0 0.169013160068682 0.168002193866631 0 0.189220110521158 0.126442066536112 0 0.22626394058332 0.154659468198381 0 0.205967211350529 0.199725178953962 0 0.211554843187388 0.241744476774187 0 0.180351590178421 0.0391903365350905 0 0.149999999999704 0 0 0.138357444660799 0.0589959339188492 0 0.148476056588621 0.112220907400452 0 0.181725902897582 0.0816119740612928 0 0.217206150464847 0.104439454835129 0 0.231674603334463 0.0553437746953104 0 0.199999999999558 0 0 0.249999999999412 0 0 0.283208049853001 0.0508433390825056 0 0.299999999999266 0 0 0.323619558532886 0.0327999278256247 0 0.362462430895343 0.0442183666074772 0 0.349999999999121 0 0 0.355822585194142 0.0854187642572584 0 0.322427311917699 0.0689379334381408 0 0.330767006442793 0.119592255048115 0 0.295063395037039 0.101138089243444 0 0.257146194987713 0.10413999068455 0 0.263189497696013 0.146101733972573 0 0.299142716792971 0.156496209701207 0 0.260171965190135 0.20370391303005 0 0.301079690692898 0.202800200091412 0 0.288402851022681 0.249609553207088 0 0.331796839804983 0.222301993972031 0 0.330801675951106 0.181791113002693 0 0.360307484821635 0.154014700871105 0 0.397289240071895 0.165639932095022 0 0.432407360090089 0.182056809654028 0 0.41732862935313 0.129866986343623 0 0.381034256806799 0.204783951629704 0 0.42421838472614 0.222465020057878 0 0.462293308810443 0.198909164566548 0 0.499999999999971 0.219686411149829 0 0.459520018388269 0.156664873305243 0 0.46567857652706 0.114368061527523 0 0.475746624217828 0.077626823840591 0 0.484924330582892 0.0373213982762724 0 0.499999999998694 0 0 0.449999999998829 0 0 0.446927950142653 0.0518018776450602 0 0.406855818272412 0.0411398773125117 0 0.399999999998975 0 0 0.390616286406845 0.0815251031619917 0 0.375161719606839 0.121918126660369 0 0.43122735573934 0.0881769991929174 0 0.429308231064016 0.40626685012723 0 0.392220576577811 0.380677966902274 0 0.394198866753185 0.419122252400708 0 0.377023860747173 0.458194175644768 0 0.410095980695696 0.490839357492854 0 0.423403423371937 0.447621318748554 0 0.461527143457989 0.473443594123526 0 0.461024257085337 0.432541991343326 0 0.465432111282168 0.387884235436819 0 0.49854341599768 0.370759147681271 0 0.472532117365031 0.340817108308049 0 0.483788712280009 0.297451778269774 0 0.455331360217251 0.252568731208715 0 0.430594867953342 0.303959734190635 0 0.391620987711813 0.295036992928546 0 0.401804626289837 0.256190339758575 0 0.43301393728221 0.359843205574921 0 0.391208871887456 0.334075776884043 0 0.348047572662274 0.35750068079406 0 0.323103257015693 0.32141443408924 0 0.357962884673884 0.256835227867104 0 0.354814354583093 0.30398436674999 0 0.323736926270502 0.27286413781594 0 0.297479491180417 0.296411157380844 0 0.260144435522079 0.292623904436535 0 0.25082138072345 0.257700107422368 0 0.284738052361283 0.343557681186738 0 0.255826059367993 0.395079699895134 0 0.296304338697064 0.429832022968145 0 0.305976555003817 0.393468168521193 0 0.354814223971285 0.403129814650693 0 0.333826635273302 0.441301250475035 0 0.334364244893045 0.478496031217408 0 0.299886550525317 0.467007278275931 0 0.262475847345986 0.447649432958947 0 0.262418491288269 0.490719222921541 0 0.192181271644967 0.465938389648695 0 0.232324767024371 0.466345253695677 0 0.219688017838559 0.433067836400238 0 0.197169318452384 0.387030152393625 0 0.178457744828726 0.430871172570494 0 0.148695787718589 0.404814523960821 0 0.144484766221814 0.453538915812712 0 0.160013142023585 0.497717270559093 0 0.220015181768822 0.28602682846308 0 0.19152147653881 0.327918797702154 0 0.236041954047958 0.321918283269407 0 0.222695530956879 0.358374234325388 0 0.154014700871176 0.360307484821747 0 0.143922094947914 0.306200702035457 0 0.168537671773945 0.272324831592801 0 0.110477540413226 0.263117535981694 0 0.0994921194810273 0.307463985332816 0 0.0732967881614181 0.342269570898506 0 0.116034002194931 0.33748134585014 0 0.0334576460409223 0.363648423312284 0 0 0.350000000001456 0 0.032220921767547 0.329014892144875 0 0.0537301716876466 0.288250771898286 0 0 0.300000000001248 0 0 0.25000000000104 0 0.0648933318035348 0.486697770604545 0 0.109199274598136 0.487580697080498 0 0.0971009795772073 0.435906739990532 0 0.10935320311386 0.378391909217271 0 0.060530514380151 0.395146264289728 0 0 0.400000000001664 0 0 0.450000000001872 0 0.0436128036610927 0.440061111828404 0 0.0294449071642091 0.475000000001966 0 0 0.500000000002059 0 0 0.550000000001734 0 0.0518018776450837 0.553072049857452 0 0.0373213982762153 0.515075669417473 0 0.0776268238405584 0.524253375782261 0 0.114368061527482 0.534321423472927 0 0.121918126660357 0.624838280393159 0 0.0881769991928987 0.568772644260674 0 0.0815251031619976 0.609383713593151 0 0.0411398773124836 0.59314418172763 0 0 0.600000000001387 0 0 0.65000000000104 0 0.0323578435067225 0.676600401985782 0 0.0442183666074753 0.637537569104702 0 0 0.700000000000693 0 0.0486329174879745 0.717891752740162 0 0.0910728127967196 0.741988048646878 0 0.0990187225489634 0.704756315583652 0 0.0854187642572582 0.644177414805869 0 0.0689379334381628 0.677572688082311 0 0.119592255048131 0.669232993557228 0 0.154014700871098 0.63969251517837 0 0.181791113002692 0.669198324048887 0 0.13725179499973 0.741546289628566 0 0.156496209701235 0.70085728320704 0 0.203703913030074 0.739828034809895 0 0.202800200091414 0.698920309307116 0 0.249609553207091 0.711597148977329 0 0.222301993972028 0.668203160195032 0 0.204783951629683 0.618965743193203 0 0.222487080058139 0.575775413711342 0 0.219686411149827 0.500000000000032 0 0.19896328510056 0.537691476689505 0 0.156664873305197 0.540479981611742 0 0.129866986343594 0.582671370646846 0 0.165639932094979 0.602710759928095 0 0.182056809653986 0.567592639909897 0 0.100000000000416 1 0 0.0944578555791882 0.959941541530687 0 0.050000000000208 1 0 0 1 0 0.0304524096104897 0.96954759038951 0 0 0.949999999999792 0 0.0584335251122541 0.941566474887746 0 0 0.899999999999584 0 0.0400584584693226 0.905542144420798 0 0.0979909576452082 0.900450397208809 0 0.122947659685717 0.851748535838097 0 0.0868130391934314 0.817095740868429 0 0.0870417061194161 0.853827995089262 0 0.0524690331668437 0.86696410734367 0 0 0.849999999999653 0 0.043889462445438 0.826759239819513 0 0 0.8 0 0 0.750000000000347 0 0.0529380014213358 0.776889771183312 0 0.112316928024456 0.78020430794084 0 0.16253691950235 0.782849122627686 0 0.243358441913473 0.786511897933875 0 0.203590747653644 0.794224894178719 0 0.228939290247373 0.839908789927278 0 0.171018735363 0.828981264636961 0 0.132261503269228 0.813060330014371 0 0.146882743185419 0.889622656308119 0 0.181725902897639 0.918388025938889 0 0.18958721034944 0.876602973603946 0 0.221311393310948 0.904144943719832 0 0.232226438176177 0.944207511169706 0 0.200000000000832 1 0 0.18045991219398 0.960710939969875 0 0.138347219894628 0.94095916274078 0 0.150000000000624 1 0 0.350000000001456 1 0 0.363638616126136 0.966544916821213 0 0.32894624184181 0.967797018267389 0 0.300000000001248 1 0 0.25000000000104 1 0 0.287907520382944 0.946359528487026 0 0.263054145574704 0.889490620931362 0 0.307381363266577 0.90051880305435 0 0.337480267781999 0.883965456331347 0 0.342269570898513 0.926703211838588 0 0.360307484821742 0.845985299128825 0 0.306195311694726 0.85607519768343 0 0.272549978320415 0.831201948690144 0 0.286026828463086 0.779984818231176 0 0.321918283269405 0.763958045952046 0 0.327918797702134 0.808478523461202 0 0.358374234325384 0.777304469043123 0 0.387030152393619 0.80283068154762 0 0.433067836400233 0.780311982161444 0 0.466346121879671 0.767675855240614 0 0.465938389648691 0.807818728355036 0 0.497717270559088 0.839986857976418 0 0.453538915812708 0.855515233778189 0 0.43087117257049 0.821542255171277 0 0.404814523960818 0.851304212281416 0 0.378391909217271 0.890646796886144 0 0.435906739990533 0.902899020422797 0 0.487580697080494 0.890800725401865 0 0.486697770604543 0.935106668196466 0 0.44006111182841 0.956387196338908 0 0.475000000001966 0.970555092835793 0 0.450000000001872 1 0 0.395146264289732 0.939469485619852 0 0.400000000001664 1 0 0.332314974080817 0.607792187328737 0 0.371046512961454 0.605451707483111 0 0.359843205574921 0.566986062717789 0 0.358156517437794 0.511134404479091 0 0.331306197573488 0.540525641468424 0 0.302927660481639 0.514843047212215 0 0.252871394412626 0.544583554344924 0 0.304297406799597 0.569139051464601 0 0.295036992928544 0.608379012288189 0 0.256190339758569 0.598195373710169 0 0.256845292557732 0.642035542479631 0 0.273496567448602 0.675817419964087 0 0.304216353843215 0.645149391934367 0 0.257700107422386 0.749178619276552 0 0.296411157380843 0.702520508819589 0 0.292551210545191 0.739979902911732 0 0.342702801024459 0.716724167620359 0 0.322598530820738 0.676700726098352 0 0.35944937237717 0.651647898084363 0 0.405647175079827 0.65626423320525 0 0.395079699895129 0.74417394063201 0 0.386423584673078 0.692862589235973 0 0.427155383338081 0.700777593753079 0 0.447649432958942 0.737524152654017 0 0.467368917376544 0.70015537930375 0 0.490731134405986 0.737590046187304 0 0.455174570318146 0.62
[...]
<CellData Scalars="pressure_p0," Vectors="velocity_p0," Tensors="">
<DataArray type="Float64" Name="pressure_p0" format="ascii">
5.27984232131796e-15 8.0887524267112e-16 1.35196915311342e-14 5.24652767069928e-15 1.13125491187941e-15 1.05474421340396e-15 5.58862756266197e-15 3.15733727754855e-14 7.35950577731316e-14 3.02060636831879e-14 6.77262846250341e-14 5.89537248780649e-13 2.58748453122312e-13 4.66210052064286e-13 1.00776135271576e-13 3.36706571711174e-14 1.1014302649648e-15 1.13495231483404e-14 3.0026054992416e-15 1.41890578704095e-14 5.44200229984692e-16 3.57172763752511e-15 4.60773818521108e-15 3.68478368879123e-14 1.2560922337924e-13 1.87527761278862e-13 2.59718484736467e-13 3.17875972207728e-14 1.23271675564814e-13 3.97332919871066e-13 6.30308512841555e-14 7.06906430724277e-12 6.35390775245328e-13 2.1077878719063e-12 7.94241178631596e-12 1.14208029980975e-12 2.02901098221271e-12 6.03568428451233e-12 6.3218320355492e-11 2.7818161152711e-11 3.6959658112461e-10 1.42637826405449e-10 3.33602497166999e-10 3.45488755038064e-11 1.00705310684647e-10 2.03103914237172e-10 1.92802192803112e-11 6.79678141730388e-12 1.2324491795599e-11 9.46359626899317e-13 3.68181924474159e-12 3.33553400633956e-12 8.42619718308088e-13 7.9420020264727e-12 6.37424512616432e-11 2.54611497848361e-11 1.68134295748177e-10 1.89871425993443e-10 3.28677063892399e-11 4.59133983126901e-11 1.35088820305606e-10 1.63589399324512e-09 5.18532774499492e-10 7.93454200017219e-09 5.47663427127743e-09 1.84832783617438e-08 2.75975471219808e-08 4.79673696682324e-08 1.54432853743162e-07 1.5893491275216e-07 6.50380863283879e-08 1.20426348510631e-07 4.45827342556977e-08 2.48896745467512e-08 9.76868140462259e-09 4.57483691924462e-09 1.54429271460826e-09 5.85116557170842e-10 1.07279947198478e-09 1.00981207520696e-09 6.29540524789962e-09 6.33238348378828e-09 2.12234608290012e-09 6.23094477733831e-10 1.44850722009386e-09 1.9907877543694e-09 5.01422378494628e-09 7.34161166179074e-09 1.04997426497784e-08 3.83312315008696e-08 5.59165788089878e-08 2.81148447622928e-08 1.11993838275506e-08 6.61905611690877e-08 6.99863380814579e-08 4.64897331668131e-07 1.81688706457316e-07 5.76357266609681e-07 1.81467306933643e-07 1.08833927688781e-06 2.84017346105082e-06 4.28704214469968e-07 1.52404558794959e-07 8.90245400692216e-07 1.53455091503907e-06 3.97798943464224e-06 2.93733455091768e-06 2.65566610516519e-05 1.16670339060629e-05 2.56586494837198e-05 5.45311379618082e-06 5.49330754224949e-06 1.47252378012793e-05 3.73603054064627e-05 1.6541805575539e-05 2.52621172143771e-05 3.1243795866434e-06 7.87548694663565e-06 5.60387802066066e-06 3.28774100966676e-05 1.26033047433241e-05 2.09987071028389e-05 8.62174398508559e-06 1.82932460527451e-06 1.41632766418572e-06 2.82150881875999e-06 3.87678473618403e-07 2.77851368905072e-07 4.01481595363808e-07 9.43915329626835e-07 7.49971571896678e-07 8.40761586802442e-07 1.03664580696823e-06 1.627727145575e-07 5.1011070168805e-07 1.18958975528777e-07 3.69312840244694e-07 4.87837398343536e-07 1.67985814807928e-07 1.78339100550983e-06 3.90139542344999e-06 3.0356187610936e-06 1.17220488680352e-05 2.69666096662086e-05 1.34632034274554e-05 2.81669379905807e-05 1.46106283724062e-05 2.30246169919567e-06 4.72855590267717e-06 3.04610707232427e-06 2.73990587005277e-05 3.67605773455283e-05 1.61703478272819e-05 2.82891960469461e-05 3.48762671086979e-06 8.47603698295187e-06 6.24680291361568e-06 1.92119307141244e-05 5.83798249079671e-06 1.72728431700308e-06 6.23509925208481e-07 5.15754482942574e-07 1.658003414253e-07 2.14523635956417e-07 1.07495388526607e-06 5.47959874357511e-07 1.53026024197302e-07 6.86267584913469e-09 9.90732218141323e-09 7.85306738005787e-08 2.70711541229217e-08 3.31228361189588e-08 9.09978743865035e-08 7.18667460773635e-09 1.7726377666946e-08 2.09254166021277e-08 1.2677530158044e-09 3.86182772468204e-09 1.02608793725993e-09 6.02239196843724e-10 3.12948747899164e-09 4.13545984365799e-10 3.77670202314232e-10 6.94589096458125e-10 5.61193779261899e-09 1.80392645065151e-09 1.39623806560585e-09 2.02394857033461e-08 1.54984768359421e-08 4.6970753589963e-08 7.55409785110146e-08 5.00456329599445e-08 3.17658865063011e-08 9.048218084674e-09 1.66998492585771e-09 5.02599247276142e-09 1.48253204101092e-09 4.67695021971264e-09 2.53644048163365e-10 7.84415457260531e-10 1.13569884953166e-10 1.01266015269792e-11 3.34806001607796e-11 1.3265589994591e-11 3.48769764604752e-11 1.19485496063165e-10 2.13169346652832e-10 7.03534574469335e-11 7.22405267620681e-11 1.6368468249329e-11 1.53097693859904e-12 5.24874410464031e-12 3.05881707974802e-12 6.85215823723259e-13 4.09882594530741e-13 5.50985358408293e-13 2.22653558196145e-12 3.6719058644164e-12 2.10192987181907e-11 2.10704109022633e-10 7.92898236557599e-11 1.37104179834782e-10 4.30921091345734e-11 1.3085253037584e-11 4.45972615538527e-11 2.3826625060389e-10 1.83083915484239e-11 6.24878246907554e-12 3.45691278944756e-13 6.6312850523702e-13 2.42436977317156e-12 3.55102657072038e-12 8.99815941346167e-13 1.35592096444737e-12 2.55787957005425e-14 2.21239916385442e-13 5.28969736207954e-14 1.82896596688522e-14 2.48231355857564e-13 6.52545133063787e-14 8.47904146348242e-14 2.83486420169061e-14 3.78027532519493e-15 7.36590336361608e-15 3.14388631887022e-16 9.22794961680265e-16 3.3164720704069e-16 5.50069756700584e-15 1.66227654245286e-15 9.14695303611948e-16 3.79129220068844e-15 1.30121930495404e-14 3.88782314677618e-14 3.11757577054707e-14 1.49666362505028e-13 2.12510995439923e-13 4.57421404359579e-14 1.32721905747589e-14 2.52195851986104e-15 2.00923991873438e-15 5.32240816450803e-16 1.22570511574564e-15 3.79038355003249e-15 3.34551242934469e-15 3.15625040725417e-16 9.86905209030064e-16 4.02935596249383e-16 1.68173996805189e-15 9.12185922505603e-15 7.00393585272912e-15 1.75943516710976e-14 5.08496798558083e-14 1.36352849894382e-13 8.20406305066763e-14 1.47782548443722e-13 7.49858044564215e-14 1.66829010466195e-14 5.02184653371248e-15 9.01886819674809e-15 1.88844669236589e-15 3.87853191705121e-16 1.18725028967266e-15 9.71581060082478e-16 4.35379288612331e-16 2.61310312217577e-16 3.21789021608377e-15 5.96883302665408e-16 1.21467010937574e-15 3.88807379645153e-15 2.40713833698236e-15 1.07016904270089e-14 2.98010978213451e-14 1.39809298105297e-14 1.37849348298617e-13 1.14364927981218e-14 8.82441773296098e-15 3.78504169147668e-14 5.40915178582111e-14 4.4204811937973e-14 9.29820802956248e-14 2.98089842351341e-13 1.3308176193089e-12 1.36248133660079e-12 6.50471711072145e-12 4.12593005856641e-12 2.73409533305778e-13 5.41785027576416e-13 5.59890215888252e-12 1.18059693134128e-11 5.31952800690628e-11 6.83766134053105e-11 1.83027030004967e-10 1.8988960916008e-11 1.91317148244923e-11 2.40593827834001e-10 6.83250963279648e-11 1.57713902470254e-10 7.03793498819273e-11 1.81755438872728e-11 1.67575584041886e-10 6.53454495033895e-11 1.68458531179426e-10 6.25729451993768e-11 1.28463201531315e-11 1.59747446961944e-11 5.12367798305402e-12 3.40286954616921e-12 8.64511604975731e-13 3.43510421674038e-13 4.15496813333365e-13 1.58916635843212e-12 5.92350852114895e-13 1.0352045517132e-12 7.18600522863089e-12 4.43607847425919e-12 2.21949077918344e-12 4.20662675548684e-13 3.01878543571574e-14 9.07212488248817e-14 1.17380217464006e-14 6.82313671934621e-16 4.4934061361173e-15 4.58839080901017e-15 5.06651597235461e-15 1.03144834223907e-15 9.8002847300334e-16 2.69353691792557e-14 2.85905120396512e-14 6.58522497145907e-14 2.31169913200882e-13 5.44021830033024e-13 1.68006148916145e-13 3.00516104057396e-13 1.21063347821773e-13 3.35106622921067e-14 5.89457557017219e-14 1.53998354385849e-14 3.44400710413305e-15 4.0533017203287e-15 6.56883490294584e-16 1.16908018216665e-14 2.69712473702865e-15 8.31414986967224e-16 5.02484410812714e-14 4.83807184644148e-14 1.96598937582367e-13 2.09467953821043e-13 5.14849994201631e-12 8.21217652523119e-13 2.3480577099156e-12 8.08371931622868e-13 7.41397661527317e-12 1.49404044330895e-11 5.06940663012081e-11 1.44852871858954e-10 9.45559180903709e-11 5.85409881478011e-11 3.29146586505628e-11 2.86418830478409e-10 2.61493662679226e-11 5.61268930245362e-12 1.24559638893125e-12 1.93711645315205e-12 7.21628081491055e-13 2.84588957866703e-12 6.56056745174287e-12 2.30971083800323e-11 1.77575178974992e-10 2.16538889184457e-10 7.05060166167297e-11 3.22414121205043e-11 4.1669179046402e-11 1.19576558510977e-10 1.09194357106104e-11 3.34754899716821e-12 6.54587942320612e-12 8.54745763317983e-13 4.82693959273198e-08 1.58480360141512e-07 4.08264206638734e-08 1.25127795509902e-07 1.36736169976314e-08 1.81682889320322e-08 5.5257491222062e-09 1.50996996548417e-09 4.94812233399488e-10 2.2420041540976e-09 6.72524691788509e-10 2.86611140902229e-09 9.33036936093187e-09 2.01079587204788e-08 9.39751366761775e-09 1.7050298124061e-07 5.90761414231569e-08 7.968926272244e-08 7.91232285839487e-08 2.01821944732288e-08 2.63045313008916e-08 4.04769143968893e-10 1.35403125411186e-09 4.90153885031795e-09 6.69249107470849e-09 3.23297442341627e-09 7.88642472124271e-10 1.23164104448189e-09 5.42537513818931e-10 3.48237048365447e-09 2.94747128366902e-08 2.00102325028809e-08 7.22287469277247e-08 2.03922787416784e-07 6.24452041664368e-07 1.24029580365922e-06 1.73627567029852e-06 4.87747893530009e-06 2.62438650112259e-05 2.88586297220006e-05 1.76001496905888e-05 6.72795331486892e-06 3.91023418005618e-06 5.52943154103937e-06 1.49263014557368e-05 2.27960484974558e-05 2.52297065846191e-06 2.25353438872977e-06 7.11805840938769e-07 2.42308575062405e-07 2.26207061307139e-07 7.28619169318521e-07 1.89447751830331e-06 8.40212820351686e-07 8.6875580514809e-06 5.01361203973311e-05 1.5441667432678e-05 7.32398759571269e-06 1.33421234696244e-05 3.90980409722034e-05 2.00728051726645e-05 5.12310731410209e-05 7.01206708558332e-06 2.33712641625263e-06 9.39008838268606e-07 3.12039478824672e-07 1.62197125635328e-08 4.98404494511467e-08 4.53924920647675e-08 9.54603931333054e-08 3.35299583878466e-08 1.44185789950732e-08 1.61251659382963e-08 4.62051425234251e-09 1.47468872917946e-08 1.4438013792249e-09 6.70432932871789e-10 6.65723874552761e-10 1.54386818966859e-09 5.30753935209462e-09 4.98439316275232e-09 5.874576189359e-10 1.01544510465494e-09 2.56961170620343e-10 3.32267311952525e-09 3.05537727625403e-09 1.68336410367835e-09 7.06906624306035e-10 1.6641660109076e-09 8.52740551543713e-10 7.3835139317612e-09 1.19956891591297e-08 1.06606369155096e-08 1.56306920765999e-07 9.92041981901796e-08 6.58218372641998e-08 2.49087826620134e-08 1.81890599859913e-08 1.3627467393985e-08 2.96750671498295e-07 1.89683350063072e-07 1.33169916638419e-06 5.53257153042404e-07 2.18126719098184e-06 1.22692524405548e-06 5.13203074132552e-07 1.54626368426016e-06 1.22127597856388e-05 1.21074381015593e-05 4.53076969679313e-06 3.85008746480102e-06 3.25659466703431e-05 6.12208526191077e-06 8.02014279716962e-06 2.41004541814776e-05 1.80298208897345e-05 2.4667385188001e-05 1.3654943309935e-05 8.81844633338546e-06 2.67002833630381e-06 1.14419561673619e-06 1.83368726726677e-06 1.45845352436913e-07 1.5474344393047e-07 3.33012855810655e-07 2.62797045475825e-07 2.20633467377028e-07 1.76187645370617e-06 6.67405223799505e-07 1.10318159952121e-06 5.78356345739977e-06 5.85157998425527e-06 1.6593244584251e-05 0.000144400788989162 5.05268515688177e-05 0.000401392953146375 0.00060307809183329 0.00101845660689162 0.00133914590573171 0.00192784422811351 0.00254661735062136 0.00636336960806139 0.00440580657146961 0.00316544240891401 0.00146421298257071 0.000528800547679628 0.000327797805428614 0.000106028680337533 4.49150233363923e-05 7.49567705321406e-05 4.31966193914483e-05 0.000101160632478607 0.000535607432974768 0.000249778647545642 0.000232422398023699 0.000104032589088816 0.000269687996400963 0.000318785458192099 0.000989589209331177 0.00217825257637348 0.00240585741890708 0.00618143912240984 0.00553465811315116 0.00131714905078862 0.00245816116506316 0.00721159864282921 0.0810244716713113 0.0641564783803411 0.0113466240992262 0.0256218211447473 0.0232696531664964 0.0100426139053335 0.0348702378494665 0.0682278500172142 0.0323897080136366 0.104475336417835 0.202279047874051 0.207962376887602 0.350073623008291 0.109156485195549 0.422334722871775 0.538392849468186 0.186951348400806 0.216978839897233 0.306351649749654 0.550492702471933 0.267745509340901 0.176110365529216 0.173128527019068 0.0773175931004652 0.0645151364893523 0.0398026635789782 0.0147228750446128 0.0175597296342191 0.00837054637726573 0.0131545287704747 0.0345693699087359 0.0684741524361668 0.0475923482010134 0.00494381521731582 0.00549229888191508 0.00104696379534721 0.000824294824953412 0.00169652919328347 0.000307198907637066 0.000151337446953332 0.000193237963031049 7.68196400285613e-05 0.000324263322002717 0.000437047410424954 0.000105192696933123 0.000763890415306223 0.00190761978018649 0.00220844751276357 0.00402731891408876 0.0076056220464373 0.00360177860274357 0.00688430621936957 0.00291818367385452 0.00162126029053615 0.000737294121590785 0.000491654734238721 6.86656496755445e-05 0.000146910447552548 0.000144643185179039 0.000380857458258661 0.000671275413703105 7.58049554281463e-05 8.33443246724087e-05 0.000163293419263208 0.000453443950472044 0.00110783559178423 0.00200361160616372 0.0065015408591686 0.00294031900240687 0.0162939078043192 0.0237733822367953 0.0591827014408135 0.073053345865259 0.0983646923841349 0.354463515696956 0.187287732896547 0.208576315642462 0.0902647136306033 0.297982280302075 0.198155715960708 0.091263821221938 0.0620022270849747 0.0305701270983433 0.0162237368658414 0.0182628464835667 0.0190388685667316 0.00877513489308402 0.0239261731211127 0.0104440670155221 0.0346479071568963 0.0695166041019809 0.318839296882116 0.245427010803735 0.563844797492544 0.126247996311525 0.0933861104184951 0.625660914043373 0.272968124017913 0.124963550942441 0.0592626102849189 0.0372916710276745 0.0263852950882179 0.010403468201843 15.1990068972213 8.96294169119704 8.71728729684709 5.21958928747428 1.36177912609922 3.22121529546873 2.7731989810715 2.07767385166927 1.02762317923907 0.698223146672764 2.88214261483479 7.3893269053306 5.26458497960747 6.00198091066752 15.2597338867007 13.7820000143301 10.5942312872122 12.7899038614339 5.80085090227251 2.08202783795633 3.29768247923394 0.692455865094377 1.06126006311192 2.76102364786888 1.20959738613689 1.25990833414315 0.768446907358807 3.13620236006168 15.3369338682933 4.40138257323385 4.47874577962691 8.57862393102799 16.988761954026 25.3568134325904 37.1550276068669 31.962787216947 83.0093495901068 49.6904327102823 71.5228383164375 48.8726387312604 70.5108764027202 87.7528573904458 70.4937459002056 33.82704828257 30.6984695018776 23.1794240705081 17.5966248847084 21.1617155637522 45.2040748153187 33.3925235386212 45.0856991343542 87.6225436235135 87.6461104014749 70.8127557364404 72.8242944248452 90.0068540221853 75.4283861001491 59.0897525472363 35.4099789316563 43.7049808482866 19.2846044227244 7.7654077685946 5.07240966738847 6.19794103480882 12.0067224726952 14.1680906272501 11.9246391275632 6.39587495935205 5.48670193372921 2.84730987849177 1.7265797208506 3.42946225864574 1.72688799184235 0.878779273705397 0.874515020936883 0.69471146685039 2.73868460395608 1.37804767114775 1.31338828465649 0.670986666509452 1.6323817210934 2.32505662119409 1.14981773382104 0.729741273413469 0.856447225358111 3.0578196952946 1.66836498407068 2.49758870347474 5.84594635040148 9.98095132650162 11.1863334316886 4.21374759074927 6.57860616781782 11.6760073246171 15.1373052848873 25.5418411114653 26.9920748534572 17.2177641623936 38.4690281897575 35.2773971052429 18.1049167717688 31.6587262771059 40.6012852238744 67.8592701009181 74.2175175747569 83.7186936303459 52.1213215337122 59.2073686880357 54.0292130836433 90.0499364926321 89.666629546337 79.9902373358552 86.7198292512472 69.278724127786 71.9520391356528 30.9812484914727 44.4164621153419 18.008296876179 18.5098911374607 43.3880520224382 33.6657361546035 30.2439194963004 61.4018309870331 59.8682845773279 78.0729588711356 79.7809952431644 90.965436279611 88.5322139854545 73.2859796372037 52.3375312937899 49.1787548776718 74.3819901545557 72.3205555068823 87.3320981565197 48.6930982652248 52.4770888345396 42.1135851748481 25.5746544080377 20.9593913315418 40.1367466468271 20.4566763749175 28.2085721740104 25.1761557680588 14.8676290318319 10.4782110491699 5.51836287480446 4.43255915994749 12.9485637392169 7.94024548292564 11.7685453783286 9.73067692874245 3.92084458702695 5.06800663256552 7.42038515424539 2.36664577806469 1.21666950897518 0.881450635916626 0.710956908086633 1.29426062676428 1.38340285619877 0.720672072651926 3.28782778644355 2.46546985373311 1.59633965677876 3.63436024815027 0.918557915475607 1.25546800754822 0.629885509478228 1.21469762993206 2.37986750604077 2.3525858135731 4.38665946329014 13.4762394114384 8.82556997420257 8.63104811779998 13.0562470971199 15.5471189463466 4.26020210489347 6.02311717425227 18.5019014684779 39.8624811892628 33.2667481282663 42.5384691303196 27.0264054694162 21.1478855676663 27.1505462991561 29.5099990334704 44.4133332170501 41.7948891724007 57.5209650067664 89.8688563547609 76.7809892371376 86.4963223583229 68.6982355378701 55.7840136565103 74.8252796719176 84.5185025403532 83.17465611425 71.7291692298757 49.9035213565484 87.8022910908591 70.5160174343168 70.5715956062079 48.9430036958795 30.4694619699816 33.4890551725285 22.4287251338149 23.5072971026893 17.2257602237504 31.7220607017059 35.7195179832848 59.0963076111928 90.0080529249894 75.4320426968432 72.8279125044194 70.8156076334803 87.6487525629955 87.6267367677457 45.1816995620753 17.456595548782 21.1217826661242 15.959654643487 33.473037337103 45.2913858851739 43.7155685081043 19.3097675697809 35.4244848248739 4.98549336162762 8.30881406459702 15.1376283786383 6.66746345713296 9.14901494092378 14.4978186787636 8.08986432573244 5.32991402634252 2.88457880451855 0.876954959810861 0.841202789820558 1.94455612181034 2.37568332346794 2.93402986521334 1.18346243469183 4.97776804787205 6.1016576748339 3.7141094085901 12.766142047704 8.88940413515616 14.4395060810381 12.5382047261177 10.686211922875 5.84636666020065 2.70769646528669 3.03306701331993 1.79868879672474 0.648975961565243 1.29955987732235 1.68961114908974 0.994840168868158 0.23524749597933 0.428329862449954 0.116521514617316 0.148663259304054 0.0767298510432145 0.363422256545855 0.236008879428046 0.518523371034555 0.114065118817202 0.0422218314706934 0.0375684415447056 0.0146493091920369 0.0155562771202441 0.015335193958623 0.0270066414517691 0.0325785181538731 0.111190613579823 0.248678117268948 0.50537515203435 0.195987312937426 0.419950026446266 0.157452940086563 0.0692174377139313 0.0447262907421054 0.0194136638359781 0.010029438598841 0.0878081998978606 0.0684398195412654 0.0278045315581102 0.0126483447286358 0.0108139263115182 0.0251185548449874 0.0559678607367346 0.00102813856364227 0.00554424339451705 0.00212171916264217 0.0012008955494432 0.00307817543155015 0.00249151285924678 0.000303109634456777 0.000187409703393156 5.39145837001284e-05 0.000381406895421399 0.000206404120962047 7.06541588078438e-05 6.11854925937882e-05 0.000172882641152725 0.000379543221071252 0.00143721229871735 0.0010297266747274 0.00235368950113188 0.00589151799008103 0.00548035107087761 0.00632005243120355 0.000878691542972126 0.00221856486767438 0.000894305063402861 0.000356815117186816 0.000112675798695065 0.000146446242415859 7.24385913059849e-05 0.000114262415908481 0.00028788117282007 0.000489861531945123 0.000373119753458882 7.36908454601228e-05 0.00016680101462642 0.000158204891611212 6.60712431044124e-05 5.8639815808403e-05 0.000387778415692458 0.000431949165160689 0.00112891978745845 0.00725672114847385 0.00242814357271631 0.00467947135403918 0.00529658708698278 0.00100246784072996 0.0020553132044034 0.000721889598902213 0.0014784963813357 0.000248383070204826 0.000184587476955293 0.000106732398753651 9.01583039944576e-05 9.55883798453414e-05 0.000194969411065605 8.62422008021206e-05 0.000175128573102114 0.