<?xml version="1.0"?>
<VTKFile type="UnstructuredGrid" version="0.1" byte_order="LittleEndian">
<UnstructuredGrid>
<Piece NumberOfPoints="568" NumberOfCells="1054">
<Points>
<DataArray type="Float64" NumberOfComponents="3" format="ascii">
0 0 0 0.0499999999998997 0 0 0.0323698570487533 0.032369857048862 0 0.0584335251122665 0.0584335251122145 0 0 0.050000000000208 0 0 0.100000000000416 0 0.0400584584693195 0.0944578555791577 0 0.0980768456829153 0.0991724147309935 0 0.0944578555792846 0.0400584584694184 0 0.0999999999998147 0 0 0.0564522287083799 0.234565808376616 0 0 0.200000000000832 0 0.0388399996009313 0.179498259931901 0 0 0.150000000000624 0 0.0548726927265955 0.134106856398452 0 0.0896897021915411 0.138513804586622 0 0.122947659685672 0.148251464161954 0 0.0828750765696809 0.178818634882983 0 0.0996947712122641 0.22074048840547 0 0.158996951633215 0.227836749122277 0 0.125875177082847 0.188968332266695 0 0.169013160068682 0.168002193866631 0 0.189220110521158 0.126442066536112 0 0.22626394058332 0.154659468198381 0 0.205967211350529 0.199725178953962 0 0.211554843187388 0.241744476774187 0 0.180351590178421 0.0391903365350905 0 0.149999999999704 0 0 0.138357444660799 0.0589959339188492 0 0.148476056588621 0.112220907400452 0 0.181725902897582 0.0816119740612928 0 0.217206150464847 0.104439454835129 0 0.231674603334463 0.0553437746953104 0 0.199999999999558 0 0 0.249999999999412 0 0 0.283208049853001 0.0508433390825056 0 0.299999999999266 0 0 0.323619558532886 0.0327999278256247 0 0.362462430895343 0.0442183666074772 0 0.349999999999121 0 0 0.355822585194142 0.0854187642572584 0 0.322427311917699 0.0689379334381408 0 0.330767006442793 0.119592255048115 0 0.295063395037039 0.101138089243444 0 0.257146194987713 0.10413999068455 0 0.263189497696013 0.146101733972573 0 0.299142716792971 0.156496209701207 0 0.260171965190135 0.20370391303005 0 0.301079690692898 0.202800200091412 0 0.288402851022681 0.249609553207088 0 0.331796839804983 0.222301993972031 0 0.330801675951106 0.181791113002693 0 0.360307484821635 0.154014700871105 0 0.397289240071895 0.165639932095022 0 0.432407360090089 0.182056809654028 0 0.41732862935313 0.129866986343623 0 0.381034256806799 0.204783951629704 0 0.42421838472614 0.222465020057878 0 0.462293308810443 0.198909164566548 0 0.499999999999971 0.219686411149829 0 0.459520018388269 0.156664873305243 0 0.46567857652706 0.114368061527523 0 0.475746624217828 0.077626823840591 0 0.484924330582892 0.0373213982762724 0 0.499999999998694 0 0 0.449999999998829 0 0 0.446927950142653 0.0518018776450602 0 0.406855818272412 0.0411398773125117 0 0.399999999998975 0 0 0.390616286406845 0.0815251031619917 0 0.375161719606839 0.121918126660369 0 0.43122735573934 0.0881769991929174 0 0.429308231064016 0.40626685012723 0 0.392220576577811 0.380677966902274 0 0.394198866753185 0.419122252400708 0 0.377023860747173 0.458194175644768 0 0.410095980695696 0.490839357492854 0 0.423403423371937 0.447621318748554 0 0.461527143457989 0.473443594123526 0 0.461024257085337 0.432541991343326 0 0.465432111282168 0.387884235436819 0 0.49854341599768 0.370759147681271 0 0.472532117365031 0.340817108308049 0 0.483788712280009 0.297451778269774 0 0.455331360217251 0.252568731208715 0 0.430594867953342 0.303959734190635 0 0.391620987711813 0.295036992928546 0 0.401804626289837 0.256190339758575 0 0.43301393728221 0.359843205574921 0 0.391208871887456 0.334075776884043 0 0.348047572662274 0.35750068079406 0 0.323103257015693 0.32141443408924 0 0.357962884673884 0.256835227867104 0 0.354814354583093 0.30398436674999 0 0.323736926270502 0.27286413781594 0 0.297479491180417 0.296411157380844 0 0.260144435522079 0.292623904436535 0 0.25082138072345 0.257700107422368 0 0.284738052361283 0.343557681186738 0 0.255826059367993 0.395079699895134 0 0.296304338697064 0.429832022968145 0 0.305976555003817 0.393468168521193 0 0.354814223971285 0.403129814650693 0 0.333826635273302 0.441301250475035 0 0.334364244893045 0.478496031217408 0 0.299886550525317 0.467007278275931 0 0.262475847345986 0.447649432958947 0 0.262418491288269 0.490719222921541 0 0.192181271644967 0.465938389648695 0 0.232324767024371 0.466345253695677 0 0.219688017838559 0.433067836400238 0 0.197169318452384 0.387030152393625 0 0.178457744828726 0.430871172570494 0 0.148695787718589 0.404814523960821 0 0.144484766221814 0.453538915812712 0 0.160013142023585 0.497717270559093 0 0.220015181768822 0.28602682846308 0 0.19152147653881 0.327918797702154 0 0.236041954047958 0.321918283269407 0 0.222695530956879 0.358374234325388 0 0.154014700871176 0.360307484821747 0 0.143922094947914 0.306200702035457 0 0.168537671773945 0.272324831592801 0 0.110477540413226 0.263117535981694 0 0.0994921194810273 0.307463985332816 0 0.0732967881614181 0.342269570898506 0 0.116034002194931 0.33748134585014 0 0.0334576460409223 0.363648423312284 0 0 0.350000000001456 0 0.032220921767547 0.329014892144875 0 0.0537301716876466 0.288250771898286 0 0 0.300000000001248 0 0 0.25000000000104 0 0.0648933318035348 0.486697770604545 0 0.109199274598136 0.487580697080498 0 0.0971009795772073 0.435906739990532 0 0.10935320311386 0.378391909217271 0 0.060530514380151 0.395146264289728 0 0 0.400000000001664 0 0 0.450000000001872 0 0.0436128036610927 0.440061111828404 0 0.0294449071642091 0.475000000001966 0 0 0.500000000002059 0 0 0.550000000001734 0 0.0518018776450837 0.553072049857452 0 0.0373213982762153 0.515075669417473 0 0.0776268238405584 0.524253375782261 0 0.114368061527482 0.534321423472927 0 0.121918126660357 0.624838280393159 0 0.0881769991928987 0.568772644260674 0 0.0815251031619976 0.609383713593151 0 0.0411398773124836 0.59314418172763 0 0 0.600000000001387 0 0 0.65000000000104 0 0.0323578435067225 0.676600401985782 0 0.0442183666074753 0.637537569104702 0 0 0.700000000000693 0 0.0486329174879745 0.717891752740162 0 0.0910728127967196 0.741988048646878 0 0.0990187225489634 0.704756315583652 0 0.0854187642572582 0.644177414805869 0 0.0689379334381628 0.677572688082311 0 0.119592255048131 0.669232993557228 0 0.154014700871098 0.63969251517837 0 0.181791113002692 0.669198324048887 0 0.13725179499973 0.741546289628566 0 0.156496209701235 0.70085728320704 0 0.203703913030074 0.739828034809895 0 0.202800200091414 0.698920309307116 0 0.249609553207091 0.711597148977329 0 0.222301993972028 0.668203160195032 0 0.204783951629683 0.618965743193203 0 0.222487080058139 0.575775413711342 0 0.219686411149827 0.500000000000032 0 0.19896328510056 0.537691476689505 0 0.156664873305197 0.540479981611742 0 0.129866986343594 0.582671370646846 0 0.165639932094979 0.602710759928095 0 0.182056809653986 0.567592639909897 0 0.100000000000416 1 0 0.0944578555791882 0.959941541530687 0 0.050000000000208 1 0 0 1 0 0.0304524096104897 0.96954759038951 0 0 0.949999999999792 0 0.0584335251122541 0.941566474887746 0 0 0.899999999999584 0 0.0400584584693226 0.905542144420798 0 0.0979909576452082 0.900450397208809 0 0.122947659685717 0.851748535838097 0 0.0868130391934314 0.817095740868429 0 0.0870417061194161 0.853827995089262 0 0.0524690331668437 0.86696410734367 0 0 0.849999999999653 0 0.043889462445438 0.826759239819513 0 0 0.8 0 0 0.750000000000347 0 0.0529380014213358 0.776889771183312 0 0.112316928024456 0.78020430794084 0 0.16253691950235 0.782849122627686 0 0.243358441913473 0.786511897933875 0 0.203590747653644 0.794224894178719 0 0.228939290247373 0.839908789927278 0 0.171018735363 0.828981264636961 0 0.132261503269228 0.813060330014371 0 0.146882743185419 0.889622656308119 0 0.181725902897639 0.918388025938889 0 0.18958721034944 0.876602973603946 0 0.221311393310948 0.904144943719832 0 0.232226438176177 0.944207511169706 0 0.200000000000832 1 0 0.18045991219398 0.960710939969875 0 0.138347219894628 0.94095916274078 0 0.150000000000624 1 0 0.350000000001456 1 0 0.363638616126136 0.966544916821213 0 0.32894624184181 0.967797018267389 0 0.300000000001248 1 0 0.25000000000104 1 0 0.287907520382944 0.946359528487026 0 0.263054145574704 0.889490620931362 0 0.307381363266577 0.90051880305435 0 0.337480267781999 0.883965456331347 0 0.342269570898513 0.926703211838588 0 0.360307484821742 0.845985299128825 0 0.306195311694726 0.85607519768343 0 0.272549978320415 0.831201948690144 0 0.286026828463086 0.779984818231176 0 0.321918283269405 0.763958045952046 0 0.327918797702134 0.808478523461202 0 0.358374234325384 0.777304469043123 0 0.387030152393619 0.80283068154762 0 0.433067836400233 0.780311982161444 0 0.466346121879671 0.767675855240614 0 0.465938389648691 0.807818728355036 0 0.497717270559088 0.839986857976418 0 0.453538915812708 0.855515233778189 0 0.43087117257049 0.821542255171277 0 0.404814523960818 0.851304212281416 0 0.378391909217271 0.890646796886144 0 0.435906739990533 0.902899020422797 0 0.487580697080494 0.890800725401865 0 0.486697770604543 0.935106668196466 0 0.44006111182841 0.956387196338908 0 0.475000000001966 0.970555092835793 0 0.450000000001872 1 0 0.395146264289732 0.939469485619852 0 0.400000000001664 1 0 0.332314974080817 0.607792187328737 0 0.371046512961454 0.605451707483111 0 0.359843205574921 0.566986062717789 0 0.358156517437794 0.511134404479091 0 0.331306197573488 0.540525641468424 0 0.302927660481639 0.514843047212215 0 0.252871394412626 0.544583554344924 0 0.304297406799597 0.569139051464601 0 0.295036992928544 0.608379012288189 0 0.256190339758569 0.598195373710169 0 0.256845292557732 0.642035542479631 0 0.273496567448602 0.675817419964087 0 0.304216353843215 0.645149391934367 0 0.257700107422386 0.749178619276552 0 0.296411157380843 0.702520508819589 0 0.292551210545191 0.739979902911732 0 0.342702801024459 0.716724167620359 0 0.322598530820738 0.676700726098352 0 0.35944937237717 0.651647898084363 0 0.405647175079827 0.65626423320525 0 0.395079699895129 0.74417394063201 0 0.386423584673078 0.692862589235973 0 0.427155383338081 0.700777593753079 0 0.447649432958942 0.737524152654017 0 0.467368917376544 0.70015537930375 0 0.490731134405986 0.737590046187304 0 0.455174570318146 0.62
[...]
<CellData Scalars="pressure_p0," Vectors="velocity_p0," Tensors="">
<DataArray type="Float64" Name="pressure_p0" format="ascii">
5.27997200023874e-15 8.0890306080181e-16 1.35200218925251e-14 5.24667962819311e-15 1.13131088751841e-15 1.05482030387972e-15 5.58888358994356e-15 3.15748260477819e-14 7.35978149339819e-14 3.0207874790415e-14 6.7730539730098e-14 5.89569263220884e-13 2.58757042356825e-13 4.66219112025648e-13 1.00778123688028e-13 3.36715594039938e-14 1.10166261871856e-15 1.13511968606474e-14 3.00311497632373e-15 1.41905746288093e-14 5.44287029429428e-16 3.57213170530943e-15 4.60808520199116e-15 3.68512518581196e-14 1.25619345444984e-13 1.87539341201535e-13 2.5974042668577e-13 3.17922201922246e-14 1.2328652816835e-13 3.97387632181982e-13 6.30414598227917e-14 7.06987542207149e-12 6.35456711874839e-13 2.10796679798265e-12 7.94299533236293e-12 1.14216444637046e-12 2.0291237088142e-12 6.03597591118201e-12 6.3220638378567e-11 2.78193474869225e-11 3.69608629195654e-10 1.42645039742961e-10 3.33617434777046e-10 3.45504817571621e-11 1.00712203082987e-10 2.03118146757714e-10 1.92818741284425e-11 6.79693157892676e-12 1.23246689089071e-11 9.46377711894891e-13 3.68188547380944e-12 3.33563767579176e-12 8.42649028309222e-13 7.94227942530343e-12 6.37438296763714e-11 2.54619875569433e-11 1.68139705745977e-10 1.89875523888674e-10 3.28683355113876e-11 4.59140557289896e-11 1.3509095623149e-10 1.6359177733394e-09 5.18541088996441e-10 7.93465191017342e-09 5.47670667557623e-09 1.84834850613744e-08 2.75978862357494e-08 4.7967865952783e-08 1.54434244828445e-07 1.58936904489344e-07 6.50390442796231e-08 1.20427747594908e-07 4.45833042710184e-08 2.48900704884229e-08 9.76885343536016e-09 4.57491026995433e-09 1.54431922223399e-09 5.85126545219404e-10 1.07282817487736e-09 1.00985081947712e-09 6.29561469516726e-09 6.33253129438724e-09 2.12240359257589e-09 6.23134655700182e-10 1.44858596386889e-09 1.99086549906433e-09 5.0144518071549e-09 7.34196684879797e-09 1.05001221094102e-08 3.83324001879271e-08 5.5918450447908e-08 2.81154919199713e-08 1.11996689898156e-08 6.61921786763355e-08 6.99875144029389e-08 4.64903656965093e-07 1.8169164064754e-07 5.76367166974539e-07 1.81471032835138e-07 1.08835356718605e-06 2.84020591855097e-06 4.28715036230473e-07 1.52409241580215e-07 8.90261643540217e-07 1.53458268631609e-06 3.97805343049529e-06 2.93737835934319e-06 2.6556905750006e-05 1.16671866303876e-05 2.56589635766587e-05 5.45316039124367e-06 5.49337125210131e-06 1.47253759242313e-05 3.73605352201366e-05 1.65419328886769e-05 2.52622639916353e-05 3.1244065524734e-06 7.87554095887922e-06 5.60391635646994e-06 3.28775748727679e-05 1.26033775182733e-05 2.09988101472995e-05 8.62179459463072e-06 1.82933907916699e-06 1.41633760090795e-06 2.82152768468421e-06 3.8768162587398e-07 2.77854087501196e-07 4.01486361785114e-07 9.4392485196719e-07 7.49978437504707e-07 8.40806914216015e-07 1.03668781937584e-06 1.62782622551248e-07 5.10137286295783e-07 1.18968356641431e-07 3.69338151069155e-07 4.87873508129664e-07 1.68001689739979e-07 1.78349583030467e-06 3.90157694642556e-06 3.03578995834962e-06 1.17225555537144e-05 2.69675122808277e-05 1.34636922107239e-05 2.81676943134932e-05 1.46110391227694e-05 2.3025675621166e-06 4.72872412288676e-06 3.04621110452943e-06 2.73996530055182e-05 3.67612074318092e-05 1.61707075307884e-05 2.82896668081461e-05 3.48772008069767e-06 8.47620841001221e-06 6.24696712788246e-06 1.92122149608923e-05 5.83809705336624e-06 1.72732456867239e-06 6.23528134377638e-07 5.15771869863681e-07 1.65807014835598e-07 2.14530591295125e-07 1.07498807090064e-06 5.47982139973061e-07 1.53033481522791e-07 6.8632355208445e-09 9.90798274091056e-09 7.8534546810162e-08 2.70726939536369e-08 3.31243074723657e-08 9.10015188407856e-08 7.18710079317824e-09 1.77273309771345e-08 2.09263173610068e-08 1.26784115112857e-09 3.86205895254081e-09 1.02617794837053e-09 6.02283522680369e-10 3.12972542268222e-09 4.13587319636738e-10 3.77714872624895e-10 6.94701442076767e-10 5.61260791648628e-09 1.80415561074609e-09 1.39638574907878e-09 2.02410331791958e-08 1.55000233788945e-08 4.697512756336e-08 7.55457228568968e-08 5.00513534059377e-08 3.17694650110631e-08 9.04944873139005e-09 1.67029800920433e-09 5.02681665251454e-09 1.48277436963975e-09 4.67760257059367e-09 2.53699761588137e-10 7.84567985458621e-10 1.13598153160888e-10 1.01297859044266e-11 3.34900099449452e-11 1.32691363265322e-11 3.48858231729999e-11 1.19512086994641e-10 2.13207644584973e-10 7.0364778220017e-11 7.22540463397014e-11 1.63721982114041e-11 1.53145515694657e-12 5.2500326085397e-12 3.0595547867551e-12 6.85404039285309e-13 4.10025878245217e-13 5.51212229852419e-13 2.22733997163424e-12 3.67302435470685e-12 2.10216105146807e-11 2.10722255145953e-10 7.92972936909279e-11 1.37118751415479e-10 4.30975700058892e-11 1.30870600699745e-11 4.46037885555946e-11 2.38293833572443e-10 1.83117858853688e-11 6.250050274803e-12 3.45783373639591e-13 6.63277654299613e-13 2.42485158559112e-12 3.55159674731952e-12 8.99972356710863e-13 1.35610753861132e-12 2.55841880642532e-14 2.21286742246702e-13 5.29090311927408e-14 1.82951998330108e-14 2.48289638346039e-13 6.52725671747293e-14 8.48159452305748e-14 2.83587964219657e-14 3.78176361519541e-15 7.36881990884599e-15 3.14549187602514e-16 9.23195406445016e-16 3.31785808981844e-16 5.50257389081516e-15 1.66285519063653e-15 9.14975229223519e-16 3.79222804462131e-15 1.30191212535739e-14 3.88980432188825e-14 3.11927041032191e-14 1.49733792964305e-13 2.12582927984025e-13 4.5760183178983e-14 1.3278327910804e-14 2.52324386890133e-15 2.01015044670282e-15 5.32561290584752e-16 1.22646845197684e-15 3.79266612214639e-15 3.34764459050752e-15 3.15841963048963e-16 9.87577739766778e-16 4.03227527286046e-16 1.68287837307037e-15 9.12732141484185e-15 7.00824464655577e-15 1.76043714348489e-14 5.08763979735387e-14 1.36417704678655e-13 8.20819938533762e-14 1.47851656957869e-13 7.50235654942343e-14 1.66924240859392e-14 5.025388906682e-15 9.02429603558402e-15 1.88968849999533e-15 3.88147999024604e-16 1.18817607300226e-15 9.7250985208838e-16 4.35768879569279e-16 2.61619250884244e-16 3.22082471926252e-15 5.97709538529999e-16 1.21605445400062e-15 3.89200905260779e-15 2.41047412959907e-15 1.07145482099031e-14 2.98267104096025e-14 1.39933216538007e-14 1.3795325332559e-13 1.14442546516025e-14 8.8313996589351e-15 3.78760357123657e-14 5.41294225235654e-14 4.42310403210761e-14 9.30355575306415e-14 2.98239661382216e-13 1.3313852979043e-12 1.36301380443852e-12 6.50675622089714e-12 4.12764757751991e-12 2.73564558265304e-13 5.42094104795886e-13 5.60089017623776e-12 1.1809890964307e-11 5.32096140942961e-11 6.8393170858218e-11 1.83066515204269e-10 1.89943391973095e-11 1.91371896326732e-11 2.40641155575406e-10 6.83415147247751e-11 1.57746974611587e-10 7.03972920573009e-11 1.81809530789514e-11 1.67615601233556e-10 6.53628990820009e-11 1.68500156929718e-10 6.2589998398602e-11 1.28503986610704e-11 1.59798054004894e-11 5.12546594520511e-12 3.40412423568956e-12 8.64866988309383e-13 3.43663116737271e-13 4.15678332140499e-13 1.58977379479741e-12 5.92596565745354e-13 1.03559712183977e-12 7.18828184101476e-12 4.43753032747388e-12 2.22026409552022e-12 4.21378006964004e-13 3.02563432157262e-14 9.09007850689209e-14 1.17669393755187e-14 6.84501694498391e-16 4.5052732394883e-15 4.60043651384672e-15 5.07928384047416e-15 1.03429316356841e-15 9.82504936671215e-16 2.69851419262614e-14 2.86491032813941e-14 6.59823492142654e-14 2.31581773351133e-13 5.44688701986947e-13 1.68244365529494e-13 3.00860149140129e-13 1.21227700105998e-13 3.35607122300573e-14 5.90394884830475e-14 1.54276530368896e-14 3.45083503937206e-15 4.06231882569233e-15 6.58332220373195e-16 1.17092677135225e-14 2.70180741585343e-15 8.32859954706466e-16 5.02987961965078e-14 4.84397507352221e-14 1.96807003381684e-13 2.09635491302276e-13 5.15088422607794e-12 8.21781365207468e-13 2.34986256222972e-12 8.09039398530526e-13 7.4187268955565e-12 1.49468528815941e-11 5.07135898071919e-11 1.44894822740502e-10 9.45951508391057e-11 5.85780465864242e-11 3.29315380438757e-11 2.86524431064857e-10 2.61663068059129e-11 5.61757437737893e-12 1.2467796582275e-12 1.93898224572581e-12 7.2264475562138e-13 2.84933461006894e-12 6.56712938293701e-12 2.31165054721945e-11 1.77674907050164e-10 2.16674654261377e-10 7.05576360123521e-11 3.22699168054462e-11 4.170726892143e-11 1.19672179118809e-10 1.09317537691738e-11 3.35198304812451e-12 6.55314924126715e-12 8.56063476331817e-13 4.82817047776805e-08 1.58510461495479e-07 4.08368970692676e-08 1.25151660720582e-07 1.36778596113965e-08 1.81740226022002e-08 5.52804527774538e-09 1.51076819950041e-09 4.95123636570552e-10 2.24294185809221e-09 6.72878827192286e-10 2.86706750843887e-09 9.33286606563973e-09 2.01128855150864e-08 9.40043391735733e-09 1.70529357366985e-07 5.90874545994732e-08 7.97012211426303e-08 7.91316111399817e-08 2.01855553210035e-08 2.63093013483842e-08 4.04946029112003e-10 1.35451316443631e-09 4.90262608341573e-09 6.69356457128264e-09 3.23366223231419e-09 7.88860853833727e-10 1.23187357630427e-09 5.42671085308222e-10 3.4829206681313e-09 2.94774424816552e-08 2.00128038082841e-08 7.22354406858061e-08 2.03936094687684e-07 6.24483793548545e-07 1.240354170525e-06 1.73633576881799e-06 4.87761330264683e-06 2.62442996986545e-05 2.88592119460699e-05 1.760052147303e-05 6.72814045244514e-06 3.91037433610643e-06 5.52963197059549e-06 1.49267244922703e-05 2.27967049039021e-05 2.52311242958001e-06 2.25363839371122e-06 7.11851600540816e-07 2.4233010430415e-07 2.26232030468761e-07 7.28694379186887e-07 1.89464124466881e-06 8.40281559127613e-07 8.68794102738885e-06 5.01376468393064e-05 1.54423189266635e-05 7.32442292303135e-06 1.33428235456639e-05 3.90995014740973e-05 2.00737703732761e-05 5.123285156724e-05 7.01255583055858e-06 2.33734862704756e-06 9.39121165393205e-07 3.12089028174158e-07 1.62218506481623e-08 4.98451987118739e-08 4.53975445184209e-08 9.54711818003254e-08 3.35343734537972e-08 1.4420674271185e-08 1.6127395316635e-08 4.62127791156964e-09 1.47489905525521e-08 1.44405572815873e-09 6.70574727055396e-10 6.65858359873394e-10 1.54414126926402e-09 5.30825289048833e-09 4.98516028980324e-09 5.87567148818071e-10 1.01560687808547e-09 2.57010946252374e-10 3.32311058865485e-09 3.0557665559537e-09 1.68361354935064e-09 7.07036212940707e-10 1.66439986104914e-09 8.52879826377735e-10 7.38431868107528e-09 1.19969129067854e-08 1.06617048405e-08 1.56315709703334e-07 9.92111248222356e-08 6.58268081154187e-08 2.4911000570013e-08 1.81909801464884e-08 1.36288827848447e-08 2.96770800057967e-07 1.89695462503536e-07 1.33175573643385e-06 5.53284459014975e-07 2.18136605484801e-06 1.22699287615321e-06 5.13226579298316e-07 1.5463162119073e-06 1.22130042878414e-05 1.21076827642674e-05 4.53088998594416e-06 3.8502079304207e-06 3.25664630613561e-05 6.12230976621232e-06 8.02037053623043e-06 2.41009517519994e-05 1.80303342718693e-05 2.46681242187539e-05 1.36555018796144e-05 8.81881576475011e-06 2.67016417300521e-06 1.14426922399748e-06 1.83380104389771e-06 1.45859113417129e-07 1.54756178448548e-07 3.33038770839464e-07 2.6282119467368e-07 2.20654483562681e-07 1.76199158783558e-06 6.67459172167759e-07 1.1032609146884e-06 5.78385497677739e-06 5.85188398593395e-06 1.65939252427649e-05 0.000144404343973709 5.05284693477526e-05 0.000401400431555842 0.000603087522762111 0.0010184706955824 0.0013391620914424 0.00192786516631285 0.00254664286765119 0.00636341499740197 0.00440584191370317 0.00316546978286519 0.00146422814451466 0.000528808054750593 0.000327803781267032 0.000106031273563313 4.4916443094269e-05 7.49585729567941e-05 4.31974898572345e-05 0.000101162297839769 0.000535612682238591 0.000249782037180485 0.000232426194213444 0.000104033714804515 0.000269690860234688 0.000318788008510771 0.000989594279873297 0.00217826151970053 0.00240586911227129 0.00618146012493536 0.0055346730105931 0.00131715879248337 0.00245817867092773 0.00721163240788639 0.0810245830282652 0.0641565635443933 0.0113466581877694 0.0256218730434864 0.0232696871145369 0.0100426361220892 0.0348702844558683 0.0682279129931901 0.0323897454709059 0.104475403344419 0.202279139549339 0.207962486395115 0.350073728163221 0.109156574975103 0.422334864484226 0.538393059973954 0.186951551310729 0.21697902005647 0.306351907136829 0.550493065870052 0.267745799378824 0.176110624990263 0.173128765640014 0.0773177632270485 0.0645152961547597 0.0398027914922989 0.0147229505952935 0.0175598070941545 0.00837059606320245 0.0131545837067049 0.0345694622991742 0.0684742912209778 0.0475924767884929 0.00494384501941362 0.00549232899521803 0.00104697479325533 0.000824305159235354 0.0016965451063207 0.000307204423643281 0.00015134102035938 0.00019324193197405 7.68218140004209e-05 0.000324268082661273 0.00043705341341792 0.000105194946414474 0.0007638978962521 0.00190763396542691 0.00220846456836773 0.00402734015882763 0.00760564849476926 0.00360179627155187 0.00688432821648497 0.00291819576893925 0.00162127028384108 0.000737300137889443 0.000491659877047494 6.86671486032566e-05 0.000146912718855187 0.000144645102595856 0.00038086098908302 0.000671279801814511 7.58060831040335e-05 8.33452839163663e-05 0.000163294980366663 0.000453447103640767 0.00110784077214811 0.00200362035471897 0.00650155694361516 0.00294032891769585 0.0162939351350638 0.0237734195821114 0.0591827623775913 0.0730534022853506 0.098364760431866 0.354463626535942 0.187287844877419 0.208576414212168 0.0902647959988099 0.29798243001811 0.198155868264963 0.0912639313449579 0.0620023077097662 0.0305701832100648 0.0162237720975384 0.0182628922367664 0.0190389202185186 0.00877517026288274 0.0239262392757912 0.0104441088109524 0.0346479829238357 0.0695167108612864 0.318839492674968 0.24542720412709 0.56384505792968 0.126248143013209 0.0933862433257042 0.625661194716893 0.272968338501357 0.124963704154695 0.0592627189464062 0.037291755640467 0.0263853687671507 0.0104035130691007 15.1990072588172 8.96294206281141 8.71728770316133 5.21958971230637 1.36177948235263 3.22121567865967 2.77319938057352 2.07767419129257 1.02762347440672 0.698223396706843 2.88214293218884 7.38932722217502 5.26458528360196 6.00198128301627 15.2597341781495 13.782000267496 10.5942314924942 12.7899040141086 5.80085115792701 2.08202812274847 3.29768273779788 0.692456062256405 1.0612603168737 2.76102387281574 1.20959757854338 1.25990849973948 0.768447047557432 3.13620253397716 15.3369339823639 4.40138273916867 4.47874596958117 8.57862409276932 16.9887620746978 25.3568134884812 37.1550276265129 31.9627872871405 83.0093496017636 49.6904327092768 71.5228383189146 48.8726387440414 70.5108764125462 87.7528573918035 70.4937459243048 33.8270483249625 30.6984695772557 23.1794241431763 17.5966250657219 21.1617158392363 45.2040749366714 33.3925237401843 45.0856991969933 87.6225436385307 87.6461104265527 70.812755810183 72.8242945114289 90.0068540547155 75.428386191048 59.0897526951755 35.4099791939556 43.7049810530099 19.2846047712361 7.7654080281615 5.07240991602189 6.19794123306456 12.0067226059302 14.1680908294989 11.9246396218228 6.39587543398755 5.48670230056839 2.84731025533241 1.72658013254724 3.42946281593328 1.72688846668071 0.878779706553286 0.874515386841548 0.694711782338701 2.73868491563182 1.37804796988541 1.31338854410288 0.670986846546905 1.63238191347582 2.32505684354731 1.14981787717254 0.729741403175319 0.856447369737567 3.05781986618298 1.66836515432504 2.49758886440324 5.84594652198715 9.98095147564736 11.1863335862276 4.21374779576717 6.57860634409192 11.6760074708454 15.1373054032143 25.541841203543 26.992074962423 17.2177643006346 38.4690282895903 35.2773971691051 18.1049169137783 31.6587263923476 40.6012853079653 67.8592701474559 74.2175176218981 83.7186936592873 52.1213215824798 59.2073687420256 54.0292131590263 90.0499365089293 89.6666295585556 79.990237362907 86.7198292888339 69.2787241695395 71.9520391636047 30.9812485698338 44.4164622152058 18.0082969946905 18.509891447002 43.388052250498 33.6657367481552 30.2439198504629 61.4018313915658 59.868284853044 78.0729589773967 79.7809954759373 90.9654363524554 88.5322141667061 73.2859801347555 52.3375320520135 49.1787554670091 74.3819910306928 72.3205561983567 87.332098530655 48.6930995313391 52.4770904039181 42.1135867879345 25.574656242333 20.9593934177898 40.1367477890745 20.4566778920063 28.2085733551355 25.1761565867107 14.867629772718 10.4782119988764 5.51836374654353 4.43256022110672 12.9485650848303 7.94024686087061 11.7685473323162 9.7306789763173 3.92084597071026 5.06800830172601 7.42038672989999 2.36664687197569 1.21667034339596 0.881451381791316 0.710957511229637 1.29426133833564 1.38340345926471 0.720672530868721 3.28782846246966 2.46547081749647 1.59634063892186 3.63436174271209 0.918558612425192 1.25546894173872 0.629886149452256 1.2146985417227 2.3798688095156 2.35258712472939 4.3866611406614 13.4762417433289 8.82557212403005 8.63105025816364 13.0562493457006 15.5471213554442 4.26020378389897 6.02311891899959 18.5019037510032 39.8624833778623 33.2667503510244 42.5384710243429 27.0264077288275 21.1478880073718 27.1505487647092 29.5100014589551 44.4133352641106 41.7948911697767 57.5209666649877 89.8688567680355 76.7809901586669 86.496322864511 68.6982366442034 55.7840153841007 74.825280681147 84.5185031371085 83.1746566713691 71.7291700718816 49.9035227135127 87.8022914334447 70.5160180237246 70.5715963179615 48.9430048956914 30.4694630687288 33.4890564746694 22.4287266095997 23.5072987790582 17.2257621808843 31.7220626508213 35.7195196839448 59.0963077981112 90.0080529873431 75.4320427814146 72.8279127012825 70.8156079527542 87.6487527282744 87.6267369876488 45.1817004142027 17.4565965520272 21.1217832000931 15.9596552826864 33.4730378830772 45.2913865389966 43.7155687809393 19.3097677720065 35.424485013077 4.98549357181838 8.30881432490191 15.137628668876 6.66746382638506 9.14901545042275 14.4978194857183 8.08986497271031 5.32991465275296 2.88457925591289 0.876955262179571 0.841203016482393 1.94455643445273 2.37568353984672 2.93403016124208 1.18346260977845 4.97776922867136 6.10165927864966 3.71411063924857 12.7661440536241 8.88940554592726 14.4395078141914 12.5382060226914 10.6862129889705 5.84636747581369 2.70769724070319 3.0330676829929 1.79868924644975 0.648976329399474 1.29956047030885 1.6896119726385 0.994840827522365 0.235247780026641 0.428330239845951 0.116521687631604 0.148663413909589 0.0767299674745784 0.363422548526293 0.236009030331546 0.518523630922588 0.114065230806318 0.0422218878513882 0.037568486799026 0.0146493323346753 0.0155563075447402 0.015335228337467 0.0270067077337727 0.0325785816036537 0.111190670634135 0.248678206694721 0.50537528102812 0.195987415831057 0.419950173958214 0.157453045692486 0.0692175002074078 0.044726333510396 0.0194136881030757 0.0100294528721001 0.0878082583081803 0.0684398658362373 0.0278045575352877 0.0126483600672157 0.010813939189938 0.0251185780451005 0.0559678980403025 0.00102814091832738 0.00554425193757193 0.00212172329604713 0.00120089850101254 0.00307818149397612 0.00249151888357903 0.000303110791790219 0.000187410429705944 5.39148402433135e-05 0.000381408080712039 0.000206404824348105 7.06544571583529e-05 6.11857456902762e-05 0.000172883206317765 0.000379544296025806 0.00143721831170677 0.00102973239716705 0.00235369938264371 0.00589153791813037 0.00548036491176569 0.0063200655227522 0.000878694402464045 0.0022185721149113 0.000894308424391475 0.000356816910374669 0.000112676389877656 0.000146447091529604 7.24391497516075e-05 0.00011426331980571 0.000287883064540188 0.000489864152887734 0.000373122313522245 7.36915714399841e-05 0.000166802438173677 0.000158206387737916 6.60721087604813e-05 5.86405315677924e-05 0.000387781542653333 0.000431952881961216 0.0011289265405259 0.00725675029116572 0.00242815630248978 0.00467949765912565 0.00529661386756251 0.00100247538498629 0.00205532584774239 0.000721896045333484 0.00147850766539816 0.000248385881312126 0.000184589498320254 0.000106733923421902 9.01597921401365e-05 9.55903142252351e-05 0.000194972241875155 8.6244407109645e-05 0.000175131889021231 0.00019030330309