<?xml version="1.0"?>
<VTKFile type="UnstructuredGrid" version="0.1" byte_order="LittleEndian">
<UnstructuredGrid>
<Piece NumberOfPoints="568" NumberOfCells="1054">
<Points>
<DataArray type="Float64" NumberOfComponents="3" format="ascii">
0 0 0 0 0.050000000000208 0 0.0584335251122665 0.0584335251122145 0 0.0323698570487533 0.032369857048862 0 0.0499999999998997 0 0 0.0999999999998147 0 0 0.0944578555792846 0.0400584584694184 0 0.0980768456829153 0.0991724147309935 0 0.0400584584693195 0.0944578555791577 0 0 0.100000000000416 0 0 0.150000000000624 0 0.0548726927265955 0.134106856398452 0 0.0388399996009313 0.179498259931901 0 0 0.200000000000832 0 0.0564522287083799 0.234565808376616 0 0.0996947712122641 0.22074048840547 0 0.0828750765696809 0.178818634882983 0 0.0896897021915411 0.138513804586622 0 0.122947659685672 0.148251464161954 0 0.169013160068682 0.168002193866631 0 0.125875177082847 0.188968332266695 0 0.158996951633215 0.227836749122277 0 0.205967211350529 0.199725178953962 0 0.211554843187388 0.241744476774187 0 0.189220110521158 0.126442066536112 0 0.22626394058332 0.154659468198381 0 0.217206150464847 0.104439454835129 0 0.148476056588621 0.112220907400452 0 0.181725902897582 0.0816119740612928 0 0.180351590178421 0.0391903365350905 0 0.138357444660799 0.0589959339188492 0 0.149999999999704 0 0 0.199999999999558 0 0 0.231674603334463 0.0553437746953104 0 0.249999999999412 0 0 0.299999999999266 0 0 0.283208049853001 0.0508433390825056 0 0.257146194987713 0.10413999068455 0 0.295063395037039 0.101138089243444 0 0.322427311917699 0.0689379334381408 0 0.330767006442793 0.119592255048115 0 0.355822585194142 0.0854187642572584 0 0.362462430895343 0.0442183666074772 0 0.323619558532886 0.0327999278256247 0 0.349999999999121 0 0 0.399999999998975 0 0 0.406855818272412 0.0411398773125117 0 0.449999999998829 0 0 0.499999999998694 0 0 0.484924330582892 0.0373213982762724 0 0.446927950142653 0.0518018776450602 0 0.475746624217828 0.077626823840591 0 0.46567857652706 0.114368061527523 0 0.43122735573934 0.0881769991929174 0 0.390616286406845 0.0815251031619917 0 0.375161719606839 0.121918126660369 0 0.397289240071895 0.165639932095022 0 0.432407360090089 0.182056809654028 0 0.41732862935313 0.129866986343623 0 0.459520018388269 0.156664873305243 0 0.462293308810443 0.198909164566548 0 0.499999999999971 0.219686411149829 0 0.42421838472614 0.222465020057878 0 0.381034256806799 0.204783951629704 0 0.331796839804983 0.222301993972031 0 0.360307484821635 0.154014700871105 0 0.330801675951106 0.181791113002693 0 0.299142716792971 0.156496209701207 0 0.263189497696013 0.146101733972573 0 0.260171965190135 0.20370391303005 0 0.301079690692898 0.202800200091412 0 0.288402851022681 0.249609553207088 0 0.25082138072345 0.257700107422368 0 0.297479491180417 0.296411157380844 0 0.260144435522079 0.292623904436535 0 0.284738052361283 0.343557681186738 0 0.323103257015693 0.32141443408924 0 0.348047572662274 0.35750068079406 0 0.354814354583093 0.30398436674999 0 0.323736926270502 0.27286413781594 0 0.357962884673884 0.256835227867104 0 0.401804626289837 0.256190339758575 0 0.391620987711813 0.295036992928546 0 0.430594867953342 0.303959734190635 0 0.455331360217251 0.252568731208715 0 0.483788712280009 0.297451778269774 0 0.472532117365031 0.340817108308049 0 0.49854341599768 0.370759147681271 0 0.43301393728221 0.359843205574921 0 0.391208871887456 0.334075776884043 0 0.392220576577811 0.380677966902274 0 0.394198866753185 0.419122252400708 0 0.429308231064016 0.40626685012723 0 0.465432111282168 0.387884235436819 0 0.461024257085337 0.432541991343326 0 0.461527143457989 0.473443594123526 0 0.410095980695696 0.490839357492854 0 0.423403423371937 0.447621318748554 0 0.377023860747173 0.458194175644768 0 0.334364244893045 0.478496031217408 0 0.333826635273302 0.441301250475035 0 0.354814223971285 0.403129814650693 0 0.296304338697064 0.429832022968145 0 0.305976555003817 0.393468168521193 0 0.255826059367993 0.395079699895134 0 0.262475847345986 0.447649432958947 0 0.299886550525317 0.467007278275931 0 0.262418491288269 0.490719222921541 0 0.232324767024371 0.466345253695677 0 0.192181271644967 0.465938389648695 0 0.160013142023585 0.497717270559093 0 0.144484766221814 0.453538915812712 0 0.178457744828726 0.430871172570494 0 0.148695787718589 0.404814523960821 0 0.197169318452384 0.387030152393625 0 0.219688017838559 0.433067836400238 0 0.222695530956879 0.358374234325388 0 0.19152147653881 0.327918797702154 0 0.236041954047958 0.321918283269407 0 0.220015181768822 0.28602682846308 0 0.168537671773945 0.272324831592801 0 0.143922094947914 0.306200702035457 0 0.154014700871176 0.360307484821747 0 0.0732967881614181 0.342269570898506 0 0.116034002194931 0.33748134585014 0 0.0994921194810273 0.307463985332816 0 0.110477540413226 0.263117535981694 0 0.0537301716876466 0.288250771898286 0 0 0.25000000000104 0 0 0.300000000001248 0 0.032220921767547 0.329014892144875 0 0.0334576460409223 0.363648423312284 0 0 0.350000000001456 0 0 0.400000000001664 0 0.060530514380151 0.395146264289728 0 0.10935320311386 0.378391909217271 0 0.0971009795772073 0.435906739990532 0 0.109199274598136 0.487580697080498 0 0.0648933318035348 0.486697770604545 0 0.0436128036610927 0.440061111828404 0 0 0.450000000001872 0 0.0294449071642091 0.475000000001966 0 0 0.500000000002059 0 0.0373213982762153 0.515075669417473 0 0.0518018776450837 0.553072049857452 0 0 0.550000000001734 0 0 0.600000000001387 0 0.0411398773124836 0.59314418172763 0 0.0881769991928987 0.568772644260674 0 0.0815251031619976 0.609383713593151 0 0.121918126660357 0.624838280393159 0 0.114368061527482 0.534321423472927 0 0.0776268238405584 0.524253375782261 0 0.156664873305197 0.540479981611742 0 0.219686411149827 0.500000000000032 0 0.19896328510056 0.537691476689505 0 0.222487080058139 0.575775413711342 0 0.204783951629683 0.618965743193203 0 0.165639932094979 0.602710759928095 0 0.182056809653986 0.567592639909897 0 0.129866986343594 0.582671370646846 0 0.154014700871098 0.63969251517837 0 0.181791113002692 0.669198324048887 0 0.222301993972028 0.668203160195032 0 0.202800200091414 0.698920309307116 0 0.249609553207091 0.711597148977329 0 0.203703913030074 0.739828034809895 0 0.156496209701235 0.70085728320704 0 0.13725179499973 0.741546289628566 0 0.0910728127967196 0.741988048646878 0 0.0990187225489634 0.704756315583652 0 0.119592255048131 0.669232993557228 0 0.0854187642572582 0.644177414805869 0 0.0689379334381628 0.677572688082311 0 0.0323578435067225 0.676600401985782 0 0.0442183666074753 0.637537569104702 0 0 0.65000000000104 0 0 0.700000000000693 0 0.0486329174879745 0.717891752740162 0 0 0.750000000000347 0 0 0.8 0 0.0529380014213358 0.776889771183312 0 0.112316928024456 0.78020430794084 0 0.0868130391934314 0.817095740868429 0 0.122947659685717 0.851748535838097 0 0.0870417061194161 0.853827995089262 0 0.0524690331668437 0.86696410734367 0 0.043889462445438 0.826759239819513 0 0 0.849999999999653 0 0 0.899999999999584 0 0.0400584584693226 0.905542144420798 0 0 0.949999999999792 0 0.0304524096104897 0.96954759038951 0 0 1 0 0.050000000000208 1 0 0.0584335251122541 0.941566474887746 0 0.100000000000416 1 0 0.0944578555791882 0.959941541530687 0 0.0979909576452082 0.900450397208809 0 0.146882743185419 0.889622656308119 0 0.181725902897639 0.918388025938889 0 0.138347219894628 0.94095916274078 0 0.150000000000624 1 0 0.18045991219398 0.960710939969875 0 0.200000000000832 1 0 0.232226438176177 0.944207511169706 0 0.18958721034944 0.876602973603946 0 0.221311393310948 0.904144943719832 0 0.228939290247373 0.839908789927278 0 0.132261503269228 0.813060330014371 0 0.171018735363 0.828981264636961 0 0.16253691950235 0.782849122627686 0 0.203590747653644 0.794224894178719 0 0.243358441913473 0.786511897933875 0 0.286026828463086 0.779984818231176 0 0.321918283269405 0.763958045952046 0 0.358374234325384 0.777304469043123 0 0.327918797702134 0.808478523461202 0 0.360307484821742 0.845985299128825 0 0.306195311694726 0.85607519768343 0 0.272549978320415 0.831201948690144 0 0.263054145574704 0.889490620931362 0 0.307381363266577 0.90051880305435 0 0.25000000000104 1 0 0.300000000001248 1 0 0.287907520382944 0.946359528487026 0 0.32894624184181 0.967797018267389 0 0.350000000001456 1 0 0.363638616126136 0.966544916821213 0 0.342269570898513 0.926703211838588 0 0.337480267781999 0.883965456331347 0 0.378391909217271 0.890646796886144 0 0.435906739990533 0.902899020422797 0 0.395146264289732 0.939469485619852 0 0.400000000001664 1 0 0.44006111182841 0.956387196338908 0 0.450000000001872 1 0 0.475000000001966 0.970555092835793 0 0.486697770604543 0.935106668196466 0 0.487580697080494 0.890800725401865 0 0.497717270559088 0.839986857976418 0 0.453538915812708 0.855515233778189 0 0.404814523960818 0.851304212281416 0 0.43087117257049 0.821542255171277 0 0.387030152393619 0.80283068154762 0 0.433067836400233 0.780311982161444 0 0.466346121879671 0.767675855240614 0 0.465938389648691 0.807818728355036 0 0.490731134405986 0.737590046187304 0 0.447649432958942 0.737524152654017 0 0.467368917376544 0.70015537930375 0 0.478187521339629 0.664544629052809 0 0.455174570318146 0.627431000796044 0 0.443459173594296 0.666416406225512 0 0.405647175079827 0.65626423320525 0 0.386423584673078 0.692862589235973 0 0.427155383338081 0.700777593753079 0 0.395079699895129 0.74417394063201 0 0.342702801024459 0.716724167620359 0 0.292551210545191 0.739979902911732 0 0.257700107422386 0.749178619276552 0 0.296411157380843 0.702520508819589 0 0.273496567448602 0.675817419964087 0 0.256845292557732 0.642035542479631 0 0.304216353843215 0.645149391934367 0 0.322598530820738 0.676700726098352 0 0.35944937237717 0.651647898084363 0 0.371046512961454 0.605451707483111 0 0.359843205574921 0.566986062717789 0 0.332314974080817 0.607792187328737 0 0.295036992928544 0.608379012288189 0 0.256190339758569 0.598195373710169 0 0.304297406799597 0.569139051464601 0 0.252871394412626 0.544583554344924 0 0.302927660481639 0.51
[...]
<CellData Scalars="pressure_p0," Vectors="velocity_p0," Tensors="">
<DataArray type="Float64" Name="pressure_p0" format="ascii">
1.1037556853686e-12 5.48945205223269e-12 5.59021795330494e-12 1.30189162339948e-11 7.37949276532323e-11 2.87019510707872e-10 2.99789329408101e-11 2.86087720519737e-11 6.03521198664396e-11 1.84832155612345e-10 3.6629660613396e-10 5.53714079659336e-11 2.73718136932424e-11 6.24173251075234e-12 1.45725410595817e-12 1.38950833075227e-12 4.37982445597515e-12 5.32497826040694e-12 1.51965885533403e-11 8.93671988247375e-13 1.69048268696707e-12 1.34914542007027e-11 4.06354482072598e-12 3.37408354174571e-11 6.01230331816963e-11 2.91719796300588e-10 1.07445756274019e-10 1.87742137672481e-10 3.49537989265598e-11 1.00726158782332e-10 1.38628730930735e-10 1.0664595795515e-09 2.75413791467744e-09 6.76615419442228e-10 4.12792904431998e-10 1.1625680060368e-09 3.49012649589197e-09 3.66535594064763e-09 7.67863626680091e-09 5.79031104194171e-08 3.16229573632126e-08 4.10909859155653e-08 8.57275763849918e-08 1.20657423185404e-08 9.72929546220682e-09 1.93444782826225e-08 8.93573302790852e-08 4.57890215217259e-08 5.08086159593839e-08 1.94866659198303e-08 9.20746355097346e-09 3.38909471744611e-09 4.88318026226646e-10 1.61947705006689e-09 2.90540869100681e-09 5.25480948777244e-10 1.74153067573363e-09 4.77549624213897e-09 1.11704811418508e-08 1.47739637674194e-08 3.75385918022088e-08 3.13759802010475e-07 8.72217869731116e-07 1.19210306554275e-06 1.19036056326254e-07 3.04805482637692e-07 1.31948175673478e-07 2.25591446133054e-07 7.64395861832695e-07 3.17766559205609e-06 1.43843836354117e-06 1.46185669222439e-05 6.90014493586506e-06 5.09473728486466e-06 1.18301732761212e-05 3.38916543821549e-06 2.33676773472429e-06 5.19898634388111e-06 1.37877381956516e-05 2.93746822504932e-05 2.33701776874555e-05 0.000110585072112116 0.000151402248557185 8.61291992359985e-05 0.000382567615105967 0.000763417489908793 0.000520575424491663 0.00113491391261446 0.00035454405423292 0.000272084716565146 0.000914692562561892 0.000169810978024923 6.41221247104121e-05 5.36220273004684e-05 3.16721609108402e-05 1.64206696842525e-05 3.53036646908611e-05 1.7017181921226e-05 4.36443657018654e-05 7.16929782991103e-05 0.000157636928612546 0.000259139636806762 0.000657125685114011 0.00125535743126101 0.000607073463221902 0.000270574902119772 0.000167297248371726 0.000977498484551594 0.000522541380179623 0.000962073401334481 0.000216662861309788 0.000100493953269347 6.25018909937104e-05 1.55973607426338e-05 3.66640011281616e-05 6.66287141106468e-06 1.22173490739672e-06 1.62793849819467e-06 4.77209471733473e-06 7.30178452791692e-06 7.31655017165547e-06 3.59471680757376e-06 1.64301050878604e-06 1.04811974287444e-06 1.01481670383703e-06 3.99757000935713e-07 2.23350526738536e-07 3.15427028155039e-07 3.94316312407575e-07 8.89258043497939e-07 1.54266950300191e-07 1.49644518791236e-07 7.16381593201952e-07 2.81510244532232e-07 2.47681296608651e-07 1.12885858594468e-07 1.01308617557508e-07 6.22971154001737e-07 1.52760409807529e-06 3.61491998986077e-06 1.15715655970704e-06 8.78681308994284e-06 9.93840431681758e-06 2.54053784537718e-06 1.18299830460694e-06 2.97544159723479e-06 4.22300885275888e-06 1.97604258883715e-05 1.60496642213163e-05 4.15049859767097e-05 4.84958643922297e-05 0.000110863105746312 0.000772071534589457 0.000299418137255088 0.00039299351419785 0.000196436701610843 0.00105212287224119 0.00127859432761017 0.000675231169414295 0.000309717626282262 7.41755431732611e-05 4.35818729411407e-05 1.50632044344257e-05 1.61092234132855e-05 4.17376933753967e-05 1.28092266455942e-05 6.28975471927628e-05 7.25373702788032e-05 0.000176868292562507 0.00102115883004117 0.00106364361014035 0.00063076125939702 0.000144180515657342 0.000253388837935735 0.000220153669972317 0.000601109295822151 0.00102617280352429 0.000529291674801621 0.000176083262773962 0.000116987934506531 4.05697543434001e-05 3.23481826987612e-05 1.69705098807923e-05 6.23204196380324e-06 1.514211144112e-06 4.31045887905761e-06 5.8846879642201e-06 8.6544769147012e-06 2.8682915671e-06 2.3195358080615e-06 1.00659484167804e-06 3.7722431375171e-07 3.10233347378493e-07 1.76436311255136e-07 1.97500266380213e-07 7.57367548703922e-08 8.76126014737598e-07 3.31252681437344e-07 9.49485936275199e-07 3.68718901595455e-07 3.91354294640617e-08 4.03079078974207e-08 1.42582758361415e-08 6.31874740340411e-09 1.3990933560174e-08 5.04063426272976e-09 1.44875040928357e-09 4.30414742652771e-10 2.10092944544218e-09 1.01961852512828e-09 2.76118065257003e-09 3.21205142489302e-10 4.91720305245707e-10 1.79176909369495e-09 7.444861816074e-09 6.36401316713568e-08 2.55869794371325e-08 2.5510089544098e-08 8.56106575907207e-09 1.73719635252241e-08 7.02985950628808e-08 4.44217953747088e-08 2.73769805676299e-08 6.05118651781791e-08 8.71200122445945e-09 6.0263100298609e-09 1.66468663835144e-08 1.96954862356656e-09 8.40500382896003e-10 6.04611093039189e-10 4.78884961142038e-10 1.46920604991353e-09 3.33164231069574e-09 2.76845794048419e-10 8.18194811775351e-11 3.20649556782882e-11 2.25372052066559e-11 6.57028530094084e-11 2.05488345261073e-10 1.88595347886264e-10 2.81062983476487e-11 5.32278215340748e-11 5.26849574946512e-12 1.49107794754227e-12 2.66030450466738e-12 6.15640576762876e-13 7.90268604308576e-12 5.63005886695658e-12 9.87544546006219e-12 1.57495796229371e-12 6.02848509172033e-13 9.57565978064225e-13 3.8457249926372e-12 3.10548403125062e-12 4.8461564731473e-11 1.83780742734434e-10 1.67187140353464e-11 1.69225140979789e-11 1.44383601429946e-10 3.54120130172225e-11 4.45171928239628e-11 5.10262002349185e-12 5.77139050858171e-12 2.0488412349448e-12 5.82401045874194e-13 1.67446751693019e-12 7.35999324238299e-13 9.5636947648645e-12 1.2021349326535e-11 2.68190960134224e-12 7.33753114835814e-13 2.97461408302172e-12 2.12040466455574e-12 7.74888523776116e-12 1.19813796714604e-11 2.02267389161188e-11 1.33949958297178e-10 7.5471877527621e-11 1.25553502346539e-10 5.41345360925574e-11 2.12552074063641e-11 8.13892272930997e-11 2.83729065553417e-10 6.20438819551485e-10 3.35853831533831e-10 2.85474413260078e-09 2.0564458947281e-09 6.12309809707476e-09 5.51532165966792e-08 2.35264008479131e-08 2.41196765873784e-08 7.54699982739044e-09 8.36306199283973e-09 5.37591817850898e-08 4.90661361559887e-08 2.59834540466987e-08 3.74342552010445e-09 2.47383693668001e-09 1.33805928486726e-09 1.04420139253906e-09 4.54608019789712e-10 7.07372955810632e-10 2.69778555674735e-10 8.96766700548124e-10 9.00477709742618e-10 3.37510544539966e-09 8.57588421469923e-09 2.55729903281299e-08 7.07437340399785e-08 8.43566615473856e-09 1.95116585743211e-08 5.32934610123165e-09 2.45345476693904e-08 5.18676522865462e-08 2.14031340300515e-09 3.02491438749014e-09 2.37214346652354e-10 3.93996076835493e-10 1.26465995794933e-10 3.33395868635258e-11 1.4073454762399e-11 1.85856589527125e-11 5.91132278705765e-11 9.81584179182765e-11 5.18425241535334e-11 1.27726787064563e-11 1.59296203700369e-11 4.46774801266182e-11 5.30100329321249e-12 8.40185120322752e-13 1.77786820811507e-12 5.30251945603539e-13 2.09912467493877e-12 6.08715138905324e-12 3.67697573663032e-12 1.06996645140076e-12 1.36699478627833e-12 3.83307730746589e-12 1.42065699981622e-11 4.97781812202851e-11 1.7326271042003e-10 1.58322083529183e-10 4.71450053871133e-11 3.17887954359939e-11 9.89436472395195e-11 2.13846333441035e-10 1.27702926691464e-10 4.97264491170553e-11 4.35771251965133e-12 1.66904852311093e-11 1.06834634715966e-12 4.84881349676197e-12 1.32690004818371e-12 5.85236947882623e-12 1.37300701417289e-12 5.06743130189853e-12 4.86858744988386e-12 9.65265395016624e-13 1.17302165130841e-11 2.78130786464395e-11 6.85833421834194e-11 2.67227990655914e-10 1.71413119202401e-10 2.68079343734469e-11 5.60432247055756e-11 2.5203361061025e-11 3.46824480944068e-10 3.00321153897724e-09 1.45032395548597e-09 4.38365891430586e-10 4.89652629836713e-10 4.40253714234783e-09 1.63054890164087e-09 2.811778674101e-09 1.38544258094284e-08 1.09955983770274e-08 3.45672790849933e-08 5.69862807735431e-08 2.10391526461717e-08 8.86210109675154e-09 5.0053338394497e-08 7.71059930217566e-08 1.17214267451768e-08 1.91294322012573e-08 9.61142965017372e-09 2.64162330848788e-09 1.04225448683418e-09 7.37569455927367e-10 3.5190175743229e-09 1.28892299175376e-09 5.24238183853192e-10 5.53804637897245e-10 2.50925315067219e-09 6.30105704000114e-09 1.83101686303203e-08 2.96053719567594e-08 4.39636733526732e-08 1.35566037065369e-07 2.69330399239084e-07 1.81285858475481e-07 1.10513804415438e-06 5.93436965625423e-07 6.48686097821144e-07 3.7271358006518e-06 7.70591199900178e-06 2.79626672543273e-06 2.69052740155005e-06 8.21032640309781e-06 8.13899931966921e-06 3.21729654919681e-06 8.20265538641698e-07 2.90589654060742e-07 1.02469942465046e-07 5.20128791327057e-07 4.17411055487305e-07 1.4833083837027e-07 1.16650482682074e-07 3.00257048201033e-07 9.01620425898983e-07 1.84537553573711e-06 2.33053337394143e-06 1.39690471194997e-05 5.30009043685344e-06 1.16442026254892e-05 4.70008804989634e-06 1.4915391681808e-05 1.3567718215505e-06 1.41280456222644e-06 2.56287106870002e-06 6.37872291152937e-06 5.55214530554007e-05 0.000106786046461399 4.91942167614461e-05 2.45268463430563e-05 0.000127865648685305 6.1742636683411e-05 0.00051954612220084 0.000316535856465445 0.000714120168257521 0.00152060610237371 0.00124786155496735 0.000588148868361192 0.00155120357150766 0.000324145142432351 0.000376398128842176 0.000809053660495621 0.000592181700048935 0.000264575494464098 0.000138160418179024 1.94006614085501e-05 2.09451762245322e-05 0.000126365031639287 5.09329171291003e-05 7.8223428849032e-05 4.62861058474907e-05 1.82428674994871e-05 0.000105265076302456 0.000247118655413539 0.000315129433716116 0.000202866295268236 0.00101530030393768 0.000691117810394187 0.000948921422544193 0.000513259220310939 0.000514673381118986 0.000233955052008823 0.000210683619899657 0.00113839996887737 0.000925441527274583 0.000744598101549766 0.000318099960777919 0.000385252589977775 9.06707576169284e-05 4.40522421532186e-05 8.52966539046787e-05 0.000135219164832272 2.63238107018337e-05 1.84179103531594e-05 4.04985596820342e-05 9.67137436192397e-05 1.01161352847506e-05 1.4695473699472e-05 1.63683064409941e-06 1.71102676972556e-06 1.17281468764824e-06 1.68079571134926e-07 2.06062668094068e-07 3.31901568020666e-07 6.43571255518055e-07 5.9027127250191e-07 7.60122083918492e-08 2.42086130513395e-07 3.57533905234893e-07 2.57214222520284e-06 2.06910081826401e-06 3.42015537987896e-06 7.74204818138504e-06 6.04447970109432e-06 5.67172117209696e-06 2.39734041282388e-06 9.2292258738009e-07 9.56862003268559e-07 1.55292547461475e-07 1.71820422246099e-07 3.37383345047292e-07 3.34032102091314e-07 1.76530081237949e-07 2.21402619814392e-06 2.41004540129457e-06 9.10743647967658e-07 2.25551449848428e-06 4.50929157485571e-06 1.08189573726549e-05 2.38621453112591e-05 7.83259648050487e-05 5.30598795679289e-05 0.000111286165758637 2.10580823838644e-05 1.47768169584592e-05 1.56216488808741e-05 2.85961289504201e-05 0.000155587427182946 7.88872497806914e-05 0.000113775181872978 0.000417817657386657 0.000930982195128921 0.000576721148065095 0.000289962083235999 0.000296532639945191 0.000682159436965468 0.00388003852053504 0.00865603420981689 0.0115689719506814 0.00167310866529576 0.0029410808536472 0.00149859262132968 0.00229298163050297 0.0106724444444674 0.00731237099450196 0.0238619553878697 0.0425386046579621 0.0358132245083988 0.0289815821547314 0.0218438186734212 0.0178213334306443 0.0729733096305592 0.0552655418997916 0.14058851838907 0.298840311483751 0.42367506154117 0.917436857521001 1.24759871284523 2.14772022639059 0.491664855576937 0.907023789272769 1.36454285166182 1.068883634968 0.949805337717034 0.273606187560829 0.443313229606827 0.340414331171592 0.0918270913770945 0.158370924062414 0.129655395916242 0.114939902238668 0.21687014414866 0.42711270928871 0.503225483940505 2.09679681215591 1.77161513444003 0.641912505715476 1.05639778783897 1.53507082710345 0.619103641044365 1.02940730826782 0.251938216378736 0.452882336603436 0.271376481204854 0.103722679251291 0.198596996711855 0.0656187647537874 0.0169640867018342 0.0318224132494109 0.0347703605032379 0.0729277423807533 0.0822129708265725 0.0352155184265683 0.0219806284469163 0.0107740149400598 0.00553785141201095 0.00584437541541202 0.00149518324945346 0.00299198653056486 0.00624025548554986 0.00694624822931203 0.00284688811928722 0.00238115846542661 0.00403795400469972 0.00223702476874493 0.0122585006820568 0.00921442438621261 0.0182242533814962 0.0737176270974114 0.0391818699263568 0.0289812175122114 0.0248664020716303 0.0384846594893979 0.0764231887444731 0.0456903249627227 0.0814537993905281 0.0132369206814626 0.00952343730111671 0.00798800589611546 0.00367389446295036 0.00365555884476652 0.00199504612931752 0.00275986709048539 0.0131927547741604 0.00847593399284349 0.00679913263320143 0.0021527078530254 0.00451459361568575 0.00360747611796884 0.00637108826350497 0.0171034534385598 0.0245665589337618 0.0141920840149282 0.0578045114415835 0.0627001045742308 0.0308100907240905 0.0276403688142385 0.0494671081484962 0.164302185906771 0.0909897244313278 0.44720315672176 0.261737379608146 0.196928005766893 0.103429245556479 0.210245545914026 0.102006908294782 0.38324515403039 0.272655347307778 0.551528274543509 0.679797292206114 1.23330567908123 2.28193501803447 2.12166333195871 1.15978788163243 0.694568743632938 1.40662050464197 1.34549197720616 0.540043395303621 0.550068616586287 0.995924998248403 0.408902974975932 0.236575960420247 0.158716967726635 0.146894606351233 0.398345725791677 0.196082959106491 0.148627642678909 0.469580503510639 0.581927154180779 1.03663538658496 0.952848864737379 1.54810941781323 2.76006182458539 3.92367758786772 3.80630613981242 7.70057122270827 9.77701321905315 24.3820069087967 16.1203364208478 9.99304950246686 21.3442925111406 18.6434884680026 12.0269601722693 7.92234201675292 5.67616325738217 7.0009171997161 2.53860287601572 3.43807319411137 2.53014833155062 7.16161259764923 5.63802282248161 3.33196932304808 4.10572893818314 7.74005082827197 6.94477799143916 11.0398050667946 24.3559917920669 16.1482882819083 16.4654154183015 24.3098932965962 12.3119103014753 11.1874499064712 14.2841233539814 22.5475137624197 26.9440553190686 54.008099130369 43.347609304021 54.1126613726868 31.0014419733721 28.844271206213 45.1331798733622 52.8990529920633 66.3127348343925 79.9535173298086 91.9443988272013 77.8536089905153 90.0426839211675 76.1284051414721 90.03332471708 90.1736929575099 57.5987547080523 76.0065877954989 75.9217430429939 43.7373125404498 40.6401412776956 33.073586541838 46.9378274024432 35.3088685611023 26.1776892824654 41.9048269410164 58.3078933123593 76.8285427094823 86.2590123343596 86.8143553574257 73.6752513761857 79.0310993763694 91.9865413679378 83.7993920506322 91.6724417402282 60.3768519669634 66.5317681877931 62.0795958343317 48.1811085389618 45.1187058830642 35.5710897742093 37.0840417953125 26.6773857815685 27.578528423563 41.6222442679783 49.9175741037283 17.8354429912052 19.3841002282182 12.1444642270852 6.53751703457631 3.69633717166003 2.64003073126093 2.95782476133635 7.56160955689285 4.84359277946588 4.7652996690908 2.45100513924074 6.17731162391896 9.5810204348244 13.22762889258 20.1316037946065 24.2160883648463 20.4666852071655 23.0024045296127 14.7962681074741 10.8668700422724 12.5787391528445 4.02694605071306 4.14919433532023 2.52763252001351 6.92790516183423 4.95024333968725 7.12517801172117 2.99277525643767 3.00736849911127 8.12841026215695 4.95535271352858 12.8409533129508 11.4877652540375 20.3198604037453 40.2091529117441 43.5594185933318 52.5314467356764 27.9588514656919 27.411923979414 40.9430749672927 53.43469217447 74.8363976625482 77.1198943675898 89.243906570245 82.1532705669209 66.9743504088783 68.3215538466324 83.5962114525564 92.7044559955133 90.7442780991443 78.243799886673 60.5101967140409 57.7401198233266 35.1746879547128 30.1897150915828 38.2414703682675 49.6266377607046 51.3167011238513 35.4194501482681 30.6119177920592 60.6263017212332 57.2347093332692 77.4076796602927 89.7843011316982 79.150370163652 81.1396011818628 89.0809643798074 65.0547967438361 91.8430213340954 79.5449234058004 87.4770879676769 74.3949715351589 63.5760704501407 49.4018928262007 43.0995514783005 51.7385079602078 27.9779216771567 37.1571274995678 39.4850514600352 51.1141907636204 53.5205329874791 30.9717160272014 36.9966952707361 22.2436532326826 9.81550241891644 16.0343699935426 16.2794807107897 24.6327251533003 21.6507133896048 12.2679569307168 9.65739562128057 4.63679353758905 8.55993859832654 3.11033514237524 3.95701728731235 2.37519963085614 6.28474197842922 6.28928372994063 3.79050075621282 2.9891978752906 3.79586717890832 2.60693381180788 6.25312825299402 9.04845047136456 10.8468781424097 20.0213464053686 17.4977525585839 15.0624838188354 14.3381662946779 9.9029156852427 21.6153443358216 23.832795800957 18.5224566281984 11.5167595108782 7.85725461411163 6.46254808796626 4.01610087626047 2.59888491944579 4.17473123972989 1.40856413428724 0.987309459080197 1.41086187919932 1.47733860159359 0.502874453802736 0.508048257819911 0.981462013513808 0.286861707473696 0.118197169691093 0.121056289484508 0.142823620074406 0.479891093496226 0.285457832257957 0.298490768212173 0.149090739664242 0.0740934303093781 0.0716740991946789 0.0403871525559641 0.0115939213780157 0.0183931063146509 0.0121993445059731 0.00480173027302158 0.00265643908941153 0.00460839426102359 0.00285655112326783 0.00264875841877393 0.00483122902511753 0.0137309987877075 0.0226519117252051 0.0562531243774466 0.059075694179637 0.064941037644329 0.0177955093973978 0.0311947544589417 0.0138213144076296 0.0234758142803184 0.00588171358971208 0.00300496607920658 0.00468586441132766 0.00904584197028521 0.00834182075740851 0.00205661695632574 0.00187342690331684 0.00410770407264585 0.00427845577865657 0.0191181313281095 0.0822953097332436 0.0350207767526339 0.114728481764247 0.416224415297881 0.390995027153208 0.117063263599402 0.290986081550047 0.327338929605927 0.21808650219386 0.730786517254457 0.689959694421173 1.00358963844281 1.18497382386995 2.2457918001318 1.33517454605524 1.16555267054809 0.536834367594039 1.57732308097558 1.76167692842166 1.14428151735901 0.671535724623007 0.791457361932318 0.492975381722725 1.56741271140578 2.04657467425311 1.11956482591429 0.653945445124195 0.306219213968028 0.278856465145796 0.13799160428319 0.143730310904006 0.143184583449974 0.256701327439965 0.223715936184178 0.0340822796955707 0.0707353645592317 0.0232991619360053 0.0179269730035704 0.0081360379115592 0.0022791596580082 0.00221944986496417 0.00317487895050274 0.0100322275969107 0.00665164246120985 0.00786328327410813 0.00383845213983493 0.00307897831795991 0.0154636823107786 0.0158351642091847 0.0321089702009767 0.0653560544347713 0.0720463659936744 0.0396656017973909 0.019572393300773 0.0345807021214867 0.00654598760592946 0.00449608044447861 0.00165432624851159 0.00776785142346053 0.00481219385843207 0.00206828234327616 0.0018095817758536 0.00401244485469314 0.00755507124147645 0.0167185391073569 0.0295893461323306 0.0635257803528836 0.103769186155434 0.200431035934973 0.365058420394783 0.430157686277367 0.216834342518452 0.117336778978819 0.0999653661518684 0.167995119973499 0.320009904178344 0.442925221220613 0.519943113273844 0.972741649163201 0.829861157554936 1.72879687277421 1.95558545951246 0.617448081179097 1.1526231837272 3.73168444963305 7.18571094148829 6.19361847527658 10.6757785615051 15.5649036811864 24.2724653890086 13.2374204767146 16.6536820963782 23.4424358121343 15.2795427100276 11.3033051153866 7.17838862267728 5.36822559832771 2.90201955052656 3.0143524773774 5.12909223765528 7.44531109033933 6.90145540258159 2.41992247151701 4.07686627901753 3.29366085373957 4.89629396099097 10.833949077054 8.74879738839263 12.3919059381647 21.3994499970051 16.5744669918899 23.4745638957492 21.0919983800384 12.0976261955806 18.7780586739596 43.4192689224