<?xml version="1.0"?>
<VTKFile type="UnstructuredGrid" version="0.1" byte_order="LittleEndian">
<UnstructuredGrid>
<Piece NumberOfPoints="28566" NumberOfCells="7204">
<Points>
<DataArray type="Float64" NumberOfComponents="3" format="ascii">
0 0 0 0.1025501277357185 0.1025501277357185 0.1575259589564332 0.16666666666630359 0.16666666666630359 0 0 0 0.49999999999902173 0 0 0.74999999999933742 0.10884396182859379 0.10884396182859379 0.67379604618986666 0 0 1 0.10271935629100711 0.1027193562910072 0.84084897149237237 0 0 0.74999999999933742 0 0 0.2499999999993999 0 0 0.49999999999902173 0.10865999053633831 0.10865999053633831 0.32358003890491438 0 0 0 0 0 0.2499999999993999 0.1025501277357185 0.1025501277357185 0.1575259589564332 0 0 1 0.16666666666630359 0.16666666666630359 1 0.10271935629100711 0.1027193562910072 0.84084897149237237 0 0 0.2499999999993999 0.10865999053633831 0.10865999053633831 0.32358003890491438 0.1025501277357185 0.1025501277357185 0.1575259589564332 0 0 0.74999999999933742 0.10271935629100711 0.1027193562910072 0.84084897149237237 0.10884396182859379 0.10884396182859379 0.67379604618986666 0 0 0.49999999999902173 0.10884396182859379 0.10884396182859379 0.67379604618986666 0.20339966542638019 0.20339966542638019 0.49801768651050432 0 0 0.49999999999902173 0.20339966542638019 0.20339966542638019 0.49801768651050432 0.10865999053633831 0.10865999053633831 0.32358003890491438 0.17168462543555879 0 0.16615070464674431 0.1025501277357185 0.1025501277357185 0.1575259589564332 0 0 0 0 0 0.2499999999993999 0.17168462543555879 0 0.16615070464674431 0.10865999053633831 0.10865999053633831 0.32358003890491438 0.1025501277357185 0.1025501277357185 0.1575259589564332 0 0 0.2499999999993999 0.1025501277357185 0.1025501277357185 0.1575259589564332 0 0.16117713264797839 0.17753274418983939 0 0 0.2499999999993999 0.10865999053633831 0.10865999053633831 0.32358003890491438 0 0.16117713264797839 0.17753274418983939 0.1025501277357185 0.1025501277357185 0.1575259589564332 0 0 0.2499999999993999 0 0 0 0.10865999053633831 0.10865999053633831 0.32358003890491438 0 0.16117713264797839 0.17753274418983939 0 0.37720163774080312 0.25422043336465477 0.23792456603906109 0.23792456603906109 0.21623589512422439 0.1025501277357185 0.1025501277357185 0.1575259589564332 0 0.16117713264797839 0.17753274418983939 0.10865999053633831 0.10865999053633831 0.32358003890491438 0.23792456603906109 0.23792456603906109 0.21623589512422439 0.1489715852349735 0.34998856881609408 0 0 0.16117713264797839 0.17753274418983939 0.1025501277357185 0.1025501277357185 0.1575259589564332 0.23792456603906109 0.23792456603906109 0.21623589512422439 0.16666666666630359 0.16666666666630359 0 0.1025501277357185 0.1025501277357185 0.1575259589564332 0 0.25000000000104078 0 0 0 0 0.1489715852349735 0.34998856881609408 0 0 0.16117713264797839 0.17753274418983939 0 0.25000000000104078 0 0.16666666666630359 0.16666666666630359 0 0.1025501277357185 0.1025501277357185 0.1575259589564332 0 0.16117713264797839 0.17753274418983939 0 0.25000000000104078 0 0 0 0 0 0.16117713264797839 0.17753274418983939 0.1025501277357185 0.1025501277357185 0.1575259589564332 0 0.25000000000104078 0 0.16666666666630359 0.16666666666630359 0 0 0.16117713264797839 0.17753274418983939 0.1489715852349735 0.34998856881609408 0 0.1025501277357185 0.1025501277357185 0.1575259589564332 0.16666666666630359 0.16666666666630359 0 0.1489715852349735 0.34998856881609408 0 0.1025501277357185 0.1025501277357185 0.1575259589564332 0.16666666666630359 0.16666666666630359 0 0.23792456603906109 0.23792456603906109 0.21623589512422439 0.17168462543555879 0 0.16615070464674431 0.23792456603906109 0.23792456603906109 0.21623589512422439 0.34998235745634898 0.14889171802055001 0 0.16666666666630359 0.16666666666630359 0 0.17168462543555879 0 0.16615070464674431 0.1025501277357185 0.1025501277357185 0.1575259589564332 0.23792456603906109 0.23792456603906109 0.21623589512422439 0.16666666666630359 0.16666666666630359 0 0.17168462543555879 0 0.16615070464674431 0.10865999053633831 0.10865999053633831 0.32358003890491438 0.23792456603906109 0.23792456603906109 0.21623589512422439 0.1025501277357185 0.1025501277357185 0.1575259589564332 0.25000000000104078 0 0 0.17168462543555879 0 0.16615070464674431 0.34998235745634898 0.14889171802055001 0 0.16666666666630359 0.16666666666630359 0 0.25000000000104078 0 0 0.1025501277357185 0.1025501277357185 0.1575259589564332 0.16666666666630359 0.16666666666630359 0 0 0 0 0.17168462543555879 0 0.16615070464674431 0.25000000000104078 0 0 0.1025501277357185 0.1025501277357185 0.1575259589564332 0.16666666666630359 0.16666666666630359 0 0.17168462543555879 0 0.16615070464674431 0.25000000000104078 0 0 0 0 0 0.1025501277357185 0.1025501277357185 0.1575259589564332 0.17168462543555879 0 0.16615070464674431 0.25000000000104078 0 0 0.34998235745634898 0.14889171802055001 0 0.37729325866038171 0 0.19117845012663931 0.25000000000104078 0 0 0.50000000000138778 0 0 0.34998235745634898 0.14889171802055001 0 0.37729325866038171 0 0.19117845012663931 0.23792456603906109 0.23792456603906109 0.21623589512422439 0.34998235745634898 0.14889171802055001 0 0.16666666666630359 0.16666666666630359 0 0.3333333333329494 0.3333333333329494 0 0.23792456603906109 0.23792456603906109 0.21623589512422439 0.34998235745634898 0.14889171802055001 0 0.49998234673398478 0.24420594492696129 0 0.37729325866038171 0 0.19117845012663931 0.50000000000138778 0 0 0.61783302218606417 0 0.1922186014161669 0.49998234673398478 0.24420594492696129 0 0.37729325866038171 0 0.19117845012663931 0.34998235745634898 0.14889171802055001 0 0.50000000000138778 0 0 0.49998234673398478 0.24420594492696129 0 0.37729325866038171 0 0.19117845012663931 0.38724035665579781 0.38724035665579781 0.16804493435552431 0.48977135788173931 0 0.38770592272319038 0.37729325866038171 0 0.19117845012663931 0.61783302218606417 0 0.1922186014161669 0.61783302218606417 0 0.1922186014161669 0.38724035665579781 0.38724035665579781 0.16804493435552431 0.49998234673398478 0.24420594492696129 0 0.37729325866038171 0 0.19117845012663931 0.38724035665579781 0.38724035665579781 0.16804493435552431 0.23792456603906109 0.23792456603906109 0.21623589512422439 0.49998234673398478 0.24420594492696129 0 0.37729325866038171 0 0.19117845012663931 0.38724035665579781 0.38724035665579781 0.16804493435552431 0.23792456603906109 0.23792456603906109 0.21623589512422439 0.37729325866038171 0 0.19117845012663931 0.36539539881857508 0.36539539881857508 0.37498061819009071 0.17168462543555879 0 0.16615070464674431 0.23792456603906109 0.23792456603906109 0.21623589512422439 0.37729325866038171 0 0.19117845012663931 0.34998235745634898 0.14889171802055001 0 0.17168462543555879 0 0.16615070464674431 0.23792456603906109 0.23792456603906109 0.21623589512422439 0.23008567404400659 0 0.38606276816302848 0.37729325866038171 0 0.19117845012663931 0.48977135788173931 0 0.38770592272319038 0.49924504345045218 0.085409373044967651 0.44554361730832676 0.3638479619604002 0.11896228301953055 0.30197090892370737 0.35992851596287295 0 0.38688434544310946 0.49924504345045218 0.085409373044967651 0.44554361730832676 0.50871872901916504 0.1708187460899353 0.50338131189346313 0.37332164752911307 0.2043716560644982 0.35980860350884375 0.36940220153158582 0.085409373044967651 0.44472204002824578 0.3638479619604002 0.11896228301953055 0.30197090892370737 0.37332164752911307 0.2043716560644982 0.35980860350884375 0.23792456603906109 0.23792456603906109 0.21623589512422439 0.23400512004153384 0.11896228301953055 0.30114933164362645 0.35992851596287295 0 0.38688434544310946 0.36940220153158582 0.085409373044967651 0.44472204002824578 0.23400512004153384 0.11896228301953055 0.30114933164362645 0.23008567404400659 0 0.38606276816302848 0.49924504345045218 0.085409373044967651 0.44554361730832676 0.3638479619604002 0.11896228301953055 0.30197090892370737 0.35992851596287295 0 0.38688434544310946 0.36940220153158582 0.085409373044967651 0.44472204002824578 0.49924504345045218 0.085409373044967651 0.44554361730832676 0.3638479619604002 0.11896228301953055 0.30197090892370737 0.37332164752911307 0.2043716560644982 0.35980860350884375 0.36940220153158582 0.085409373044967651 0.44472204002824578 0.3638479619604002 0.11896228301953055 0.30197090892370737 0.35992851596287295 0 0.38688434544310946 0.36940220153158582 0.085409373044967651 0.44472204002824578 0.23400512004153384 0.11896228301953055 0.30114933164362645 0.3638479619604002 0.11896228301953055 0.30197090892370737 0.37332164752911307 0.2043716560644982 0.35980860350884375 0.36940220153158582 0.085409373044967651 0.44472204002824578 0.23400512004153384 0.11896228301953055 0.30114933164362645 0.23809915846578791 0.23809915846578791 0.78030885436184927 0.20339966542638019 0.20339966542638019 0.49801768651050432 0.10884396182859379 0.10884396182859379 0.67379604618986666 0.23809915846578791 0.23809915846578791 0.78030885436184927 0.10884396182859379 0.10884396182859379 0.67379604618986666 0.10271935629100711 0.1027193562910072 0.84084897149237237 0.23792456603906109 0.23792456603906109 0.21623589512422439 0.10865999053633831 0.10865999053633831 0.32358003890491438 0.20339966542638019 0.20339966542638019 0.49801768651050432 0.16666666666630359 0.16666666666630359 1 0.20238291256604574 0.20238291256604574 0.89015442718092463 0.13469301147865534 0.13469301147865539 0.92042448574618618 0.20238291256604574 0.20238291256604574 0.89015442718092463 0.23809915846578791 0.23809915846578791 0.78030885436184927 0.17040925737839752 0.17040925737839757 0.81057891292711082 0.13469301147865534 0.13469301147865539 0.92042448574618618 0.15255113442852641 0.15255113442852647 0.86550169933664844 0.11870618388483123 0.1187061838848313 0.88063672861927933 0.15255113442852641 0.15255113442852647 0.86550169933664844 0.17040925737839752 0.17040925737839757 0.81057891292711082 0.1365643068347023 0.13656430683470239 0.82571394220974159 0.11870618388483123 0.1187061838848313 0.
[...]
<CellData Scalars="pressure_p0,water_source_density," Vectors="velocity_p0," Tensors="">
<DataArray type="Float64" Name="pressure_p0" format="ascii">
-0.0066024220742023857 -0.005332547559256837 -0.0017145393421316233 -0.0080727512341415061 -0.0052420851292164757 -0.0016740142279778828 -0.014810314847783088 -0.0070147836112508044 -0.018005751699036926 -0.021157890045349709 -0.0018585928873126557 -0.004741679516061071 -0.0049941930287337047 -0.0019245567210614935 -0.011951760907604124 -0.012209450387862801 -0.012751520481855691 -0.0026922459685283797 -0.0032121575276219914 -0.0024111369871618869 -0.0063423704413364838 -0.008416933325600574 -0.012345790917399921 -0.011046962193232469 -0.01194250055580454 -0.01225885165770947 -0.0033292565467168298 -0.0026482755722333404 -0.0059925998460115988 -0.0023365022426756758 -0.003708484404266472 -0.0028120786808094162 -0.010542227041978726 -0.015742242230004037 -0.0063566424532001502 -0.0058503122335016675 -0.015769712017852357 -0.01942769481379527 -0.023439004838600109 -0.032590958833062844 -0.01217138275588815 -0.0089360690030200005 -0.016957861477545126 -0.016957861477545126 -0.016957861477545126 -0.016957861477545126 -0.016957861477545126 -0.016957861477545126 -0.016957861477545126 -0.016957861477545126 -0.024821968495612658 -0.014090683667549675 -0.036232177424388647 -0.0084540626110539384 -0.0084540626110539384 -0.0084540626110539384 -0.0084540626110539384 -0.0084540626110539384 -0.0084540626110539384 -0.0084540626110539384 -0.0084540626110539384 -0.0084540626110539384 -0.0084540626110539384 -0.0084540626110539384 -0.0084540626110539384 -0.0084540626110539384 -0.027209935041186017 -0.0068048493912206747 -0.010164885304084645 -0.02183070295593869 -0.018850159157286325 -0.028490506639422396 -0.023541187658709183 -0.023541187658709183 -0.023541187658709183 -0.023541187658709183 -0.023541187658709183 -0.023541187658709183 -0.023541187658709183 -0.023541187658709183 -0.026974466950548573 -0.029115678425767157 -0.0300852228513592 -0.0300852228513592 -0.0300852228513592 -0.0300852228513592 -0.0300852228513592 -0.0300852228513592 -0.0300852228513592 -0.0300852228513592 -0.0073855125153826362 -0.034565243603025937 -0.026088600059263146 -0.013629435185024951 -0.013629435185024951 -0.013629435185024951 -0.013629435185024951 -0.013629435185024951 -0.013629435185024951 -0.013629435185024951 -0.013629435185024951 -0.009165169942522507 -0.0085409733918709301 -0.0025536713490327506 -0.0024843193935513339 -0.0032447148030646639 -0.0033517773179196999 -0.011605363627249924 -0.016776489151469318 -0.018102449627888356 -0.016196911806690192 -0.012629255856334655 -0.0044461137938028774 -0.0053199536915888909 -0.029177635745813758 -0.021308405421740419 -0.0080340648491276732 -0.034141380723400297 -0.028375868489631431 -0.015293653681321229 -0.025179602560445054 -0.037030433458203137 -0.034432911837353371 -0.047934078571954732 -0.040425506760612101 -0.050367545988596746 -0.041808492330937287 -0.041808492330937287 -0.041808492330937287 -0.041808492330937287 -0.041808492330937287 -0.041808492330937287 -0.041808492330937287 -0.041808492330937287 -0.041808492330937287 -0.041808492330937287 -0.041808492330937287 -0.041808492330937287 -0.041808492330937287 -0.041808492330937287 -0.041808492330937287 -0.026281288527463732 -0.026281288527463732 -0.026281288527463732 -0.026281288527463732 -0.026281288527463732 -0.026281288527463732 -0.026281288527463732 -0.026281288527463732 -0.026281288527463732 -0.026281288527463732 -0.026281288527463732 -0.026281288527463732 -0.026281288527463732 -0.026281288527463732 -0.026281288527463732 -0.026281288527463732 -0.026281288527463732 -0.026281288527463732 -0.026281288527463732 -0.026281288527463732 -0.026281288527463732 -0.026281288527463732 -0.014589650855724017 -0.014589650855724017 -0.014589650855724017 -0.014589650855724017 -0.014589650855724017 -0.014589650855724017 -0.014589650855724017 -0.014589650855724017 -0.014589650855724017 -0.014589650855724017 -0.014589650855724017 -0.014589650855724017 -0.014589650855724017 -0.014589650855724017 -0.014589650855724017 -0.011383616234727976 -0.011383616234727976 -0.011383616234727976 -0.011383616234727976 -0.011383616234727976 -0.011383616234727976 -0.011383616234727976 -0.011383616234727976 -0.019871455443923641 -0.019871455443923641 -0.019871455443923641 -0.019871455443923641 -0.019871455443923641 -0.019871455443923641 -0.019871455443923641 -0.019871455443923641 -0.021505867462526161 -0.022215349383632139 -0.020631196002543314 -0.020631196002543314 -0.020631196002543314 -0.020631196002543314 -0.020631196002543314 -0.020631196002543314 -0.020631196002543314 -0.020631196002543314 -0.0147472266786575 -0.0147472266786575 -0.0147472266786575 -0.0147472266786575 -0.0147472266786575 -0.0147472266786575 -0.0147472266786575 -0.0147472266786575 -0.0147472266786575 -0.0147472266786575 -0.0147472266786575 -0.0147472266786575 -0.0147472266786575 -0.0147472266786575 -0.0147472266786575 -0.011671617471187482 -0.011671617471187482 -0.011671617471187482 -0.011671617471187482 -0.011671617471187482 -0.011671617471187482 -0.011671617471187482 -0.011671617471187482 -0.025953145142956671 -0.017406861888835765 -0.010786885894326441 -0.0032920105925644616 -0.0041114240756708487 -0.013297081930794709 -0.0070549009986160842 -0.049908111639404604 -0.036344695921939715 -0.051958708142104938 -0.031059574443896617 -0.015395770640113229 -0.037488827186757272 -0.055406203917337998 -0.024141336004436895 -0.024141336004436895 -0.024141336004436895 -0.024141336004436895 -0.024141336004436895 -0.024141336004436895 -0.024141336004436895 -0.053826071391893396 -0.065857803446967594 -0.037738360093771177 -0.0079477050776458631 -0.062631851187108331 -0.050529206434239665 -0.050529206434239665 -0.050529206434239665 -0.050529206434239665 -0.050529206434239665 -0.050529206434239665 -0.050529206434239665 -0.021501800592355798 -0.072094755920237813 -0.040680988370088392 -0.040680988370088392 -0.040680988370088392 -0.040680988370088392 -0.040680988370088392 -0.040680988370088392 -0.040680988370088392 -0.040680988370088392 -0.037642847593073722 -0.037642847593073722 -0.037642847593073722 -0.037642847593073722 -0.037642847593073722 -0.037642847593073722 -0.037642847593073722 -0.037642847593073722 -0.054397306821464472 -0.047983729849591886 -0.029522325331216136 -0.029522325331216136 -0.029522325331216136 -0.029522325331216136 -0.029522325331216136 -0.029522325331216136 -0.029522325331216136 -0.029522325331216136 -0.0059304228137097076 -0.0064145745753564076 -0.028452465743948135 -0.028452465743948135 -0.028452465743948135 -0.028452465743948135 -0.028452465743948135 -0.028452465743948135 -0.028452465743948135 -0.028452465743948135 -0.019891993712303054 -0.023919560449735547 -0.01227481234841828 -0.033139213950988428 -0.016013520495085008 -0.010688614590057684 -0.0037001623577005089 -0.0028429057507167663 -0.0026947939161029244 -0.0032736842076577771 -0.0059955547213330265 -0.0023524660897489644 -0.0088799393779095855 -0.012287941032380711 -0.0018536500761379888 -0.0018734160041671008 -0.0046990227481807307 -0.0048210120254882777 -0.0033382884481404453 -0.0026365207299253041 -0.0023361908118135328 -0.0060073212808165822 -0.012265731986207611 -0.012002902901261889 -0.011957139072885318 -0.011072483307890983 -0.011094873793863693 -0.010399580393023085 -0.033261461536591271 -0.02243208305455284 -0.012321251957176238 -0.0090619982421544509 -0.0028593554810151614 -0.0037526107328674512 -0.0060530572191838626 -0.027849857826609682 -0.017277075535009949 -0.014873069882581342 -0.014873069882581342 -0.014873069882581342 -0.014873069882581342 -0.014873069882581342 -0.014873069882581342 -0.014873069882581342 -0.014873069882581342 -0.014873069882581342 -0.014873069882581342 -0.014873069882581342 -0.014873069882581342 -0.014873069882581342 -0.014873069882581342 -0.014873069882581342 -0.011996608152922359 -0.011996608152922359 -0.011996608152922359 -0.011996608152922359 -0.011996608152922359 -0.011996608152922359 -0.011996608152922359 -0.011996608152922359 -0.014724879333287512 -0.014724879333287512 -0.014724879333287512 -0.014724879333287512 -0.014724879333287512 -0.014724879333287512 -0.014724879333287512 -0.014724879333287512 -0.014724879333287512 -0.014724879333287512 -0.014724879333287512 -0.014724879333287512 -0.014724879333287512 -0.014724879333287512 -0.014724879333287512 -0.011529647170508575 -0.011529647170508575 -0.011529647170508575 -0.011529647170508575 -0.011529647170508575 -0.011529647170508575 -0.011529647170508575 -0.011529647170508575 -0.020215970303641972 -0.020215970303641972 -0.020215970303641972 -0.020215970303641972 -0.020215970303641972 -0.020215970303641972 -0.020215970303641972 -0.020215970303641972 -0.020978131892190381 -0.021823733784507415 -0.027103571171162192 -0.041095113512358047 -0.05229441807093025 -0.052685543726584252 -0.05432957702666185 -0.045825359431302476 -0.02892089864308359 -0.02307309019410857 -0.02307309019410857 -0.02307309019410857 -0.02307309019410857 -0.02307309019410857 -0.02307309019410857 -0.02307309019410857 -0.02307309019410857 -0.018108903129576904 -0.018108903129576904 -0.018108903129576904 -0.018108903129576904 -0.018108903129576904 -0.018108903129576904 -0.018108903129576904 -0.018108903129576904 -0.0072629697332619305 -0.017152068464578882 -0.017152068464578882 -0.017152068464578882 -0.017152068464578882 -0.017152068464578882 -0.017152068464578882 -0.017152068464578882 -0.017152068464578882 -0.013398348709810706 -0.013398348709810706 -0.013398348709810706 -0.013398348709810706 -0.013398348709810706 -0.013398348709810706 -0.013398348709810706 -0.013398348709810706 -0.010324662254901442 -0.029160442717586322 -0.029160442717586322 -0.029160442717586322 -0.029160442717586322 -0.029160442717586322 -0.029160442717586322 -0.029160442717586322 -0.029160442717586322 -0.033259347399590258 -0.022174533304511263 -0.017895997666680954 -0.017842749504629045 -0.0033496780388036795 -0.011628824395983794 -0.0090899745673896203 -0.0025237329218618532 -0.0033797594516867713 -0.0025880812945711022 -0.011511130404792442 -0.0088672609253009679 -0.0058881168666950236 -0.0075081859207442219 -0.0075081859207442219 -0.0075081859207442219 -0.0075081859207442219 -0.0075081859207442219 -0.0075081859207442219 -0.0075081859207442219 -0.0075081859207442219 -0.021088818188436609 -0.030558742400414389 -0.030558742400414389 -0.030558742400414389 -0.030558742400414389 -0.030558742400414389 -0.030558742400414389 -0.030558742400414389 -0.030558742400414389 -0.02302736240739009 -0.026661654285750493 -0.02385858749981631 -0.02385858749981631 -0.02385858749981631 -0.02385858749981631 -0.02385858749981631 -0.02385858749981631 -0.02385858749981631 -0.02385858749981631 -0.010188616013792907 -0.016287119548483185 -0.016287119548483185 -0.016287119548483185 -0.016287119548483185 -0.016287119548483185 -0.016287119548483185 -0.016287119548483185 -0.016287119548483185 -0.018487219976419323 -0.018487219976419323 -0.018487219976419323 -0.018487219976419323 -0.018487219976419323 -0.018487219976419323 -0.018487219976419323 -0.018487219976419323 -0.02179412219570287 -0.02179412219570287 -0.02179412219570287 -0.02179412219570287 -0.02179412219570287 -0.02179412219570287 -0.02179412219570287 -0.02179412219570287 -0.0049823942214741457 -0.0049823942214741457 -0.0049823942214741457 -0.0049823942214741457 -0.0049823942214741457 -0.0049823942214741457 -0.0049823942214741457 -0.0049823942214741457 -0.018125542205802259 -0.013923824522129709 -0.013923824522129709 -0.013923824522129709 -0.013923824522129709 -0.013923824522129709 -0.013923824522129709 -0.013923824522129709 -0.013923824522129709 -0.018100662987728205 -0.018100662987728205 -0.018100662987728205 -0.018100662987728205 -0.018100662987728205 -0.018100662987728205 -0.018100662987728205 -0.018100662987728205 -0.0156511039235484 -0.0156511039235484 -0.0156511039235484 -0.0156511039235484 -0.0156511039235484 -0.0156511039235484 -0.0156511039235484 -0.0156511039235484 -0.0066240084735124504 -0.0066240084735124504 -0.0066240084735124504 -0.0066240084735124504 -0.0066240084735124504 -0.0066240084735124504 -0.0066240084735124504 -0.0066240084735124504 -0.0069079280431751152 -0.0057744888912097418 -0.0057744888912097418 -0.0057744888912097418 -0.0057744888912097418 -0.0057744888912097418 -0.0057744888912097418 -0.0057744888912097418 -0.0057744888912097418 -0.0015034709529725978 -0.0014470727139022431 -0.0014055723954213863 -0.0014656907284048013 -0.0014656907284048013 -0.0014656907284048013 -0.0014656907284048013 -0.0014656907284048013 -0.0014656907284048013 -0.0014656907284048013 -0.0014656907284048013 -0.0056315815805222753 -0.0062997805361727716 -0.0052381035264228871 -0.010774847266832832 -0.011542569703477411 -0.019429666878396021 -0.019429666878396021 -0.019429666878396021 -0.019429666878396021 -0.019429666878396021 -0.019429666878396021 -0.019429666878396021 -0.019429666878396021 -0.022544170535811158 -0.022544170535811158 -0.022544170535811158 -0.022544170535811158 -0.022544170535811158 -0.022544170535811158 -0.022544170535811158 -0.022544170535811158 -0.011185629323187903 -0.012708626947535691 -0.0047967514970732672 -0.0047967514970732672 -0.0047967514970732672 -0.0047967514970732672 -0.0047967514970732672 -0.0047967514970732672 -0.0047967514970732672 -0.0047967514970732672 -0.010577938054667245 -0.0066949723417915009 -0.004946153923694979 -0.02007803298857198 -0.015220454295617724 -0.042347480475397832 -0.038931877937086128 -0.0386820443052691 -0.044041581696324751 -0.034616991827802077 -0.034616991827802077 -0.034616991827802077 -0.034616991827802077 -0.034616991827802077 -0.034616991827802077 -0.034616991827802077 -0.034616991827802077 -0.034464485628022505 -0.020125934723485745 -0.020125934723485745 -0.020125934723485745 -0.020125934723485745 -0.020125934723485745 -0.020125934723485745 -0.020125934723485745 -0.020125934723485745 -0.026192929903061372 -0.015758170515774397 -0.024430579459314584 -0.024508378115600023 -0.0060840050550340233 -0.0060840050550340233 -0.0060840050550340233 -0.0060840050550340233 -0.0060840050550340233 -0.0060840050550340233 -0.0060840050550340233 -0.0060840050550340233 -0.0060840050550340233 -0.0060840050550340233 -0.0060840050550340233 -0.0060840050550340233 -0.0060840050550340233 -0.0060840050550340233 -0.0060840050550340233 -0.006464149719888141 -0.0064132140831382346 -0.0036600784557527122 -0.0036600784557527122 -0.0036600784557527122 -0.0036600784557527122 -0.0036600784557527122 -0.0036600784557527122 -0.0036600784557527122 -0.0036600784557527122 -0.0036600784557527122 -0.0036600784557527122 -0.0036600784557527122 -0.0036600784557527122 -0.0036600784557527122 -0.0036600784557527122 -0.0036600784557527122 -0.0036600784557527122 -0.0036600784557527122 -0.0036600784557527122 -0.0036600784557527122 -0.0036600784557527122 -0.0036600784557527122 -0.0036600784557527122 -0.0036600784557527122 -0.0036600784557527122 -0.0036600784557527122 -0.0036600784557527122 -0.0036600784557527122 -0.0036600784557527122 -0.0036600784557527122 -0.0036600784557527122 -0.0036600784557527122 -0.0036600784557527122 -0.0036600784557527122 -0.0036600784557527122 -0.0036600784557527122 -0.0036600784557527122 -0.0036600784557527122 -0.0036600784557527122 -0.0036600784557527122 -0.0036600784557527122 -0.0036600784557527122 -0.0036600784557527122 -0.0036600784557527122 -0.0036600784557527122 -0.0036600784557527122 -0.0036600784557527122 -0.0036600784557527122 -0.0036600784557527122 -0.0036600784557527122 -0.0036600784557527122 -0.0036600784557527122 -0.0036600784557527122 -0.0036600784557527122 -0.0036600784557527122 -0.0036600784557527122 -0.0036600784557527122 -0.0036600784557527122 -0.0036600784557527122 -0.0036600784557527122 -0.0036600784557527122 -0.0036600784557527122 -0.0036600784557527122 -0.0036600784557527122 -0.0036600784557527122 -0.0036600784557527122 -0.0036600784557527122 -0.0036600784557527122 -0.0036600784557527122 -0.0036600784557527122 -0.0036600784557527122 -0.0036600784557527122 -0.0036600784557527122 -0.0036600784557527122 -0.0036600784557527122 -0.0036600784557527122 -0.0036600784557527122 -0.0036600784557527122 -0.0036600784557527122 -0.0036600784557527122 -0.0036600784557527122 -0.0036600784557527122 -0.0036600784557527122 -0.0036600784557527122 -0.0036600784557527122 -0.0036600784557527122 -0.0036600784557527122 -0.0036600784557527122 -0.0036600784557527122 -0.0036600784557527122 -0.0036600784557527122 -0.0036600784557527122 -0.0036600784557527122 -0.0029209378019858759 -0.0029209378019858759 -0.0029209378019858759 -0.0029209378019858759 -0.0029209378019858759 -0.0029209378019858759 -0.0029209378019858759 -0.0029209378019858759 -0.0029209378019858759 -0.0029209378019858759 -0.0029209378019858759 -0.0029209378019858759 -0.0029209378019858759 -0.0029209378019858759 -0.0029209378019858759 -0.0079693537985954157 -0.0079693537985954157 -0.0079693537985954157 -0.0079693537985954157 -0.0079693537985954157 -0.0079693537985954157 -0.0079693537985954157 -0.0079693537985954157 -0.0036486763219266654 -0.0036486763219266654 -0.0036486763219266654 -0.0036486763219266654 -0.0036486763219266654 -0.0036486763219266654 -0.0036486763219266654 -0.0036486763219266654 -0.0036486763219266654 -0.0036486763219266654 -0.0036486763219266654 -0.0036486763219266654 -0.0036486763219266654 -0.0036486763219266654 -0.0036486763219266654 -0.0036486763219266654 -0.0036486763219266654 -0.0036486763219266654 -0.0036486763219266654 -0.0036486763219266654 -0.0036486763219266654 -0.0036486763219266654 -0.0036486763219266654 -0.0036486763219266654 -0.0036486763219266654 -0.0036486763219266654 -0.0036486763219266654 -0.0036486763219266654 -0.0036486763219266654 -0.0036486763219266654 -0.0036486763219266654 -0.0036486763219266654 -0.0036486763219266654 -0.0036486763219266654 -0.0036486763219266654 -0.0036486763219266654 -0.0036486763219266654 -0.0036486763219266654 -0.0036486763219266654 -0.0036486763219266654 -0.0036486763219266654 -0.0036486763219266654 -0.0036486763219266654 -0.0036486763219266654 -0.0036486763219266654 -0.0036486763219266654 -0.0036486763219266654 -0.0036486763219266654 -0.0036486763219266654 -0.0036486763219266654 -0.0036486763219266654 -0.0036486763219266654 -0.0036486763219266654 -0.0036486763219266654 -0.0036486763219266654 -0.0036486763219266654 -0.0036486763219266654 -0.0036486763219266654 -0.0036486763219266654 -0.0036486763219266654 -0.0036486763219266654 -0.0036486763219266654 -0.0036486763219266654 -0.0036486763219266654 -0.0036486763219266654 -0.0036486763219266654 -0.0036486763219266654 -0.0036486763219266654 -0.0036486763219266654 -0.0036486763219266654 -0.0036486763219266654 -0.0036486763219266654 -0.0036486763219266654 -0.0036486763219266654 -0.0036486763219266654 -0.0036486763219266654 -0.0036486763219266654 -0.0036486763219266654 -0.0036486763219266654 -0.0036486763219266654 -0.0036486763219266654 -0.0036486763219266654 -0.0036486763219266654 -0.0036486763219266654 -0.0036486763219266654 -0.0036486763219266654 -0.0036486763219266654 -0.0036486763219266654 -0.0036486763219266654 -0.0036486763219266654 -0.0036486763219266654 -0.0036486763219266654 -0.0028619568186626456 -0.0028619568186626456 -0.0028619568186626456 -0.0028619568186626456 -0.0028619568186626456 -0.0028619568186626456 -0.0028619568186626456 -0.0028619568186626456 -0.0028619568186626456 -0.0028619568186626456 -0.0028619568186626456 -0.0028619568186626456 -0.0028619568186626456 -0.0028619568186626456 -0.0028619568186626456 -0.0064225944816887724 -0.0064225944816887724 -0.0064225944816887724 -0.0064225944816887724 -0.0064225944816887724 -0.0064225944816887724 -0.0064225944816887724 -0.0064225944816887724 -0.0064225944816887724 -0.0064225944816887724 -0.0064225944816887724 -0.0064225944816887724 -0.0064225944816887724 -0.0064225944816887724 -0.0064225944816887724 -0.0064225944816887724 -0.0064225944816887724 -0.0064225944816887724 -0.0064225944816887724 -0.0064225944816887724 -0.0064225944816887724 -0.0064225944816887724 -0.006422594481688772