<?xml version="1.0"?>
<VTKFile type="UnstructuredGrid" version="0.1" byte_order="LittleEndian">
<UnstructuredGrid>
<Piece NumberOfPoints="568" NumberOfCells="1054">
<Points>
<DataArray type="Float64" NumberOfComponents="3" format="ascii">
0 0 0 0.049999999999899652 0 0 0.032369857048753323 0.032369857048862027 0 0.058433525112266523 0.058433525112214509 0 0 0.050000000000207989 0 0 0.10000000000041601 0 0.040058458469319477 0.094457855579157729 0 0.098076845682915317 0.099172414730993488 0 0.094457855579284614 0.040058458469418363 0 0.099999999999814668 0 0 0.056452228708379938 0.23456580837661581 0 0 0.20000000000083221 0 0.038839999600931263 0.17949825993190149 0 0 0.15000000000062411 0 0.054872692726595548 0.13410685639845171 0 0.089689702191541126 0.13851380458662241 0 0.12294765968567151 0.14825146416195439 0 0.08287507656968085 0.1788186348829835 0 0.099694771212264055 0.22074048840547039 0 0.15899695163321451 0.22783674912227669 0 0.12587517708284679 0.1889683322666954 0 0.16901316006868169 0.16800219386663079 0 0.18922011052115781 0.12644206653611201 0 0.22626394058331961 0.15465946819838111 0 0.20596721135052939 0.19972517895396219 0 0.2115548431873881 0.2417444767741872 0 0.18035159017842109 0.039190336535090492 0 0.14999999999970359 0 0 0.1383574446607988 0.058995933918849157 0 0.1484760565886207 0.1122209074004519 0 0.18172590289758209 0.08161197406129285 0 0.21720615046484709 0.1044394548351292 0 0.23167460333446299 0.05534377469531044 0 0.19999999999955789 0 0 0.24999999999941211 0 0 0.28320804985300141 0.050843339082505573 0 0.29999999999926641 0 0 0.32361955853288599 0.032799927825624707 0 0.36246243089534252 0.044218366607477223 0 0.34999999999912063 0 0 0.35582258519414178 0.085418764257258431 0 0.32242731191769902 0.068937933438140794 0 0.33076700644279272 0.1195922550481146 0 0.29506339503703888 0.1011380892434444 0 0.25714619498771307 0.1041399906845497 0 0.26318949769601319 0.14610173397257309 0 0.29914271679297122 0.15649620970120659 0 0.26017196519013502 0.20370391303005 0 0.30107969069289831 0.20280020009141189 0 0.28840285102268098 0.24960955320708811 0 0.33179683980498331 0.2223019939720311 0 0.33080167595110582 0.18179111300269291 0 0.3603074848216346 0.15401470087110539 0 0.3972892400718947 0.16563993209502181 0 0.43240736009008851 0.18205680965402779 0 0.41732862935313042 0.12986698634362279 0 0.38103425680679859 0.2047839516297037 0 0.42421838472613971 0.22246502005787769 0 0.46229330881044273 0.19890916456654811 0 0.49999999999997108 0.21968641114982909 0 0.45952001838826873 0.15666487330524251 0 0.46567857652706018 0.1143680615275231 0 0.47574662421782782 0.077626823840590969 0 0.48492433058289169 0.037321398276272413 0 0.49999999999869432 0 0 0.44999999999882923 0 0 0.44692795014265252 0.051801877645060238 0 0.40685581827241191 0.041139877312511682 0 0.3999999999989749 0 0 0.39061628640684498 0.081525103161991672 0 0.37516171960683908 0.121918126660369 0 0.43122735573933979 0.088176999192917438 0 0.42930823106401639 0.40626685012722968 0 0.39222057657781068 0.38067796690227418 0 0.39419886675318527 0.41912225240070788 0 0.37702386074717259 0.45819417564476811 0 0.41009598069569558 0.49083935749285379 0 0.42340342337193693 0.44762131874855388 0 0.46152714345798918 0.47344359412352599 0 0.46102425708533701 0.43254199134332588 0 0.46543211128216788 0.38788423543681888 0 0.49854341599767982 0.37075914768127122 0 0.47253211736503098 0.34081710830804929 0 0.48378871228000903 0.29745177826977359 0 0.45533136021725079 0.2525687312087147 0 0.43059486795334201 0.30395973419063538 0 0.39162098771181342 0.29503699292854563 0 0.40180462628983732 0.2561903397585753 0 0.43301393728221038 0.35984320557492139 0 0.39120887188745579 0.33407577688404289 0 0.34804757266227387 0.35750068079406011 0 0.3231032570156932 0.32141443408924047 0 0.3579628846738841 0.25683522786710378 0 0.35481435458309307 0.30398436674998969 0 0.32373692627050221 0.27286413781593999 0 0.29747949118041711 0.2964111573808435 0 0.26014443552207939 0.29262390443653519 0 0.25082138072344978 0.25770010742236849 0 0.28473805236128291 0.34355768118673757 0 0.25582605936799319 0.39507969989513358 0 0.2963043386970643 0.4298320229681446 0 0.30597655500381687 0.3934681685211931 0 0.35481422397128459 0.40312981465069342 0 0.33382663527330159 0.44130125047503482 0 0.33436424489304489 0.47849603121740791 0 0.29988655052531688 0.46700727827593119 0 0.26247584734598628 0.44764943295894732 0 0.262418491288269 0.49071922292154141 0 0.19218127164496679 0.46593838964869538 0 0.23232476702437141 0.46634525369567709 0 0.21968801783855879 0.43306783640023788 0 0.197169318452384 0.38703015239362498 0 0.17845774482872559 0.43087117257049429 0 0.14869578771858949 0.40481452396082068 0 0.1444847662218138 0.45353891581271188 0 0.16001314202358469 0.49771727055909287 0 0.22001518176882229 0.28602682846307981 0 0.19152147653881049 0.32791879770215432 0 0.2360419540479583 0.32191828326940741 0 0.22269553095687891 0.35837423432538801 0 0.15401470087117619 0.36030748482174652 0 0.14392209494791439 0.30620070203545702 0 0.1685376717739448 0.27232483159280108 0 0.1104775404132264 0.2631175359816938 0 0.099492119481027347 0.30746398533281638 0 0.073296788161418117 0.34226957089850552 0 0.11603400219493119 0.33748134585014028 0 0.033457646040922301 0.36364842331228431 0 0 0.35000000000145642 0 0.032220921767546963 0.32901489214487523 0 0.053730171687646627 0.28825077189828552 0 0 0.30000000000124832 0 0 0.25000000000104028 0 0.064893331803534807 0.48669777060454478 0 0.1091992745981364 0.48758069708049778 0 0.097100979577207341 0.43590673999053198 0 0.10935320311385981 0.37839190921727089 0 0.06053051438015096 0.39514626428972788 0 0 0.40000000000166441 0 0 0.45000000000187229 0 0.043612803661092707 0.44006111182840391 0 0.029444907164209121 0.47500000000196552 0 0 0.50000000000205869 0 0 0.55000000000173355 0 0.051801877645083663 0.55307204985745195 0 0.037321398276215258 0.51507566941747263 0 0.07762682384055844 0.52425337578226128 0 0.1143680615274819 0.53432142347292733 0 0.1219181266603569 0.62483828039315903 0 0.088176999192898689 0.56877264426067353 0 0.081525103161997597 0.6093837135931508 0 0.041139877312483641 0.59314418172763017 0 0 0.60000000000138687 0 0 0.65000000000104008 0 0.032357843506722522 0.67660040198578164 0 0.04421836660747535 0.63753756910470205 0 0 0.7000000000006934 0 0.04863291748797445 0.71789175274016204 0 0.091072812796719582 0.74198804864687795 0 0.099018722548963364 0.70475631558365193 0 0.085418764257258195 0.64417741480586865 0 0.068937933438162791 0.67757268808231053 0 0.1195922550481313 0.66923299355722787 0 0.1540147008710982 0.63969251517836956 0 0.1817911130026923 0.66919832404888702 0 0.13725179499972981 0.74154628962856628 0 0.1564962097012354 0.70085728320703999 0 0.20370391303007401 0.73982803480989479 0 0.2028002000914135 0.69892030930711557 0 0.249609553207091 0.71159714897732929 0 0.22230199397202771 0.66820316019503168 0 0.2047839516296828 0.61896574319320252 0 0.2224870800581388 0.57577541371134155 0 0.2196864111498267 0.50000000000003153 0 0.1989632851005598 0.53769147668950479 0 0.1566648733051971 0.54047998161174216 0 0.12986698634359389 0.58267137064684615 0 0.1656399320949789 0.60271075992809464 0 0.18205680965398621 0.56759263990989739 0 0.10000000000041601 1 0 0.094457855579188163 0.95994154153068711 0 0.050000000000207989 1 0 0 1 0 0.030452409610489669 0.96954759038951022 0 0 0.94999999999979179 0 0.058433525112254137 0.94156647488774581 0 0 0.89999999999958358 0 0.040058458469322648 0.90554214442079806 0 0.097990957645208238 0.90045039720880915 0 0.1229476596857173 0.85174853583809695 0 0.086813039193431391 0.81709574086842884 0 0.087041706119416085 0.85382799508926188 0 0.052469033166843738 0.86696410734366991 0 0 0.84999999999965292 0 0.043889462445437968 0.82675923981951283 0 0 0.79999999999999982 0 0 0.75000000000034661 0 0.052938001421335763 0.77688977118331159 0 0.11231692802445629 0.78020430794084028 0 0.16253691950235041 0.78284912262768558 0 0.24335844191347281 0.78651189793387466 0 0.20359074765364421 0.79422489417871855 0 0.22893929024737289 0.83990878992727813 0 0.17101873536300011 0.82898126463696109 0 0.1322615032692282 0.8130603300143705 0 0.14688274318541941 0.88962265630811932 0 0.1817259028976386 0.91838802593888857 0 0.18958721034944021 0.87660297360394568 0 0.22131139331094829 0.9041449437198319 0 0.23222643817617661 0.94420751116970569 0 0.20000000000083221 1 0 0.18045991219397989 0.960710939969875 0 0.13834721989462789 0.94095916274077984 0 0.15000000000062411 1 0 0.35000000000145642 1 0 0.36363861612613613 0.96654491682121313 0 0.32894624184180998 0.96779701826738929 0 0.30000000000124832 1 0 0.25000000000104028 1 0 0.28790752038294382 0.94635952848702642 0 0.26305414557470391 0.88949062093136155 0 0.30738136326657722 0.90051880305435028 0 0.33748026778199908 0.88396545633134682 0 0.3422695708985129 0.92670321183858773 0 0.36030748482174152 0.84598529912882459 0 0.30619531169472608 0.85607519768342955 0 0.27254997832041528 0.8312019486901443 0 0.28602682846308641 0.77998481823117594 0 0.32191828326940508 0.76395804595204586 0 0.32791879770213411 0.80847852346120164 0 0.35837423432538362 0.77730446904312345 0 0.38703015239361932 0.80283068154761972 0 0.43306783640023289 0.78031198216144404 0 0.46634612187967051 0.76767585524061377 0 0.46593838964869061 0.80781872835503554 0 0.49771727055908782 0.83998685797641781 0 0.45353891581270822 0.85551523377818905 0 0.43087117257049001 0.8215422551712771 0 0.40481452396081791 0.85130421228141606 0 0.37839190921727062 0.89064679688614412 0 0.43590673999053309 0.90289902042279657 0 0.48758069708049379 0.89080072540186539 0 0.48669777060454272 0.93510666819646593 0 0.44006111182840962 0.9563871963389079 0 0.47500000000196563 0.970555092835793 0 0.45000000000187229 1 0 0.39514626428973221 0.93946948561985189 0 0.40000000000166441 1 0 0.33231497408081678 0.60779218732873663 0 0.37104651296145419 0.60545170748311072 0 0.35984320557492089 0.5669
[...]
<CellData Scalars="pressure_p0," Vectors="velocity_p0," Tensors="">
<DataArray type="Float64" Name="pressure_p0" format="ascii">
98.921003529141075 97.25433673433912 96.973215633570661 95.306548658442651 91.851401911941551 88.518068978929193 93.236944256256749 91.597846910781939 93.411154854552535 89.075406678159766 87.606872347656235 88.011795618588948 93.392392439086322 98.664712765818621 98.664714991896943 96.716924112877081 77.181135699607481 80.237220095958776 79.531187256419159 83.58585283428701 82.350055065913494 84.546488583779436 87.381169513280639 84.951997222377059 84.480497935471845 87.135370365728235 82.798684588546749 78.86246898394208 80.38238274474233 76.276820671559335 76.052512584610312 75.269790087536364 78.74845851904162 80.506405257734528 80.147841396043077 83.159245042511401 85.717485503018509 86.444466726879568 87.14861101970709 85.029850158670158 86.503257591529859 81.39701123304647 83.184455317152668 82.587079105013089 78.494191324129943 76.561722824099462 77.689766667810858 94.006702701611147 98.693654776586868 96.698166302388145 96.727111895586461 91.572333346262042 90.986968447250987 89.32414598800672 91.953481899101845 89.583537154794826 87.892011595531187 91.202542217247029 94.128456241578689 96.848869447924017 98.155211660995548 98.305215445349717 96.460420322178976 94.913929741931952 97.211876207191978 98.906663036342195 95.134757921877252 97.432705792632731 98.526043269448223 90.371193364950415 89.102285976183822 92.961198585776231 93.380776401568596 90.868301385507777 90.344322660926679 92.635970520954118 91.462572255763035 92.989069572719714 88.287292060028534 83.123235560496354 81.963708967465067 87.425717076483238 86.542081436181121 76.299554011122751 78.129537596728284 81.233296700529948 77.509597842331758 75.174138263419067 79.770192936555148 79.704051659116885 77.202590065382793 84.819990880172611 84.737286234959555 81.980274392017719 86.815746061486109 86.085742149759938 85.280818706786079 81.58389229369115 82.518631375692721 84.081116365486253 84.380274611367923 77.218632453367832 76.072973919697418 79.689728982139712 75.625795846884472 77.535144566771706 79.885532294843017 80.712922833430895 77.627755050470853 75.547674940158402 86.636573476188943 82.078851387904692 82.813637776776631 87.213901821042157 85.631696823344299 89.960128685994732 88.919508534570596 90.660864968390754 92.746413038407667 94.005242662777079 94.441619809663536 98.755946511999809 97.029201717311452 93.962650899476415 98.628659547208244 96.901916123707821 97.154701536326201 94.437172364705205 88.889575518512103 90.014276119814596 92.971866102465825 57.566365823808376 61.773753889243359 59.902379430573205 59.797802336431126 57.318517430038931 55.835460870064665 53.444885252797093 51.327778387305685 52.936569588164474 54.879817700300322 50.692328194960453 50.347058635966832 52.490121236935281 54.778638023258992 56.986762735898239 59.07916130448401 57.119045561339988 59.11026647654964 61.533543281699934 61.138568378506179 65.191625674115187 63.351306320205552 67.635190236435932 66.512646406573111 68.592340384076024 63.715179988484124 72.955517306076786 71.533939169271179 72.909318242201493 71.493720229179928 68.897552772518566 68.896746960981545 73.064544948242158 66.737357622437244 64.1801069217411 64.258206629378222 63.515819266582923 65.917596251234443 66.814644636313517 67.236693286582693 72.210527891437039 71.471424689785181 70.310344374161787 70.057898715612907 74.933271184667177 72.045191663316402 72.703840396250243 68.913595734792437 73.335561449608718 67.953907432825616 68.06336494612836 63.43297184282055 57.581322219948319 57.846673864039957 59.387375751276174 62.263182084014744 61.530101755636395 58.736761585293003 56.579229922196809 61.956430158897128 51.739228805725212 54.067014684827924 53.773233981736922 50.914361614954501 51.321817928210926 55.183742494572854 55.395366761984505 53.176208484380467 53.154153588354902 51.431170839988468 51.21143480301464 52.257187078358271 55.67073981724009 54.488271074528875 55.097918309490254 57.473446008980964 61.983878017177439 59.494084768101729 58.301024627852158 57.025823584270128 59.242795143365186 61.594917451543239 61.882843905689207 56.857960708594533 52.038725229671577 52.760144574850813 54.988361532932899 73.33013710968811 72.121663315246735 73.817638584119379 69.981064519430475 68.804562570748487 70.457664640508085 66.392978431835246 65.871686669276556 64.222573658884357 64.158120614504313 64.127284393288875 66.533666159972597 66.852431782112092 69.785193401789371 71.945223305159999 74.55734961929673 73.802181257573366 70.773911248551613 71.372241418908061 68.733833024542889 68.295109947155211 67.092807894285841 64.728546097560326 62.806382406087558 65.502216813074881 63.297837283947729 62.878381757657472 65.244548832374946 67.36616669459066 68.015468729232055 69.424465187081708 72.058304713195469 74.239444046081999 54.577779399412321 52.993786709233603 50.048890452736998 54.099083003603823 59.362855842429852 59.685129178834345 57.629494573875562 58.82640300629734 61.373496654430099 56.997955197676845 54.497950044745309 53.274678810518552 50.774192247449264 52.499995118837688 50.330799442250346 47.830805166714342 46.061727683918235 49.132402413733701 46.919930125605461 45.130022344603972 45.755030464604125 43.807758909936098 48.46142295567936 39.436827471242609 41.305686551190618 40.956607936959202 38.664457399366071 42.833667978257935 43.459445409730947 41.895191512579601 38.977263936833126 34.528731376400479 37.082077203455256 32.446652740161568 33.609636428824807 27.736943457996617 30.183594037425198 30.931165587714439 25.173957193204952 25.441021265215149 27.845460042939678 29.992630984207274 27.056973278831869 36.963346962089169 34.69039194766836 33.633870916677196 31.614579397691763 37.386641756658122 35.391667015883939 35.54114839248976 32.023674899950301 34.062486079396876 35.738046005202634 27.258940064649735 30.838418861320594 28.42798772941898 31.034107175991842 28.679799906563687 28.321809960330199 30.709291927944825 26.646543566832115 34.787705608355942 32.122572687066231 31.47938889652977 35.693138016058469 38.026730532296611 40.235390890432548 41.255460802487022 42.714806366232935 44.731592417639675 48.823217861644885 47.25745000418307 48.819644516113122 43.964602650017447 45.141109994171046 47.470295705009072 47.582642432635453 49.345958767460658 44.75084031869585 43.641786859774989 39.659239687265725 37.758531762279375 40.357599874956989 37.954273310651928 41.56742113199531 1.3352897344322607 3.2830783388752858 1.3352880623296199 2.9628733420506732 2.681749001380568 1.015082572975925 4.6295399308389715 6.7630594012204526 8.1486024546366096 11.481937124387873 10.90147653130717 8.4147261035244441 6.6014128321364449 6.621664552139416 11.939329743434641 13.132483245406185 17.269893158288212 15.910969339936255 16.743941210065056 12.625294991527223 15.081666151487736 15.209249557459628 12.583145350327776 17.441369312439271 19.308536474845255 19.878383865127191 22.437016046707747 23.363940550188357 20.86036457996105 19.654689782916297 24.542048776115031 24.525894648830246 23.18002328896096 19.170349537584777 20.79623781180846 19.798192985241393 22.769953515345819 22.647863707616825 24.149399727884262 19.311852265752183 12.644825024364568 17.896211729949471 18.079287141658316 15.15028455821864 13.493159832509798 16.873715984802928 14.321641554984875 8.965638415417656 8.3677169994127674 10.512928419298657 10.028848677518699 12.215235319352475 8.7386013185120799 7.7753550413182246 5.889815643394277 3.1694016652186323 1.8597583937735582 1.3096434308694773 3.277685447716717 5.9980977601870755 3.3033311740087932 2.1886006773166344 1.1151663722678145 4.6318271263040049 5.5760729124140287 5.3046782320536376 1.0734327173721294 2.8614511889090215 1.7880201050685436 3.6477800023241964 8.787722503457509 7.3314381618630264 11.797203820238765 11.981365560618856 9.6270900325740918 7.5472897385543884 8.1060098544487058 9.9561507648812615 12.646749261213014 18.090197488919799 16.315381000271366 13.799144213703876 14.646666247125882 14.107774508991996 16.808169606612235 21.585975209768314 19.344518636259373 20.076746748539598 24.361906458509427 22.810848785948522 23.869258571147203 24.73379243939349 21.675318076079673 20.37956174199411 22.523048174924892 22.422799016128184 19.843851894758028 24.599688044420311 23.81629092415286 23.814037816667948 19.062696387410355 21.473074480660671 21.473132350114145 19.677584875210492 17.170801810628056 16.555971796301609 13.789887137299246 13.009373986107079 15.721278572789092 17.477439045681088 16.662668975648785 13.735454803930784 8.8994753053272095 6.7081207510802372 11.838322443994691 11.692811833305267 8.3906103802914629 9.0397553073718004 6.8535418760798041 4.5983399402506446 4.3886259365773057 0.98148942271918016 2.2255272213830892 2.4352399965918838 1.4537503221505097 3.4714271122843563 3.1328422917684007 41.869404701128133 37.836922918364046 40.658983291644311 46.241738165159902 46.045134025682373 47.783242404216054 49.850911571436484 45.849739727147963 44.11163249506852 45.714463351820235 48.328462740841942 42.936032480956285 40.809518169606378 37.955951222430826 40.489628670567292 38.379633128411072 34.566562113474944 33.798099905371345 33.41106127262379 31.498696747148852 36.814504795838957 26.641482993270827 28.196744594722965 30.335483548356493 28.025848584688262 25.97793998892611 30.13514883549589 28.207991840417002 25.393264448374467 31.292179348656987 31.83090007100925 36.513660589080928 34.216713293102202 35.876067765930756 33.307511483876389 32.551413115200674 31.669868175076303 34.996296157287546 36.683310430867365 28.739551011241439 27.250839132079278 25.240359011925101 27.491045879895072 28.718130232414218 31.088386462940544 28.839438510680353 34.720291028568326 32.296152013097583 31.274286330573567 35.595579351796118 38.072282284852612 42.553224894807407 39.929771101887546 39.077688031792441 40.779401228571814 42.91979988056007 41.706077716545622 37.569811499985484 40.07876422854612 48.779981107472381 44.066889144769526 46.627691811960212 44.579975487946783 48.652850956461243 43.841541329515458 46.15770329810595 47.837594310104777 47.886219463314177 46.569437976352987 46.486636940591296 43.98164179389051 47.63682938031716 49.695996577188438 43.917281327519248 46.113502831283952 47.429883464301867 49.880351207862759 41.741173418486063 39.015135755309345 39.257432360779291 42.047829575231489 41.852171533091912 43.601228181724657 38.946680627473206 33.274202989582946 33.129216622812088 33.257162563232477 35.141462000984276 37.397965971816362 27.271950004753787 31.244915911051514 28.635390170621676 27.077464806761363 28.484688550865847 31.080870763207823 31.10322346546571 26.935399145511507 33.356151178612684 36.296773326679094 36.103608593038871 36.288645946052526 34.069826609200433 33.185340413760805 32.762438893122429 27.789377329073481 28.528531440712932 29.941165216114882 29.688723953536098 25.066621886868685 27.296078502880636 27.953797621348343 31.07368395430197 26.663431452551375 32.033507628909703 31.923929348893353 36.555333219262501 40.379130372038034 37.541293180911822 42.369019182679089 46.917346616383682 47.056885256272004 49.307934205680972 44.900583409263852 44.773353499858672 49.417167477860396 47.038887279910917 46.173871364828095 43.146019322663513 41.40266746276442 38.483466054372961 38.364165108848155 40.725518741213925 42.588173022168007 2.8452564699437257 5.5627443213764938 6.0372569565702339 3.098038914990652 1.3713203204283861 2.9707562116394097 1.244037449049979 5.5583028239522951 5.9946837315885251 9.3390170736594378 7.2534831390608296 10.03976147746255 11.0803520034945 9.9855859719145119 7.028024953330223 11.110288874839942 14.719041715296662 13.914117708643333 17.481240474493568 18.415982356007262 15.91874480400741 15.619577037055439 13.363280681150293 12.785978829852418 14.368165004526677 17.187716371996416 17.92249854986423 20.116452849475031 19.288451688069024 24.497237971680846 22.382029429534875 22.4752463751907 24.383117045424999 20.310770129116211 23.926950038424277 22.781890873830449 22.797331386091741 20.295858640840688 20.229735033540017 24.825765632315182 22.490351582638048 23.700422979073029 18.766641108130063 21.87041993640733 18.036209272355531 16.581697886828842 13.092187979123693 12.50353153807238 15.262607483964107 15.179885869242039 18.01961227004691 13.184117179876726 10.897587172334529 9.6286818645614449 6.6191298184537946 7.0386980536824071 9.1315881380760615 9.5849233067373412 10.91141139922151 7.9574517792975756 6.4214388655523713 7.219619717200775 4.9975955346163774 3.3856862793568494 1.6210897912815303 2.6996772321227147 1.0785876602521798 4.8504405003678013 2.55252125342769 1.4739344395116754 3.0842549049693746 6.1133463980779741 3.2119527141447026 1.4629821712942981 1.7645962735619798 6.1213477897085493 3.2275796864060364 8.4022580863644425 8.5442410393923733 11.354693149903646 11.046380867583721 9.8934223101788774 11.400746851736207 7.2581448376817264 7.9167365240461818 10.266025975538788 14.694989074377753 16.916309878382986 14.207608403066267 13.570509397952563 15.527245226559774 16.783063705271179 13.736838378596589 17.904882783483234 18.994370786085099 21.688422313048811 23.49206185138874 22.529618963785524 21.327953152461049 24.828267472997098 20.118301821032059 19.651525587822327 23.776853815563097 19.75417517412868 21.175482461302547 23.886426556515158 22.74089082645186 19.813763729680097 20.422893577476579 16.684456023461813 15.626917520232526 17.682004026221438 12.760180141518543 15.565219376178188 12.774051793234628 17.273220205076505 12.260731589322598 6.3506282135602925 8.3627591292005423 6.549444856519 11.026551115165319 11.481934981023414 8.1486008458595478 6.7630532630508551 4.6934505571839926 2.7456631051689531 1.0789961897584477 3.0267833588688173 1.3352844541276918 3.2830718505816643 1.3352844221753903 42.974168217143109 40.757233671699652 38.4051031324028 38.117161856542523 43.142023301940874 47.960988607095089 47.239758733097695 45.011625795919535 44.329280478859275 45.528246857950322 48.788497112847651 47.759328361081124 48.66237622050329 44.918624564196548 42.526602391754594 41.699013309536973 40.505959189823614 38.016160305007858 34.116615535602321 33.607055414751869 35.77746101164 26.236169297006164 27.877350034047666 30.017962081181029 29.549865786994445 31.19546910336037 26.731180105647539 30.222157725879377 25.484803911730687 28.060008458502232 35.84190681466027 33.147411070042644 33.466130100046087 35.872684839422774 35.271421237071571 32.904404050631214 31.701928969845902 31.251977251425338 37.193621608945705 29.221059088374986 28.611466056005586 26.106299673913568 25.67115213454732 30.561807163920761 27.930261509526595 36.701839541075017 34.495170021090289 31.970801904176618 32.631548586802808 37.121294228719051 34.752842884587523 43.002046697623904 41.173596003312156 38.626177380313166 40.314863375436033 42.370499628464174 40.637143434364702 45.900712249885984 45.422229887149243 49.949322854016643 47.006036612770266 49.224924710961432 46.725333029621524 45.502057715927272 49.668314282579018 47.500009802711155 52.168305481930666 53.932010344107283 53.072208338560912 50.865112382202781 61.021954710573134 56.535193058262706 58.104822640220121 57.159452394141397 61.323734247711926 59.030857114256058 58.678112281399493 60.546045867396458 54.861503984796052 56.185455201349569 54.240250879860255 51.535168336704992 50.652158118425746 52.415129084416094 52.529131825844885 54.858405104087169 55.243352532000927 56.354023975225388 60.334658398902164 62.23903074568085 59.642416609187748 62.045739041331643 58.428930605602659 58.744636303497067 59.764717508834622 61.973366891294219 57.286145871396464 55.269405283494883 52.743478333647829 51.254683578215278 51.180334920022332 56.035540565439874 71.678271511033728 71.320289302287179 73.353538511343302 69.29077826113874 68.535520122333892 64.306957236112481 65.2123373809209 67.877495796316296 64.261986651929035 64.456435019852904 65.937561610705032 67.976392671285765 71.420259363794713 69.167668966679742 68.965970264840109 72.583302437729316 72.820137435052672 69.976774706600295 72.15282730904778 74.265783808771573 62.581571508203652 64.587584222990699 68.391487909740803 66.347839213384162 65.290518347059489 63.006520087169349 66.382112091804714 67.545869005405734 65.463005286500362 62.917136907190425 74.503966020069527 69.024726624965709 69.772286169783001 72.226425415907585 77.277542842380782 79.599167846232859 80.208326752141318 82.321628266868387 87.239508425888914 84.376391554759508 83.318883621390029 87.16970002572117 84.381411303793129 82.686012939816749 80.395020327366836 76.646237753472917 76.465869326271715 78.979866345264114 96.973238923406285 97.254340563033992 98.921009941827606 95.30656572792121 93.236964552671054 91.851413368703177 88.518081454730336 88.970285241076027 87.6833670545968 93.566421299710285 91.91205524076986 93.447723407931534 91.634405412687329 96.716961150735884 98.66472928086128 98.664737600414554 98.705343693883037 96.876262837138029 96.835643511237038 94.113771672150264 92.418783383395564 89.642900421379409 90.149631264487908 88.94346616328852 89.718559747464667 87.69442134020332 91.112573640360495 92.03264968744935 96.823621449323269 94.061129204170541 98.118279996604855 79.958610537892028 75.012594474537238 76.919987813310811 75.113461474812468 80.516853090773679 78.910428764782992 83.109776773552412 85.318851172050785 86.072214974251352 82.200828952872001 84.870567902225929 87.181173085460387 82.030408513045643 80.782764046786184 77.410269923510569 75.915126345684286 75.633814451982659 77.253673961758679 76.126443929540855 80.664211742005008 78.414062662280571 79.996455585717257 85.902135442869678 85.399654793803933 83.200640707980966 83.68471343135505 86.200967911200806 87.353240858839428 81.909773671090193 79.620418444780825 75.215072566874412 78.324694651667102 97.134978493875835 98.209008299032632 96.327291509106587 91.210059182310374 92.644730698616854 88.203651709041083 88.018412877175422 90.372582811831478 90.043859534994994 91.893972606872069 92.449389309433002 94.691756183193263 95.36750969042734 94.423847506024018 98.884754254240818 97.810737712956609 98.925981064143784 98.546237970760586 96.867068055720367 96.528551859211035 93.291827557662586 91.100466193679281 88.161599837750856 88.307103012792552 90.960167017282942 91.609303652539595 93.146394542320763 95.401606873156325 95.611320418944686 97.774449008629574 99.018502583220737 97.564738056314866 80.164026807951444 75.455906894452028 77.585102874986561 77.476923100450804 83.337261914748012 86.264478266656027 86.990546975374087 82.522483628110876 84.278639770534355 82.830055411447546 86.210013674135809 83.444868616518789 80.938123713771745 78.56008415571543 78.567993266680233 80.331225191154701 76.271604429074685 76.254805915013563 74.876197638494318 72.697621286609149 69.105336292377075 71.484067736846654 71.449986989619646 69.023945621506684 72.812863589371162 71.741644090408073 71.277264388628126 63.82934050227081 66.624815884229179 67.37789753559241 68.268338498896014 64.726270741970382 62.821240184428959 65.173591078051189 67.892847369906249 63.942518578661179 61.458354178500997 57.302637813242335 59.714825896385257 52.724837538065735 55.329230255853744 50.772584634966648 51.432168258401092 55.692079389468631 53.747273392885297 53.799684786936837 55.412872448775396 51.668934640018804 60.255538215846741 58.20619867615585 57.87458455598567 62.314795133365472 59.48258394756143 58.158199052271215 52.173909515186473 54.529881799597675 53.940381844057569 55.667210581303038 51.507599852951316 54.302717404721783 51.760700086215984 62.067830879194062 59.537978076833127 59.195540223579656 57.069884247112938 61.620454653396735 65.449584462089021 63.18678463571041 66.611377259919692 68.522544845313391 66.216851029305829 71.798975148280874 69.679422800117663 73.354246529092791 71.91868861730093 69.820081746951416 73.966593963226842 74.555580051096683 68.667609834230646 68.1344620220169