<?xml version="1.0"?>
<VTKFile type="UnstructuredGrid" version="0.1" byte_order="LittleEndian">
<UnstructuredGrid>
<Piece NumberOfPoints="236" NumberOfCells="706">
<Points>
<DataArray type="Float64" NumberOfComponents="3" format="ascii">
0 0 0 0 0 0.40000000000166441 0 0.32892434865109021 0.32892434865109021 0 0.40000000000166441 0 0.33416666666749117 0.33416666666791067 0 0.33416666666645822 0 0.33416666666687761 0.39999999999911567 0 0 0.62412558229828341 0.26500093006025072 0 0.97934782608699855 0.40787109375058261 0 0.7999999999979498 0 0 0.77789883252811276 0.39570480562063071 0.39543357482263919 0.62596376811530841 0 0.26340755208326921 0.57500000000061269 0 0.57499999999949769 0.849152677791018 0 0.76609408500333809 0.40787109375015718 0 0.97934782608792492 0 0 0.80000000000332872 0.26500093005959219 0 0.62412558229931248 0 0.26235908848024581 0.61665443494884975 0 0.40787109374995661 0.97934782608798243 0 0.57500000000018214 0.57500000000018214 0 0.85167501661028155 0.7670914684099619 0.59772980397989239 0.59772980397970443 0.74731771606769093 0.57500000000222118 0.57500000000110618 0 0.73668669749125271 0.86068862301695703 0 0.39531730444687918 0.80019605692788165 0.39654492749411491 0.26340755208406552 0.6259637681177177 0 0 0.62491530451403432 0.26235908848027167 0 0.80000000000332872 0 0 1.200000000002774 0 0.26500093005965231 1.375874417702696 0 0.40787109375061498 1.0206521739145791 0 0.37819010083105031 1.488109359197332 0.37639255045733749 0 1.3863248792278431 0.25937977430558068 0 1.0206521739139061 0.40787109375008618 0 1.0000000000000291 0.99999999999996969 0 1.263313302510646 0.86068862301506388 0 1.4250000000002421 0.57500000000014528 0 1.740620225694506 0.62193599033743363 0.41010551790091843 1.5854304871968741 0.7721068750782103 0 2 0.7999999999979498 0.40787109375045588 2 0.9793478260856453 0.26500093005947722 2 0.6241255822972791 0 2 0.39999999999911567 0 2 0 0 1.6000000000000001 0 0 1.685972222222293 0.31402777777767188 0.33416666666678929 1.6658333333334849 0 0.40000000000166441 2 0 0.3341666666668387 2 0.3341666666664192 0.62596376811713206 2 0.26340755208327649 0.62596376811718013 1.7365924479167429 0 0.80000000000332872 2 0 0.57499999999943696 2 0.57500000000055196 0.84920286521341182 2 0.76599646645041963 0.92204894738342102 1.545944433704725 0.55253256161165365 0.58179751944592217 1.199262271083781 0.58179751944619096 0.57499999999972717 1.4249999999995451 0 0.86206805663365538 1.262904615478279 0 1.2339059149979039 1.1508473222113209 0 1.0000000000013569 1.0000000000020031 0 1.425000000001621 1.425000000001621 0 1.0362039003897969 1.032400726930619 0.49025282767413908 1.367905405405516 1.367905405405516 0.63209459459450335 1.000000000000635 2 0.99999999999835598 1.2345896428056129 2 0.84641423559720264 1.425000000001911 2 0.5749999999984764 1.020652173914391 2 0.4078710937494115 1.200000000002774 2 0 1.0206521739143919 1.592128906250684 0 1.383345565053743 1.737640911520447 0 1.3863248792284211 2 0.25937977430496501 1.685972222223028 2 0.31402777777693691 1.6000000000000001 2 0 1.671075651349931 1.671075651349931 0 2 1.685972222223028 0.31402777777693691 2 1.6000000000000001 0 2 2 0 2 2 0.39999999999911567 1.740620225695106 2 0.62193599033678559 2 2 0.7999999999979498 2 1.740620225695106 0.62193599033678559 2 1.425000000001911 0.57499999999847629 2 1.000000000000635 0.99999999999835576 2 1.2345896428056129 0.84641423559720252 2 1.020652173914391 0.40787109374941138 2 1.3863248792284211 0.25937977430496489 1.737640911520401 1.3750846954886311 0 2 1.200000000002774 0 2 0.80000000000332872 0 1.592128906250452 0.97934782608882909 0 2 0.62596376811713206 0.26340755208327649 1.5919037892070651 0.60245787335453693 0.40912424902564543 1.7349990699406379 0.62412558229936677 0 2 0.40000000000166441 0 2 0.3341666666668387 0.3341666666664192 2 0 0.39999999999911567 2 0 0 1.5999999999989469 0 0 1.665833333333216 0 0.33416666666646572 1.665833333333407 0.33416666666669298 0 1.374036231883393 0.26340755208345812 0 1.3758744177011391 0 0.26500093005953979 1.1999999999978941 0 0 1.0206521739124059 0 0.40787109374997071 1.151058336609301 0.76640924832138713 0 1.424999999999718 0.57500000000001494 0 1.19811642196055 0.57789440443542173 0.58983547034755146 1 0.99999999999999978 0.99999999999999978 1.2335907516799069 0 0.84894166339084287 1.0000000000002141 0 0.99999999999992895 1.425000000000477 0 0.57500000000037066 1.7365924479167549 0 0.62596376811523924 2 0 0.7999999999979498 2 0.26500093005947722 0.62412558229727921 2 0.40787109375045588 0.9793478260856453 1.5137040598352169 0.53344955263790295 0.97801656337898046 2 0.57499999999943696 0.57500000000055196 1.5147705253128161 0.91852444755677043 0.69631892236242632 2 0.84920286521341182 0.76599646645041952 1.500000000000274 0.99883321436442229 1.16639307242336 2 0.57500000000210227 1.4249999999987459 2 0.73668669749101645 1.139311376982779 2 0.26340755208402722 1.3740362318826671 2 0 1.1999999999978941 1.592128906250083 0 1.020652173912294 1.734999069940508 0 1.3758744177011299 1.592055221591679 0.37998381655983821 1.346767458941071 1.4249999999997249 0 1.425000000000185 1.1393113769850489 0 1.263313302510394 1.2526822839324241 0.59772980398008735 1.402270196020621 1.425000000001911 0.57499999999847629 2 1.000000000001781 0.99999999999894518 2 1.1535857644027949 0.76541035719405237 2 1.200000000002774 0 2 1.3740362318847941 0 1.736592447916669 1.3780640096633039 0.25937977430496151 2 1.685972222223028 0.31402777777693702 2 1.6658333333334381 0 1.665833333333264 1.6000000000000001 0 2 2 0 2 2 0 1.5999999999989469 2 0.33416666666757772 1.665833333332104 2 0.39999999999911567 2 1.7406202256951491 0.61367512077163267 2 1.6049090527780649 0.68972037691419241 1.610520945894512 2 0.62412558229832538 1.734999069939664 2 0.97934782608697624 1.5921289062492749 1.5921289062508031 0.97934782608568471 2 2 0.7999999999979498 2 2 1.1999999999978941 2 1.737640911519909 1.3750846954862539 2 2 1.3750846954865119 1.737640911519603 2 1.1510583366092999 1.2335907516785649 1.532347752213032 1.4746298915713509 1.076108883276101 2 1.4249999999998371 1.4249999999998371 2 1.7376409115198661 1.3833455650514059 1.5950886193190319 1.5950886193190319 1.4995967914346211 2 1.592128906250589 1.0206521739114489 2 2 1.1999999999978941 1.5921289062505879 2 1.0206521739114489 1.7376409115198661 2 1.3833455650514059 2 2 1.5999999999989469 2 2 2 2 1.5999999999989469 2 2 1.671075651348906 1.671075651348906 1.671075651348906 1.671075651348906 2 1.5999999999989469 2 2 1.671075651348906 2 1.671075651348906 1.3750846954865119 2 1.737640911519603 1.3833455650517461 1.737640911519633 2 1.0206521739131471 1.5921289062494219 2 1.1999999999978941 2 2 1.4249999999998371 2 1.4249999999998371 1.1510583366092999 2 1.2335907516785649 1.1981164219601721 1.4101645296525169 1.4221055955645681 1.416074976583422 1.0640336752305579 1.5993145461844129 1.4249999999998371 1.4249999999998371 2 1.2340035335497621 1.1507971347859809 2 0.86068862301746607 1.2633133025089971 2 0.5750000000018145 1.424999999998573 2 0.59772980397967113 1.252682283932151 1.4022701960199091 0.86620738987133672 1.5000000000001401 1.0337672479303861 0.73668669749101645 2 1.139311376982779 0.57500000000210227 2 1.4249999999987459 0.97934782608697635 2 1.5921289062492749 0.7999999999979498 2 2 0.77911601688602494 1.603176022082401 1.607321515253783 0.62193599033808677 1.7406202256939109 2 0.62412558229832538 2 1.734999069939664 0.33416666666757772 2 1.665833333332104 0.39999999999911567 2 2 0.31402777777840701 1.6859722222215581 2 0 1.665833333333429 1.665833333333256 0 1.6000000000000001 2 0 2 2 0 2 1.5999999999989469 0.26340755208402722 2 1.3740362318826671 0 2 1.1999999999978941 0 1.592128906249999 1.0206521739122849 0.39539622647752048 1.604332214875325 1.222086277851258 0 1.73499906994049 1.375874417701122 0 1.4249999999997121 1.4250000000001719 0 1.1379319433661621 1.2629046154773571 0 1.374036231884781 1.736592447916667 0.4078710937509023 1.020652173913281 2 0.25937977430622478 1.3863248792272369 2 0 1.200000000002774 2 0 0.80000000000332872 2 0 0.97934782608799098 1.5921289062499051 0 0.62412558229928472 1.7349990699404849 0.26235908848041961 0.62491530451389399 2 0.57500000000013385 0.57500000000013385 2 0.76640924832151791 0.84894166339049981 2 0.98528458949676634 0.98528458949702458 1.516045488389935 0.63209459459459538 0.63209459459460771 1.3679054054053961 0.48528811404415773 0.99061345538166756 1.009386544617999 0 0.57499999999972706 1.4249999999995451 0 0.73703553820768952 1.137914212601322 0 0.26340755208329458 1.374036231884757 0.26340755208335531 0 1.374036231884725 0 0 1.200000000002774 0.73709538452274337 0 1.137931943365984 0.98528458949709452 0.48395451161029718 1.014715410503322 0.57499999999978968 0 1.424999999999482 0.62412558229932147 0 1.7349990699404549 0.97934782608803661 0 1.5921289062498969 0.80000000000332872 0 2 0.979347826088805 0.40787109374939401 2 0.61665443494899885 0.26235908848011791 2 0.40000000000166441 0 2 0.33416666666682932 0 1.665833333333445 0.32892434865106179 0.32892434865106179 2 0 0.40000000000166441 2 0 0.33416666666678929 1.6658333333334849 0 0 1.6000000000000001 0 0 2 
</DataArray>
</Points>
<Cells>
<DataArray type="UInt32" Name="connectivity" format="ascii">
[...]
<CellData Scalars="pressure_p0," Vectors="velocity_p0," Tensors="">
<DataArray type="Float64" Name="pressure_p0" format="ascii">
0.49862888152675189 0.65129885021604395 0.70911820094232803 0.43154550028901173 0.71124486899826977 0.65336415620746302 0.43154552904645449 0.89088824729571137 1.12181951905115 1.0691238837388384 0.94355807146756043 1.0013773850182255 0.4341666857218075 0.71170782896256468 0.65644834708214583 0.94870786042890132 1.0039675050914709 0.74462449578499612 1.0368839517143917 1.0691245708489658 1.248846000154628 1.1613459126978665 1.20393564678242 1.2961950936423396 1.1717329445822575 1.687656849618572 1.0691853087569285 1.2592326569588967 1.5692651479398083 1.3877352355415122 2.0085208008579603 1.902753657391334 1.7446633197396477 1.4407017719768762 1.9935569561642577 1.9792514096558036 1.7050676167699985 1.5238107086287986 1.1158911189258989 1.1936094476885897 0.98883995873762776 0.74203507465039609 1.3422807302673783 1.3199887385308766 1.262169252627505 1.2745341719252263 1.3397524245701433 1.1574099177409451 1.4015854298574082 1.7059280547898006 1.5246906159606608 1.5759004832480161 1.3356711420083034 2.0147424384419086 1.9097224030528244 1.4473370505324596 1.7505514118682903 1.9947510435093825 1.9804453197960021 2.4477302639581695 2.4481438340294996 2.4780047114914465 2.4661225586692574 2.4668696930834231 2.0904033100873631 2.1091295704919473 1.9156826713348278 2.095745058381155 2.1141375635563571 1.8293325559758662 2.0277873917042424 1.9106852804195484 2.0184260044139446 1.6177752355026573 1.4259082803781549 1.2448575536749746 1.4771181281810288 1.4419896414557458 1.7452039441178129 1.2649886013432841 1.1774884525936453 1.4404304888072821 1.0749411022914266 0.74416148159348228 0.95137869978724066 1.0092595372993682 1.0421761163913592 1.0717953669412141 1.2644640290387701 1.1769640018160306 1.3122763344768509 1.2142616934765207 1.4787758495205601 1.4244805306746784 1.8823181645222375 1.5216450187125581 1.8280228361000608 2.008518295353952 1.9708920001107488 1.6851535939036055 1.6729492482620907 1.9065329350082416 1.9065328935974597 1.8292300862817503 1.9720992424998602 2.0085183762684542 1.7394489292032391 1.978845675438808 1.8835372553957443 2.1477283229218718 2.0570140709391289 2.3761063786085277 2.4349473872865475 2.649686728458398 2.3432980720887437 2.3136254019976841 2.3432227473565677 2.4357449516181564 2.5655043166742413 2.9973642137387797 2.6815600128638644 2.6357449425926678 2.8919105513832948 2.9999999638649815 2.9609969900017443 3.0484969542368638 2.7623652255339382 2.7048314404051013 2.6129206435646948 2.357722365926552 2.5800038610875484 2.2670833305405189 2.540676879242711 2.1670833570716503 1.7216450373976802 1.8114262345598255 1.9720993893629368 1.9000000109739581 2.151312054973114 2.3183953883180788 2.2277564823947538 2.1513122212503819 2.3736550346006537 2.4894261991880651 2.2670833467245153 2.4129819234146326 2.4500992789794087 2.7375379191257028 2.737599180192956 2.8256473095608774 2.6129819134967152 2.4064437553887958 2.6287864963156831 2.8560969123835047 2.4989661191852859 2.87011275727916 2.800965255127275 2.9252443385475915 3.1221051822337942 3.3035620834696142 3.1383418463272648 3.2300151078821502 3.4147034578622266 3.4115146228485611 3.5089247342296672 3.7227928516845235 3.200835445233666 2.7952150483713831 2.5984294943683355 2.8877499772257673 2.7539404889852284 2.9458390363686155 2.8120296815514951 2.7355598427192227 2.1610162621649849 2.5168035375920672 2.3770892920005098 2.4065189058355552 1.9790885668675697 1.8784324923826765 2.4395703237257651 2.0703021589546244 2.267146763073649 2.5357587328931466 2.8038602462059155 2.7935341881513094 2.8634378004583163 2.8602828828414379 2.8464919274262108 2.8330108724069403 2.522278011146978 2.9868219179954654 3.0140937848663891 3.5290541617076157 3.2906859613095398 3.5614577624784798 3.4627411634421579 3.197101083463846 3.6173588901939944 3.5085341659011196 3.7329921068331724 3.8829988034084653 3.4673521920156736 3.679182037455015 3.6253758323805201 4.1942177943833361 3.536312953896068 3.6325132157254361 3.5236885524882697 3.3039353192869267 3.348803657867526 3.0905728424630183 3.0103261738361891 3.0457045193176251 3.0305501554365408 3.28878092424983 3.1702610231850912 2.9879184890828516 3.3691871372965285 3.3916728010083439 3.7534025956430774 3.588940455546088 3.9326154070811468 3.7355378187233206 3.4272106215552918 3.6469639916979775 3.6775142192593662 3.5889404651140548 3.7355378309184397 3.4251453918186905 3.6469640112167503 3.8355378226967214 4.1906390328132606 4.0999999839448638 4.2812781432167064 4.4812780903471729 3.9326154163209655 4.2646059248834565 4.4178011181467634 4.5970295194037272 4.5344733076738519 4.3552448231302714 4.2646057894692149 4.0440260200480527 3.9533870417759802 3.9533869592151749 4.0232544503980439 3.9326154388218173 3.8829989329851546 4.1942177239698442 3.7189608506265159 3.7064542059276984 3.6654023450835194 3.739732467280815 3.4815109114897815 3.6446308506367604 3.5635850515727641 3.6597852783641134 3.6105334824460247 3.7534026169907175 3.3887149831183883 3.1243802100650555 3.1201580348612712 3.1681958636702845 3.3671219662421574 2.9755272647803217 3.3896075621278863 3.346738396509422 3.0781813873882982 2.9999999894024105 2.6549932319798115 2.9223428664102569 2.933275292713037 2.8732144417200542 3.0178451769626458 2.8277976398784013 2.630078821459664 2.2406528905220622 2.6058648291526549 2.3835221098714934 2.6121239938164269 2.3568645288697825 2.2670833395329004 2.5792073230586565 2.8277364250321266 2.5402364774751289 2.4893649775622939 2.4129207126980279 2.2670833410959972 2.1670833542144652 1.7195798705951855 1.8102188884059003 1.9000000177789356 2.463792190578376 2.2415105472822785 2.061090432333081 2.0610903680778874 2.3179548490671609 2.0602327411381305 2.4077360591700065 1.9704515173004011 2.1525520374724847 2.0619131419737045 1.8588113281879235 1.5195798210460238 1.4132966536129978 1.4767106683007469 1.7681724398065031 1.8476276470599526 1.704758485682109 1.917633740680905 1.8098932674764678 2.2152707319959726 2.369296400552241 2.3661422586697007 2.2217005564708301 2.151694451787344 2.2731079972297623 2.6723330377466206 2.6691783645798197 2.3614150930636697 2.102803001513617 2.7635788627173117 2.6644511184514919 2.781028825348816 2.8801567696600081 3.2050020480916439 2.7187420727115041 2.1368945360238842 2.4893751897721867 1.9692254483355587 1.8730370446775291 2.0454332023524051 2.4301207389268251 2.3683868608666554 2.4986254405913839 2.7200845925160664 2.4978029485709623 2.5001267349114249 2.8469313915663799 2.7906389143417809 2.9999999300658002 2.8597253387654051 2.6129206609720854 2.9169455164418983 2.9160177926348467 3.1128787531583679 3.4758964540855395 3.2943969447297015 3.093367123865697 3.0984637250879761 3.1942056764451499 3.1993021760986382 3.4550022631539083 3.6290917598762897 3.4424956192591538 3.6415984496504481 3.9814683141534495 4.0553187421397974 4.0044625975723784 4.1243373969948838 4.0881561316542445 3.7749885284955029 3.6912950235598267 3.4713000247315287 3.6455057970368476 3.4017981860605695 3.3858672582708809 3.7390624292160326 3.5858672278427126 3.3870792992425001 3.3167808725053334 3.5167808377979575 3.1297015611807808 3.0606151861041404 3.1528366098755991 2.9731151716385145 3.0859939362821653 2.999820608653367 2.7960529676768719 3.1330291374204546 2.9560282866710086 2.8398453435286481 2.5307769219145246 2.2422776102274762 2.7691959661306735 2.677684488104318 2.7911076090649667 2.4985700440640062 2.9404514564903392 3.2357693926196802 3.0558128902566586 3.3154709682746906 3.5354659667512194 3.6209862691885619 3.7256202028134613 3.3511306500793667 3.5113778276465522 3.6844287123040016 3.7890627110938584 3.6988190082254939 3.7692071003549215 4.2386743648089027 4.0989060755123763 4.1187616309683133 4.0958051619544671 3.8712586643346123 3.6397243751687025 3.3469932866501866 3.0805014561941504 3.3338228467293445 3.0673310331085033 3.3870180937904841 2.9461968448479099 3.5285202153220667 3.3298899570811282 3.5693362618259052 3.8856490048335304 3.8059889583064299 3.6626181403366602 3.715350069410071 3.4403366115574805 3.3496362306337191 3.1527753697630194 3.4199347084790741 3.6422775660962401 3.7329166365984126 3.5719791287637972 3.8329165762524537 3.5870792971002761 3.7329167229390259 3.5106351484431646 3.8059888948113687 4.2783550487836592 4.0648616537259459 4.1000000249339337 4.1885739717404569 4.1546425704633858 4.4783550483905774 4.3546425635219812 4.2077310355361268 4.0648619756788724 4.208937721141977 4.0660686326741331 4.4089377713167597 4.2818814572001056 4.407730785418873 4.4620259041536734 4.7857384121605424 4.8639198241472998 4.9992319831112084 5.256362810781428 4.6829806057911263 4.5837754912886846 4.6534065395459114 4.7486618185789347 4.6829804136318236 4.6534060640197747 4.7190875775763947 4.4713868651663704 4.0530959221517975 4.1751933593153661 4.0327197414063543 4.0534913303545128 4.4826291534767666 4.2903800922130344 4.3092328900360499 4.500961280585229 4.5018772514543031 4.6859616207337993 5.000727881123173 4.7537082351102597 4.7344601827524944 4.6667135163816926 5.0136885983703436 4.8866372979439072 4.8063905954999289 4.6074088248562202 4.6667134377212376 4.6859615420424987 5.0007277874934832 5.2604932164271432 5.0684744152373815 5.2960309072148428 5.3513222508820366 5.123765643599647 5.5710756159963566 5.5066133243557562 5.0643439749507335 5.2919006416899492 5.5710756239185484 5.3492569705121742 4.9986626139121419 5.1217002666857647 5.1790567369958431 5.0007279274091543 4.9986627096013008 5.5710756210476147 5.1237656277279111 5.3513221922680669 5.2939657683930612 5.0664092627909776 4.9986624980378984 4.6707212551112791 5.2584279792097579 4.6535386268850205 4.7384679707943107 4.6727866309095765 4.719219978430286 4.8742459259577906 5.0116233014675018 4.5818426432433208 4.6411471842971999 4.2440313484876606 4.4591279884562205 4.2903800278454884 4.4826290908223481 3.9664067840094495 3.987178225059127 3.974523938352327 4.3370303377891037 4.4133115769963176 4.2206671547715091 3.6283614833098583 3.4792437144648476 3.69467434345386 3.9645302593163052 3.8154123801541151 3.5455566424309821 3.8991059459680395 3.9102509841616864 4.4123954014041793 4.471425364361421 4.3361525241387495 4.2879927071235606 4.4694921404913952 4.1347974435137651 4.1236525967916222 3.8064922775184016 4.1891961208826425 4.1815994762667295 3.8415748574970308 3.7220006143686817 3.6051398913577462 3.7013021916201039 3.7132282060277588 3.9076543253014258 3.6196625496575185 3.0344861523281561 3.2848178350639619 3.0561464172969854 2.9686798455035812 3.0899398845977579 3.4660212049146519 3.6681641817621431 3.5424144210465487 3.6898242710559113 3.9511557862720377 3.6218501142873509 3.316357257356354 3.9151553030086936 3.6212578810565188 3.8028570414478833 3.7718565189421414 3.9125587247936613 4.2054343216571262 4.1092720456967351 4.4300538676286569 4.7960645103597557 4.4934681140877952 4.4412379273089018 4.3010647380406608 4.2412380348675498 4.0880427956227745 4.1778236713142363 4.4804202406554454 4.0880425815079304 4.3778237321427422 4.0871845872809471 4.2300537873370647 4.1906390988405384 4.2804202357270702 4.099999996082353 3.7417464597832937 3.5194034430021208 3.9088299855777251 3.6357737938545358 3.8303200245586622 3.4134310975860274 3.1285275345626924 3.4220000174520355 3.644342923483038 3.7329166822340105 3.8329165829963445 3.7329166696934339 3.5870792926325614 3.5106351089319796 3.4925329341536639 3.4160887265867825 3.3870793175882987 3.2925330422735226 3.7148145483500414 3.5616193362423929 3.3131684046858338 3.3616193622155746 3.1054536043821925 3.0363673138940617 2.9488672936163085 3.1285886858128751 2.9313335021150451 3.1087815710869129 3.3936851422884655 2.7713580852838211 2.5898585273742101 2.2525315683018095 2.5579852409572945 2.840155428259556 2.6775709316986993 2.7687489388448374 2.9461969763042841 3.4996575543778854 3.0908277682157816 3.3593848474559871 3.5817278819374838 3.3890833521959212 3.07765720527913 3.3462142298901534 3.0000000230000614 2.9218186402987687 2.9711940332636839 2.6544689638297863 2.469623427251697 2.2478047853269203 2.6124925909898842 2.3906739879917271 2.6115997814307272 2.8318044631056218 3.0244731506816138 2.8798422856727557 3.2064923226079243 3.1961661287643022 3.6020455151109965 3.7552408834931326 3.1896520931148977 3.2803195019973082 3.2466853070260484 3.2321627614795467 2.9641702403814527 2.9006661364559005 2.9009995969944002 2.6503343503416819 2.9638367665715735 2.386028571265971 2.3909522704089503 2.1902685526284369 2.3331377670998878 2.735385457272363 2.2696302628381759 1.9735657777283853 2.2337773688303781 1.9592600757932386 1.7609939894848736 1.8373273532943839 1.8235502379827713 1.9141892357359147 2.0673844762813331 1.9141893160020746 1.9767454613991953 2.0673845109440028 1.5187218955175501 1.465526630153301 1.4029703511111198 1.9735852317380074 2.3906382074910071 1.9592795042872506 2.2334633760783564 2.1904013671373348 2.3332706909042407 2.735051946721736 2.2696496215603204 2.247804685645117 2.3906738113679049 2.9608676139398895 2.4675580776366197 2.7374784712416158 2.7794550552176762 2.8563393377151569 2.9896738769157301 2.8297391956801721 2.814362824658748 3.0120817204582027 2.6095345613246916 2.4095345464221634 2.4842155867551936 2.2644621887543428 2.3224857972055508 2.5443044823396268 2.5422391519883516 2.4115997841637364 2.4862808194230768 2.2644621897905397 2.0673845193403473 1.8093609309874141 1.8999999930946647 1.7187218746407034 2.1644621812122393 
</DataArray>
<DataArray type="Float64" Name="velocity_p0" NumberOfComponents="3" format="ascii">