<?xml version="1.0"?>
<VTKFile type="UnstructuredGrid" version="0.1" byte_order="LittleEndian">
<UnstructuredGrid>
<Piece NumberOfPoints="132" NumberOfCells="561">
<Points>
<DataArray type="Float64" NumberOfComponents="3" format="ascii">
0.29999999999999999 0.29999999999999999 0.29999999999999999 0.44017709017169532 0.29999999999999999 0.4153179458795806 0.29999999999999999 0.48318556135515162 0.49289421059401262 0.49050796346211423 0.49050796346211412 0.53575489753167371 0.6328895234140115 0.29999999999999999 0.48373465766756768 0.76666666666710614 0.51666666666689809 0.29999999999999999 0.55000000000138782 0.29999999999999999 0.29999999999999999 0.65808649054367507 0.29999999999999999 0.65731695810840818 0.29999999999999999 0.29999999999999999 0.63333333333287078 0.29999999999999999 0.55942523566726876 0.77901373995328937 0.29999999999999999 0.79973969045868643 0.72148052415321096 0.64734297155788467 0.64734297155788456 0.68007193339568561 0.66338012466943719 0.66338012466943719 0.47436914255596352 0.55000000000034699 0.55000000000034699 0.29999999999999999 0.50833333333354869 0.78611111111159626 0.29999999999999999 0.29999999999999999 0.55000000000138782 0.29999999999999999 0.29999999999999999 0.68334125016094471 0.51769283950284561 0.29999999999999999 0.80000000000208171 0.29999999999999999 0.42500000000002902 0.92500000000106974 0.29999999999999999 0.29999999999999999 0.91713478026254458 0.515477800386417 0.29999999999999999 1.0383218619182479 0.77887815939589278 0.47378542296751303 1.126214577032487 0.79943832659174063 0.29999999999999999 1.3 0.63333333333287078 0.29999999999999999 1.3 0.29999999999999999 0.53380593066695659 1.3 0.52763868066572572 0.29999999999999999 1.050000000001388 0.29999999999999999 0.29999999999999999 1.116577522381889 0.49258079463750259 0.48941740698620539 1.110582593013794 0.52943838323294878 0.63333333333287078 1.3 0.29999999999999999 0.59230702548387149 1.3 0.79915727834513728 0.64623716007280618 0.95376283992719391 0.67279104622183628 0.6630872756080245 0.93691272439197559 0.45529725726105441 0.55000000000052052 1.04999999999948 0.29999999999999999 0.80000000000000004 0.80000000000000004 0.29999999999999999 0.94386539362758304 0.94386539362758304 0.48267994771636202 0.80000000000000004 0.80000000000000004 0.55000000000138782 0.94962482387146985 0.94962482387146985 0.69040060140807313 0.82144515332728019 1.3 0.55855057168503497 0.80000000000010607 1.101851851851857 0.29999999999999999 0.96666666666689793 1.3 0.29999999999999999 1.1074846811518739 1.3 0.48308270852754293 1.05 1.05 0.29999999999999999 1.3 1.107433437541429 0.45866029819623949 1.3 1.3 0.29999999999999999 1.20671228346794 1.20671228346794 0.4379707072862386 1.3 1.3 0.55000000000138782 1.084689955311255 1.3 0.68344451793678118 1.3 1.0846515226034219 0.67524522364820161 1.128201766785264 1.128201766785264 0.63987128336167343 1.3 0.87869467201483076 0.79740096320195974 1.3 0.82109925895677904 0.55220701282047246 1.101851851851857 0.80000000000010607 0.29999999999999999 1.3 0.96666666666689793 0.29999999999999999 1.3 0.63333333333287078 0.29999999999999999 1.3 0.53402773851542173 0.52672412172020378 1.3 0.29999999999999999 0.29999999999999999 1.050000000001388 0.29999999999999999 0.29999999999999999 1.1179548638609591 0.29999999999999999 0.5000842026419009 1.10950783136577 0.49049216863422967 0.52938046275200257 0.80000000000208171 0.29999999999999999 0.29999999999999999 0.89946262415311429 0.29999999999999999 0.54376293106500784 1.04999999999948 0.55000000000052052 0.29999999999999999 0.93663195698834523 0.66336804301165486 0.45550446774987841 0.95273184604798966 0.64726815395201043 0.67440304536896234 1.3 0.29999999999999999 0.63333333333287078 1.3 0.59431647871786153 0.79864164511828573 1.0663240791206989 0.29999999999999999 0.80686858875028922 1.1259929160726481 0.4740070839273518 0.80007567030702231 1.3 0.29999999999999999 0.96666666666689793 0.80871874094009399 0.47081875801086431 0.97384375333786011 0.80486556702629131 0.29999999999999999 0.84407895258714649 0.95369913153074115 0.64630086846925894 0.92568103275144431 0.93677525854123056 0.66322474145876953 1.144510230352068 1.04999999999948 0.55000000000052052 1.3 0.80000000000208171 0.29999999999999999 1.3 0.92853900728642258 0.29999999999999999 1.082921855575766 0.92500000000106963 0.42500000000005778 1.3 1.3 0.53418142128248103 1.071770478619287 1.3 0.29999999999999999 1.3 1.10961530752966 0.49038469247034028 1.0706456948859391 1.144315078188032 0.29999999999999999 1.105305392576877 1.050000000001388 0.29999999999999999 1.3 1.3 0.63333333333287078 1.3 1.101851851851857 0.80000000000010596 1.3 1.3 0.96666666666689793 1.3 1.3 0.82165911147292847 1.0381924947867081 1.129667301615825 1.129667301615825 0.96314722950171561 1.3 1.084842381055231 0.91622084763543177 1.3 1.3 0.80000000000208171 1.084825387300715 1.3 0.92534554874786246 1.206956539272743 1.206956539272743 1.162532378192201 1.3 1.3 1.050000000001388 1.3 1.3 1.3 1.3 1.1075335323371569 1.1164384157474909 1.107505749636758 1.3 1.141001462604448 0.80000000000010607 1.101851851851857 1.3 0.96666666666689793 1.3 1.3 1.05 1.05 1.3 0.87845020582701128 1.3 0.80148844500037175 0.82146773497445313 1.3 1.0446654207823729 1.042910924108138 1.042910924108138 0.80018223961585733 0.94997165237655057 0.94997165237655057 0.90767432341955356 0.80000000000000004 0.80000000000000004 0.80000000000208171 0.80000000000000004 0.80000000000000004 1.050000000001388 0.94410704207210827 0.94410704207210827 1.117465843976946 0.80000000000000004 0.80000000000000004 1.3 0.55000000000052052 1.04999999999948 1.3 0.66309141712208719 0.93690858287791279 1.142574710333826 0.64630086846925894 0.95369913153074115 0.92568103275144431 0.63333333333287078 1.3 1.3 0.29999999999999999 1.071945448277851 1.0656234358911449 0.53388797731815241 1.3 1.0727022865156219 0.29999999999999999 1.3 1.3 0.4880268952664984 1.111973104733502 1.0670344771113689 0.29999999999999999 1.3 0.96666666666689793 0.29999999999999999 0.96666666666689793 1.3 0.29999999999999999 0.63333333333287078 1.3 0.49814814814805819 0.79999999999990767 1.3 0.55000000000034699 0.55000000000034699 1.3 0.66338730294915171 0.6633873029491516 1.125714346060497 0.64739142494518331 0.6473914249451832 0.92049161476206087 0.29999999999999999 0.79982455042554279 1.003682679215997 0.4740744197726488 0.4740744197726488 0.80000000000149885 0.29999999999999999 0.29999999999999999 0.96666666666689793 0.56728952009182576 0.29999999999999999 0.82602541207551239 0.64313733548962504 0.29999999999999999 1.081194480547395 0.78611111111159626 0.50833333333360964 1.3 0.55000000000138782 0.29999999999999999 1.3 0.29999999999999999 0.29999999999999999 1.3 0.44188505885092583 0.29999999999999999 1.1788369104895029 0.29999999999999999 0.52784427214069174 1.0657205490637081 0.49051334717267442 0.49051334717267447 1.064307718931256 
</DataArray>
</Points>
<Cells>
<DataArray type="UInt32" Name="connectivity" format="ascii">
15 2 0 13 2 3 0 13 0 8 3 0 3 13 3 2 0 8 15 3 2 13 13 1 3 0 0 3 8 1 13 1 0 6 4 8 3 1 13 1 4 3 13 1 6 4 59 5 6 4 12 5 60 4 5 13 6 4 7 12 60 4 12 13 4 3 3 12 7 4 12 4 13 5 59 5 4 60 7 70 11 124 70 7 11 63 3 12 11 7 124 3 11 7 12 63 7 60 124 3 122 11 3 2 8 9 124 3 8 122 124 3 7 8 4 8 7 3 122 11 3 122 3 8 8 123 122 9 3 8 122 9 3 11 9 122 3 11 16 9 11 3 16 12 11 10 16 9 10 11 120 122 11 10 9 122 2 3 16 9 10 11 16 30 11 35 12 30 12 7 63 11 102 35 11 102 11 63 120 12 35 11 63 30 11 16 12 11 35 12 11 12 3 12 33 5 13 33 12 35 13 33 14 12 33 31 14 12 12 33 62 5 13 3 12 33 13 12 16 13 14 12 3 15 16 13 16 19 12 14 15 16 14 17 16 15 14 13 16 3 13 12 3 15 2 16 19 16 17 14 30 19 27 31 19 18 17 25 18 32 25 27 18 19 17 14 19 31 12 14 19 18 31 14 32 18 14 31 18 19 31 27 19 30 16 12 18 19 26 25 32 18 31 27 19 18 26 27 19 20 27 26 19 10 16 30 30 10 108 20 10 19 20 30 30 19 20 27 21 30 108 20 21 114 29 22 22 21 114 20 21 22 29 24 20 22 27 26 22 21 114 21 30 20 27 22 21 27 24 30 21 27 27 21 29 24 21 22 27 20 22 27 21 23 32 27 26 22 23 27 26 22 27 23 24 27 23 24 32 23 32 27 23 27 22 23 28 24 32 25 32 23 26 25 32 26 27 18 25 26 27 38 28 32 27 37 38 31 27 28 38 24 27 38 37 24 27 37 38 24 28 28 27 24 32 30 21 29 27 37 27 29 24 30 98 29 108 30 98 37 29 37 30 29 27 21 30 29 108 30 37 31 27 11 10 108 30 102 30 35 102 108 30 30 101 108 36 11 102 35 30 102 30 108 36 108 21 30 30 35 36 102 102 11 108 30 27 31 30 35 30 31 33 38 32 31 30 19 31 12 37 30 31 34 30 35 31 34 31 38 32 27 33 35 31 30 35 12 31 33 32 14 31 33 35 31 12 32 31 27 33 31 32 41 48 34 33 34 35 35 33 31 34 38 33 41 34 33 38 31 34 33 34 51 41 33 62 51 34 35 62 33 34 33 41 34 98 101 30 36 35 30 36 34 102 35 36 63 50 34 36 63 35 36 34 63 36 101 49 35 34 36 30 37 36 34 63 102 101 36 102 36 101 36 48 100 101 36 100 36 34 48 48 98 37 36 101 98 100 36 98 30 37 36 37 48 36 34 100 98 48 36 48 46 40 37 98 46 100 48 98 46 48 37 37 40 34 39 48 37 40 34 38 37 39 28 41 38 34 39 40 41 34 39 38 37 31 34 38 37 34 39 44 48 41 42 48 41 40 44 44 52 41 43 40 44 43 45 52 44 42 43 40 39 43 44 44 45 42 43 48 34 41 42 43 45 44 41 39 44 43 41 48 40 34 41 44 48 41 40 44 39 52 44 41 42 43 44 41 48 44 45 42 45 48 44 48 40 45 44 48 47 87 100 88 48 45 88 47 87 48 47 88 45 48 48 46 86 88 100 46 86 48 46 48 45 88 48 46 45 40 47 48 45 42 47 49 87 100 49 47 48 100 34 50 48 36 50 36 49 48 47 50 49 48 49 36 101 100 50 47 42 48 50 63 49 36 36 49 48 100 34 52 41 42 50 52 51 34 50 52 53 51 34 52 51 41 50 52 34 42 62 50 51 34 50 34 48 42 54 50 53 51 53 51 61 58 62 50 58 51 50 54 58 51 54 53 61 58 54 51 53 58 55 58 57 64 55 64 58 55 58 61 64 54 55 58 53 54 61 55 56 58 55 61 54 61 55 58 56 58 57 55 60 5 62 61 59 56 61 60 5 59 61 60 58 60 62 61 56 58 61 60 12 5 62 60 56 58 60 57 33 62 61 51 12 35 62 33 33 5 61 62 35 12 62 63 33 62 35 51 62 61 58 12 60 62 63 50 62 63 34 62 35 63 34 33 61 62 61 58 62 35 11 63 102 35 63 36 102 102 35 63 35 62 63 63 62 58 60 58 62 63 66 70 63 60 67 58 60 63 70 66 63 67 66 58 57 60 7 70 60 63 70 69 63 11 67 66 63 60 64 65 54 67 57 66 64 67 65 64 68 67 64 67 58 67 63 58 54 65 58 67 58 66 67 60 58 57 64 67 54 64 67 58 58 66 57 67 50 65 58 54 65 63 58 67 50 62 58 63 65 63 67 71 65 63 71 49 50 65 49 63 65 50 58 63 79 72 85 71 77 65 79 85 65 79 71 67 79 65 71 85 65 49 71 85 79 77 68 67 65 77 79 67 68 79 67 77 65 68 67 64 68 67 66 80 68 79 80 66 75 79 66 68 67 79 66 68 64 67 71 67 79 75 66 69 79 69 70 63 67 69 66 70 67 69 66 67 79 71 69 67 79 75 66 70 69 71 103 102 120 71 63 67 71 102 63 120 102 63 71 72 71 79 69 63 102 71 101 49 63 71 101 69 71 63 120 103 71 72 69 103 102 101 71 71 69 63 67 103 71 69 120 71 79 72 103 71 72 103 102 71 72 103 119 105 105 73 72 83 73 83 79 72 72 103 69 119 104 72 103 71 72 73 105 126 104 72 71 85 105 103 72 73 72 79 105 72 73 76 72 126 73 69 75 126 74 72 75 76 69 75 72 79 69 72 75 79 76 75 69 126 76 69 72 126 76 76 81 79 73 75 76 126 74 75 81 76 74 81 75 76 79 72 76 79 73 81 80 79 73 79 77 78 68 73 77 78 79 78 73 79 78 79 68 80 68 79 78 80 81 78 73 80 78 79 73 73 77 82 78 81 80 75 79 77 83 82 85 83 77 79 85 73 77 79 82 77 83 79 82 83 73 79 82 72 83 79 85 85 104 84 93 85 83 82 84 104 83 72 85 104 97 84 93 83 104 84 85 97 104 84 83 104 85 86 93 85 49 101 86 86 85 87 93 86 49 101 100 104 85 101 86 85 49 71 101 49 86 87 100 85 49 86 87 88 48 87 86 91 86 87 93 86 100 48 88 86 48 86 48 87 100 46 100 86 89 46 89 86 88 91 89 86 94 89 91 86 88 91 86 88 91 88 87 86 86 97 93 90 97 104 86 93 91 90 86 86 91 90 93 97 90 96 92 97 104 94 86 92 97 90 84 90 97 94 86 92 90 91 90 91 86 94 91 90 92 94 97 86 90 92 84 90 93 91 92 90 93 92 90 96 94 92 97 90 97 84 93 90 90 97 96 94 95 99 104 107 97 95 96 104 104 99 94 86 97 96 94 104 96 99 94 104 96 95 99 104 96 95 109 99 46 98 100 89 98 101 100 86 98 89 99 86 101 98 108 99 101 98 99 86 98 100 89 86 99 101 86 104 99 89 94 86 104 85 71 101 104 103 101 71 108 101 104 103 101 108 104 99 101 102 108 36 101 86 104 101 100 86 103 102 101 103 101 104 97 104 86 105 104 97 83 104 105 72 83 105 103 104 105 104 72 103 95 105 104 97 95 105 107 104 104 105 107 103 105 104 97 108 104 107 103 99 108 104 107 107 105 119 103 119 107 103 108 107 105 117 119 105 95 107 106 105 107 117 106 105 106 107 106 113 107 105 107 103 101 98 30 108 107 121 108 119 102 120 103 108 103 107 108 103 108 102 102 101 108 103 108 107 113 99 108 107 113 108 99 29 113 108 21 113 29 99 111 29 113 108 98 29 99 111 109 106 113 95 107 106 113 99 95 109 111 95 109 111 113 99 95 113 107 109 95 106 113 95 99 113 111 110 106 112 115 112 109 106 111 112 111 106 113 112 113 106 112 114 111 113 113 106 112 110 112 114 113 114 113 112 110 106 113 115 110 113 21 20 110 21 113 20 108 114 21 113 108 113 21 21 111 113 29 114 21 110 20 21 113 114 110 21 114 113 111 114 21 29 111 10 121 108 20 121 113 20 110 113 107 121 108 113 121 20 108 10 120 108 121 107 113 117 106 113 117 115 110 117 113 115 106 113 107 117 121 113 121 117 110 107 121 119 117 117 121 115 110 121 117 115 116 121 130 117 116 118 131 130 116 121 131 119 117 130 131 117 116 131 118 117 116 121 131 117 130 72 119 126 105 119 118 126 105 72 69 126 119 105 118 117 119 131 118 119 117 105 119 118 105 103 119 118 119 131 11 69 63 120 69 103 120 119 69 11 122 120 121 120 108 119 120 119 103 108 10 11 108 120 11 102 108 120 131 69 120 119 120 131 119 103 120 119 102 11 120 103 102 120 11 122 120 131 120 9 121 120 10 9 121 10 120 9 122 131 121 9 130 131 120 121 119 130 131 122 9 120 131 9 122 123 131 124 122 120 131 122 124 122 123 131 122 131 120 8 123 122 8 123 124 122 123 131 125 124 123 130 122 9 131 130 122 123 11 69 122 124 70 69 11 124 69 70 125 124 131 69 125 124 131 69 124 120 69 120 122 124 75 69 70 125 118 119 126 125 118 131 125 127 126 69 74 125 75 69 125 74 127 126 74 125 131 69 119 125 118 131 119 125 118 127 125 126 119 69 126 125 128 118 131 131 118 130 128 128 131 123 130 118 116 128 123 129 125 131 131 130 123 128 128 129 131 118 118 129 131 127 129 128 127 118 123 129 131 128 129 131 127 125 
</DataArray>
<DataArray type="UInt32" Name="offsets" format="ascii">
4 8 11 14 18 22 26 30 34 38 42 46 50 54 58 62 66 70 74 78 82 86 90 94 98 102 106 110 114 118 121 124 128 132 136 140 144 148 152 156 160 164 168 172 175 179 183 187 190 193 197 200 204 208 212 215 218 222 226 230 234 238 242 246 250 254 258 262 266 270 274 278 282 286 290 294 298 302 306 310 314 318 322 326 330 334 338 341 345 349 352 356 360 363 367 371 375 379 382 385 389 393 397 401 405 409 413 417 421 425 429 433 437 441 445 449 453 457 460 463 467 471 475 478 482 486 489 492 496 500 504 508 512 515 519 523 527 530 533 536 539 543 547 551 555 559 563 566 570 574 577 581 585 589 592 596 600 603 606 609 612 616 620 624 628 632 636 640 644 648 652 656 660 664 668 672 676 680 684 688 692 696 700 704 707 711 715 718 722 726 729 733 736 740 744 747 751 755 759 763 767 771 775 779 783 787 791 795 799 803 807 811 815 819 823 827 831 835 839 843 847 851 855 859 863 867 870 873 877 881 885 889 893 897 901 905 909 913 917 921 925 929 933 937 940 944 948 952 956 959 962 966 970 973 976 979 983 987 991 995 999 1003 1007 1011 1015 1019 1023 1026 1029 1033 1037 1041 1045 1049 1053 1057 1061 1065 1069 1073 1077 1081 1085 1089 1093 1097 1101 1105 1108 1112 1115 1119 1123 1127 1131 1134 1138 1142 1146 1150 1154 1158 1162 1165 1169 1172 1176 1180 1184 1188 1192 1196 1200 1204 1207 1210 1213 1217 1221 1225 1229 1233 1237 1241 1244 1247 1250 1254 1258 1262 1266 1270 1274 1278 1282 1286 1290 1294 1298 1302 1306 1310 1313 1316 1320 1324 1328 1332 1336 1340 1344 1348 1352 1356 1360 1364 1368 1372 1376 1380 1384 1388 1392 1396 1400 1404 1408 1412 1416 1420 1424 1427 1430 1434 1438 1442 1446 1450 1453 1457 1461 1465 1468 1472 1476 1480 1484 1488 1491 1495 1499 1502 1506 1510 1514 1517 1521 1525 1529 1533 1537 1541 1545 1549 1553 1557 1561 1565 1569 1573 1577 1581 1585 1589 1593 1597 1601 1605 1608 1611 1614 1617 1620 1624 1628 1631 1635 1639 1643 1647 1650 1654 1658 1662 1666 1670 1674 1678 1681 1684 1687 1691 1695 1699 1702 1705 1709 1712 1716 1720 1724 1728 1732 1736 1740 1744 1748 1752 1756 1760 1764 1768 1772 1775 1779 1783 1786 1790 1794 1798 1802 1805 1808 1812 1816 1820 1824 1828 1832 1836 1840 1844 1848 1852 1856 1860 1864 1868 1872 1876 1880 1884 1888 1892 1896 1900 1904 1908 1912 1916 1920 1924 1927 1930 1933 1937 1941 1945 1949 1953 1957 1961 1965 1968 1971 1974 1977 1980 1984 1988 1992 1996 2000 2004 2008 2012 2016 2019 2022 2025 2029 2033 2037 2041 2045 2049 2053 2057 2061 2065 2069 2073 2077 2081 2085 2089 2093 2097 2101 2105 2108 2112 2115 2119 2123 2127 2131 2135 2139 2143 2147 
</DataArray>
<DataArray type="UInt32" Name="types" format="ascii">
10 10 5 5 10 10 10 10 10 10 10 10 10 10 10 10 10 10 10 10 10 10 10 10 10 10 10 10 10 10 5 5 10 10 10 10 10 10 10 10 10 10 10 10 5 10 10 10 5 5 10 5 10 10 10 5 5 10 10 10 10 10 10 10 10 10 10 10 10 10 10 10 10 10 10 10 10 10 10 10 10 10 10 10 10 10 10 5 10 10 5 10 10 5 10 10 10 10 5 5 10 10 10 10 10 10 10 10 10 10 10 10 10 10 10 10 10 10 5 5 10 10 10 5 10 10 5 5 10 10 10 10 10 5 10 10 10 5 5 5 5 10 10 10 10 10 10 5 10 10 5 10 10 10 5 10 10 5 5 5 5 10 10 10 10 10 10 10 10 10 10 10 10 10 10 10 10 10 10 10 10 10 10 10 5 10 10 5 10 10 5 10 5 10 10 5 10 10 10 10 10 10 10 10 10 10 10 10 10 10 10 10 10 10 10 10 10 10 10 10 10 10 10 10 10 10 5 5 10 10 10 10 10 10 10 10 10 10 10 10 10 10 10 10 5 10 10 10 10 5 5 10 10 5 5 5 10 10 10 10 10 10 10 10 10 10 10 5 5 10 10 10 10 10 10 10 10 10 10 10 10 10 10 10 10 10 10 10 5 10 5 10 10 10 10 5 10 10 10 10 10 10 10 5 10 5 10 10 10 10 10 10 10 10 5 5 5 10 10 10 10 10 10 10 5 5 5 10 10 10 10 10 10 10 10 10 10 10 10 10 10 10 5 5 10 10 10 10 10 10 10 10 10 10 10 10 10 10 10 10 10 10 10 10 10 10 10 10 10 10 10 5 5 10 10 10 10 10 5 10 10 10 5 10 10 10 10 10 5 10 10 5 10 10 10 5 10 10 10 10 10 10 10 10 10 10 10 10 10 10 10 10 10 10 10 10 10 10 5 5 5 5 5 10 10 5 10 10 10 10 5 10 10 10 10 10 10 10 5 5 5 10 10 10 5 5 10 5 10 10 10 10 10 10 10 10 10 10 10 10 10 10 10 5 10 10 5 10 10 10 10 5 5 10 10 10 10 10 10 10 10 10 10 10 10 10 10 10 10 10 10 10 10 10 10 10 10 10 10 10 10 10 5 5 5 10 10 10 10 10 10 10 10 5 5 5 5 5 10 10 10 10 10 10 10 10 10 5 5 5 10 10 10 10 10 10 10 10 10 10 10 10 10 10 10 10 10 10 10 10 5 10 5 10 10 10 10 10 10 10 10 
</DataArray>
</Cells>
<CellData Scalars="pressure_p0,piezo_head_p0," Vectors="velocity_p0," Tensors="">
<DataArray type="Float64" Name="pressure_p0" format="ascii">
1.1031261060663251 1.0415095794224172 0.96161385291617307 1.0754928871938199 0.95890648287675639 1.0397375991864117 1.0736141861179966 0.98569690590515058 1.1253678595757415 0.94447321588544841 1.03601375517274 1.0828445941662153 1.1124825192748582 1.0524883835936729 1.1149993067387098 0.96702076498786149 1.0414111038391634 0.9665587701400149 1.0912237624684571 1.0611232328625548 0.80676392591920576 0.94194804896886331 0.95497813076579252 0.86304753766023623 1.0121760741585797 0.82914005894134213 0.83246098440006477 0.77820566444405048 0.81023205240202656 0.89154632932632516 0.78417454950656318 0.79072042824101629 0.62109012951475762 0.73423127493350793 0.68846970794451101 0.78380550009498828 0.86528005188242652 0.73402757419270825 0.5597343991294299 0.61576324842803942 0.85979445872531557 0.73749908990343527 0.80771556394608679 0.97785419526168949 0.83145563972367498 0.91228100850991267 0.99815653779834201 0.81327203355706246 0.91778147975206692 0.90381481594724455 1.1266873197144871 1.0367880282871131 1.1038264591618654 1.0586895372748435 1.111061009302508 1.0215455445932127 1.1013869316055835 1.0424152021399429 1.0318048959827728 0.98172486370780843 1.0960238618170108 1.0947147604653333 0.97781010345053976 0.98648477447755933 1.0388545259311566 0.85787679622335034 1.0969654919392484 1.0881384571195307 1.0949053490233311 0.99541571230980486 1.047088673674831 1.1074460952754042 0.97667089962535869 0.86709519627598375 1.0476222016896468 1.0382988818315506 0.97651270476662899 0.84749340918570171 0.80576463963506628 0.49823279947522336 0.70992759856855314 0.75210525743258627 0.42420201677772612 0.33263837708681115 0.39787015250311319 0.64729649733622718 0.81070661348359363 0.31103941995340312 0.60890096618831679 0.75329076883261026 0.68259075512954759 0.66861378976349872 0.64750224004600043 0.62992382723194984 1.0387104116897139 0.95271300370602574 0.93619126803649011 1.0260178222433298 1.0607911728796218 0.91728135318245763 1.0919055496498071 1.1020724889664282 1.0367696448709005 1.0386591550358037 1.0867915299360478 0.95847345292941855 1.0229486661736438 0.94465133802726964 1.0236580140439955 1.0228407288282901 0.58210123013506698 0.80587657603531704 0.38834256654693861 0.64098970424144963 0.71172684801949049 0.38141106585374768 0.83313587173160031 0.57187134635014791 0.81367309475756711 0.64365796845844314 0.51699974216275113 0.70494158704847443 0.55818057411333355 0.55588833546831229 0.69572753605731819 0.57211898400468841 0.85979647619637667 0.89818661746607964 1.1068213533925426 0.88189399810292435 0.85788688007384273 0.86830137708800215 1.0355357244147039 1.0358845341133718 0.87632374161934556 1.1081621758070053 0.98812710728335529 0.99982538351833594 1.0998771634686639 1.0238628778521106 1.0412140313185834 0.98324131980799501 1.1018810881539194 1.0545863730791596 1.1516220017048808 1.1673304186567335 1.171545938491775 1.1068577086621314 0.55876984104943561 0.79814292559862932 0.84750278607963581 1.2572126963218404 1.2049315316287312 1.2751251697304373 0.93953948086565897 0.78803819325282909 1.1844764197392983 0.73982239014604279 0.8514801833913983 0.75234634223082253 0.9264882809237841 0.721300176798509 0.52429360494519162 0.68661681131056151 0.81414806299048426 0.62847972108490824 0.84590471778506426 0.64039273765825966 0.7495101616671096 0.98523101854997885 0.88786564177872362 1.0844297170194908 1.1032188507607059 1.0560723754695887 0.9775917887514407 1.029920130499177 1.0828315335143659 0.97984689500076461 1.1275639402947129 1.0097832073316446 1.0863752630975516 1.0718743309895584 1.0242443885832024 1.1138114219156026 1.0336970778168733 1.1176453622692817 0.96391514270944501 1.0342942089298259 1.0682607192948548 1.1189582600531662 1.1129254036844398 0.99411402661838733 0.96501587505758246 0.92132002231318755 1.3693271084625982 0.88195125165999866 1.4481258528011518 0.95397561652367391 0.62543149895466532 0.59865033502248499 0.77395673300523038 0.85503781155847647 0.97744644980671014 1.5873107536289295 1.3597531809112444 1.2306588153289995 1.3392436674209152 1.3285022639475115 1.2764744073040446 1.0243771567040498 1.3859114823350347 1.3227925186960792 1.1206959542050963 1.1358480935392208 1.1221306078568762 1.1431769201171724 1.0935170926301403 1.1817261651011204 1.1156124761261765 1.1031077086420753 1.1811883694481682 1.2227630669491503 1.2844777605869957 1.241453318726224 1.2211082927417349 1.3766735887522337 1.5223533197303958 1.2479495222335251 1.5864149659157727 1.1515686515211252 1.153386691246244 1.2952773711870489 1.1701951126214765 1.119269131649675 1.1127366635632445 1.1153163412031337 1.1282861483184428 1.1259902599618221 1.0847018980585601 1.1139812472605648 1.1669776686186499 1.0787459470118097 1.137662018467422 1.0394493986685358 1.0690138643499698 1.2105420912627254 1.0653406669238887 1.2512809847099973 1.2035273429877336 1.1438754860086431 1.1921408460676723 0.95740898275185704 1.1810331425856331 0.91600979388352244 1.044300814019242 1.1608914339867289 1.1231407409402898 1.127223900405055 1.1925739146846019 1.2684711883460382 1.1942938874111673 0.95373024345644619 1.0025970427147282 1.2504077239796512 1.8969279141809823 1.7083885023919698 1.8550687669300778 1.4979755745502732 1.249130573214414 1.7104919613745417 1.3242258357234451 1.5139603306176899 1.7485851571329576 1.4486347024114035 1.65551116380714 1.573354588285155 1.3285190103930646 1.4928382671922225 1.5086844934336681 1.6504635714744518 1.5391631794210106 1.1279300817848152 1.6841594242167874 1.511306303205594 1.492460524402226 1.6398664987504068 1.6969095319459448 1.643393527743386 1.4557763507635502 1.7709215110937828 1.7131825595214676 1.7067995792864707 1.6368261003175286 1.6295515249844372 1.7932698794479409 1.1161191115192293 1.4226313116027911 1.1825680881199152 1.4013277500487933 1.3760370905055452 1.172361445148725 1.5599809085703771 0.79386453564337534 1.0925918173784277 0.90300326909162321 0.89587849798472163 0.9197605956630921 1.1739415462620046 1.2881570592149596 0.90306469428872183 0.7572479167648325 1.0169913374521253 1.0760318744897757 0.76992634291694173 0.81554035442450623 0.62297665882199404 0.68493474269485055 0.44187108724725405 0.30413760929016043 0.62774618721965747 0.62621253903228136 0.82206690296183149 0.27874725414135998 0.93914548806973541 0.35210965605902667 0.6803348455399163 0.29490500682951026 0.32390222034194288 0.7453226449403707 0.85147816518504538 1.002643366220942 0.9040563473301928 0.73014401191561085 0.56296922353803036 0.60178034438741757 0.4540515550212203 0.59856471214393969 1.0224291124263654 0.61692388565271428 1.1347837233440743 1.7542499750599463 1.2608578352561499 0.94527868551796601 1.5516728821051222 1.7358132699344728 1.1741044985641946 1.2954833427284456 1.1042733421720099 1.5776391384645867 1.1239978535166983 1.1735458453532526 1.107427782468186 0.9922509758193343 0.58714230955482738 0.90250434010838532 0.63392330438713596 0.42340354775687961 0.70397788512662252 0.41900105241216823 0.54192326575433336 0.29852426359810191 0.97349328839651406 1.3920914453713373 1.2907095639090747 1.2833202794040866 1.0201239689077506 1.3485188432957673 1.4199460657888736 1.6355862628826907 1.3921618951765111 0.87337789154347478 0.79413131084214017 0.84263202918050362 1.3407607269564163 0.50131670509933379 0.54587799371442092 0.43550888688690775 0.62112861944975684 0.86593559239927165 1.2887593410972844 0.58521422498220543 0.68153614526499939 0.55570711034437881 0.64637179494996633 0.18462398210658895 0.28260068160050611 0.21190757952398837 0.29230895345300462 0.31360348148220574 0.37638339581749086 0.29021663071387199 0.40391431861341492 0.25565964632711113 0.32803986046305111 0.22479423475434121 0.21019297023146563 0.35663316903386844 0.214382519109275 0.22087520427938304 0.18538526834661939 0.31472250088403303 0.22124001543917451 0.26755210797748652 0.22355630444605287 0.19703508711233458 0.50276646393205326 0.43228938125242233 0.15586348524503457 0.23269943672577498 0.23994642581798309 0.42532375210329809 0.30084487429828854 0.38719896621012617 1.0282078669160271 0.92515515107747071 0.32839656193637656 0.28797702868805825 0.49506995961789074 0.55180945357982636 0.68024707186954836 0.61365789457976461 0.49835555250553254 0.39824223133596259 0.29315328464753748 0.40955002788408085 0.33401520044375532 0.54988273403994692 0.18194067694299193 0.19824957446174704 0.23956744872625507 0.23563466605970809 0.27897823030302676 0.23667103741834145 0.20210606545647844 0.22660449887063006 0.158557993041023 0.1647329604394307 0.14393832065865231 0.19143964689069143 0.19541873428068041 0.30478779779001258 0.43701936176089007 0.16667203594231467 0.39348222972324598 0.39892500818386845 0.55993947901665453 0.41490241625716262 0.31408254708615774 0.16180662128062856 0.0091178083364347115 0.12015755883482465 -0.26139763226476737 0.060097050583983458 0.095953642271589715 0.15534746987710818 0.21981551672348626 0.11960968936686234 0.17972358371868297 0.14591708568183354 0.093189326197360825 0.049906113019651172 0.1608152767634469 0.019398821928161589 0.089822337587044998 -0.29972888174686813 -0.0983611540438631 -0.14408044666733089 -0.41215804375458626 -0.04159271226065317 -0.040123120324221107 0.16172498818687087 0.1785646726895552 0.3493456292698448 -0.097875635205898287 -0.1261342252314529 -0.21170384707763076 -0.24384513140982653 -0.24541314055105892 0.36498349829597609 -0.19973602929558343 0.1004115519367744 0.06156328763944606 0.34697425045138275 0.09682827875276262 -0.049635218241756832 0.065009714694187051 0.021270428514436602 -0.10879511083557232 0.074697498043419269 -0.24135400097167278 0.012351252788692974 -0.2235009757226627 0.016829842169800522 0.060969979975150523 2.9374713413527269e-05 0.084899783118347588 -0.012633157102770548 0.33803145485625663 0.24652233023833059 0.56075863267202208 0.14822896346437309 0.12185819700263467 0.21075469670923691 0.32007413035215737 0.26146842096691852 0.89051207854217629 0.66709807306627822 0.80259823146336828 0.24308084175596811 0.28379702691433029 0.49866226878110553 0.49777166811956808 0.63771602782302206 0.40493588070474357 0.4462178910915407 0.69194557090854425 0.58529108263667928 0.65659409272843627 0.26041542317168576 0.44466836836378154 0.52232329560536028 0.13492216260335971 0.18288782071491441 0.32647604531350194 0.39071586857040058 0.53060298662013994 0.66757932604697201 0.42123708523701797 0.49437467501523896 0.62881673397434246 0.65058466134457171 0.43372993241644586 0.42820381279841396 0.23425789187750018 0.799101712875667 0.89023232011029718 0.89814870406434899 0.65743237546904654 0.69242240396137122 0.74200937873182515 1.4103743726351681 0.36486581217341391 0.27074825132423552 0.65082797537726789 1.0469393504347415 0.27175712076075159 0.59733077218088149 0.4034238715288061 0.23875842834369843 0.61185216454560187 0.16445003289943919 -0.010698757679675932 0.10297928715907415 0.066645738134953419 0.14184736197940565 -0.17631619949200034 0.17117473827998386 0.22912534986957545 0.17470080871483823 0.020091133348612181 0.24288561722250201 
</DataArray>
<DataArray type="Float64" Name="piezo_head_p0" format="ascii">