<?xml version="1.0"?>
<VTKFile type="UnstructuredGrid" version="0.1" byte_order="LittleEndian">
<UnstructuredGrid>
<Piece NumberOfPoints="316" NumberOfCells="724">
<Points>
<DataArray type="Float64" NumberOfComponents="3" format="ascii">
0 0.69999999999999996 0 0.59999999999999998 0.69999999999999996 0 0 1.6319639930219929 0 0.68142292217753131 2.106313194182027 0 1.299999999998378 1.8499999999973351 0 1.243750000001385 0.69999999999999996 0 0.94999999999923723 1.2749999999987469 0 0 3.7000000000000002 0 0 3.1141786369756268 0 0.45714634023723411 3.4614941897304652 0 0.70993008501830757 2.9054181396964478 0 0 2.430303940964651 0 1.186467289461244 2.488259157846338 0 1.451787781083937 3.11022608666643 0 1.013301616169622 3.6128741719811099 0 2.08333333333292 3.599999999997022 0 2 3 0 1.649999999999066 2.4249999999984651 0 2.2687831884271348 2.397628317379688 0 2.8857059848027808 2.304389417342541 0 2.6000000000000818 2.8399999999999781 0 2.9420158813362729 3.5139475164392531 0 2.4236693135559251 3.5256579194055688 0 2.23284951060374 1.369095413116082 0 1.887500000003292 0.69999999999999996 0 1.626949751997165 1.3978044304614949 0 1.942890303101708 1.90249985684108 0 2.5341028426591712 1.9138806300960609 0 3.16379900756549 1.750659825629856 0 3.047698899035677 1.175177397439602 0 2.730231246675086 1.4599417336750831 0 2.5312500000049418 0.69999999999999996 0 3.1750000000065048 0.69999999999999996 0 3.638214240926366 1.265285427893069 0 3.8187500000045098 0.69999999999999996 0 4.2198317920941601 1.108273596938623 0 4.7733688274428578 1.2511819424194319 0 4.4625000000026009 0.69999999999999996 0 4.6250000000004974 1.8500000000004651 0 4.25 1.5 0 4.0559490150232032 2.028653202947901 0 3.757799744899315 1.759341836734688 0 3.5028943452390711 2.1825773809523441 0 3.2000000000001432 2.679999999999962 0 3.2848100522576571 3.06994577157805 0 3.8000000000002032 2.5199999999999458 0 3.412636880282601 3.6134558579332841 0 3.8190056356267248 3.2454749759848052 0 3.874999999992375 3.7500000000050839 0 4.25 3.5 0 4.5652883261780408 3.549611461603364 0 4.3536256774790401 3.0337160882464551 0 4.75 2.7999999999999998 0 4.4000000000001336 2.3599999999999639 0 5.5 2.7999999999999998 0 5.2499999999996163 2.499999999999539 0 5.0000000000002984 3.5999999999995218 0 4.9131042795799686 3.1639526813742029 0 5.5486111111111649 3.4166666666664391 0 5.2500000000003251 3.1999999999994801 0 5.9166666666663046 3.1999999999996529 0 6.3333333333330009 3.5999999999996799 0 6 3.7999999999999998 0 5.75 2.5 0 6.3749999999999796 2.350000000000005 0 5.8758020027701336 1.829281458631685 0 6.1230253171455891 1.2440604005832661 0 5.75 0.69999999999999996 0 5.5000000000008269 1.1999999999983459 0 5.1062500000012143 0.69999999999999996 0 5 2.2000000000000002 0 5.4251604005540912 2.1458562917259631 0 5.2500000000007052 1.6999999999985891 0 5.3819444444444393 5.7444444444444036 0 4.8969907407407627 5.6240740740739659 0 5 6.2999999999999998 0 5.1289108351881252 6.943051186131636 0 5.5 6.3500000000000014 0 6 6.4000000000000004 0 6.0367063492063266 5.8849206349206353 0 6.25 5.5 0 6.2822169506114909 4.9442489896720572 0 5.75 5.25 0 6.3749999999999352 3.899999999999983 0 6.249999999989754 4.333333333340164 0 5.7499999999897531 4.6666666666734979 0 5.7901785714252867 4.1543650793672633 0 5.6250000000000648 3.899999999999983 0 5.25 4 0 5.2812499999974998 4.480555555557217 0 5.25 5 0 4.8333333333337283 5.2333333333331122 0 4.4166666666668641 5.4666666666665567 0 4.75 4.7000000000000002 0 4.25 4.7999999999999998 0 4.75 4 0 4.7500000000003384 4.3999999999997286 0 4.1250000000089333 4 0 3.625000000001803 4.4499999999997977 0 3.2187500000011142 4.5624999999995248 0 3.5 4 0 3.749999999999261 5.3499999999989658 0 3.5 5 0 3.4166666666672652 5.4000000000003077 0 3.3999999999985642 5.8000000000002396 0 3.6250000000072249 5.9999999999942197 0 4 5.7000000000000002 0 4.25 6.2000000000000011 0 4.4999999999995417 5.9999999999997264 0 4.5 6.6999999999999993 0 3.833430775055819 6.5641729053027689 0 3.25 6.2999999999999998 0 3.3303561509924351 6.9830522680580502 0 2.580520851116443 6.6244224184663167 0 2.799999999997127 5.9000000000004791 0 2.1999999999956921 6.0000000000007194 0 1.599999999997112 6.1000000000004819 0 1.646932375870239 6.6136900344172886 0 2.75 4 0 3.1249999999889848 4 0 3.0833333333345938 4.2666666666658593 0 2.6666666666680592 4.5333333333324424 0 2.8333333333331181 5.0999999999998904 0 2.227678571427079 5.4095242619018373 0 1.75 5 0 2.25 4.7999999999999998 0 1.6874999999994109 4.5249999999997117 0 2.1666666666662731 4.1999999999971616 0 1.1249999999964171 4.2499999999982494 0 1.593428957229921 3.8897035774451321 0 1.042857142856084 4.9670058772507648 0 0 5.1095205703790167 0 0.54607142857014845 4.5325429890369104 0 0 4.3611884975573796 0 0.56249999999824107 3.9749999999991399 0 1.532738095236533 5.6571455714099397 0 1 6.2000000000000002 0 0.59593253968210291 5.8008707178522592 0 0 5.9564815289107864 0 0 6.9150707591630427 0 0.93837900218741932 7.1804089820132404 0 1.1705225977355731 8 0 0 8 0 2.644109419022838 7.3867316522664499 0 1.8128190395187029 7.3536930984991047 0 2.2707825856939472 8 0 4.2771317171003211 8 0 4.75 7.2000000000000002 0 4.045228499335253 7.2019851637643439 0 3.3049975410581078 8 0 6.049840683362258 8 0 5.1909118800994873 8 0 5.8367197674990106 7.1166649360427767 0 6.4684217593582272 7.3531189884776698 0 7.2585497534189534 7.2378318565328508 0 7.616117101574889 8 0 6.8572107462251504 8 0 9 8 0 9.4363260705848777 7.4358468248574452 0 8.8779286709583509 7.1321289214782846 0 8.5625 7.5 0 7.9700743397311431 7.5609350974516802 0 8.3294684777734691 8 0 10.58712006499414 8 0 10.11683562520899 7.1952376222900778 0 9.7322767000115658 8 0 12.75 8 0 11.58504501385041 8 0 12.75 6.9437741439064196 0 12.75 6.038988862336077 0 12.186383928571081 5.6739548845775634 0 11.574999999999131 5.6499999999963926 0 11.9 7 0 11.73749999999942 6.3249999999975941 0 11.09889622188336 7.0112522472967331 0 10.44528068387236 6.4182408893442124 0 11.14723036767284 6.2469725545514123 0 10.917277223084589 5.4813827249950968 0 10.75003341587618 5.9107455977173604 0 10.318895127649739 5.6829040483701769 0 9.75 5.5 0 9.6816900032536655 6.1509933969218187 0 9.9618211858937151 6.6596055842737263 0 10.249999999999989 4.0999999999999979 0 9.75 4 0 9.9378319844489287 4.5341095853144147 0 10.058566397584119 5.1088423539901608 0 10.5 4.7999999999999998 0 10.680373124719701 5.0996881878923999 0 10.875 4.5499999999999998 0 10.462566396889811 4.436821917062888 0 10.75000000000014 4.2000000000000286 0 11.25 4.2999999999999998 0 11.749999999999741 4.3999999999999488 0 11.625000000000339 3.9999999999997291 0 11.412499999999749 4.9749999999989596 0 12.096269132652781 5.0089836801012728 0 12.75 5.2639308761360883 0 12.24999999999979 4.4999999999999574 0 12.75 4.5999999999999996 0 12.75 4.0003174080232462 0 12 3.7000000000000002 0 12.75 3.321597619569264 0 12.75 2.5534237251028711 0 12.044687057114441 2.397006001356599 0 12.143679596734311 3.0238066578277132 0 11.55235714707381 2.7530147867259149 0 11.47885376845919 3.3750712564560699 0 12.75 0.69999999999999996 0 12.01693014330492 1.5940258229091431 0 12.75 1.684005592221304 0 11.44640120743219 2.1177712645927089 0 11.166666666666989 1.49999999999966 0 11.67768621522576 0.69999999999999996 0 11.550000000000001 1.1000000000000001 0 10.730243372206591 0.69999999999999996 0 10.382627631995829 1.3873204946718609 0 10.78333333333231 1.9000000000010699 0 10.106350669919401 1.9180519417420421 0 9.7536823278228866 1.476350104461625 0 9.8931307966635327 0.69999999999999996 0 10.518069334214999 3.694433421516421 0 11.03749999999963 3.7999999999991241 0 10.82499999999963 3.2999999999991241 0 11.09116063133933 2.9444106525201019 0 10.98709224116409 2.4939672194195301 0 10.4 2.2999999999999998 0 10.36597949429223 3.0810719490983871 0 10.612499999999949 2.7999999999998741 0 9.9333333333295304 2.4333333333344198 0 9.9181425014481057 2.833188223635065 0 9.9242224243089208 3.5053525499705862 0 9.3125000000000018 3.6250000000000022 0 8.8750000000000036 3.2500000000000022 0 9.4186530900934855 3.112704842739701 0 9.1699287288289124 2.374148078484497 0 9.4666666666644659 2.5666666666672948 0 9 2.7000000000000002 0 8.4375000000000018 2.8750000000000009 0 8.4999999999999503 2.5999999999999899 0 8 2.5 0 8.25 3.7000000000000002 0 8.7499999999999556 3.7999999999999909 0 8.412499999999941 3.345000000000117 0 9.1535002593721142 0.69999999999999996 0 9.294553589509567 1.3214674021148729 0 8.816324129544423 1.139459074151014 0 8.8002334655075174 1.6758279686386801 0 9.3851273930358641 2.0113077179832741 0 8.8279208556153161 2.2186179292874191 0 8.1666666666661811 1.900000000001745 0 8.3333333333329112 1.3000000000015179 0 8.5 0.69999999999999996 0 7.8125000000000018 0.69999999999999996 0 7.6227778138185824 1.133263353986153 0 7.6816945906127989 1.5894745186858981 0 7.75 2.25 0 7.5 2 0 7 2.2000000000000002 0 6.6325887022434813 1.7109098098422979 0 7.1647318986115511 1.809291393235446 0 7.1613611451472012 1.37684225124335 0 6.6841764304611262 1.174631096497762 0 6.4375000000000027 0.69999999999999996 0 7.1250000000000044 0.69999999999999996 0 7.5 3.7000000000000002 0 7.749999999999754 3.1000000000005912 0 7.4999999999999769 2.349999999999993 0 7.1682741769546334 2.9476245590829571 0 6.4676238242209063 2.8855733497101581 0 6.7300925925924284 3.401388888888814 0 6.75 4 0 6.6887757623921971 4.5124976540268094 0 7.2499999999897531 4.3333333333265021 0 7.749999999989754 4.666666666659836 0 7.9282200727472034 4.1620177469108377 0 7.6417937536871419 5.1654402589958011 0 7.8750000000136362 4.9000000000036366 0 7.5 4.7999999999999998 0 7.2802004846459853 5.1175278771156387 0 7.0073846965074598 5.2778944676064459 0 6.936160960427304 4.89683078406033 0 6.5 5.2999999999999998 0 6.75 5.75 0 6.6249999999998499 6.2000000000000481 0 6.8750000000007789 5.6500000000007269 0 6.518953214484978 6.7704843776901313 0 7.0801824727701241 6.5807936507936633 0 7.6875 6.5 0 7.3577684192630528 5.5086946
[...]
<CellData Scalars="A_conc,B_conc,C_conc,region_id,A_conc_immobile,B_conc_immobile,C_conc_immobile,A_conc_solid,B_conc_solid,C_conc_solid,A_conc_immobile_solid,B_conc_immobile_solid,C_conc_immobile_solid," Vectors="" Tensors="">
<DataArray type="Float64" Name="A_conc" format="ascii">
0 0 0 0 0 0 0 0 0 0 0 0 0 0 0 0 0 0 0 0 0 0 0 0 0 0 0 0 0 0 0 0 0 0 0 0 0 0 0 0 0 0 0 0 0 0 0 0 0 0 0 0 0 0 0 0 0 0 0 0 0 0 0 0 0 0 0 0 0 0 0 0 0 0 0 0 0 0 0 0 0 0 0 0 0 0 0 0 0 0 0 0 0 0 0 0 0 0 0 0 0 0 0 0 0 0 0 0 0 0 0 0 0 0 0 0 0 0 0 0 0 0 0 0 0 0 0 0 0 0 0 0 0 0 0 0 0 0 0 0 0 0 0 0 0 0 0 0 0 0 0 0 0 0 0 0 0 0 0 0 0 0 0 0 0 0 0 0 0 0 0 0 0 0 0 0 0 0 0 0 0 0 0 0 0 0 0 0 0 0 0 0 0 0 0 0 0 0 0 0 0 0 0 0 0 0 0 0 0 0 0 0 0 0 0 0 0 0 0 0 0 0 0 0 0 0 0 0 0 0 0 0 0 0 0 0 0 0 0 0 0 0 0 0 0 0 0 0 0 0 0 0 0 0 0 0 0 0 0 0 0 0 0 0 0 0 0 0 0 0 0 0 0 0 0 0 0 0 0 0 0 0 0 0 0 0 0 0 0 0 0 0 0 0 0 0 0 0 0 0 0 0 0 0 0 0 0 0 0 0 0 0 0 0 0 0 0 0 0 0 0 0 0 0 0 0 0 0 0 0 0 0 0 0 0 0 0 0 0 0 0 0 0 0 0 0 0 0 0 0 0 0 0 0 0 0 0 0 0 0 0 0 0 0 0 0 0 0 0 0 0 0 0 0 0 0 0 0 0 0 0 0 0 0 0 0 0 0 0 0 0 0 0 0 0 0 0 0 0 0 0 0 0 0 0 0 0 0 0 0 0 0 0 0 0 0 0 0 0 0 0 0 0 0 0 0 0 0 0 0 0 0 0 0 0 0 0 0 0 0 0 0 0 0 0 0 0 0 0 0 0 0 0 0 0 0 0 0 0 0 0 0 0 0 0 0 0 0 0 0 0 0 0 0 0 0 0 0 0 0 0 0 0 0 0 0 0 0 0 0 0 0 0 0 0 0 0 0 0 0 0 0 0 0 0 0 0 0 0 0 0 0 0 0 0 0 0 0 0 0 0 0 0 0 0 0 0 0 0 0 0 0 0 0 0 0 0 0 0 0 0 0 0 0 0 0 0 0 0 0 0 0 0 0 0 0 0 0 0 0 0 0 0 0 0 0 0 0 0 0 0 0 0 0 0 0 0 0 0 0 0 0 0 0 0 0 0 0 0 0 0 0 0 0 0 0 0 0 0 0 0 0 0 0 0 0 0 0 0 0 0 0 0 0 0 0 0 0 0 0 0 0 0 0 0 0 0 0 0 0 0 0 0 0 0 0 0 0 0 0 0 0 0 0 0 0 0 0 0 0 0 0 0 0 0 0 0 0 0 0 0 0 0 0 0 0 0 0 0 0 0 0 0 0 0 0 0 0 0 0 0 0 0 0 0 0 0 0 0 0 0 0 0 0 0 0 0 0 0 0 0 0 0 0 0 0 0 0 0 0 0 0 0 0 0 0 0 0 0 0 0 0 0 0 
</DataArray>
<DataArray type="Float64" Name="B_conc" format="ascii">
0 0 0 0 0 0 0 0 0 0 0 0 0 0 0 0 0 0 0 0 0 0 0 0 0 0 0 0 0 0 0 0 0 0 0 0 0 0 0 0 0 0 0 0 0 0 0 0 0 0 0 0 0 0 0 0 0 0 0 0 0 0 0 0 0 0 0 0 0 0 0 0 0 0 0 0 0 0 0 0 0 0 0 0 0 0 0 0 0 0 0 0 0 0 0 0 0 0 0 0 0 0 0 0 0 0 0 0 0 0 0 0 0 0 0 0 0 0 0 0 0 0 0 0 0 0 0 0 0 0 0 0 0 0 0 0 0 0 0 0 0 0 0 0 0 0 0 0 0 0 0 0 0 0 0 0 0 0 0 0 0 0 0 0 0 0 0 0 0 0 0 0 0 0 0 0 0 0 0 0 0 0 0 0 0 0 0 0 0 0 0 0 0 0 0 0 0 0 0 0 0 0 0 0 0 0 0 0 0 0 0 0 0 0 0 0 0 0 0 0 0 0 0 0 0 0 0 0 0 0 0 0 0 0 0 0 0 0 0 0 0 0 0 0 0 0 0 0 0 0 0 0 0 0 0 0 0 0 0 0 0 0 0 0 0 0 0 0 0 0 0 0 0 0 0 0 0 0 0 0 0 0 0 0 0 0 0 0 0 0 0 0 0 0 0 0 0 0 0 0 0 0 0 0 0 0 0 0 0 0 0 0 0 0 0 0 0 0 0 0 0 0 0 0 0 0 0 0 0 0 0 0 0 0 0 0 0 0 0 0 0 0 0 0 0 0 0 0 0 0 0 0 0 0 0 0 0 0 0 0 0 0 0 0 0 0 0 0 0 0 0 0 0 0 0 0 0 0 0 0 0 0 0 0 0 0 0 0 0 0 0 0 0 0 0 0 0 0 0 0 0 0 0 0 0 0 0 0 0 0 0 0 0 0 0 0 0 0 0 0 0 0 0 0 0 0 0 0 0 0 0 0 0 0 0 0 0 0 0 0 0 0 0 0 0 0 0 0 0 0 0 0 0 0 0 0 0 0 0 0 0 0 0 0 0 0 0 0 0 0 0 0 0 0 0 0 0 0 0 0 0 0 0 0 0 0 0 0 0 0 0 0 0 0 0 0 0 0 0 0 0 0 0 0 0 0 0 0 0 0 0 0 0 0 0 0 0 0 0 0 0 0 0 0 0 0 0 0 0 0 0 0 0 0 0 0 0 0 0 0 0 0 0 0 0 0 0 0 0 0 0 0 0 0 0 0 0 0 0 0 0 0 0 0 0 0 0 0 0 0 0 0 0 0 0 0 0 0 0 0 0 0 0 0 0 0 0 0 0 0 0 0 0 0 0 0 0 0 0 0 0 0 0 0 0 0 0 0 0 0 0 0 0 0 0 0 0 0 0 0 0 0 0 0 0 0 0 0 0 0 0 0 0 0 0 0 0 0 0 0 0 0 0 0 0 0 0 0 0 0 0 0 0 0 0 0 0 0 0 0 0 0 0 0 0 0 0 0 0 0 0 0 0 0 0 0 0 0 0 0 0 0 0 0 0 0 0 0 0 0 0 0 0 0 0 0 0 0 0 0 0 0 0 0 0 0 0 0 0 0 0 0 0 0 0 0 0 0 0 0 0 0 0 0 
</DataArray>
<DataArray type="Float64" Name="C_conc" format="ascii">
0 0 0 0 0 0 0 0 0 0 0 0 0 0 0 0 0 0 0 0 0 0 0 0 0 0 0 0 0 0 0 0 0 0 0 0 0 0 0 0 0 0 0 0 0 0 0 0 0 0 0 0 0 0 0 0 0 0 0 0 0 0 0 0 0 0 0 0 0 0 0 0 0 0 0 0 0 0 0 0 0 0 0 0 0 0 0 0 0 0 0 0 0 0 0 0 0 0 0 0 0 0 0 0 0 0 0 0 0 0 0 0 0 0 0 0 0 0 0 0 0 0 0 0 0 0 0 0 0 0 0 0 0 0 0 0 0 0 0 0 0 0 0 0 0 0 0 0 0 0 0 0 0 0 0 0 0 0 0 0 0 0 0 0 0 0 0 0 0 0 0 0 0 0 0 0 0 0 0 0 0 0 0 0 0 0 0 0 0 0 0 0 0 0 0 0 0 0 0 0 0 0 0 0 0 0 0 0 0 0 0 0 0 0 0 0 0 0 0 0 0 0 0 0 0 0 0 0 0 0 0 0 0 0 0 0 0 0 0 0 0 0 0 0 0 0 0 0 0 0 0 0 0 0 0 0 0 0 0 0 0 0 0 0 0 0 0 0 0 0 0 0 0 0 0 0 0 0 0 0 0 0 0 0 0 0 0 0 0 0 0 0 0 0 0 0 0 0 0 0 0 0 0 0 0 0 0 0 0 0 0 0 0 0 0 0 0 0 0 0 0 0 0 0 0 0 0 0 0 0 0 0 0 0 0 0 0 0 0 0 0 0 0 0 0 0 0 0 0 0 0 0 0 0 0 0 0 0 0 0 0 0 0 0 0 0 0 0 0 0 0 0 0 0 0 0 0 0 0 0 0 0 0 0 0 0 0 0 0 0 0 0 0 0 0 0 0 0 0 0 0 0 0 0 0 0 0 0 0 0 0 0 0 0 0 0 0 0 0 0 0 0 0 0 0 0 0 0 0 0 0 0 0 0 0 0 0 0 0 0 0 0 0 0 0 0 0 0 0 0 0 0 0 0 0 0 0 0 0 0 0 0 0 0 0 0 0 0 0 0 0 0 0 0 0 0 0 0 0 0 0 0 0 0 0 0 0 0 0 0 0 0 0 0 0 0 0 0 0 0 0 0 0 0 0 0 0 0 0 0 0 0 0 0 0 0 0 0 0 0 0 0 0 0 0 0 0 0 0 0 0 0 0 0 0 0 0 0 0 0 0 0 0 0 0 0 0 0 0 0 0 0 0 0 0 0 0 0 0 0 0 0 0 0 0 0 0 0 0 0 0 0 0 0 0 0 0 0 0 0 0 0 0 0 0 0 0 0 0 0 0 0 0 0 0 0 0 0 0 0 0 0 0 0 0 0 0 0 0 0 0 0 0 0 0 0 0 0 0 0 0 0 0 0 0 0 0 0 0 0 0 0 0 0 0 0 0 0 0 0 0 0 0 0 0 0 0 0 0 0 0 0 0 0 0 0 0 0 0 0 0 0 0 0 0 0 0 0 0 0 0 0 0 0 0 0 0 0 0 0 0 0 0 0 0 0 0 0 0 0 0 0 0 0 0 0 0 0 0 0 0 0 0 0 0 0 0 0 0 0 0 0 0 0 0 0 0 0 0 0 0 0 0 0 
</DataArray>
<DataArray type="Float64" Name="region_id" format="ascii">
4 4 1 4 4 1 4 4 1 4 4 4 4 4 4 1 4 4 4 4 4 4 4 4 4 4 4 4 4 4 4 1 4 4 1 1 4 4 4 4 4 1 4 4 4 4 4 4 4 4 4 4 4 4 4 4 4 4 4 4 4 4 4 4 4 4 4 4 4 4 4 4 4 1 4 4 1 4 4 4 4 4 4 4 4 4 1 4 4 4 4 4 4 4 4 4 1 4 4 1 4 4 4 4 4 1 4 4 4 4 4 4 1 4 1 4 4 1 4 4 4 1 4 1 4 4 1 4 4 4 4 4 1 4 4 1 4 4 1 4 1 4 1 4 4 1 4 4 4 4 4 1 4 4 1 4 4 4 4 1 1 4 4 4 4 4 4 4 4 4 4 4 1 4 1 4 4 1 4 4 4 4 4 4 4 4 1 4 4 4 4 4 1 4 4 4 4 4 1 4 4 1 4 1 1 4 1 4 1 4 4 4 4 1 4 4 1 4 4 4 4 4 1 4 4 4 4 4 4 4 1 1 1 4 4 4 4 4 4 1 4 4 4 1 1 4 4 1 1 1 4 1 4 4 1 1 4 4 1 4 4 4 1 4 4 4 4 4 4 4 4 1 4 4 1 4 4 4 1 4 4 4 4 1 4 4 4 1 1 4 4 4 1 4 4 1 4 4 4 4 1 4 4 1 1 4 4 1 1 4 4 4 1 4 4 4 4 4 4 4 4 4 4 4 4 4 4 4 1 4 4 4 4 4 4 4 4 4 4 4 4 4 4 4 4 4 4 4 4 4 4 4 4 4 4 4 4 4 4 4 4 1 4 4 1 4 4 4 4 4 4 4 4 4 4 4 4 4 4 4 4 1 4 4 4 1 4 4 4 4 4 4 4 4 4 4 4 4 4 4 4 4 4 1 4 4 4 4 4 4 4 4 4 4 4 4 1 4 1 4 1 4 4 4 1 4 1 4 4 1 1 4 1 4 4 1 4 4 4 4 4 4 4 4 4 4 1 4 1 4 4 4 4 4 4 4 4 4 4 4 4 1 4 4 4 4 4 4 4 4 4 4 1 4 4 4 4 1 4 4 1 4 4 4 4 4 4 4 4 4 4 4 1 4 4 4 4 1 4 1 4 4 4 1 4 4 4 1 4 4 4 4 4 4 4 4 1 1 4 4 1 4 4 4 1 4 4 4 4 4 4 1 4 1 1 4 4 1 4 4 4 4 1 4 4 4 4 4 4 4 4 4 4 4 4 4 1 4 1 4 4 4 4 4 1 4 4 4 4 4 4 4 4 4 4 1 4 4 1 4 4 1 4 4 4 4 4 4 4 4 4 1 1 4 1 4 1 4 4 4 4 4 4 4 4 4 4 1 4 1 1 4 4 4 4 4 1 4 1 4 4 4 4 4 1 4 4 1 4 4 4 4 4 4 4 4 4 4 4 4 1 1 4 4 4 1 4 4 1 4 1 4 4 4 4 4 4 4 4 4 1 4 1 4 4 1 4 4 4 4 4 4 4 4 4 4 4 4 4 4 4 4 4 4 4 4 4 4 4 4 1 1 4 4 4 1 4 4 1 1 4 4 4 4 4 1 4 4 4 4 1 4 1 4 4 4 4 1 1 4 1 4 1 4 
</DataArray>
<DataArray type="Float64" Name="A_conc_immobile" format="ascii">
0 0 0 0 0 0 0 0 0 0 0 0 0 0 0 0 0 0 0 0 0 0 0 0 0 0 0 0 0 0 0 0 0 0 0 0 0 0 0 0 0 0 0 0 0 0 0 0 0 0 0 0 0 0 0 0 0 0 0 0 0 0 0 0 0 0 0 0 0 0 0 0 0 0 0 0 0 0 0 0 0 0 0 0 0 0 0 0 0 0 0 0 0 0 0 0 0 0 0 0 0 0 0 0 0 0 0 0 0 0 0 0 0 0 0 0 0 0 0 0 0 0 0 0 0 0 0 0 0 0 0 0 0 0 0 0 0 0 0 0 0 0 0 0 0 0 0 0 0 0 0 0 0 0 0 0 0 0 0 0 0 0 0 0 0 0 0 0 0 0 0 0 0 0 0 0 0 0 0 0 0 0 0 0 0 0 0 0 0 0 0 0 0 0 0 0 0 0 0 0 0 0 0 0 0 0 0 0 0 0 0 0 0 0 0 0 0 0 0 0 0 0 0 0 0 0 0 0 0 0 0 0 0 0 0 0 0 0 0 0 0 0 0 0 0 0 0 0 0 0 0 0 0 0 0 0 0 0 0 0 0 0 0 0 0 0 0 0 0 0 0 0 0 0 0 0 0 0 0 0 0 0 0 0 0 0 0 0 0 0 0 0 0 0 0 0 0 0 0 0 0 0 0 0 0 0 0 0 0 0 0 0 0 0 0 0 0 0 0 0 0 0 0 0 0 0 0 0 0 0 0 0 0 0 0 0 0 0 0 0 0 0 0 0 0 0 0 0 0 0 0 0 0 0 0 0 0 0 0 0 0 0 0 0 0 0 0 0 0 0 0 0 0 0 0 0 0 0 0 0 0 0 0 0 0 0 0 0 0 0 0 0 0 0 0 0 0 0 0 0 0 0 0 0 0 0 0 0 0 0 0 0 0 0 0 0 0 0 0 0 0 0 0 0 0 0 0 0 0 0 0 0 0 0 0 0 0 0 0 0 0 0 0 0 0 0 0 0 0 0 0 0 0 0 0 0 0 0 0 0 0 0 0 0 0 0 0 0 0 0 0 0 0 0 0 0 0 0 0 0 0 0 0 0 0 0 0 0 0 0 0 0 0 0 0 0 0 0 0 0 0 0 0 0 0 0 0 0 0 0 0 0 0 0 0 0 0 0 0 0 0 0 0 0 0 0 0 0 0 0 0 0 0 0 0 0 0 0 0 0 0 0 0 0 0 0 0 0 0 0 0 0 0 0 0 0 0 0 0 0 0 0 0 0 0 0 0 0 0 0 0 0 0 0 0 0 0 0 0 0 0 0 0 0 0 0 0 0 0 0 0 0 0 0 0 0 0 0 0 0 0 0 0 0 0 0 0 0 0 0 0 0 0 0 0 0 0 0 0 0 0 0 0 0 0 0 0 0 0 0 0 0 0 0 0 0 0 0 0 0 0 0 0 0 0 0 0 0 0 0 0 0 0 0 0 0 0 0 0 0 0 0 0 0 0 0 0 0 0 0 0 0 0 0 0 0 0 0 0 0 0 0 0 0 0 0 0 0 0 0 0 0 0 0 0 0 0 0 0 0 0 0 0 0 0 0 0 0 0 0 0 0 0 0 0 0 0 0 0 0 0 0 0 0 
</DataArray>
<DataArray type="Float64" Name="B_conc_immobile" format="ascii">
0 0 0 0 0 0 0 0 0 0 0 0 0 0 0 0 0 0 0 0 0 0 0 0 0 0 0 0 0 0 0 0 0 0 0 0 0 0 0 0 0 0 0 0 0 0 0 0 0 0 0 0 0 0 0 0 0 0 0 0 0 0 0 0 0 0 0 0 0 0 0 0 0 0 0 0 0 0 0 0 0 0 0 0 0 0 0 0 0 0 0 0 0 0 0 0 0 0 0 0 0 0 0 0 0 0 0 0 0 0 0 0 0 0 0 0 0 0 0 0 0 0 0 0 0 0 0 0 0 0 0 0 0 0 0 0 0 0 0 0 0 0 0 0 0 0 0 0 0 0 0 0 0 0 0 0 0 0 0 0 0 0 0 0 0 0 0 0 0 0 0 0 0 0 0 0 0 0 0 0 0 0 0 0 0 0 0 0 0 0 0 0 0 0 0 0 0 0 0 0 0 0 0 0 0 0 0 0 0 0 0 0 0 0 0 0 0 0 0 0 0 0 0 0 0 0 0 0 0 0 0 0 0 0 0 0 0 0 0 0 0 0 0 0 0 0 0 0 0 0 0 0 0 0 0 0 0 0 0 0 0 0 0 0 0 0 0 0 0 0 0 0 0 0 0 0 0 0 0 0 0 0 0 0 0 0 0 0 0 0 0 0 0 0 0 0 0 0 0 0 0 0 0 0 0 0 0 0 0 0 0 0 0 0 0 0 0 0 0 0 0 0 0 0 0 0 0 0 0 0 0 0 0 0 0 0 0 0 0 0 0 0 0 0 0 0 0 0 0 0 0 0 0 0 0 0 0 0 0 0 0 0 0 0 0 0 0 0 0 0 0 0 0 0 0 0 0 0 0 0 0 0 0 0 0 0 0 0 0 0 0 0 0 0 0 0 0 0 0 0 0 0 0 0 0 0 0 0 0 0 0 0 0 0 0 0 0 0 0 0 0 0 0 0 0 0 0 0 0 0 0 0 0 0 0 0 0 0 0 0 0 0 0 0 0 0 0 0 0 0 0 0 0 0 0 0 0 0 0 0 0 0 0 0 0 0 0 0 0 0 0 0 0 0 0 0 0 0 0 0 0 0 0 0 0 0 0 0 0 0 0 0 0 0 0 0 0 0 0 0 0 0 0 0 0 0 0 0 0 0 0 0 0 0 0 0 0 0 0 0 0 0 0 0 0 0 0 0 0 0 0 0 0 0 0 0 0 0 0 0 0 0 0 0 0 0 0 0 0 0 0 0 0 0 0 0 0 0 0 0 0 0 0 0 0 0 0 0 0 0 0 0 0 0 0 0 0 0 0 0 0 0 0 0 0 0 0 0 0 0 0 0 0 0 0 0 0 0 0 0 0 0 0 0 0 0 0 0 0 0 0 0 0 0 0 0 0 0 0 0 0 0 0 0 0 0 0 0 0 0 0 0 0 0 0 0 0 0 0 0 0 0 0 0 0 0 0 0 0 0 0 0 0 0 0 0 0 0 0 0 0 0 0 0 0 0 0 0 0 0 0 0 0 0 0 0 0 0 0 0 0 0 0 0 0 0 0 0 0 0 0 0 0 0 0 0 0 0 0 0 0 0 0 0 0 0 0 0 0 0 0 0 0 0 0 0 0 0 0 0 0 0 0 0 
</DataArray>
<DataArray type="Float64" Name="C_conc_immobile" format="ascii">
0.80000000000000004 0.80000000000000004 0.80000000000000004 0.80000000000000004 0.80000000000000004 0.80000000000000004 0.80000000000000004 0.80000000000000004 0.80000000000000004 0.80000000000000004 0.80000000000000004 0.80000000000000004 0.80000000000000004 0.80000000000000004 0.80000000000000004 0.80000000000000004 0.80000000000000004 0.80000000000000004 0.80000000000000004 0.80000000000000004 0.80000000000000004 0.80000000000000004 0.80000000000000004 0.80000000000000004 0.80000000000000004 0.80000000000000004 0.80000000000000004 0.80000000000000004 0.80000000000000004 0.80000000000000004 0.80000000000000004 0.80000000000000004 0.80000000000000004 0.80000000000000004 0.80000000000000004 0.80000000000000004 0.80000000000000004 0.80000000000000004 0.80000000000000004 0.80000000000000004 0.80000000000000004 0.80000000000000004 0.80000000000000004 0.80000000000000004 0.80000000000000004 0.80000000000000004 0.80000000000000004 0.80000000000000004 0.80000000000000004 0.80000000000000004 0.80000000000000004 0.80000000000000004 0.80000000000000004 0.80000000000000004 0.80000000000000004 0.80000000000000004 0.80000000000000004 0.80000000000000004 0.80000000000000004 0.80000000000000004 0.80000000000000004 0.80000000000000004 0.80000000000000004 0.80000000000000004 0.80000000000000004 0.80000000000000004 0.80000000000000004 0.80000000000000004 0.80000000000000004 0.80000000000000004 0.80000000000000004 0.80000000000000004 0.80000000000000004 0.80000000000000004 0.80000000000000004 0.80000000000000004 0.80000000000000004 0.80000000000000004 0.80000000000000004 0.80000000000000004 0.80000000000000004 0.80000000000000004 0.80000000000000004 0.80000000000000004 0.80000000000000004 0.80000000000000004 0.80000000000000004 0.80000000000000004 0.80000000000000004 0.80000000000000004 0.80000000000000004 0.80000000000000004 0.80000000000000004 0.80000000000000004 0.80000000000000004 0.80000000000000004 0.80000000000000004 0.80000000000000004 0.80000000000000004 0.80000000000000004 0.80000000000000004 0.80000000000000004 0.80000000000000004 0.80000000000000004 0.80000000000000004 0.80000000000000004 0.80000000000000004 0.80000000000000004 0.80000000000000004 0.80000000000000004 0.80000000000000004 0.80000000000000004 0.80000000000000004 0.80000000000000004 0.80000000000000004 0.80000000000000004 0.80000000000000004 0.80000000000000004 0.80000000000000004 0.80000000000000004 0.80000000000000004 0.80000000000000004 0.80000000000000004 0.80000000000000004 0.80000000000000004 0.80000000000000004 0.80000000000000004 0.80000000000000004 0.80000000000000004 0.80000000000000004 0.80000000000000004 0.80000000000000004 0.80000000000000004 0.80000000000000004 0.80000000000000004 0.80000000000000004 0.80000000000000004 0.80000000000000004 0.80000000000000004 0.80000000000000004 0.80000000000000004 0.80000000000000004 0.80000000000000004 0.80000000000000004 0.80000000000000004 0.80000000000000004 0.80000000000000004 0.80000000000000004 0.80000000000000004 0.80000000000000004 0.80000000000000004 0.80000000000000004 0.80000000000000004 0.80000000000000004 0.80000000000000004 0.80000000000000004 0.80000000000000004 0.80000000000000004 0.80000000000000004 0.80000000000000004 0.80000000000000004 0.80000000000000004 0.80000000000000004 0.80000000000000004 0.80000000000000004 0.80000000000000004 0.80000000000000004 0.80000000000000004 0.80000000000000004 0.80000000000000004 0.80000000000000004 0.80000000000000004 0.80000000000000004 0.80000000000000004 0.80000000000000004 0.80000000000000004 0.80000000000000004 0.80000000000000004 0.80000000000000004 0.80000000000000004 0.80000000000000004 0.80000000000000004 0.80000000000000004 0.80000000000000004 0.80000000000000004 0.80000000000000004 0.80000000000000004 0.80000000000000004 0.80000000000000004 0.80000000000000004 0.80000000000000004 0.80000000000000004 0.80000000000000004 0.80000000000000004 0.80000000000000004 0.80000000000000004 0.80000000000000004 0.80000000000000004 0.80000000000000004 0.80000000000000004 0.80000000000000004 0.80000000000000004 0.80000000000000004 0.80000000000000004 0.80000000000000004 0.80000000000000004 0.80000000000000004 0.80000000000000004 0.80000000000000004 0.80000000000000004 0.80000000000000004 0.80000000000000004 0.80000000000000004 0.80000000000000004 0.80000000000000004 0.80000000000000004 0.80000000000000004 0.80000000000000004 0.80000000000000004 0.80000000000000004 0.80000000000000004 0.80000000000000004 0.80000000000000004 0.80000000000000004 0.80000000000000004 0.80000000000000004 0.80000000000000004 0.80000000000000004 0.80000000000000004 0.80000000000000004 0.80000000000000004 0.80000000000000004 0.80000000000000004 0.80000000000000004 0.80000000000000004 0.80000000000000004 0.80000000000000004 0.80000000000000004 0.80000000000000004 0.80000000000000004 0.80000000000000004 0.80000000000000004 0.80000000000000004 0.80000000000000004 0.80000000000000004 0.80000000000000004 0.80000000000000004 0.80000000000000004 0.80000000000000004 0.80000000000000004 0.80000000000000004 0.80000000000000004 0.80000000000000004 0.80000000000000004 0.80000000000000004 0.80000000000000004 0.80000000000000004 0.80000000000000004 0.80000000000000004 0.80000000000000004 0.80000000000000004 0.80000000000000004 0.80000000000000004 0.80000000000000004 0.80000000000000004 0.80000000000000004 0.80000000000000004 0.80000000000000004 0.80000000000000004 0.80000000000000004 0.80000000000000004 0.80000000000000004 0.80000000000000004 0.80000000000000004 0.80000000000000004 0.80000000000000004 0.80000000000000004 0.80000000000000004 0.80000000000000004 0.80000000000000004 0.80000000000000004 0.80000000000000004 0.80000000000000004 0.80000000000000004 0.80000000000000004 0.80000000000000004 0.80000000000000004 0.80000000000000004 0.80000000000000004 0.80000000000000004 0.80000000000000004 0.80000000000000004 0.80000000000000004 0.80000000000000004 0.80000000000000004 0.80000000000000004 0.80000000000000004 0.80000000000000004 0.80000000000000004 0.80000000000000004 0.80000000000000004 0.80000000000000004 0.80000000000000004 0.80000000000000004 0.80000000000000004 0.80000000000000004 0.80000000000000004 0.80000000000000004 0.80000000000000004 0.80000000000000004 0.80000000000000004 0.80000000000000004 0.80000000000000004 0.80000000000000004 0.80000000000000004 0.80000000000000004 0.80000000000000004 0.80000000000000004 0.80000000000000004 0.80000000000000004 0.80000000000000004 0.80000000000000004 0.80000000000000004 0.80000000000000004 0.80000000000000004 0.80000000000000004 0.80000000000000004 0.80000000000000004 0.80000000000000004 0.80000000000000004 0.80000000000000004 0.80000000000000004 0.80000000000000004 0.80000000000000004 0.80000000000000004 0.80000000000000004 0.80000000000000004 0.80000000000000004 0.80000000000000004 0.80000000000000004 0.80000000000000004 0.80000000000000004 0.80000000000000004 0.80000000000000004 0.80000000000000004 0.80000000000000004 0.80000000000000004 0.80000000000000004 0.80000000000000004 0.80000000000000004 0.80000000000000004 0.80000000000000004 0.80000000000000004 0.80000000000000004 0.80000000000000004 0.80000000000000004 0.80000000000000004 0.80000000000000004 0.80000000000000004 0.80000000000000004 0.80000000000000004 0.80000000000000004 0.80000000000000004 0.80000000000000004 0.80000000000000004 0.80000000000000004 0.80000000000000004 0.80000000000000004 0.80000000000000004 0.80000000000000004 0.80000000000000004 0.80000000000000004 0.80000000000000004 0.80000000000000004 0.80000000000000004 0.80000000000000004 0.80000000000000004 0.80000000000000004 0.80000000000000004 0.80000000000000004 0.80000000000000004 0.80000000000000004 0.80000000000000004 0.80000000000000004 0.80000000000000004 0.80000000000000004 0.80000000000000004 0.80000000000000004 0.80000000000000004 0.80000000000000004 0.80000000000000004 0.80000000000000004 0.80000000000000004 0.80000000000000004 0.80000000000000004 0.80000000000000004 0.80000000000000004 0.80000000000000004 0.80000000000000004 0.80000000000000004 0.80000000000000004 0.80000000000000004 0.80000000000000004 0.80000000000000004 0.80000000000000004 0.80000000000000004 0.80000000000000004 0.80000000000000004 0.80000000000000004 0.80000000000000004 0.80000000000000004 0.80000000000000004 0.80000000000000004 0.80000000000000004 0.80000000000000004 0.80000000000000004 0.80000000000000004 0.80000000000000004 0.80000000000000004 0.80000000000000004 0.80000000000000004 0.80000000000000004 0.80000000000000004 0.80000000000000004 0.80000000000000004 0.80000000000000004 0.80000000000000004 0.80000000000000004 0.80000000000000004 0.80000000000000004 0.80000000000000004 0.80000000000000004 0.80000000000000004 0.80000000000000004 0.80000000000000004 0.80000000000000004 0.80000000000000004 0.80000000000000004 0.80000000000000004 0.80000000000000004 0.80000000000000004 0.80000000000000004 0.80000000000000004 0.80000000000000004 0.80000000000000004 0.80000000000000004 0.80000000000000004 0.80000000000000004 0.80000000000000004 0.80000000000000004 0.80000000000000004 0.80000000000000004 0.80000000000000004 0.80000000000000004 0.80000000000000004 0.80000000000000004 0.80000000000000004 0.80000000000000004 0.80000000000000004 0.80000000000000004 0.80000000000000004 0.80000000000000004 0.80000000000000004 0.80000000000000004 0.80000000000000004 0.80000000000000004 0.80000000000000004 0.80000000000000004 0.80000000000000004 0.80000000000000004 0.80000000000000004 0.80000000000000004 0.80000000000000004 0.80000000000000004 0.80000000000000004 0.80000000000000004 0.80000000000000004 0.80000000000000004 0.80000000000000004 0.80000000000000004 0.80000000000000004 0.80000000000000004 0.80000000000000004 0.80000000000000004 0.80000000000000004 0.80000000000000004 0.80000000000000004 0.80000000000000004 0.80000000000000004 0.80000000000000004 0.80000000000000004 0.80000000000000004 0.80000000000000004 0.80000000000000004 0.80000000000000004 0.80000000000000004 0.80000000000000004 0.80000000000000004 0.80000000000000004 0.80000000000000004 0.80000000000000004 0.80000000000000004 0.80000000000000004 0.80000000000000004 0.80000000000000004 0.80000000000000004 0.80000000000000004 0.80000000000000004 0.80000000000000004 0.80000000000000004 0.80000000000000004 0.80000000000000004 0.80000000000000004 0.80000000000000004 0.80000000000000004 0.80000000000000004 0.80000000000000004 0.80000000000000004 0.80000000000000004 0.80000000000000004 0.80000000000000004 0.80000000000000004 0.80000000000000004 0.80000000000000004 0.80000000000000004 0.80000000000000004 0.80000000000000004 0.80000000000000004 0.8000000000000000