<?xml version="1.0"?>
<VTKFile type="UnstructuredGrid" version="0.1" byte_order="LittleEndian">
<UnstructuredGrid>
<Piece NumberOfPoints="6" NumberOfCells="3">
<Points>
<DataArray type="Float64" NumberOfComponents="3" format="ascii">
0 0 0 0 3 0 3 0 0 3 0 3 0 3 3 0 0 3 
</DataArray>
</Points>
<Cells>
<DataArray type="UInt32" Name="connectivity" format="ascii">
0 2 1 3 1 5 3 4 0 1 5 3 
</DataArray>
<DataArray type="UInt32" Name="offsets" format="ascii">
4 8 12 
</DataArray>
<DataArray type="UInt32" Name="types" format="ascii">
10 10 10 
</DataArray>
</Cells>
<CellData Scalars="A_conc,B_conc,C_conc,D_conc,E_conc," Vectors="" Tensors="">
<DataArray type="Float64" Name="A_conc" format="ascii">
0.00011109199880179927 0.00011109199880179927 0.00011109199880179927 
</DataArray>
<DataArray type="Float64" Name="B_conc" format="ascii">
0.0027465512901326651 0.0027465512901326651 0.0027465512901326651 
</DataArray>
<DataArray type="Float64" Name="C_conc" format="ascii">
0.0040560289507329331 0.0040560289507329331 0.0040560289507329331 
</DataArray>
<DataArray type="Float64" Name="D_conc" format="ascii">
0.0049625589546429174 0.0049625589546429174 0.0049625589546429174 
</DataArray>
<DataArray type="Float64" Name="E_conc" format="ascii">
0.13812376880568969 0.13812376880568969 0.13812376880568969 
</DataArray>
</CellData>
</Piece>
</UnstructuredGrid>
</VTKFile>
