<?xml version="1.0"?>
<VTKFile type="UnstructuredGrid" version="0.1" byte_order="LittleEndian">
<UnstructuredGrid>
<Piece NumberOfPoints="6" NumberOfCells="3">
<Points>
<DataArray type="Float64" NumberOfComponents="3" format="ascii">
0.000000000000000e+00 0.000000000000000e+00 0.000000000000000e+00 3.000000000000000e+00 0.000000000000000e+00 0.000000000000000e+00 0.000000000000000e+00 3.000000000000000e+00 0.000000000000000e+00 0.000000000000000e+00 0.000000000000000e+00 3.000000000000000e+00 3.000000000000000e+00 0.000000000000000e+00 3.000000000000000e+00 0.000000000000000e+00 3.000000000000000e+00 3.000000000000000e+00 
</DataArray>
</Points>
<Cells>
<DataArray type="Int32" Name="connectivity" format="ascii">
0 1 2 4 0 2 3 4 2 3 4 5 
</DataArray>
<DataArray type="Int32" Name="offsets" format="ascii">
4 8 12 
</DataArray>
<DataArray type="UInt8" Name="types" format="ascii">
10 10 10 
</DataArray>
</Cells>
<PointData Scalars="pressure_nodes_[L]" Vectors="">
<DataArray type="Float64" Name="pressure_nodes_[L]" format="ascii">
1.976961133794367e+00 2.292218246853913e+00 1.627471131525773e+00 1.023038866205634e+00 1.372528868474227e+00 7.077817531460864e-01 
</DataArray>
</PointData>
<CellData Scalars="pressure_elements_[L]," Vectors="velocity_elements_[L/T]">
<DataArray type="Float64" Name="pressure_elements_[L]" format="ascii">
2.250000000000000e+00 1.500000000000001e+00 7.500000000000001e-01 
</DataArray>
<DataArray type="Float64" Name="velocity_elements_[L/T]" NumberOfComponents="3" format="ascii">
1.156482317317871e-17 -5.011423375044109e-18 -8.095376221225099e-18   2.505711687522055e-18 4.818676322157798e-18 1.117932906740609e-17   -2.457524924300476e-18 1.831097002419963e-18 3.421260188732036e-18   
</DataArray>
</CellData>
</Piece>
</UnstructuredGrid>
</VTKFile>
