<?xml version="1.0"?>
<VTKFile type="UnstructuredGrid" version="0.1" byte_order="LittleEndian">
<UnstructuredGrid>
<Piece NumberOfPoints="714" NumberOfCells="1306">
<Points>
<DataArray type="Float64" NumberOfComponents="3" format="ascii">
0.000000000000000e+00 0.000000000000000e+00 0.000000000000000e+00 5.000000000000000e+00 0.000000000000000e+00 0.000000000000000e+00 5.000000000000000e+00 1.000000000000000e+00 0.000000000000000e+00 0.000000000000000e+00 1.000000000000000e+00 0.000000000000000e+00 9.999999999992801e-02 0.000000000000000e+00 0.000000000000000e+00 1.999999999998339e-01 0.000000000000000e+00 0.000000000000000e+00 2.999999999997341e-01 0.000000000000000e+00 0.000000000000000e+00 3.999999999996643e-01 0.000000000000000e+00 0.000000000000000e+00 4.999999999995944e-01 0.000000000000000e+00 0.000000000000000e+00 5.999999999995166e-01 0.000000000000000e+00 0.000000000000000e+00 6.999999999992880e-01 0.000000000000000e+00 0.000000000000000e+00 7.999999999989961e-01 0.000000000000000e+00 0.000000000000000e+00 8.999999999987042e-01 0.000000000000000e+00 0.000000000000000e+00 9.999999999984124e-01 0.000000000000000e+00 0.000000000000000e+00 1.099999999998120e+00 0.000000000000000e+00 0.000000000000000e+00 1.199999999997829e+00 0.000000000000000e+00 0.000000000000000e+00 1.299999999997537e+00 0.000000000000000e+00 0.000000000000000e+00 1.399999999997245e+00 0.000000000000000e+00 0.000000000000000e+00 1.499999999996953e+00 0.000000000000000e+00 0.000000000000000e+00 1.599999999996661e+00 0.000000000000000e+00 0.000000000000000e+00 1.699999999996369e+00 0.000000000000000e+00 0.000000000000000e+00 1.799999999996077e+00 0.000000000000000e+00 0.000000000000000e+00 1.899999999995785e+00 0.000000000000000e+00 0.000000000000000e+00 1.999999999995511e+00 0.000000000000000e+00 0.000000000000000e+00 2.099999999995593e+00 0.000000000000000e+00 0.000000000000000e+00 2.199999999995745e+00 0.000000000000000e+00 0.000000000000000e+00 2.299999999995897e+00 0.000000000000000e+00 0.000000000000000e+00 2.399999999996049e+00 0.000000000000000e+00 0.000000000000000e+00 2.499999999996201e+00 0.000000000000000e+00 0.000000000000000e+00 2.599999999996353e+00 0.000000000000000e+00 0.000000000000000e+00 2.699999999996505e+00 0.000000000000000e+00 0.000000000000000e+00 2.799999999996657e+00 0.000000000000000e+00 0.000000000000000e+00 2.899999999996809e+00 0.000000000000000e+00 0.000000000000000e+00 2.999999999996961e+00 0.000000000000000e+00 0.000000000000000e+00 3.099999999997114e+00 0.000000000000000e+00 0.000000000000000e+00 3.199999999997265e+00 0.000000000000000e+00 0.000000000000000e+00 3.299999999997417e+00 0.000000000000000e+00 0.000000000000000e+00 3.399999999997569e+00 0.000000000000000e+00 0.000000000000000e+00 3.499999999997721e+00 0.000000000000000e+00 0.000000000000000e+00 3.599999999997873e+00 0.000000000000000e+00 0.000000000000000e+00 3.699999999998025e+00 0.000000000000000e+00 0.000000000000000e+00 3.799999999998176e+00 0.000000000000000e+00 0.000000000000000e+00 3.899999999998329e+00 0.000000000000000e+00 0.000000000000000e+00 3.999999999998481e+00 0.000000000000000e+00 0.000000000000000e+00 4.099999999998633e+00 0.000000000000000e+00 0.000000000000000e+00 4.199999999998784e+00 0.000000000000000e+00 0.000000000000000e+00 4.299999999998937e+00 0.000000000000000e+00 0.000000000000000e+00 4.399999999999088e+00 0.000000000000000e+00 0.000000000000000e+00 4.499999999999240e+00 0.000000000000000e+00 0.000000000000000e+00 4.599999999999393e+00 0.000000000000000e+00 0.000000000000000e+00 4.699999999999545e+00 0.000000000000000e+00 0.000000000000000e+00 4.799999999999696e+00 0.000000000000000e+00 0.000000000000000e+00 4.899999999999848e+00 0.000000000000000e+00 0.000000000000000e+00 5.000000000000000e+00 9.999999999981467e-02 0.000000000000000e+00 5.000000000000000e+00 1.999999999995579e-01 0.000000000000000e+00 5.000000000000000e+00 2.999999999992664e-01 0.000000000000000e+00 5.000000000000000e+00 3.999999999989749e-01 0.000000000000000e+00 5.000000000000000e+00 4.999999999986943e-01 0.000000000000000e+00 5.000000000000000e+00 5.999999999989468e-01 0.000000000000000e+00 5.000000000000000e+00 6.999999999992100e-01 0.000000000000000e+00 5.000000000000000e+00 7.999999999994734e-01 0.000000000000000e+00 5.000000000000000e+00 8.999999999997368e-01 0.000000000000000e+00 4.899999999999999e+00 1.000000000000000e+00 0.000000000000000e+00 4.800000000000000e+00 1.000000000000000e+00 0.000000000000000e+00 4.699999999999999e+00 1.000000000000000e+00 0.000000000000000e+00 4.600000000000000e+00 1.000000000000000e+00 0.000000000000000e+00 4.499999999999999e+00 1.000000000000000e+00 0.000000000000000e+00 4.399999999999999e+00 1.000000000000000e+00 0.000000000000000e+00 4.299999999999999e+00 1.000000000000000e+00 0.000000000000000e+00 4.199999999999998e+00 1.000000000000000e+00 0.000000000000000e+00 4.099999999999999e+00 1.000000000000000e+00 0.000000000000000e+00 3.999999999999999e+00 1.000000000000000e+00 0.000000000000000e+00 3.899999999999999e+00 1.000000000000000e+00 0.000000000000000e+00 3.799999999999999e+00 1.000000000000000e+00 0.000000000000000e+00 3.699999999999998e+00 1.000000000000000e+00 0.000000000000000e+00 3.599999999999999e+00 1.000000000000000e+00 0.000000000000000e+00 3.499999999999999e+00 1.000000000000000e+00 0.000000000000000e+00 3.399999999999999e+00 1.000000000000000e+00 0.000000000000000e+00 3.299999999999999e+00 1.000000000000000e+00 0.000000000000000e+00 3.199999999999998e+00 1.000000000000000e+00 0.000000000000000e+00 3.099999999999999e+00 1.000000000000000e+00 0.000000000000000e+00 2.999999999999999e+00 1.000000000000000e+00 0.000000000000000e+00 2.899999999999999e+00 1.000000000000000e+00 0.000000000000000e+00 2.799999999999999e+00 1.000000000000000e+00 0.000000000000000e+00 2.699999999999999e+00 1.000000000000000e+00 0.000000000000000e+00 2.599999999999999e+00 1.000000000000000e+00 0.000000000000000e+00 2.500000000000000e+00 1.000000000000000e+00 0.000000000000000e+00 2.399999999999999e+00 1.000000000000000e+00 0.000000000000000e+00 2.299999999999999e+00 1.000000000000000e+00 0.000000000000000e+00 2.199999999999999e+00 1.000000000000000e+00 0.000000000000000e+00 2.100000000000000e+00 1.000000000000000e+00 0.000000000000000e+00 2.000000000000000e+00 1.000000000000000e+00 0.000000000000000e+00 1.899999999999999e+00 1.000000000000000e+00 0.000000000000000e+00 1.799999999999999e+00 1.000000000000000e+00 0.000000000000000e+00 1.699999999999999e+00 1.000000000000000e+00 0.000000000000000e+00 1.599999999999999e+00 1.000000000000000e+00 0.000000000000000e+00 1.500000000000000e+00 1.000000000000000e+00 0.000000000000000e+00 1.399999999999999e+00 1.000000000000000e+00 0.000000000000000e+00 1.299999999999999e+00 1.000000000000000e+00 0.000000000000000e+00 1.199999999999999e+00 1.000000000000000e+00 0.000000000000000e+00 1.100000000000000e+00 1.000000000000000e+00 0.000000000000000e+00 9.999999999999991e-01 1.000000000000000e+00 0.000000000000000e+00 8.999999999999995e-01 1.000000000000000e+00 0.000000000000000e+00 7.999999999999998e-01 1.000000000000000e+00 0.000000000000000e+00 7.000000000000002e-01 1.000000000000000e+00 0.000000000000000e+00 5.999999999999996e-01 1.000000000000000e+00 0.000000000000000e+00 4.999999999999991e-01 1.000000000000000e+00 0.000000000000000e+00 3.999999999999995e-01 1.000000000000000e+00 0.000000000000000e+00 3.000000000000007e-01 1.000000000000000e+00 0.000000000000000e+00 1.999999999999993e-01 1.000000000000000e+00 0.000000000000000e+00 9.999999999999964e-02 1.000000000000000e+00 0.000000000000000e+00 0.000000000000000e+00 8.999999999995836e-01 0.000000000000000e+00 0.000000000000000e+00 7.999999999999998e-01 0.000000000000000e+00 0.000000000000000e+00 7.000000000006934e-01 0.000000000000000e+00 0.000000000000000e+00 6.000000000013869e-01 0.000000000000000e+00 0.000000000000000e+00 5.000000000020587e-01 0.000000000000000e+00 0.000000000000000e+00 4.000000000016644e-01 0.000000000000000e+00 0.000000000000000e+00 3.000000000012483e-01 0.000000000000000e+00 0.000000000000000e+00 2.000000000008322e-01 0.000000000000000e+00 0.000000000000000e+00 1.000000000004160e-01 0.000000000000000e+00 7.477570327540725e-01 4.905967956478702e-01 0.000000000000000e+00 1.346210646643281e+00 4.806066422083806e-01 0.000000000000000e+00 1.949496869330408e+00 5.032480558805372e-01 0.000000000000000e+00 4.449999999999997e+00 5.000000000000384e-01 0.000000000000000e+00 3.859142349610828e+00 5.103468031113156e-01 0.000000000000000e+00 3.246530027037640e+00 5.183101712757180e-01 0.000000000000000e+00 2.657531292711257e+00 5.037429884868682e-01 0.000000000000000e+00 3.824015840967434e-01 6.064457502813875e-01 0.000000000000000e+00 2.306343155343502e+00 6.315316747431162e-01 0.000000000000000e+00 1.049999999998266e+00 3.374999999994497e-01 0.000000000000000e+00 1.641930697057102e+00 3.436055112169133e-01 0.000000000000000e+00 4.150000000000006e+00 6.625000000000185e-01 0.000000000000000e+00 3.552784161359181e+00 6.642488388863971e-01 0.000000000000000e+00 2.940292465243163e+00 6.575992780735344e-01 0.000000000000000e+00 1.641237689750194e+00 6.703960699373966e-01 0.000000000000000e+00 1.050000000000000e+00 6.706367924525535e-01 0.000000000000000e+00 2.960517759676693e+00 3.261740577967960e-01 0.000000000000000e+00 3.551899302943298e+00 3.210887133285832e-01 0.000000000000000e+00 4.150779393876139e+00 3.209867287821391e-01 0.000000000000000e+00 2.213980362532827e+00 3.194901812685164e-01 0.000000000000000e+00 4.927283029162088e-01 3.252862896001115e-01 0.000000000000000e+00 4.696684455724628e+00 3.145438084075651e-01 0.000000000000000e+00 4.690990908683984e+00 6.962960281446974e-01 0.000000000000000e+00 2.487221901830106e+00 2.763334294511438e-01 0.000000000000000e+00 6.215262983536076e-01 7.328515730233995e-01 0.000000000000000e+00 2.065768881873406e+00 7.342557316219342e-01 0.000000000000000e+00 2.543072460766750e+00 7.257064952909391e-01 0.000000000000000e+00 8.105176211436336e-01 2.535517621144286e-01 0.0000000000000
[...]
<CellData Scalars="A_conc,As-lin_conc,Bs-lang_conc,Cs-freund_conc," Vectors="" Tensors="">
<DataArray type="Float64" Name="A_conc" format="ascii">
2.541819553931339e-06 2.911883779870261e-01 2.690050277958469e-04 1.137801257656190e-06 2.418083891678846e-01 3.478786662081062e-02 4.040370530335360e-02 1.838084844300470e-01 2.785744658370545e-01 1.195054085800356e-06 5.677772182552756e-04 3.927953936410496e-06 4.135012362739848e-07 8.905165231210279e-04 2.954966761784957e-06 4.522953463218768e-06 2.872318558648334e-06 2.949011491091695e-06 1.938030445855305e-02 1.912179209422803e-06 1.114039452474115e-08 4.078826224398984e-07 1.663594951585579e-07 2.003143986183078e-07 1.204766733127552e-06 1.027090106333487e-07 8.278481844363349e-06 2.270744941580330e-01 1.727040643825051e-06 2.883447326420602e-06 1.739132102808970e-07 1.762884480698833e-06 1.279379797649781e-08 1.446806908222820e-06 2.257514876727603e-02 2.651877685892129e-01 2.178242513972454e-06 4.298238689621188e-08 9.753872834596975e-08 2.471253371962081e-01 1.416882037805113e-03 4.499173990071531e-07 6.929153332427171e-07 6.545726862117115e-09 5.553924163859132e-09 3.613812264660143e-02 3.145884375881001e-06 1.150035323521347e-01 1.910848722469296e-02 3.018984172574720e-02 2.773543658918992e-01 8.799473908883402e-07 1.207676441304864e-03 2.580461138891658e-01 2.737657175437643e-01 3.013724664752889e-01 1.803532178105794e-08 1.784491297543697e-01 2.190542902572288e-01 3.062206210851825e-06 4.690656424028900e-03 1.812210233429472e-01 7.565636858641508e-02 4.038479539872180e-10 2.403175248360914e-09 5.019428737424349e-02 1.130471249666635e-01 4.551386386111516e-09 2.863929879441140e-01 2.121008110929274e-01 1.046803902178127e-08 3.747299135201751e-05 4.221773260219483e-07 3.084855679336536e-06 1.239520986271320e-01 2.439494127667664e-02 3.081317543811764e-07 3.659307306930124e-02 1.402750207780387e-01 4.287664487119883e-09 1.779560669754026e-05 2.282697061914157e-02 2.104881110055908e-05 2.166230847141390e-03 9.155240261083625e-02 3.205182513223509e-07 3.019300911849056e-02 1.318380607627255e-01 3.408247296606528e-07 3.792583264971747e-09 1.030589951891257e-02 9.330343955047919e-02 1.994772636894376e-01 8.322599998676392e-02 2.769535841455152e-02 1.871200844265213e-06 8.176567580623947e-02 1.857922024203963e-01 1.594024354282194e-04 2.189326095344184e-01 2.017125272359158e-07 3.921938929503999e-07 4.039901545005796e-07 8.435648007712920e-02 2.321927182678932e-07 1.278767468628773e-01 2.524541326887477e-06 2.303779370060548e-01 2.221817535272335e-07 1.360488659718785e-01 4.931397419244172e-09 7.248416063103281e-07 6.890615884325836e-07 1.791087292938774e-08 1.633317523049758e-06 1.907962240276688e-01 2.949926793445754e-06 4.693419790862791e-08 1.300378770112359e-09 2.266410902506285e-01 1.381521764007559e-09 2.448669012486076e-07 5.633207357267886e-05 1.130018583755885e-06 2.213674844264803e-01 1.575380033863996e-08 4.486547182851449e-04 3.882143983057394e-07 1.974713791901532e-01 1.555371114821607e-01 2.613335513496157e-02 5.741570148538009e-09 1.421071180204665e-01 1.630123167101613e-01 5.631575261061184e-02 5.991327375194114e-09 3.091201849011798e-06 2.970022409776869e-01 1.071739420263616e-01 5.215769066482403e-02 4.614540157942469e-08 2.194357932756824e-01 8.114052854118579e-07 4.109190977700730e-10 7.120600931191564e-03 5.466708362747300e-03 1.279568397975999e-01 2.055007588576277e-08 3.595511750471859e-02 1.358390311941688e-01 1.989813210631840e-08 3.188866338007568e-02 5.878646424159113e-02 1.028559268227200e-01 9.995222558549738e-10 4.569212101762259e-03 1.014446750734796e-07 1.991057717826140e-01 8.033477614720687e-08 3.372998755598192e-03 3.324180112247209e-06 1.525368451041076e-01 3.515551272021837e-05 1.053718854914785e-04 1.014107141811185e-07 1.007335151154366e-06 8.607158233334538e-07 7.142974673906715e-09 8.332244885306127e-09 3.674334916327660e-03 1.125750467526312e-06 2.380527840415862e-07 5.670384932905380e-03 4.080833623244280e-03 1.173836822705378e-08 7.066519393471435e-02 1.766024509311570e-01 1.020194373227202e-04 1.917085160865920e-06 1.447288300891485e-09 7.920238643163877e-02 1.846189850177743e-01 2.520488144235605e-01 2.852196587083851e-09 9.735412679982592e-07 1.376124441232474e-07 4.756500463648031e-07 4.570603508562551e-09 3.128921746327235e-04 3.860087215756635e-08 8.441608421449852e-07 4.047850990019206e-07 2.607952376213189e-06 1.613421803274484e-06 8.580987725155275e-07 4.018778064693646e-08 1.164818840043261e-06 9.335866698742519e-07 5.947614380169529e-06 9.973817532692353e-06 8.292926611887649e-07 1.882469165289842e-10 3.169211300282809e-01 1.490352905255757e-08 6.638025899308661e-02 1.731716390645122e-01 9.088382235621102e-10 2.193334583089778e-08 1.779465781773107e-06 2.626515251819149e-01 1.037090604136166e-08 1.703061282760521e-04 5.009335451561548e-02 2.314217659649050e-06 3.575074001778571e-06 6.575502457192871e-09 1.082116052387213e-06 2.491362380623541e-09 2.147637414816140e-06 2.260144417031164e-02 1.876794719480651e-02 2.356748440342746e-01 3.774968753763951e-08 7.375993615118397e-08 1.234910524525344e-07 3.089510034664056e-01 1.141484392021029e-06 2.660641627797118e-07 1.709500575652987e-03 6.097258180805120e-08 6.589591900326044e-08 8.226036371205841e-07 1.359874105598060e-06 2.070364559354921e-07 6.284890420172927e-02 9.809193305011135e-02 1.169379964644259e-01 4.646728001887977e-02 1.049455603607876e-06 2.543696478417976e-03 1.263079533183442e-01 4.925109028127146e-08 3.866350833971303e-02 5.757894824796286e-11 7.324832137984720e-03 8.399941036715483e-02 1.902534820567577e-01 2.627617274124362e-03 3.733848632132698e-06 1.869862641376003e-03 3.590391662244242e-10 2.630018503311030e-09 6.604634165659319e-03 8.528900822256444e-02 1.896354219334056e-01 1.897464841413530e-01 1.830918326587064e-06 2.572347891247161e-06 2.685017062745904e-06 1.155477068476425e-03 4.060303586594100e-09 1.060607628831041e-06 9.833243095442926e-02 9.067427421782301e-02 2.260030675891299e-07 2.639751115253440e-06 4.835452627187009e-07 1.925689346502665e-06 5.164002580761167e-07 2.247154959073228e-03 4.457207152287803e-10 6.078594534948195e-09 1.366074911158672e-01 3.169725200031675e-02 7.765118726602374e-04 1.903826079242906e-06 2.755020386368648e-04 2.275538037334498e-06 3.831054016004221e-07 4.035739342893207e-07 1.881505149962561e-09 1.486836752648250e-01 2.803497616188742e-09 3.679859009348952e-06 2.291255304012289e-01 1.325049981367786e-07 3.105865046134806e-07 9.758859493449029e-08 5.867907491479105e-02 1.043880554881236e-01 9.894353858879017e-09 4.110434858270962e-10 1.715684753114158e-07 3.799492404780771e-07 1.589187251972840e-02 1.105282931187376e-08 1.186216924179568e-08 3.076900376904774e-06 1.827499662549155e-03 3.833688836613019e-06 9.961813100323414e-03 2.328010838276023e-08 9.283159840237637e-02 1.973270682669638e-01 1.851099650220872e-06 3.058457708284537e-06 2.998873870816194e-06 2.228239759910301e-01 9.983407793959626e-02 1.249594210547743e-02 1.079849372926771e-01 1.547044470303527e-02 3.277713448355530e-03 5.292312184416011e-08 4.762367720305582e-03 1.405311140338491e-06 1.075592471184990e-05 1.855278652887176e-05 2.787753875421161e-01 1.787323110506331e-01 1.723746542123192e-01 3.661876518159547e-08 3.836162927633222e-08 6.448209761462551e-07 2.011809093948436e-09 8.597118564770070e-02 7.707272278688004e-02 2.197742389432116e-07 1.050441186953716e-02 1.670442994913737e-06 2.980513372062836e-01 2.941029512956275e-01 2.948641104358975e-01 2.976278877563255e-01 2.152742178401867e-01 1.884510539475400e-06 1.853375140442260e-06 1.098569660459772e-08 6.322450560462629e-02 1.026036870624598e-07 2.669448517701587e-07 1.411580187288641e-06 3.315166016519609e-04 2.550145158313277e-01 6.856936874912236e-04 2.305743943370546e-06 1.177449636148353e-06 1.017393233221328e-03 7.828982578518813e-07 2.878251435549706e-05 3.115583440998172e-01 1.997106873104691e-04 4.131953077462352e-07 9.106918792994693e-08 3.872120936330794e-06 1.862790121482041e-01 1.353185770318349e-08 2.095953465949823e-08 9.804504727319907e-07 3.364591043753001e-08 3.348095972351950e-06 1.618549059908847e-10 3.219729927562502e-06 1.611775236368068e-01 1.582297208639762e-06 1.639237230584193e-01 1.044486553235894e-08 9.521176606013895e-02 6.712840777121028e-02 2.844557962135940e-01 3.174761035347710e-01 3.174761074659702e-01 2.390005318472871e-01 2.379326362170222e-01 8.498457793419192e-03 1.054542877394367e-08 1.965364902409416e-01 5.235851525071824e-09 1.765239206110060e-01 8.275012526237326e-10 2.833810536216426e-01 2.583862214395165e-06 6.650592326627251e-07 1.091788063103167e-01 1.659557732851628e-02 5.419486456549466e-05 2.629110539302674e-08 4.787560174178525e-06 4.576683769100875e-06 2.362772858296124e-01 2.817916826447155e-01 3.018473012150578e-09 2.126158443200221e-07 4.155728043132535e-04 6.086035964485052e-08 2.712354218782114e-06 1.603595695064153e-06 1.458784256471314e-01 1.357716492851204e-01 1.515582208895107e-07 6.046632093850671e-03 2.726939838845038e-01 2.671215425844173e-04 1.780269663129483e-06 1.210788197109696e-06 1.559703037809580e-06 1.643802466690116e-07 3.664877737375112e-02 2.588301054386811e-01 1.409877163973649e-01 3.141682791829820e-03 3.170745379000106e-01 3.344222070157770e-03 3.912334484015664e-07 1.681604933664380e-01 2.762750245391113e-01 2.423350509004524e-07 3.649178911520916e-07 6.970523129058195e-02 4.487295040180526e-07 4.089123279250891e-08 3.134282851241800e-02 1.337864099836353e-01 2.212393595810148e-01 3.599702039579036e-08 7.401462679754653e-06 5.663682246310852e-09 3.425999171609537e-09 1.740107340475830e-02 1.101883505958861e-01 2.156916311012712e-01 1.177708718584551e-06 3.633524699719251e-09 1.390432872911929e-02 1.039147527521164e-01 2.092760060206620e-01 8.616086555056628e-07 1.076076736115363e-09 9.396831656108143e-02 6.737792630387342e-02 5.122221534099672e-03 7.155024944444217e-02 9.099279708992072e-02 1.564982919020006e-01 4.955117373461804e-02 1.720705675876248e-01 6.497610056575159e-02 1.406535075846095e-04 3.447581052278617e-06 3.052183557168463e-01 2.392500077581949e-04 1.636424510961980e-07 4.364166702428962e-02 2.990724693762113e-01 1.478186402335318e-01 4.175452020359648e-02 2.928688631001758e-03 1.713131475860255e-07 3.817053648531299e-06 1.329294947968070e-09 2.528213107147276e-01 2.777189634897675e-01 3.215665547879127e-06 7.273519192994281e-05 2.464977256103821e-04 1.083262737260059e-06 3.000191413594574e-01 2.947878476357566e-01 3.765931262516811e-07 1.752758790806616e-01 1.305584078019362e-03 1.415094168858938e-03 4.247004731126783e-03 2.744012523678261e-01 2.655532259010317e-01 2.719384358327194e-01 6.073477010570175e-07 2.327107524082048e-07 3.600151951225872e-08 8.845632912812939e-05 2.151678415925052e-01 2.436636090852869e-07 2.390720444797080e-01 7.218949672075700e-02 5.183605180411043e-09 8.882328613571433e-11 1.946539283726078e-01 8.223152803459866e-02 7.326068420105367e-02 9.983927132166793e-07 1.428502009502471e-01 2.942501746046522e-01 2.458184301224455e-01 1.655009733561073e-01 1.821842857076561e-01 7.534857842293083e-02 4.907403466679624e-04 2.289493531948992e-01 1.302491306313664e-02 2.469183025118817e-01 1.431306570159185e-08 1.191175789963197e-06 1.196707818146202e-06 1.397669211536621e-01 3.660118161094091e-02 1.071187798081356e-01 5.523609103849744e-02 1.354165031489212e-07 1.472063479807134e-08 1.711499874634457e-06 2.309392363648929e-01 2.378596852492277e-06 1.001089433111017e-04 2.639368939861380e-06 9.955163885271836e-06 7.874463951731319e-07 1.579279389543447e-01 2.115680603156401e-01 2.484392870179625e-01 2.507944197100649e-01 1.840854036559068e-06 3.600957667190212e-06 2.252427396741340e-06 1.207137606707335e-09 2.606069445393893e-01 2.350429041182526e-01 3.595227146594756e-07 1.816147576277268e-01 5.140963291882661e-03 2.655127818548249e-01 7.245922068244925e-03 1.027477826096080e-06 2.411969436725258e-01 1.961887430208698e-01 7.583508939497612e-04 3.405955192872427e-02 2.018528271733728e-03 1.550279719324870e-06 9.520938409177953e-07 2.303249269822887e-01 2.830520837196574e-02 1.988955466216095e-01 1.911523983100882e-10 9.406409302192935e-02 9.909439972826124e-03 7.078765199850158e-09 4.500928232506282e-10 2.451696802230103e-01 1.554988055880555e-03 1.427036371819206e-06 4.082196375218484e-06 3.575524503598075e-07 3.388256029282518e-08 1.425895224397501e-01 3.824971295015238e-02 1.843669404874349e-06 2.207056839707194e-01 2.687766564373423e-01 2.792115077859406e-06 2.478989095290822e-06 3.778065554749405e-08 7.736917494449396e-07 7.231632657285361e-08 1.775071612962666e-02 1.132651813549030e-01 1.492149259067659e-07 1.601788328407845e-01 3.502603588426610e-06 2.868446533585392e-01 2.493846866295009e-06 2.589710203760603e-07 2.532059386478536e-01 2.488911946576823e-01 2.458161672566044e-08 2.233054420756598e-01 2.281044205267064e-01 2.711533327324020e-06 3.614253706006038e-03 9.259839264271394e-02 5.517424549299881e-07 7.909211203184414e-04 2.844758293222645e-01 2.781091095554881e-01 3.165161747635216e-05 1.055799081984471e-07 7.221904818498517e-02 5.730955382942119e-05 7.543961635285539e-04 4.678372658173432e-08 2.053438514047935e-01 1.930112273639561e-08 1.183383471922028e-08 1.496262754652972e-01 1.134685140789250e-08 1.550709130562417e-01 2.993484168482918e-01 2.929598204762875e-01 2.645555421885055e-05 3.075952476333431e-02 3.885958363079343e-06 6.399287527942628e-09 4.400273600448075e-08 1.317022339754280e-01 3.866587464356315e-06 2.975362480581948e-02 2.832098324818560e-01 1.162167953372303e-09 1.539508161351826e-08 1.555087517544133e-08 4.225103954088607e-04 2.443039178861018e-07 3.755477607213405e-06 1.265051818025585e-08 2.602853383513968e-07 2.284548178302362e-01 2.771111455439179e-07 1.224071718541376e-07 1.695632191657586e-05 1.125908431143320e-02 5.599167570930536e-09 1.720635811093822e-01 1.122343188946810e-03 5.119663396802423e-06 1.787366600869200e-06 2.049497090662282e-01 9.963235930936044e-10 6.447256081756637e-05 5.376088614390020e-08 3.323129931393941e-06 1.520591969064393e-06 1.792002858979180e-01 1.729392169080496e-01 3.819520145036998e-09 8.830042114920498e-07 1.332077692201071e-01 6.875898540197688e-07 1.012456699143220e-08 7.555005666515531e-02 7.010549546497445e-08 2.163978930188147e-02 1.193826541654815e-01 1.328655260504408e-07 1.508371359660770e-07 9.531277846906852e-08 1.247609205847282e-01 4.091521779644361e-02 7.340628071721050e-06 9.452187432433387e-04 5.441188848832456e-08 1.352569381272571e-07 1.548912957864043e-06 2.449525789025035e-01 5.090327050595136e-06 1.448428843438546e-07 1.405169514871176e-01 3.648327601338010e-02 1.127835024478806e-06 2.085705868948165e-01 2.038531055507992e-01 1.311351003746317e-07 1.133787680033193e-07 1.843704446918141e-01 1.614360302044669e-06 1.887763795433630e-08 3.502888889710627e-08 2.491357488098202e-08 1.967480873183334e-05 1.791122685526772e-03 3.311292074275598e-05 2.739469662290035e-08 1.080969481848970e-06 1.906517802713062e-01 1.853154616074181e-01 6.470263911870253e-03 1.903218735807834e-08 2.003319775325401e-08 2.145550299994077e-09 4.763645010324119e-04 1.247941491276612e-02 1.603926903927557e-08 1.730059145672180e-08 6.129906412297234e-09 1.012094220037188e-01 3.437769164622888e-06 2.207100111945441e-03 2.605980183356952e-01 1.851949963102998e-06 3.125468886217624e-01 3.116514004718375e-01 1.298775428719073e-04 3.910480768532950e-06 6.663280667807564e-02 6.016825116469599e-02 8.221068935666820e-03 1.373557917140738e-04 8.833676882543921e-05 2.623824722443470e-02 4.284653331411069e-08 1.270317951676290e-01 5.609551151623600e-04 2.121107028002900e-01 1.225257678985833e-07 3.056118551436227e-01 3.121154031643295e-01 3.122972135725052e-01 3.058015162449580e-01 3.034445547251114e-01 3.043694382869788e-01 1.658663832965058e-07 1.244044456150336e-01 9.374032030521414e-03 8.450067671840793e-03 8.850964328455127e-08 6.059533882691462e-05 2.256438272768088e-06 5.085440803744248e-08 2.529682020987887e-01 9.661776147367127e-05 1.616949363900232e-04 7.148189262222426e-07 7.363756980552346e-07 1.179960674400577e-01 4.718423812298938e-02 4.410584599398756e-06 1.601349169049328e-04 1.928263769287557e-07 8.210175265112598e-04 1.230093463386057e-08 1.474476041896903e-06 2.699762153066205e-08 6.009841088203234e-09 1.574222541736833e-02 1.564767019977778e-01 3.146266965098846e-08 5.023335340987489e-02 1.890283415502051e-06 1.023364731821228e-07 1.315950362601115e-08 3.264633681176942e-07 3.892343035020112e-06 1.059521482685944e-01 3.655259773054494e-07 6.036283181045156e-08 1.649324689776513e-02 1.420314207853921e-02 2.039998536137316e-09 1.569870863650757e-01 4.489917936186088e-08 1.502450430594611e-06 8.636543087400046e-03 3.192527513109314e-01 3.192527527392892e-01 1.700996039067041e-08 2.134880083820948e-01 1.849412169200736e-02 1.575535644459947e-05 1.177377163494101e-06 1.372011060739419e-01 5.647959305981682e-08 3.111219721251280e-02 4.353225692346979e-06 5.966527271247315e-02 3.116988966518262e-01 3.116989009679246e-01 1.179417749703150e-01 2.527786161668669e-01 2.455622390957047e-01 2.262170605876649e-01 1.867543063668620e-06 1.105415860371138e-08 2.663730511743184e-01 2.594905880728300e-01 5.165434318279319e-05 8.357760701273432e-09 8.401362296338979e-07 8.101385515570523e-09 6.503161886732907e-09 2.504208461471231e-01 1.130546297160305e-02 3.045685949433126e-01 3.046911504095827e-01 2.272978334653601e-08 8.992177340457949e-08 1.634654353906691e-01 1.722617237261244e-07 5.743514021616478e-02 4.710648086795572e-08 1.092062066754330e-06 1.884778289407664e-01 2.038543211950598e-01 3.215999842588744e-06 2.639521033846707e-06 2.196033258925331e-05 3.551828400955615e-05 2.615918213635160e-03 1.234292703924334e-08 2.136754417727699e-01 4.947182498484393e-02 4.350306323368155e-02 1.547288239292978e-01 1.475027427429362e-01 1.201233235565737e-02 2.434948466314565e-06 5.836101420817250e-02 1.276256220660481e-07 1.085990210683526e-01 4.675688384868111e-08 7.866118210797676e-03 8.691673195215480e-02 1.918807313515227e-01 1.687703496309279e-01 6.277333766655015e-02 9.111286389721340e-03 5.204012003644502e-02 3.231344727090683e-08 1.132626537112700e-01 3.683205701825612e-06 7.455940581842400e-09 2.755836363753191e-06 1.141799695245646e-06 1.816063226704239e-01 9.719130494259801e-03 2.725397079790004e-01 8.138304470531382e-02 2.032906330908396e-01 2.390188348428055e-02 5.127760163416586e-08 1.202082285631130e-01 4.477872714157918e-02 1.991252137992230e-01 2.493762006833465e-03 1.660961299869907e-03 1.828965271574987e-06 3.779340226408410e-06 3.066872674946364e-08 3.851535286621035e-03 2.817103073147749e-01 2.865778879888680e-01 4.723030874912567e-06 9.894075728108340e-02 1.162657925137019e-02 2.738294941267988e-01 1.008839158875642e-08 2.313582338207115e-06 2.675348752091448e-06 2.572489329314676e-01 2.643698859113379e-01 1.895509136268521e-08 3.245777427995396e-09 2.204481122085921e-02 1.185495160299147e-01 6.802620378721083e-07 6.451267147883401e-07 8.237604871615950e-02 2.123588510190026e-09 3.286697337363524e-06 9.973778542872962e-05 2.133565155013624e-07 2.659229357583994e-01 3.700060492639947e-10 3.499156771346411e-05 3.985886075717849e-06 2.865513545228269e-01 3.049911967253634e-01 3.118941855008287e-01 1.269178368937682e-01 1.207665967902057e-09 1.984901626988004e-04 2.987212432542740e-04 1.013599645932411e-08 1.786193008237791e-01 7.417842967006538e-02 2.197512971612183e-06 5.353738382501297e-06 2.053416634667389e-02 1.634787837284326e-02 2.681609617692066e-06 6.294445520923257e-07 1.011860131304600e-06 5.287334132322835e-09 1.551014905174609e-10 9.142655327447691e-09 3.408056137068899e-05 2.067338218810654e-07 5.099398773691556e-02 1.568409528471456e-01 5.941415987234906e-06 1.121620982636997e-05 1.084862473272225e-07 1.926284209913243e-01 4.611064466487272e-07 1.279525982884714e-01 1.120456721968247e-03 1.222689652815481e-06 2.423622803977223e-06 9.940547124469504e-02 2.816715200136791e-01 1.270888693635748e-05 2.098938186538118e-05 5.408417454486789e-06 2.482230765260842e-01 2.797940891585090e-01 1.0058728