<?xml version="1.0"?>
<VTKFile type="UnstructuredGrid" version="0.1" byte_order="LittleEndian">
<UnstructuredGrid>
<Piece NumberOfPoints="570" NumberOfCells="968">
<Points>
<DataArray type="Float64" NumberOfComponents="3" format="ascii">
0 0 0 0 1 0 16 1 0 16 0 0 0 0.199999999999558 0 0 0.399999999998975 0 0 0.599999999998947 0 0 0.799999999999473 0 0.199999999999623 1 0 0.399999999999246 1 0 0.599999999998836 1 0 0.799999999998394 1 0 0.999999999997972 1 0 1.19999999999764 1 0 1.39999999999734 1 0 1.59999999999703 1 0 1.79999999999673 1 0 1.99999999999638 1 0 2.19999999999584 1 0 2.39999999999526 1 0 2.59999999999468 1 0 2.79999999999409 1 0 2.99999999999351 1 0 3.19999999999293 1 0 3.39999999999234 1 0 3.59999999999176 1 0 3.79999999999118 1 0 3.99999999999059 1 0 4.19999999999001 1 0 4.39999999998943 1 0 4.59999999998885 1 0 4.79999999998826 1 0 4.99999999998768 1 0 5.1999999999871 1 0 5.39999999998651 1 0 5.59999999998593 1 0 5.79999999998535 1 0 5.99999999998476 1 0 6.19999999998418 1 0 6.3999999999836 1 0 6.59999999998302 1 0 6.79999999998243 1 0 6.99999999998185 1 0 7.19999999998127 1 0 7.39999999998068 1 0 7.5999999999801 1 0 7.79999999997952 1 0 7.99999999997911 1 0 8.19999999997946 1 0 8.39999999997999 1 0 8.59999999998051 1 0 8.79999999998104 1 0 8.99999999998157 1 0 9.1999999999821 1 0 9.39999999998262 1 0 9.59999999998315 1 0 9.79999999998367 1 0 9.9999999999842 1 0 10.1999999999847 1 0 10.3999999999852 1 0 10.5999999999858 1 0 10.7999999999863 1 0 10.9999999999868 1 0 11.1999999999874 1 0 11.3999999999879 1 0 11.5999999999884 1 0 11.7999999999889 1 0 11.9999999999895 1 0 12.19999999999 1 0 12.3999999999905 1 0 12.5999999999911 1 0 12.7999999999916 1 0 12.9999999999921 1 0 13.1999999999926 1 0 13.3999999999932 1 0 13.5999999999937 1 0 13.7999999999942 1 0 13.9999999999947 1 0 14.1999999999953 1 0 14.3999999999958 1 0 14.5999999999963 1 0 14.7999999999968 1 0 14.9999999999974 1 0 15.1999999999979 1 0 15.3999999999984 1 0 15.5999999999989 1 0 15.7999999999995 1 0 16 0.8 0 16 0.600000000001387 0 16 0.400000000001664 0 16 0.200000000000832 0 15.7999999999992 0 0 15.5999999999983 0 0 15.3999999999975 0 0 15.1999999999967 0 0 14.9999999999958 0 0 14.799999999995 0 0 14.5999999999942 0 0 14.3999999999933 0 0 14.1999999999925 0 0 13.999999999992 0 0 13.7999999999931 0 0 13.5999999999945 0 0 13.3999999999958 0 0 13.1999999999972 0 0 12.9999999999986 0 0 12.8 0 0 12.6000000000014 0 0 12.4000000000028 0 0 12.2000000000042 0 0 12.0000000000055 0 0 11.8000000000069 0 0 11.6000000000083 0 0 11.4000000000097 0 0 11.2000000000111 0 0 11.0000000000125 0 0 10.8000000000139 0 0 10.6000000000152 0 0 10.4000000000166 0 0 10.200000000018 0 0 10.0000000000194 0 0 9.8000000000208 0 0 9.60000000002219 0 0 9.40000000002358 0 0 9.20000000002496 0 0 9.00000000002635 0 0 8.80000000002774 0 0 8.60000000002913 0 0 8.40000000003051 0 0 8.2000000000319 0 0 8.00000000003294 0 0 7.80000000003245 0 0 7.60000000003162 0 0 7.40000000003079 0 0 7.20000000002996 0 0 7.00000000002913 0 0 6.8000000000283 0 0 6.60000000002746 0 0 6.40000000002663 0 0 6.2000000000258 0 0 6.00000000002496 0 0 5.80000000002413 0 0 5.6000000000233 0 0 5.40000000002247 0 0 5.20000000002164 0 0 5.0000000000208 0 0 4.80000000001997 0 0 4.60000000001914 0 0 4.40000000001831 0 0 4.20000000001748 0 0 4.00000000001664 0 0 3.80000000001581 0 0 3.60000000001498 0 0 3.40000000001415 0 0 3.20000000001331 0 0 3.00000000001248 0 0 2.80000000001165 0 0 2.60000000001082 0 0 2.40000000000998 0 0 2.20000000000916 0 0 2.00000000000832 0 0 1.80000000000749 0 0 1.60000000000666 0 0 1.40000000000583 0 0 1.20000000000499 0 0 1.00000000000416 0 0 0.800000000003328 0 0 0.600000000002495 0 0 0.400000000001665 0 0 0.200000000000832 0 0 13.700657105669 0.16981258116099 0 13.2999999999965 0.173205080755686 0 12.8999999999993 0.173205080755686 0 12.5000000000021 0.173205080755686 0 12.1000000000048 0.173205080755686 0 11.7000000000076 0.173205080755686 0 14.0999999999922 0.173205080756647 0 0.699999999998615 0.826794919243495 0 11.3000000000104 0.173205080755686 0 1.09999999999781 0.826794919243437 0 10.9000000000132 0.173205080755687 0 2.09999999999211 0.826794919240002 0 1.49999999999719 0.826794919243377 0 10.5000000000159 0.173205080755686 0 15.8338849492515 0.508577035510267 0 2.49999999999102 0.826794919240213 0 10.1000000000187 0.173205080755686 0 2.8999999999938 0.826794919243617 0 15.2993574447989 0.831314592868588 0 14.8999999999971 0.826794919242657 0 14.4999999999961 0.826794919242658 0 3.29999999999263 0.826794919243617 0 9.70000000002149 0.173205080755686 0 3.69999999999147 0.826794919243617 0 9.30000000002427 0.173205080755686 0 4.0999999999903 0.826794919243617 0 4.49999999998914 0.826794919243617 0 8.90000000002705 0.173205080755686 0 4.89999999998797 0.826794919243617 0 8.50000000002983 0.173205080755686 0 5.29999999998681 0.826794919243617 0 5.69999999998449 0.826794919242383 0 8.09910141477586 0.166485795059121 0 6.09999999998447 0.826794919243617 0 6.49999999998331 0.826794919243617 0 6.89999999998214 0.826794919243617 0 7.29999999998075 0.826794919243018 0 7.69999999997987 0.826794919243148 0 1.70000000000707 0.173205080757607 0 13.499999999993 0.826794919242336 0 13.0999999999923 0.826794919242697 0 13.9000884253257 0.828379939256167 0 0.506641475208022 0.168637425096977 0 12.6999999999914 0.826794919242744 0 15.0999999999958 0.173205080758772 0 14.7000008112358 0.173203284806108 0 0.900000000003744 0.173205080757609 0 12.2999999999903 0.826794919242657 0 1.30000000000541 0.173205080757607 0 11.8999999999891 0.826794919242668 0 2.29940860489605 0.165793056170904 0 11.4999999999882 0.826794919242758 0 2.70000000001123 0.173205080757609 0 3.1000000000129 0.173205080757609 0 11.0999999999873 0.826794919242715 0 3.50000000001456 0.173205080757607 0 10.6999999999861 0.826794919242764 0 3.90000000001623 0.173205080757609 0 10.2999999999852 0.826794919242759 0 4.30000000001789 0.173205080757607 0 4.70000000001956 0.173205080757609 0 9.89999999998405 0.826794919242736 0 5.10000000002122 0.173205080757607 0 9.49999999998289 0.826794919242657 0 5.50000000002288 0.173205080757608 0 9.09999999998171 0.826794919242731 0 5.90000000002455 0.173205080757608 0 6.30000000002622 0.173205080757608 0 8.69999999998059 0.82679491924274 0 6.70000000002787 0.173205080757607 0 8.29999999997969 0.82679491924282 0 7.10000000002954 0.173205080757608 0 7.50000000003121 0.173205080757609 0 15.4999999999974 0.173205080759918 0 0.166115050745933 0.491422964488694 0 0.302985888731723 0.83439513050655 0 15.6922736942162 0.815654138696531 0 8.09999999997948 0.826794919242848 0 8.19999999997958 0.653589838485829 0 7.99999999997967 0.653589838485872 0 8.39999999997957 0.653589838485763 0 8.29999999997951 0.480384757728964 0 8.49999999997927 0.480384757728878 0 8.5999999999797 0.653589838485656 0 8.69999999997898 0.480384757728697 0 8.09936479783543 0.483984524751002 0 7.89889995640994 0.483443222557347 0 7.79999999997985 0.653589838485708 0 7.69999999998024 0.482568040765242 0 7.79645162934511 0.316140149424588 0 7.59999999998004 0.653832425489461 0 7.49999999998032 0.480384757728063 0 7.39999999998017 0.653616792596627 0 7.29999999998032 0.480384757727631 0 7.19999999998034 0.653592833386099 0 7.0999999999803 0.480384757727202 0 6.99999999998044 0.653589838484526 0 6.89999999998028 0.480384757726783 0 6.7999999999806 0.653589838484268 0 6.69999999998025 0.480384757726355 0 6.59999999998073 0.65358983848395 0 6.49999999998023 0.480384757725918 0 6.39999999998085 0.653589838483615 0 6.2999999999802 0.480384757725469 0 6.19999999998097 0.653589838483274 0 6.09999999998018 0.480384757725009 0 5.99999999998109 0.653589838482929 0 5.89999999998015 0.480384757724548 0 5.79999999998125 0.653589838482601 0 5.69999999998011 0.480384757724105 0 5.59999999998118 0.653589838482109 0 5.49999999998009 0.480384757723655 0 5.39999999998145 0.653589838481903 0 5.29999999998006 0.480384757723202 0 5.19999999998159 0.653589838481573 0 5.09999999998003 0.480384757722739 0 4.99999999998171 0.653589838481231 0 4.89999999998 0.480384757722284 0 4.79999999998184 0.653589838480891 0 4.69999999997997 0.480384757721832 0 4.59999999998196 0.653589838480548 0 4.49999999997994 0.480384757721369 0 4.39999999998208 0.653589838480199 0 4.29999999997992 0.480384757720903 0 4.19999999998221 0.653589838479851 0 4.09999999997989 0.480384757720439 0 3.99999999997947 0.653589838477122 0 3.89999999997986 0.480384757719978 0 3.79999999997944 0.653589838476661 0 3.69999999997983 0.480384757719518 0 3.59999999997941 0.653589838476202 0 3.4999999999798 0.480384757719058 0 3.39999999997938 0.65358983847574 0 3.29999999997977 0.480384757718598 0 3.19999999997935 0.653589838475281 0 3.09999999997974 0.480384757718137 0 2.99999999997932 0.653589838474822 0 2.89999999997971 0.480384757717679 0 2.7999999999793 0.653589838474364 0 2.69999999997968 0.480384757717221 0 2.59999999997927 0.653589838473905 0 2.49999999997965 0.480384757716762 0 2.39999999997924 0.653589838473444 0 2.29940860487266 0.483873901626366 0 2.19993428941465 0.653977521131915 0 2.09920417199692 0.483093795650007 0 1.99990427347715 0.653933918540785 0 1.89976951723567 0.483875882968814 0 1.79996375451097 0.654015972399612 0 1.69999999997939 0.480384757714885 0 1.99881720977017 0.315897138893714 0 1.59999999997892 0.653589838471666 0 1.49999999997923 0.48038475771442 0 1.39999999997875 0.653589838471227 0 1.29999999997906 0.480384757713966 0 1.19999999997858 0.653589838470776 0 1.09999999997889 0.480384757713518 0 0.99999999997842 0.65358983847032 0 0.899999999978739 0.480384757713072 0 0.799999999978276 0.653589838469859 0 0.699999999978606 0.480384757712627 0 0.599999999978152 0.653589838469396 0 0.488902152079335 0.480182833362319 0 0.397961476484174 0.663879545519049 0 1.89999999999457 0.826794919240091 0 14.2999999999927 0.173205080757313 0 14.2005913950999 0.34510091248886 0 14.4000657105598 0.346264689401101 0 14.0013223237587 0.34128270625806 0 14.300738229825 0.5135282064438
[...]
<PointData Scalars="pressure_p1," Vectors="" Tensors="">
<DataArray type="Float64" Name="pressure_p1" format="ascii">
-0.0955538770791543 -0.0955569056359715 -21.1445336237171 -21.1447774947648 -0.0799769342651724 -0.084969569256436 -0.0902578823251309 -0.0851785702462796 -0.292255948525791 -0.560774693534502 -0.840064348416712 -1.12005331365334 -1.40004749997959 -1.68004199771538 -1.96003659623112 -2.2400314390816 -2.52002667559856 -2.80002228273636 -3.08001815905099 -3.36001437677909 -3.64001113980113 -3.92000856050186 -4.20000655872348 -4.4800049922159 -4.76000375545785 -5.04000278180339 -5.32000202347547 -5.60000144088932 -5.88000099947725 -6.16000066918876 -6.44000042450321 -6.72000024433521 -7.00000011175541 -7.28000001359048 -7.55999993998482 -7.83999988400042 -8.1199998413303 -8.3999998102066 -8.67999979161307 -8.95999978989806 -9.23999981368915 -9.51999987617675 -9.79999999150458 -10.0800001611952 -10.3600003569403 -10.6400005150378 -10.9200004989185 -11.2000002018539 -11.4799997121055 -11.7599992107852 -12.0399987642228 -12.3199982573525 -12.5999974633344 -12.8799960886876 -13.1599937177516 -13.4399897028329 -13.7199830125976 -13.9999720137964 -14.2799541481812 -14.5599254551547 -14.8398798744087 -15.1198082407413 -15.3996968552077 -15.6795254825257 -15.9592645842565 -16.2388715512453 -16.518285648499 -16.7974213334835 -17.0761595583292 -17.3543366225518 -17.6317301117244 -17.9080414455941 -18.1828745700173 -18.4557103473136 -18.7258761636547 -18.9925103655587 -19.2545589327915 -19.5106001906425 -19.7588983506625 -19.9975587489075 -20.2240057894936 -20.4352885967583 -20.6279088844939 -20.7977127068905 -20.9392631034195 -21.0483349656726 -21.1180143847375 -21.1462043084778 -21.1456699205991 -21.144995793331 -21.1456191111363 -21.1182908782439 -21.0494301731854 -20.9401730982169 -20.7977945500666 -20.6279274651135 -20.435307772298 -20.2240260428087 -19.9975783550214 -19.7589272364998 -19.5106908426155 -19.2548078615363 -18.9926938351713 -18.7258718149472 -18.4557079542611 -18.1828736728395 -17.9080412950755 -17.6317302708077 -17.3543368778396 -17.0761598155635 -16.7974215565533 -16.5182858281177 -16.23887168958 -15.9592646876228 -15.6795255580676 -15.3996969095187 -15.1198082794166 -14.8398799020443 -14.5599254755731 -14.2799541648117 -13.9999720302434 -13.7199830335357 -13.4399897355382 -13.159993774943 -12.8799961944884 -12.5999976692974 -12.3199987053572 -12.0400000345893 -11.7599006344819 -11.4797184781107 -11.1992859655502 -10.9182049098498 -10.6386919310643 -10.3599964057263 -10.0799984710222 -9.7999991542959 -9.51999943933922 -9.23999958210457 -8.95999966657774 -8.67999972588193 -8.39999977518974 -8.11999982272232 -7.83999987419334 -7.55999993496161 -7.28000001128764 -7.0000001112207 -6.72000024533957 -6.44000042744767 -6.16000067526809 -5.8800010111672 -5.60000146295846 -5.32000206495003 -5.04000285979536 -4.76000390314741 -4.48000527903426 -4.20000716260896 -3.92001013836724 -3.63991668688064 -3.35981021155745 -3.07944665362868 -2.79839559124129 -2.51882745528879 -2.24002864764529 -1.96003725624463 -1.68004548714307 -1.40005491996078 -1.12006640990968 -0.841677850751171 -0.563821101782456 -0.293241514454898 -19.1253369319587 -18.5911859806519 -18.0456792423474 -17.493152272105 -16.9368514951772 -16.3786085639963 -19.6361045899709 -0.980068537620501 -15.819409096927 -1.54004493156078 -15.2597588613436 -2.93999991032731 -2.10003408449646 -14.6999053772965 -21.1290305338127 -3.50001261834338 -14.139964200651 -4.06000746046915 -20.8718565606264 -20.5342604205093 -20.1125392896034 -4.62000434008403 -13.5799868157444 -5.18000238131474 -13.0199951351481 -5.7400012055894 -6.30000053786833 -12.4599981287624 -6.86000017301714 -11.8999784480906 -7.41999997396214 -7.97999986020692 -11.3383653959815 -8.53999979587912 -9.09999978781885 -9.65999990573694 -10.2200003212843 -10.7800000028745 -2.37937355671762 -18.8596973536135 -18.3195799547819 -19.383539814571 -0.712622886596684 -17.7700431420934 -20.7159823211259 -20.3317661562448 -1.26005968291915 -17.2153305390664 -1.82004125364414 -16.6578948182404 -3.21866574646473 -16.0990878824213 -3.77998188231425 -4.34000603894685 -15.5396202557616 -4.90000333325321 -14.9798480438046 -5.4600017395837 -14.4199414749295 -6.02000082954638 -6.58000032899938 -13.8599781860989 -7.14000005766795 -13.2999919710655 -7.69999990348166 -12.7399968706065 -8.25999980057672 -8.81999970502262 -12.1799984937248 -9.37999955156617 -11.6199993951922 -9.93999910152803 -10.4992962320367 -20.9993677900524 -0.230076829233472 -0.425190998005112 -21.086874522481 -11.3399999875672 -11.4799094692334 -11.1997813061088 -11.7599988451028 -11.6198316585618 -11.8999981840719 -12.0399985375051 -12.1799983116488 -11.3386548026818 -11.0580457144249 -10.9198634449068 -10.7793903889691 -10.9159253470205 -10.6400064843886 -10.5000007523099 -10.3600004661558 -10.2200001674965 -10.0800001166357 -9.9399998077176 -9.79999989816531 -9.65999971341562 -9.51999979910387 -9.37999970179672 -9.23999976351226 -9.09999971762218 -8.95999976033274 -8.8199997433627 -8.67999977500808 -8.53999977463689 -8.39999980110835 -8.2599998110779 -8.11999983641658 -7.97999985405776 -7.8399998813818 -7.69999990633617 -7.55999993862894 -7.41999997226667 -7.28000001295753 -7.14000005818828 -7.00000011159383 -6.86000017290191 -6.72000024458319 -6.58000032819858 -6.44000042526229 -6.30000053941711 -6.16000067075681 -6.02000082599826 -5.88000100243951 -5.74000121197886 -5.60000144625325 -5.46000172631613 -5.32000203273796 -5.18000240276662 -5.04000279641327 -4.900003278511 -4.76000377385706 -4.62000438886302 -4.48000499944285 -4.34000574937522 -4.20000650111616 -4.06000730328579 -3.92000833121748 -3.77999909659905 -3.64001074151468 -3.49983976050642 -3.35992188659079 -3.21877721149798 -3.07978998527923 -2.9385668820814 -2.79981621979864 -2.65958597144411 -2.51997184006663 -2.37999658360768 -2.79762315796902 -2.24002743513948 -2.10003492462263 -1.96003712394435 -1.82004054194447 -1.68004276547539 -1.54004695021457 -1.40004840335412 -1.26005338799782 -1.12005273259372 -0.979383371568839 -0.838417667837056 -0.680425985680134 -0.556763461873449 -2.66000758409409 -19.8796817153917 -19.760086837064 -19.9977467493274 -19.5126760843511 -19.8807710408769 -20.1126343736493 -20.2240301661384 -20.3318315904919 -20.4353014830821 -20.5342679311461 -20.6279213783104 -20.7160262944201 -20.7977499813563 -20.8728188042932 -20.9407932822362 -21.0068687293179 -21.0505484206063 -21.0892217955962 -20.1125092203207 -18.0456718573216 -17.9080413515541 -17.631730107944 -17.7700489629322 -17.4931522300128 -18.0456795367944 -17.3543366573672 -17.2153337039151 -18.1828743133894 -18.4557099630179 -18.3195898570733 -18.5911883082022 -18.7258766574514 -18.8598611013743 -18.9926268683231 -19.125314245733 -19.2547981937165 -18.5911758083872 -16.3786073756436 -16.2388715824218 -15.9592646084182 -16.0990886732889 -15.8194090691676 -16.3786085151643 -15.6795255007206 -15.5396206238008 -16.5182856871116 -16.6578964405879 -16.7974213783075 -16.9368514244598 -17.0761596044413 -16.9368491433934 -14.1399641476055 -13.9999720180732 -13.7199830177587 -13.8599782193559 -13.579986804868 -14.1399641949489 -13.4399897100106 -13.2999919973201 -12.459997902406 -12.5999974581788 -12.8799960986356 -12.7399969031516 -13.019995094116 -12.4599979022094 -13.1599937276173 -12.3199981878836 -15.2597585999043 -15.1198082505127 -14.8398798815294 -14.9798482078408 -14.6999053696835 -15.2597588468528 -14.5599254605009 -14.4199415459895 -15.399696868627 -14.2799541525674 -20.8727427032095 -8.53999975464912 -9.65999939672459 -6.30000054121655 -4.62000450989496 -7.41999997087415 -10.2199984827556 -4.06000803975411 -3.4997366193168 -5.18000242915022 -6.86000017302418 -5.74000121881503 -7.97999984854244 -9.09999964284543 -19.1242091706008 -19.5116522428463 -19.636039314692 -0.981552642773954 -1.54004955830838 -2.10003385626319 -13.5799867782508 -13.0199950634871 -0.434458023869036 -20.5341888237136 -17.4931479024211 -20.9944726186974 -11.0600004880916 -15.8194085266054 -14.6999052615929 -19.8797208673652 -11.899998912729 -20.3318230797273 -20.7160173410284 -19.3846190555686 -1.82003943691677 -0.700209089954634 -1.26005029374641 -8.81999978234814 -5.4600017143404 -9.94000006083495 -7.14000005896009 -4.90000324297514 -3.22000689964114 -10.5000010397451 -3.78000969446666 -6.5800003276389 -4.34000572142134 -8.25999982254042 -7.69999990961002 -6.02000082272961 -9.3799998233035 -17.7700489112944 -14.9798482182226 -11.6196847990886 -16.0990887106613 -13.8599782263241 -12.7399969954036 -16.657896501605 -12.1799988951096 -13.2999920173342 -18.8598517708824 -14.419941552029 -17.2153337741149 -15.5396206439904 -18.3195889787233 -2.38002557541336 -0.260645943123 -21.1301290379308 -0.222594903109542 -21.1231253260294 -21.0848001656663 -0.444566457428309 -11.1952574780087 -3.07593661209034 -19.2581562300477 -19.6393278692775 -2.65629589143485 -10.7756810369493 -18.4557323202404 -18.7259709783575 -18.1828918231829 -18.9936345355067 -17.9080546159187 -17.6317399596867 -17.3543438618001 -17.0761648013614 -19.9978211695413 -20.2241420334045 -20.4354560623816 -20.6280964445209 -16.797425079838 -16.5182882918361 -20.7975209871355 -16.2388733939648 -20.9363132146471 -15.959265853934 -15.6795263474507 -15.3996974378998 -15.1198086291433 -14.8398801308546 -14.5599256233786 -14.2799542587548 -13.99997208833 -13.7199830670689 -13.4399897503133 -13.1599937704397 -12.8799961576254 -12.599997547744 -12.3199982866937 -12.0399983050507 -11.7599025273148 -11.4786418409158 -3.35873223750149 -0.849336821639798 -3.63986405809185 -4.2000066636942 -2.2400324863068 -1.12070608300731 -1.96003774755624 -1.40005256535661 -3.91999843026509 -1.68004460258974 -4.48000511973129 -4.76000384192176 -5.04000283257385 -5.32000205149175 -5.88000100715072 -5.60000145579177 -6.44000042610611 -6.16000067294629 -6.7200002446298 -7.00000011100599 -7.5599999359963 -7.28000001159338 -8.1199998271891 -7.839999876447 -8.39999978383353 -8.67999974263512 -8.95999969964728 -9.23999964991659 -9.79999951877697 -9.51999958812455 -10.0799995219168 -10.3600001547818 -10.6388080232803 -19.7601183108956 -2.51913827304651 -19.3849399422613 -11.0569322849207 -2.93757359489257 -21.1341379790173 -0.195577422594469 -21.1338102534269 -0.198136422719715 -0.628441463363969 -21.0275836531237 -21.0872993869203 -0.435151859473405 
</DataArray>
</PointData>
<CellData Scalars="pressure_p0," Vectors="velocity_p0," Tensors="">
<DataArray type="Float64" Name="pressure_p0" format="ascii">