<?xml version="1.0"?>
<VTKFile type="UnstructuredGrid" version="0.1" byte_order="LittleEndian">
<UnstructuredGrid>
<Piece NumberOfPoints="570" NumberOfCells="968">
<Points>
<DataArray type="Float64" NumberOfComponents="3" format="ascii">
0 0 0 0 1 0 16 1 0 16 0 0 0 0.199999999999558 0 0 0.399999999998975 0 0 0.599999999998947 0 0 0.799999999999473 0 0.199999999999623 1 0 0.399999999999246 1 0 0.599999999998836 1 0 0.799999999998394 1 0 0.999999999997972 1 0 1.19999999999764 1 0 1.39999999999734 1 0 1.59999999999703 1 0 1.79999999999673 1 0 1.99999999999638 1 0 2.19999999999584 1 0 2.39999999999526 1 0 2.59999999999468 1 0 2.79999999999409 1 0 2.99999999999351 1 0 3.19999999999293 1 0 3.39999999999234 1 0 3.59999999999176 1 0 3.79999999999118 1 0 3.99999999999059 1 0 4.19999999999001 1 0 4.39999999998943 1 0 4.59999999998885 1 0 4.79999999998826 1 0 4.99999999998768 1 0 5.1999999999871 1 0 5.39999999998651 1 0 5.59999999998593 1 0 5.79999999998535 1 0 5.99999999998476 1 0 6.19999999998418 1 0 6.3999999999836 1 0 6.59999999998302 1 0 6.79999999998243 1 0 6.99999999998185 1 0 7.19999999998127 1 0 7.39999999998068 1 0 7.5999999999801 1 0 7.79999999997952 1 0 7.99999999997911 1 0 8.19999999997946 1 0 8.39999999997999 1 0 8.59999999998051 1 0 8.79999999998104 1 0 8.99999999998157 1 0 9.1999999999821 1 0 9.39999999998262 1 0 9.59999999998315 1 0 9.79999999998367 1 0 9.9999999999842 1 0 10.1999999999847 1 0 10.3999999999852 1 0 10.5999999999858 1 0 10.7999999999863 1 0 10.9999999999868 1 0 11.1999999999874 1 0 11.3999999999879 1 0 11.5999999999884 1 0 11.7999999999889 1 0 11.9999999999895 1 0 12.19999999999 1 0 12.3999999999905 1 0 12.5999999999911 1 0 12.7999999999916 1 0 12.9999999999921 1 0 13.1999999999926 1 0 13.3999999999932 1 0 13.5999999999937 1 0 13.7999999999942 1 0 13.9999999999947 1 0 14.1999999999953 1 0 14.3999999999958 1 0 14.5999999999963 1 0 14.7999999999968 1 0 14.9999999999974 1 0 15.1999999999979 1 0 15.3999999999984 1 0 15.5999999999989 1 0 15.7999999999995 1 0 16 0.8 0 16 0.600000000001387 0 16 0.400000000001664 0 16 0.200000000000832 0 15.7999999999992 0 0 15.5999999999983 0 0 15.3999999999975 0 0 15.1999999999967 0 0 14.9999999999958 0 0 14.799999999995 0 0 14.5999999999942 0 0 14.3999999999933 0 0 14.1999999999925 0 0 13.999999999992 0 0 13.7999999999931 0 0 13.5999999999945 0 0 13.3999999999958 0 0 13.1999999999972 0 0 12.9999999999986 0 0 12.8 0 0 12.6000000000014 0 0 12.4000000000028 0 0 12.2000000000042 0 0 12.0000000000055 0 0 11.8000000000069 0 0 11.6000000000083 0 0 11.4000000000097 0 0 11.2000000000111 0 0 11.0000000000125 0 0 10.8000000000139 0 0 10.6000000000152 0 0 10.4000000000166 0 0 10.200000000018 0 0 10.0000000000194 0 0 9.8000000000208 0 0 9.60000000002219 0 0 9.40000000002358 0 0 9.20000000002496 0 0 9.00000000002635 0 0 8.80000000002774 0 0 8.60000000002913 0 0 8.40000000003051 0 0 8.2000000000319 0 0 8.00000000003294 0 0 7.80000000003245 0 0 7.60000000003162 0 0 7.40000000003079 0 0 7.20000000002996 0 0 7.00000000002913 0 0 6.8000000000283 0 0 6.60000000002746 0 0 6.40000000002663 0 0 6.2000000000258 0 0 6.00000000002496 0 0 5.80000000002413 0 0 5.6000000000233 0 0 5.40000000002247 0 0 5.20000000002164 0 0 5.0000000000208 0 0 4.80000000001997 0 0 4.60000000001914 0 0 4.40000000001831 0 0 4.20000000001748 0 0 4.00000000001664 0 0 3.80000000001581 0 0 3.60000000001498 0 0 3.40000000001415 0 0 3.20000000001331 0 0 3.00000000001248 0 0 2.80000000001165 0 0 2.60000000001082 0 0 2.40000000000998 0 0 2.20000000000916 0 0 2.00000000000832 0 0 1.80000000000749 0 0 1.60000000000666 0 0 1.40000000000583 0 0 1.20000000000499 0 0 1.00000000000416 0 0 0.800000000003328 0 0 0.600000000002495 0 0 0.400000000001665 0 0 0.200000000000832 0 0 13.700657105669 0.16981258116099 0 13.2999999999965 0.173205080755686 0 12.8999999999993 0.173205080755686 0 12.5000000000021 0.173205080755686 0 12.1000000000048 0.173205080755686 0 11.7000000000076 0.173205080755686 0 14.0999999999922 0.173205080756647 0 0.699999999998615 0.826794919243495 0 11.3000000000104 0.173205080755686 0 1.09999999999781 0.826794919243437 0 10.9000000000132 0.173205080755687 0 2.09999999999211 0.826794919240002 0 1.49999999999719 0.826794919243377 0 10.5000000000159 0.173205080755686 0 15.8338849492515 0.508577035510267 0 2.49999999999102 0.826794919240213 0 10.1000000000187 0.173205080755686 0 2.8999999999938 0.826794919243617 0 15.2993574447989 0.831314592868588 0 14.8999999999971 0.826794919242657 0 14.4999999999961 0.826794919242658 0 3.29999999999263 0.826794919243617 0 9.70000000002149 0.173205080755686 0 3.69999999999147 0.826794919243617 0 9.30000000002427 0.173205080755686 0 4.0999999999903 0.826794919243617 0 4.49999999998914 0.826794919243617 0 8.90000000002705 0.173205080755686 0 4.89999999998797 0.826794919243617 0 8.50000000002983 0.173205080755686 0 5.29999999998681 0.826794919243617 0 5.69999999998449 0.826794919242383 0 8.09910141477586 0.166485795059121 0 6.09999999998447 0.826794919243617 0 6.49999999998331 0.826794919243617 0 6.89999999998214 0.826794919243617 0 7.29999999998075 0.826794919243018 0 7.69999999997987 0.826794919243148 0 1.70000000000707 0.173205080757607 0 13.499999999993 0.826794919242336 0 13.0999999999923 0.826794919242697 0 13.9000884253257 0.828379939256167 0 0.506641475208022 0.168637425096977 0 12.6999999999914 0.826794919242744 0 15.0999999999958 0.173205080758772 0 14.7000008112358 0.173203284806108 0 0.900000000003744 0.173205080757609 0 12.2999999999903 0.826794919242657 0 1.30000000000541 0.173205080757607 0 11.8999999999891 0.826794919242668 0 2.29940860489605 0.165793056170904 0 11.4999999999882 0.826794919242758 0 2.70000000001123 0.173205080757609 0 3.1000000000129 0.173205080757609 0 11.0999999999873 0.826794919242715 0 3.50000000001456 0.173205080757607 0 10.6999999999861 0.826794919242764 0 3.90000000001623 0.173205080757609 0 10.2999999999852 0.826794919242759 0 4.30000000001789 0.173205080757607 0 4.70000000001956 0.173205080757609 0 9.89999999998405 0.826794919242736 0 5.10000000002122 0.173205080757607 0 9.49999999998289 0.826794919242657 0 5.50000000002288 0.173205080757608 0 9.09999999998171 0.826794919242731 0 5.90000000002455 0.173205080757608 0 6.30000000002622 0.173205080757608 0 8.69999999998059 0.82679491924274 0 6.70000000002787 0.173205080757607 0 8.29999999997969 0.82679491924282 0 7.10000000002954 0.173205080757608 0 7.50000000003121 0.173205080757609 0 15.4999999999974 0.173205080759918 0 0.166115050745933 0.491422964488694 0 0.302985888731723 0.83439513050655 0 15.6922736942162 0.815654138696531 0 8.09999999997948 0.826794919242848 0 8.19999999997958 0.653589838485829 0 7.99999999997967 0.653589838485872 0 8.39999999997957 0.653589838485763 0 8.29999999997951 0.480384757728964 0 8.49999999997927 0.480384757728878 0 8.5999999999797 0.653589838485656 0 8.69999999997898 0.480384757728697 0 8.09936479783543 0.483984524751002 0 7.89889995640994 0.483443222557347 0 7.79999999997985 0.653589838485708 0 7.69999999998024 0.482568040765242 0 7.79645162934511 0.316140149424588 0 7.59999999998004 0.653832425489461 0 7.49999999998032 0.480384757728063 0 7.39999999998017 0.653616792596627 0 7.29999999998032 0.480384757727631 0 7.19999999998034 0.653592833386099 0 7.0999999999803 0.480384757727202 0 6.99999999998044 0.653589838484526 0 6.89999999998028 0.480384757726783 0 6.7999999999806 0.653589838484268 0 6.69999999998025 0.480384757726355 0 6.59999999998073 0.65358983848395 0 6.49999999998023 0.480384757725918 0 6.39999999998085 0.653589838483615 0 6.2999999999802 0.480384757725469 0 6.19999999998097 0.653589838483274 0 6.09999999998018 0.480384757725009 0 5.99999999998109 0.653589838482929 0 5.89999999998015 0.480384757724548 0 5.79999999998125 0.653589838482601 0 5.69999999998011 0.480384757724105 0 5.59999999998118 0.653589838482109 0 5.49999999998009 0.480384757723655 0 5.39999999998145 0.653589838481903 0 5.29999999998006 0.480384757723202 0 5.19999999998159 0.653589838481573 0 5.09999999998003 0.480384757722739 0 4.99999999998171 0.653589838481231 0 4.89999999998 0.480384757722284 0 4.79999999998184 0.653589838480891 0 4.69999999997997 0.480384757721832 0 4.59999999998196 0.653589838480548 0 4.49999999997994 0.480384757721369 0 4.39999999998208 0.653589838480199 0 4.29999999997992 0.480384757720903 0 4.19999999998221 0.653589838479851 0 4.09999999997989 0.480384757720439 0 3.99999999997947 0.653589838477122 0 3.89999999997986 0.480384757719978 0 3.79999999997944 0.653589838476661 0 3.69999999997983 0.480384757719518 0 3.59999999997941 0.653589838476202 0 3.4999999999798 0.480384757719058 0 3.39999999997938 0.65358983847574 0 3.29999999997977 0.480384757718598 0 3.19999999997935 0.653589838475281 0 3.09999999997974 0.480384757718137 0 2.99999999997932 0.653589838474822 0 2.89999999997971 0.480384757717679 0 2.7999999999793 0.653589838474364 0 2.69999999997968 0.480384757717221 0 2.59999999997927 0.653589838473905 0 2.49999999997965 0.480384757716762 0 2.39999999997924 0.653589838473444 0 2.29940860487266 0.483873901626366 0 2.19993428941465 0.653977521131915 0 2.09920417199692 0.483093795650007 0 1.99990427347715 0.653933918540785 0 1.89976951723567 0.483875882968814 0 1.79996375451097 0.654015972399612 0 1.69999999997939 0.480384757714885 0 1.99881720977017 0.315897138893714 0 1.59999999997892 0.653589838471666 0 1.49999999997923 0.48038475771442 0 1.39999999997875 0.653589838471227 0 1.29999999997906 0.480384757713966 0 1.19999999997858 0.653589838470776 0 1.09999999997889 0.480384757713518 0 0.99999999997842 0.65358983847032 0 0.899999999978739 0.480384757713072 0 0.799999999978276 0.653589838469859 0 0.699999999978606 0.480384757712627 0 0.599999999978152 0.653589838469396 0 0.488902152079335 0.480182833362319 0 0.397961476484174 0.663879545519049 0 1.89999999999457 0.826794919240091 0 14.2999999999927 0.173205080757313 0 14.2005913950999 0.34510091248886 0 14.4000657105598 0.346264689401101 0 14.0013223237587 0.34128270625806 0 14.300738229825 0.5135282064438
[...]
<PointData Scalars="pressure_p1," Vectors="" Tensors="">
<DataArray type="Float64" Name="pressure_p1" format="ascii">
-0.0409716462513224 -0.0409746752136349 -9.24432055567236 -9.2444617455926 -0.0342766074242988 -0.0364129733919001 -0.038678798443565 -0.0365078868190127 -0.125281496788074 -0.240362027040546 -0.360050261547993 -0.480038844365204 -0.600031093619783 -0.720024507324418 -0.84001883409378 -0.960014117389402 -1.08001036682792 -1.20000740094173 -1.32000496027997 -1.44000297411475 -1.56000152785559 -1.68000064433404 -1.80000018291508 -1.91999996707956 -2.03999987863962 -2.1599998546051 -2.27999986201109 -2.39999988268769 -2.5199999063937 -2.6399999275529 -2.75999994337383 -2.87999995261011 -2.99999995473575 -3.1199999494544 -3.23999993650077 -3.35999991571234 -3.47999988737065 -3.59999985283309 -3.71999981550027 -3.83999978214443 -3.95999976442188 -4.07999977955691 -4.19999984688621 -4.31999997420207 -4.44000014032875 -4.56000028943599 -4.68000029388406 -4.80000005819532 -4.91999968706317 -5.03999938862261 -5.15999927605825 -5.2799993160727 -5.39999942258233 -5.51999953976491 -5.6399996457713 -5.7599997347363 -5.87999980626571 -5.99999986148503 -6.11999990151283 -6.2399999262021 -6.35999993198987 -6.47999990751826 -6.59999982452688 -6.71999961904371 -6.83999915319475 -6.95999813930622 -7.0799959925554 -7.19999155179502 -7.31998256372939 -7.43996475417516 -7.55993019991156 -7.67986455222849 -7.79974243688801 -7.91952006312785 -8.03912374573587 -8.15843271517965 -8.27727089407115 -8.39531035821975 -8.51206671789086 -8.62692990323263 -8.73887198681176 -8.84651552305298 -8.94796479697945 -9.04065107519697 -9.12086584222104 -9.18508937447401 -9.22764492446714 -9.24538684613007 -9.24504414259148 -9.24461148645057 -9.24500621220507 -9.22781114777799 -9.18574462541695 -9.12139989493159 -9.04070333172195 -8.94797740040322 -8.84652572854731 -8.73888223306439 -8.62694162478268 -8.51208694910739 -8.39536439020116 -8.27739858321021 -8.15852803810874 -8.0391306967178 -7.919524307266 -7.79974485815738 -7.6798659012196 -7.55993094207923 -7.43996515845994 -7.3199827818526 -7.19999166831021 -7.07999605414415 -6.95999817151098 -6.83999916986589 -6.71999962763081 -6.59999982902565 -6.47999991011245 -6.3599999339871 -6.23999992861757 -6.11999990553066 -5.99999986898534 -5.87999982063633 -5.75999976231574 -5.63999969861395 -5.5199996415424 -5.39999962456364 -5.27999975998487 -5.16000054215446 -5.03995882919742 -4.91988158159102 -4.79969690622914 -4.6792320148528 -4.55943778266636 -4.43999618619723 -4.31999828171262 -4.19999900793388 -4.07999934149624 -3.95999953205541 -3.83999965838884 -3.71999974958307 -3.59999981778935 -3.47999986881807 -3.35999990598124 -3.23999993152545 -3.11999994713087 -2.99999995407434 -2.87999995334157 -2.75999994585118 -2.63999993291147 -2.51999991703674 -2.39999990329878 -2.27999990152176 -2.15999993002805 -2.04000002305787 -1.92000024983712 -1.80000078188207 -1.6800022163892 -1.55996303134593 -1.43991808570613 -1.31976281369275 -1.19931101605468 -1.07949465316129 -0.96001131579873 -0.840019484404423 -0.720027987597475 -0.600038505310523 -0.480051933543053 -0.360748744083928 -0.24166871230863 -0.125700804631542 -8.21845869460878 -7.97935622862137 -7.73981477769902 -7.49995088693451 -7.25998800838012 -7.01999731085683 -8.4540194668641 -0.420047937403424 -6.77999944471366 -0.6600278769824 -6.53999987967234 -1.25999751719832 -0.900016460972344 -6.2999999339481 -9.23452978427324 -1.50000211748499 -6.0599998884743 -1.7400003362127 -9.08226802920879 -8.89818788786003 -8.68335674932352 -1.97999991421175 -5.81999979092597 -2.21999985856195 -5.57999965907435 -2.4599998955646 -2.69999993649024 -5.33999957572242 -2.93999995458088 -5.09999080953271 -3.17999994370015 -3.41999990147744 -4.85930211277432 -3.65999983090278 -3.89999976027607 -4.13999978472654 -4.38000008151045 -4.62000014461837 -1.01973056258916 -8.09882538302012 -7.85964772930656 -8.33646513415039 -0.305437808161025 -7.6199025896913 -8.99561677299299 -8.79334543488361 -0.540044127830993 -7.37997516653571 -0.780023519306421 -7.1399941718017 -1.37942774199489 -6.89999874354615 -1.61998957400472 -1.8600003601206 -6.65999974377509 -2.09999995350371 -6.41999992490285 -2.33999989765748 -6.17999991609095 -2.57999992455921 -2.81999995029419 -5.93999983649196 -3.0599999517489 -5.69999969423865 -3.2999999206168 -5.45999948155363 -3.53999984706796 -3.77999971430981 -5.21999924506052 -4.01999947815121 -4.97999945843248 -4.25999893267071 -4.49969727482756 -9.15595162509844 -0.0986044469191511 -0.182252302690979 -9.20843295588816 -4.85999989441271 -4.91996098699733 -4.79990651957633 -5.03999902178825 -4.97992671451181 -5.09999850546683 -5.15999904821684 -5.21999905983321 -4.85942353001379 -4.73916442374595 -4.67994193039668 -4.6197406938882 -4.67825800456584 -4.56000300309899 -4.50000093579418 -4.44000024913484 -4.37999999340039 -4.31999992904362 -4.25999964429608 -4.19999975309287 -4.1399995917452 -4.07999970216745 -4.01999962880071 -3.95999971404576 -3.89999968986287 -3.83999975247238 -3.77999975278715 -3.71999979885522 -3.65999980969869 -3.5999998437375 -3.5399998575761 -3.47999988248174 -3.41999989546571 -3.35999991312417 -3.29999992346085 -3.23999993516775 -3.17999994216089 -3.11999994882562 -3.05999995231471 -2.99999995454932 -2.9399999546131 -2.87999995279306 -2.8199999496586 -2.75999994401436 -2.69999993815689 -2.63999992893243 -2.57999992138299 -2.5199999090777 -2.45999990197707 -2.39999988766117 -2.3399998850951 -2.27999987074433 -2.21999987979006 -2.15999986851982 -2.09999989995372 -2.03999989615162 -1.97999996225213 -1.91999997320396 -1.86000007237289 -1.80000012397208 -1.7400001773795 -1.68000041347381 -1.61999598089795 -1.56000112776133 -1.49992712320166 -1.43996327735143 -1.37947295076776 -1.31990743704758 -1.25938474497112 -1.19991959562978 -1.13982278592529 -1.07998716780238 -1.01999927995354 -1.19898188502056 -0.960012653532334 -0.900017288968996 -0.840019359363222 -0.780022810445245 -0.720025272801547 -0.660029887951159 -0.600031995023219 -0.540037836382202 -0.480038261847168 -0.419756264583835 -0.359342920902127 -0.291630707832732 -0.238635713519904 -1.14000166235123 -8.56984180871373 -8.5126300189287 -8.62702077001568 -8.39627750682615 -8.57034671915122 -8.68340301796654 -8.7388839121778 -8.7933639032557 -8.84652295825121 -8.89819286662637 -8.9479745379603 -8.99562586305112 -9.04067910752199 -9.0828350599566 -9.12176469272929 -9.1603859447246 -9.1864258865347 -9.20986805160072 -8.68335604351057 -7.7398128716646 -7.67986491689736 -7.55993040098845 -7.61990324354918 -7.49995066862128 -7.73981405581424 -7.43996486381657 -7.37997535910004 -7.79974308582196 -7.91952116188482 -7.8596498528597 -7.97935392020917 -8.03912530991726 -8.09889814296321 -8.15848524117593 -8.21843667225372 -8.27737757042357 -7.97935015536974 -7.01999726518613 -6.95999814806344 -6.83999915772784 -6.89999875784033 -6.77999943994807 -7.0199972931188 -6.71999962137674 -6.659999747433 -7.07999600929636 -7.13999422567805 -7.19999158344522 -7.25998794488285 -7.31998262293356 -7.25998784234976 -6.05999988372531 -5.99999986335146 -5.87999980964118 -5.93999984100272 -5.81999978200374 -6.05999988618156 -5.7599997405144 -5.69999970865282 -5.33999935491272 -5.39999941635399 -5.5199995486217 -5.45999950872517 -5.57999961957652 -5.33999935075853 -5.63999965445135 -5.27999924551097 -6.539999876415 -6.47999990821616 -6.35999993252042 -6.419999926073 -6.29999993309525 -6.53999987833013 -6.23999992683377 -6.17999991751498 -6.59999982574569 -6.11999990254378 -9.08279621914846 -3.65999978965586 -4.13999927443781 -2.69999993970104 -1.98000008179153 -3.17999994075862 -4.37999828195665 -1.74000091166919 -1.49988489513141 -2.21999990524474 -2.93999995463878 -2.45999990829283 -3.41999988996333 -3.89999961482795 -8.21793668249517 -8.39579293117686 -8.4539752945277 -0.420692271118115 -0.660032492486889 -0.900016226367332 -5.81999977376677 -5.57999959674907 -0.186216514301046 -8.89816636178851 -7.49995031160292 -9.15304322464426 -4.74000030750329 -6.77999943271212 -6.2999999320563 -8.56984584526053 -5.09999923681732 -8.79335948093357 -8.99561775653724 -8.33697293737996 -0.780021713605722 -0.300114222680133 -0.540034749101326 -3.77999979183854 -2.33999987319404 -4.25999988929133 -3.05999995293293 -2.09999986485751 -1.3799999468731 -4.50000049385915 -1.62000094625249 -2.81999994896199 -1.8600000455561 -3.53999986893583 -3.29999992658191 -2.5799999180312 -4.0199997507235 -7.61990364252707 -6.41999992694883 -4.97986546492167 -6.89999876707095 -5.93999984546365 -5.45999959944896 -7.13999425941463 -5.21999964161412 -5.69999972701187 -8.09890065327855 -6.17999991877539 -7.37997547741138 -6.65999974990195 -7.85965114562192 -1.02001069729255 -0.111716625937056 -9.23522356751727 -0.0953983018409216 -9.23085176178355 -9.20714556984713 -0.190536701188282 -4.79797098933355 -1.31825868237301 -8.27891630489123 -8.4555185959934 -1.13841288248107 -4.61815170554836 -7.91952503035899 -8.0391632938245 -7.79974521416154 -8.15894202617262 -7.67986609489381 -7.55993104732834 -7.43996521387395 -7.31998280984138 -8.62703318672251 -8.73891181447708 -8.84657215550056 -8.94803790909916 -7.19999168179135 -7.07999606028822 -9.04051860811833 -6.95999817412296 -9.11911106223385 -6.83999917086978 -6.71999962794745 -6.59999982906243 -6.47999991001965 -6.35999993377666 -6.23999992819187 -6.11999990465481 -5.99999986716986 -5.87999981684544 -5.75999975421385 -5.63999968038542 -5.51999959669468 -5.39999949859011 -5.27999933909533 -5.15999881176259 -5.03995704458204 -4.91941752102236 -1.43945324474425 -0.364026980408718 -1.55993769070313 -1.80000028583523 -0.960015152377999 -0.480323052551741 -0.84001997185168 -0.600036145292377 -1.67999610297735 -0.720027098110539 -1.92000009331939 -2.03999996440105 -2.15999990507866 -2.27999989000224 -2.51999991430706 -2.39999989773451 -2.75999994527881 -2.63999993159626 -2.87999995320821 -2.99999995428604 -3.23999993279834 -3.11999994775188 -3.47999987345202 -3.35999990842519 -3.59999982659841 -3.71999976651807 -3.83999969167306 -3.95999960012959 -4.19999937280856 -4.07999949060401 -4.31999933308278 -4.4399999358488 -4.55949123201907 -8.51262753683223 -1.07963195000711 -8.33711008675346 -4.73868854357934 -1.25896003621176 -9.23774101910581 -0.0838284018676436 -9.23752714605368 -0.0849315788591636 -0.269351540279839 -9.17258805626061 -9.20867538833705 -0.186505527227066 
</DataArray>
</PointData>
<CellData Scalars="pressure_p0," Vectors="velocity_p0," Tensors="">
<DataArray type="Float64" Name="pressure_p0" format="ascii">