<?xml version="1.0"?>
<VTKFile type="UnstructuredGrid" version="0.1" byte_order="LittleEndian">
<UnstructuredGrid>
<Piece NumberOfPoints="570" NumberOfCells="968">
<Points>
<DataArray type="Float64" NumberOfComponents="3" format="ascii">
0 0 0 0 1 0 16 1 0 16 0 0 0 0.199999999999558 0 0 0.399999999998975 0 0 0.599999999998947 0 0 0.799999999999473 0 0.199999999999623 1 0 0.399999999999246 1 0 0.599999999998836 1 0 0.799999999998394 1 0 0.999999999997972 1 0 1.19999999999764 1 0 1.39999999999734 1 0 1.59999999999703 1 0 1.79999999999673 1 0 1.99999999999638 1 0 2.19999999999584 1 0 2.39999999999526 1 0 2.59999999999468 1 0 2.79999999999409 1 0 2.99999999999351 1 0 3.19999999999293 1 0 3.39999999999234 1 0 3.59999999999176 1 0 3.79999999999118 1 0 3.99999999999059 1 0 4.19999999999001 1 0 4.39999999998943 1 0 4.59999999998885 1 0 4.79999999998826 1 0 4.99999999998768 1 0 5.1999999999871 1 0 5.39999999998651 1 0 5.59999999998593 1 0 5.79999999998535 1 0 5.99999999998476 1 0 6.19999999998418 1 0 6.3999999999836 1 0 6.59999999998302 1 0 6.79999999998243 1 0 6.99999999998185 1 0 7.19999999998127 1 0 7.39999999998068 1 0 7.5999999999801 1 0 7.79999999997952 1 0 7.99999999997911 1 0 8.19999999997946 1 0 8.39999999997999 1 0 8.59999999998051 1 0 8.79999999998104 1 0 8.99999999998157 1 0 9.1999999999821 1 0 9.39999999998262 1 0 9.59999999998315 1 0 9.79999999998367 1 0 9.9999999999842 1 0 10.1999999999847 1 0 10.3999999999852 1 0 10.5999999999858 1 0 10.7999999999863 1 0 10.9999999999868 1 0 11.1999999999874 1 0 11.3999999999879 1 0 11.5999999999884 1 0 11.7999999999889 1 0 11.9999999999895 1 0 12.19999999999 1 0 12.3999999999905 1 0 12.5999999999911 1 0 12.7999999999916 1 0 12.9999999999921 1 0 13.1999999999926 1 0 13.3999999999932 1 0 13.5999999999937 1 0 13.7999999999942 1 0 13.9999999999947 1 0 14.1999999999953 1 0 14.3999999999958 1 0 14.5999999999963 1 0 14.7999999999968 1 0 14.9999999999974 1 0 15.1999999999979 1 0 15.3999999999984 1 0 15.5999999999989 1 0 15.7999999999995 1 0 16 0.8 0 16 0.600000000001387 0 16 0.400000000001664 0 16 0.200000000000832 0 15.7999999999992 0 0 15.5999999999983 0 0 15.3999999999975 0 0 15.1999999999967 0 0 14.9999999999958 0 0 14.799999999995 0 0 14.5999999999942 0 0 14.3999999999933 0 0 14.1999999999925 0 0 13.999999999992 0 0 13.7999999999931 0 0 13.5999999999945 0 0 13.3999999999958 0 0 13.1999999999972 0 0 12.9999999999986 0 0 12.8 0 0 12.6000000000014 0 0 12.4000000000028 0 0 12.2000000000042 0 0 12.0000000000055 0 0 11.8000000000069 0 0 11.6000000000083 0 0 11.4000000000097 0 0 11.2000000000111 0 0 11.0000000000125 0 0 10.8000000000139 0 0 10.6000000000152 0 0 10.4000000000166 0 0 10.200000000018 0 0 10.0000000000194 0 0 9.8000000000208 0 0 9.60000000002219 0 0 9.40000000002358 0 0 9.20000000002496 0 0 9.00000000002635 0 0 8.80000000002774 0 0 8.60000000002913 0 0 8.40000000003051 0 0 8.2000000000319 0 0 8.00000000003294 0 0 7.80000000003245 0 0 7.60000000003162 0 0 7.40000000003079 0 0 7.20000000002996 0 0 7.00000000002913 0 0 6.8000000000283 0 0 6.60000000002746 0 0 6.40000000002663 0 0 6.2000000000258 0 0 6.00000000002496 0 0 5.80000000002413 0 0 5.6000000000233 0 0 5.40000000002247 0 0 5.20000000002164 0 0 5.0000000000208 0 0 4.80000000001997 0 0 4.60000000001914 0 0 4.40000000001831 0 0 4.20000000001748 0 0 4.00000000001664 0 0 3.80000000001581 0 0 3.60000000001498 0 0 3.40000000001415 0 0 3.20000000001331 0 0 3.00000000001248 0 0 2.80000000001165 0 0 2.60000000001082 0 0 2.40000000000998 0 0 2.20000000000916 0 0 2.00000000000832 0 0 1.80000000000749 0 0 1.60000000000666 0 0 1.40000000000583 0 0 1.20000000000499 0 0 1.00000000000416 0 0 0.800000000003328 0 0 0.600000000002495 0 0 0.400000000001665 0 0 0.200000000000832 0 0 13.700657105669 0.16981258116099 0 13.2999999999965 0.173205080755686 0 12.8999999999993 0.173205080755686 0 12.5000000000021 0.173205080755686 0 12.1000000000048 0.173205080755686 0 11.7000000000076 0.173205080755686 0 14.0999999999922 0.173205080756647 0 0.699999999998615 0.826794919243495 0 11.3000000000104 0.173205080755686 0 1.09999999999781 0.826794919243437 0 10.9000000000132 0.173205080755687 0 2.09999999999211 0.826794919240002 0 1.49999999999719 0.826794919243377 0 10.5000000000159 0.173205080755686 0 15.8338849492515 0.508577035510267 0 2.49999999999102 0.826794919240213 0 10.1000000000187 0.173205080755686 0 2.8999999999938 0.826794919243617 0 15.2993574447989 0.831314592868588 0 14.8999999999971 0.826794919242657 0 14.4999999999961 0.826794919242658 0 3.29999999999263 0.826794919243617 0 9.70000000002149 0.173205080755686 0 3.69999999999147 0.826794919243617 0 9.30000000002427 0.173205080755686 0 4.0999999999903 0.826794919243617 0 4.49999999998914 0.826794919243617 0 8.90000000002705 0.173205080755686 0 4.89999999998797 0.826794919243617 0 8.50000000002983 0.173205080755686 0 5.29999999998681 0.826794919243617 0 5.69999999998449 0.826794919242383 0 8.09910141477586 0.166485795059121 0 6.09999999998447 0.826794919243617 0 6.49999999998331 0.826794919243617 0 6.89999999998214 0.826794919243617 0 7.29999999998075 0.826794919243018 0 7.69999999997987 0.826794919243148 0 1.70000000000707 0.173205080757607 0 13.499999999993 0.826794919242336 0 13.0999999999923 0.826794919242697 0 13.9000884253257 0.828379939256167 0 0.506641475208022 0.168637425096977 0 12.6999999999914 0.826794919242744 0 15.0999999999958 0.173205080758772 0 14.7000008112358 0.173203284806108 0 0.900000000003744 0.173205080757609 0 12.2999999999903 0.826794919242657 0 1.30000000000541 0.173205080757607 0 11.8999999999891 0.826794919242668 0 2.29940860489605 0.165793056170904 0 11.4999999999882 0.826794919242758 0 2.70000000001123 0.173205080757609 0 3.1000000000129 0.173205080757609 0 11.0999999999873 0.826794919242715 0 3.50000000001456 0.173205080757607 0 10.6999999999861 0.826794919242764 0 3.90000000001623 0.173205080757609 0 10.2999999999852 0.826794919242759 0 4.30000000001789 0.173205080757607 0 4.70000000001956 0.173205080757609 0 9.89999999998405 0.826794919242736 0 5.10000000002122 0.173205080757607 0 9.49999999998289 0.826794919242657 0 5.50000000002288 0.173205080757608 0 9.09999999998171 0.826794919242731 0 5.90000000002455 0.173205080757608 0 6.30000000002622 0.173205080757608 0 8.69999999998059 0.82679491924274 0 6.70000000002787 0.173205080757607 0 8.29999999997969 0.82679491924282 0 7.10000000002954 0.173205080757608 0 7.50000000003121 0.173205080757609 0 15.4999999999974 0.173205080759918 0 0.166115050745933 0.491422964488694 0 0.302985888731723 0.83439513050655 0 15.6922736942162 0.815654138696531 0 8.09999999997948 0.826794919242848 0 8.19999999997958 0.653589838485829 0 7.99999999997967 0.653589838485872 0 8.39999999997957 0.653589838485763 0 8.29999999997951 0.480384757728964 0 8.49999999997927 0.480384757728878 0 8.5999999999797 0.653589838485656 0 8.69999999997898 0.480384757728697 0 8.09936479783543 0.483984524751002 0 7.89889995640994 0.483443222557347 0 7.79999999997985 0.653589838485708 0 7.69999999998024 0.482568040765242 0 7.79645162934511 0.316140149424588 0 7.59999999998004 0.653832425489461 0 7.49999999998032 0.480384757728063 0 7.39999999998017 0.653616792596627 0 7.29999999998032 0.480384757727631 0 7.19999999998034 0.653592833386099 0 7.0999999999803 0.480384757727202 0 6.99999999998044 0.653589838484526 0 6.89999999998028 0.480384757726783 0 6.7999999999806 0.653589838484268 0 6.69999999998025 0.480384757726355 0 6.59999999998073 0.65358983848395 0 6.49999999998023 0.480384757725918 0 6.39999999998085 0.653589838483615 0 6.2999999999802 0.480384757725469 0 6.19999999998097 0.653589838483274 0 6.09999999998018 0.480384757725009 0 5.99999999998109 0.653589838482929 0 5.89999999998015 0.480384757724548 0 5.79999999998125 0.653589838482601 0 5.69999999998011 0.480384757724105 0 5.59999999998118 0.653589838482109 0 5.49999999998009 0.480384757723655 0 5.39999999998145 0.653589838481903 0 5.29999999998006 0.480384757723202 0 5.19999999998159 0.653589838481573 0 5.09999999998003 0.480384757722739 0 4.99999999998171 0.653589838481231 0 4.89999999998 0.480384757722284 0 4.79999999998184 0.653589838480891 0 4.69999999997997 0.480384757721832 0 4.59999999998196 0.653589838480548 0 4.49999999997994 0.480384757721369 0 4.39999999998208 0.653589838480199 0 4.29999999997992 0.480384757720903 0 4.19999999998221 0.653589838479851 0 4.09999999997989 0.480384757720439 0 3.99999999997947 0.653589838477122 0 3.89999999997986 0.480384757719978 0 3.79999999997944 0.653589838476661 0 3.69999999997983 0.480384757719518 0 3.59999999997941 0.653589838476202 0 3.4999999999798 0.480384757719058 0 3.39999999997938 0.65358983847574 0 3.29999999997977 0.480384757718598 0 3.19999999997935 0.653589838475281 0 3.09999999997974 0.480384757718137 0 2.99999999997932 0.653589838474822 0 2.89999999997971 0.480384757717679 0 2.7999999999793 0.653589838474364 0 2.69999999997968 0.480384757717221 0 2.59999999997927 0.653589838473905 0 2.49999999997965 0.480384757716762 0 2.39999999997924 0.653589838473444 0 2.29940860487266 0.483873901626366 0 2.19993428941465 0.653977521131915 0 2.09920417199692 0.483093795650007 0 1.99990427347715 0.653933918540785 0 1.89976951723567 0.483875882968814 0 1.79996375451097 0.654015972399612 0 1.69999999997939 0.480384757714885 0 1.99881720977017 0.315897138893714 0 1.59999999997892 0.653589838471666 0 1.49999999997923 0.48038475771442 0 1.39999999997875 0.653589838471227 0 1.29999999997906 0.480384757713966 0 1.19999999997858 0.653589838470776 0 1.09999999997889 0.480384757713518 0 0.99999999997842 0.65358983847032 0 0.899999999978739 0.480384757713072 0 0.799999999978276 0.653589838469859 0 0.699999999978606 0.480384757712627 0 0.599999999978152 0.653589838469396 0 0.488902152079335 0.480182833362319 0 0.397961476484174 0.663879545519049 0 1.89999999999457 0.826794919240091 0 14.2999999999927 0.173205080757313 0 14.2005913950999 0.34510091248886 0 14.4000657105598 0.346264689401101 0 14.0013223237587 0.34128270625806 0 14.300738229825 0.5135282064438
[...]
<PointData Scalars="pressure_p1," Vectors="" Tensors="">
<DataArray type="Float64" Name="pressure_p1" format="ascii">
-0.116021929077779 -0.116024957670804 -25.5222949882062 -25.5225686974799 -0.0971143178052822 -0.103178038976953 -0.10959976950581 -0.103429822421538 -0.354870514454611 -0.680927878663529 -1.02006746120226 -1.36005614737972 -1.70005084485711 -2.04004574013087 -2.38004061569877 -2.72003561460416 -3.06003089154196 -3.40002643385539 -3.74002215433939 -4.0800181420584 -4.42001461898885 -4.76001171565277 -5.10000936902023 -5.44000745213865 -5.78000587239851 -6.12000457338536 -6.46000351481427 -6.80000266198936 -7.1400019829094 -7.48000144813995 -7.82000103123917 -8.16000070907479 -8.50000046192207 -8.84000027338366 -9.18000013020079 -9.5200000220257 -9.85999994122922 -10.1999998828208 -10.5399998445838 -10.8799998275021 -11.2199998363367 -11.5599998793447 -11.8999999637535 -12.2400000807111 -12.5800001857222 -12.9200001893611 -13.2599999139712 -13.599999187346 -13.9399979941213 -14.2799963527006 -14.6199940764774 -14.9599906613611 -15.2999852885723 -15.6399767739156 -15.9799633765419 -16.3199424996776 -16.6599102784662 -16.9998610086597 -17.3397863526165 -17.6796742439156 -18.019507392541 -18.3592612689115 -18.6989014177015 -19.0383799222056 -19.3776308080036 -19.7165641424148 -20.0550585558137 -20.392951885022 -20.7300296210002 -21.0660108367065 -21.4005312802084 -21.7331233458637 -22.0631926794759 -22.3899912001631 -22.7125862160504 -23.0298253595432 -23.3403420812472 -23.642361301083 -23.9337777944796 -24.2123555711205 -24.4751288679284 -24.7187826794671 -24.9394712435711 -25.1327136047696 -25.2927053415078 -25.4151475879628 -25.4928669921179 -25.5241442129713 -25.5235532344797 -25.5228076803776 -25.5234981956621 -25.4931756041429 -25.4163731119107 -25.2937272039385 -25.1328041628088 -24.9394918954708 -24.7188054109384 -24.475153636595 -24.212379459212 -23.9338111900945 -23.6424649494581 -23.3406313803792 -23.030037474083 -22.7125766828708 -22.3899855706657 -22.0631900613694 -21.7331223513329 -21.4005310663387 -21.0660109629172 -20.7300298701184 -20.3929521553687 -20.0550588036471 -19.7165643522994 -19.3776309777807 -19.0383800554681 -18.6989015201057 -18.3592613464509 -18.0195074508314 -17.6796742880248 -17.3397863872291 -16.9998610385333 -16.6599103092779 -16.3199425395406 -15.9799634388539 -15.6399768833374 -15.299985497078 -14.9599911111741 -14.6199953483068 -14.2798760202308 -13.9396555873829 -13.5991307952162 -13.2578190848149 -12.9184118266764 -12.5799962347786 -12.2399983906542 -11.8999991266096 -11.5599994425482 -11.2199996047803 -10.8799997042026 -10.539999778869 -10.1999998478176 -9.85999992263328 -9.52000001222971 -9.18000012518823 -8.84000027109165 -8.50000046139887 -8.16000071009184 -7.82000103419796 -7.4800014542357 -7.14000199461817 -6.80000268407993 -6.46000355631297 -6.12000465140423 -5.780006020118 -5.44000773899109 -5.10000997294822 -4.76001329358777 -4.41989917987689 -4.07976924499661 -3.73932713533985 -3.3980508712293 -3.05857535064776 -2.72003282329856 -2.38004127572994 -2.04004922954258 -1.70005826480803 -1.36006924359896 -1.02202409070111 -0.684626674085234 -0.356068423479734 -23.1873837654649 -22.5518937135272 -21.8985273743213 -21.2334876593853 -20.5616129771261 -19.8858777702605 -23.7898511295723 -1.19007385646956 -19.2080401358227 -1.87004848997272 -18.5290988780586 -3.56999961747653 -2.55003819689622 -17.8495993377487 -25.5051045966238 -4.25001624643727 -17.1698276724967 -4.93001044478738 -25.2166603576737 -24.8323661919541 -24.3459871848596 -5.61000662688992 -16.4899282060617 -6.29000401927521 -15.8099709228 -6.97000230370817 -7.65000122678789 -15.1299885107344 -8.33000057723926 -14.4499702710497 -9.01000019658305 -9.68999997761508 -13.7680127727663 -10.3699998579203 -11.0499998181686 -11.729999895421 -12.4100002149074 -13.0899994284493 -2.88923755545371 -22.8719572464843 -22.2270538953921 -23.4926664114368 -0.865315373359704 -21.5671020207595 -25.0398649354909 -24.5995951437201 -1.53006278617521 -20.8981777974638 -2.21004515014099 -20.2240923452665 -3.90837926674319 -19.5471439014829 -4.58997903647502 -5.2700086739057 -18.868664506555 -5.95000528470953 -18.189396121108 -6.63000309172258 -17.5097359165584 -7.31000170648597 -7.99000086100443 -16.8298882233185 -8.67000035974313 -16.1499540809491 -9.35000006557819 -15.4699815166956 -10.0299998856464 -10.7099997500049 -14.7899925179628 -11.389999565475 -14.1099971749911 -12.069999051177 -12.7491455184706 -25.3602802508747 -0.279378294939406 -0.516291789881085 -25.4581960995286 -13.769998664027 -13.9398884227491 -13.5997332829339 -14.2799959872564 -14.1097938184747 -14.4499945221998 -14.6199938500545 -14.789992342739 -13.768365175124 -13.4276253607236 -13.259833351019 -13.0892585038638 -13.2550499433669 -12.9200073793205 -12.7500003607585 -12.5800002948235 -12.4100000362672 -12.2400000361587 -12.0699997555962 -11.8999998704222 -11.7299997031877 -11.5599998022775 -11.3899997156862 -11.2199997861632 -11.0499997479853 -10.8799997979386 -10.7099997883318 -10.5399998279796 -10.3699998366513 -10.1999998737227 -10.0299998961364 -9.8599999363155 -9.68999997140851 -9.52000001940705 -9.35000006842228 -9.18000012884506 -9.01000019479982 -8.84000027275127 -8.67000036025309 -8.50000046176161 -8.33000057700669 -8.1600007093246 -7.99000086019265 -7.82000103200093 -7.65000122819652 -7.4800014497116 -7.31000170292566 -7.1400019858761 -6.97000230995249 -6.80000266735815 -6.63000307844105 -6.46000352408215 -6.29000404060853 -6.12000458800091 -5.95000522995119 -5.78000589080318 -5.61000667562023 -5.44000745936996 -5.27000838431144 -5.10000931141446 -4.93001028766602 -4.76001148636492 -4.59000030446795 -4.42001422069806 -4.24980668857547 -4.07990585343569 -3.90851557924655 -3.73974498540678 -3.56825898932533 -3.39977602304076 -3.22949549529721 -3.0599641912631 -2.88999345092199 -3.39711219895198 -2.72003065714933 -2.55003903936896 -2.38004114337889 -2.21004443883268 -2.04004650785709 -1.8700505091503 -1.70005174818979 -1.5300564912273 -1.36005556625727 -1.18924113023993 -1.01806853098913 -0.826222369654192 -0.676059812476533 -3.23000813648192 -24.0749615807647 -23.9351726422398 -24.2125767833139 -23.6448067814956 -24.0762422932685 -24.3460987839094 -24.4751584088506 -24.5996769396377 -24.7187978393445 -24.8323747029689 -24.9394847395626 -25.0399207646285 -25.1327534902042 -25.2177404060088 -25.2944236354035 -25.3686948931902 -25.4176212295308 -25.460813122254 -24.3459469220608 -21.8985158289057 -21.7331229568664 -21.4005311168147 -21.5671118573056 -21.2334877276458 -21.8985281977467 -21.0660107895291 -20.8981836770614 -22.0631919090625 -22.389990047266 -22.227069051688 -22.5518982346285 -22.7125862299801 -22.872154529725 -23.0299640405546 -23.1873629084461 -23.3406272753393 -22.5518801667805 -19.8858752439393 -19.7165641781162 -19.3776308395019 -19.5471456998324 -19.2080400892978 -19.8858777019154 -19.0383799485238 -18.8686654410847 -20.0550585925281 -20.2240956700939 -20.3929519151798 -20.5616129088881 -20.7300296285547 -20.5616084608214 -17.1698275052481 -16.9998610159403 -16.6599102859118 -16.8298883326315 -16.4899281925381 -17.1698276619147 -16.3199425085599 -16.1499541428295 -15.1299882731411 -15.2999852840541 -15.6399767847643 -15.46998156523 -15.8099708804058 -15.1299882834848 -15.9799633876571 -14.9599905923311 -18.5290981860437 -18.3592612856611 -18.0195074055901 -18.189396588775 -17.8495993217064 -18.529098850161 -17.6796742541191 -17.5097361430291 -18.6989014389397 -17.3397863608692 -25.2176525996758 -10.3699998166755 -11.7299993865244 -7.65000123000747 -5.61000679667032 -9.0100001934176 -12.4099983612332 -4.93001102416842 -4.24968070375099 -6.29000406700707 -8.33000057713957 -6.97000231680167 -9.68999996590388 -11.049999673224 -23.1860506970744 -23.6436038156296 -23.7897784319848 -1.19187287026218 -1.87005311720319 -2.55003796735864 -16.4899281135852 -15.8099708257837 -0.527547344967203 -24.8322779023299 -21.2334800610076 -25.354794313589 -13.4299997150403 -19.2080387866174 -17.8495989951524 -24.0750125296 -14.4499952464775 -24.5996666427348 -25.0399115392489 -23.4939372568395 -2.21004333307995 -0.850242777601863 -1.53005339654697 -10.7099998273261 -6.63000306660199 -12.0700000119587 -8.67000036112777 -5.9500051945048 -3.91000878008026 -12.7500009219341 -4.59001301527128 -7.99000085976315 -5.27000835635445 -10.0299999076414 -9.35000007176868 -7.31000169980273 -11.3899998371491 -21.5671115529243 -18.1893966099167 -14.1096148553424 -19.5471457575533 -16.8298883432206 -15.4699816584482 -20.2240957446822 -14.7899929267466 -16.1499541647529 -22.8721399781023 -17.5097361555393 -20.8981837092993 -18.8686654774749 -22.2270671044145 -2.89002903517935 -0.316493673934774 -25.5063227989341 -0.27029297237811 -25.4985404451675 -25.4558890954492 -0.539826342855275 -13.5942388519917 -3.73506487244734 -23.3445978400335 -23.7936413279146 -3.22550034210455 -13.0847540184486 -22.3900242520199 -22.7127048594 -22.0632200000232 -23.0311619409573 -21.733145220309 -21.4005484186769 -21.0660240406997 -20.7300396525387 -24.2126740730415 -24.4753003359817 -24.7189885611702 -24.9396967596578 -20.3929594136201 -20.0550641432931 -25.1325061183461 -19.7165682460538 -25.2894002321888 -19.3776337917542 -19.0383820706347 -18.6989029499826 -18.3592623516262 -18.0195081508012 -17.6796747707071 -17.3397867165293 -16.9998612602022 -16.6599104552597 -16.3199426307741 -15.9799634857773 -15.6399768806932 -15.2999853980415 -14.9599907071176 -14.6199936278466 -14.279879297082 -13.9383492391104 -4.07846134530276 -1.03132581959579 -4.41983631905419 -5.10000947405817 -2.72003666277171 -1.36084712237169 -2.38004176806913 -1.70005591119745 -4.75999948861638 -2.04004834604559 -5.44000757960686 -5.78000595872242 -6.12000462394691 -6.46000354257574 -7.14000199029491 -6.80000267661171 -7.82000103257645 -7.48000145161554 -8.16000070912713 -8.500000460958 -9.18000012605739 -8.84000027120155 -9.85999992699245 -9.52000001434728 -10.1999998563819 -10.5399997955723 -10.8799997372558 -11.2199996726183 -11.8999994912563 -11.5599995914174 -12.2399994418186 -12.5799999841397 -12.9185514104691 -23.9352167443836 -3.05895123969411 -23.4943204254675 -13.4262728512498 -3.56705248219846 -25.510772432268 -0.237482727122757 -25.5104105616712 -0.240587654221993 -0.763098450933071 -25.3919470246246 -25.4586752647886 -0.528392986312636 
</DataArray>
</PointData>
<CellData Scalars="pressure_p0," Vectors="velocity_p0," Tensors="">
<DataArray type="Float64" Name="pressure_p0" format="ascii">