<?xml version="1.0"?>
<VTKFile type="UnstructuredGrid" version="0.1" byte_order="LittleEndian">
<UnstructuredGrid>
<Piece NumberOfPoints="570" NumberOfCells="968">
<Points>
<DataArray type="Float64" NumberOfComponents="3" format="ascii">
0 0 0 0 1 0 16 1 0 16 0 0 0 0.199999999999558 0 0 0.399999999998975 0 0 0.599999999998947 0 0 0.799999999999473 0 0.199999999999623 1 0 0.399999999999246 1 0 0.599999999998836 1 0 0.799999999998394 1 0 0.999999999997972 1 0 1.19999999999764 1 0 1.39999999999734 1 0 1.59999999999703 1 0 1.79999999999673 1 0 1.99999999999638 1 0 2.19999999999584 1 0 2.39999999999526 1 0 2.59999999999468 1 0 2.79999999999409 1 0 2.99999999999351 1 0 3.19999999999293 1 0 3.39999999999234 1 0 3.59999999999176 1 0 3.79999999999118 1 0 3.99999999999059 1 0 4.19999999999001 1 0 4.39999999998943 1 0 4.59999999998885 1 0 4.79999999998826 1 0 4.99999999998768 1 0 5.1999999999871 1 0 5.39999999998651 1 0 5.59999999998593 1 0 5.79999999998535 1 0 5.99999999998476 1 0 6.19999999998418 1 0 6.3999999999836 1 0 6.59999999998302 1 0 6.79999999998243 1 0 6.99999999998185 1 0 7.19999999998127 1 0 7.39999999998068 1 0 7.5999999999801 1 0 7.79999999997952 1 0 7.99999999997911 1 0 8.19999999997946 1 0 8.39999999997999 1 0 8.59999999998051 1 0 8.79999999998104 1 0 8.99999999998157 1 0 9.1999999999821 1 0 9.39999999998262 1 0 9.59999999998315 1 0 9.79999999998367 1 0 9.9999999999842 1 0 10.1999999999847 1 0 10.3999999999852 1 0 10.5999999999858 1 0 10.7999999999863 1 0 10.9999999999868 1 0 11.1999999999874 1 0 11.3999999999879 1 0 11.5999999999884 1 0 11.7999999999889 1 0 11.9999999999895 1 0 12.19999999999 1 0 12.3999999999905 1 0 12.5999999999911 1 0 12.7999999999916 1 0 12.9999999999921 1 0 13.1999999999926 1 0 13.3999999999932 1 0 13.5999999999937 1 0 13.7999999999942 1 0 13.9999999999947 1 0 14.1999999999953 1 0 14.3999999999958 1 0 14.5999999999963 1 0 14.7999999999968 1 0 14.9999999999974 1 0 15.1999999999979 1 0 15.3999999999984 1 0 15.5999999999989 1 0 15.7999999999995 1 0 16 0.8 0 16 0.600000000001387 0 16 0.400000000001664 0 16 0.200000000000832 0 15.7999999999992 0 0 15.5999999999983 0 0 15.3999999999975 0 0 15.1999999999967 0 0 14.9999999999958 0 0 14.799999999995 0 0 14.5999999999942 0 0 14.3999999999933 0 0 14.1999999999925 0 0 13.999999999992 0 0 13.7999999999931 0 0 13.5999999999945 0 0 13.3999999999958 0 0 13.1999999999972 0 0 12.9999999999986 0 0 12.8 0 0 12.6000000000014 0 0 12.4000000000028 0 0 12.2000000000042 0 0 12.0000000000055 0 0 11.8000000000069 0 0 11.6000000000083 0 0 11.4000000000097 0 0 11.2000000000111 0 0 11.0000000000125 0 0 10.8000000000139 0 0 10.6000000000152 0 0 10.4000000000166 0 0 10.200000000018 0 0 10.0000000000194 0 0 9.8000000000208 0 0 9.60000000002219 0 0 9.40000000002358 0 0 9.20000000002496 0 0 9.00000000002635 0 0 8.80000000002774 0 0 8.60000000002913 0 0 8.40000000003051 0 0 8.2000000000319 0 0 8.00000000003294 0 0 7.80000000003245 0 0 7.60000000003162 0 0 7.40000000003079 0 0 7.20000000002996 0 0 7.00000000002913 0 0 6.8000000000283 0 0 6.60000000002746 0 0 6.40000000002663 0 0 6.2000000000258 0 0 6.00000000002496 0 0 5.80000000002413 0 0 5.6000000000233 0 0 5.40000000002247 0 0 5.20000000002164 0 0 5.0000000000208 0 0 4.80000000001997 0 0 4.60000000001914 0 0 4.40000000001831 0 0 4.20000000001748 0 0 4.00000000001664 0 0 3.80000000001581 0 0 3.60000000001498 0 0 3.40000000001415 0 0 3.20000000001331 0 0 3.00000000001248 0 0 2.80000000001165 0 0 2.60000000001082 0 0 2.40000000000998 0 0 2.20000000000916 0 0 2.00000000000832 0 0 1.80000000000749 0 0 1.60000000000666 0 0 1.40000000000583 0 0 1.20000000000499 0 0 1.00000000000416 0 0 0.800000000003328 0 0 0.600000000002495 0 0 0.400000000001665 0 0 0.200000000000832 0 0 13.700657105669 0.16981258116099 0 13.2999999999965 0.173205080755686 0 12.8999999999993 0.173205080755686 0 12.5000000000021 0.173205080755686 0 12.1000000000048 0.173205080755686 0 11.7000000000076 0.173205080755686 0 14.0999999999922 0.173205080756647 0 0.699999999998615 0.826794919243495 0 11.3000000000104 0.173205080755686 0 1.09999999999781 0.826794919243437 0 10.9000000000132 0.173205080755687 0 2.09999999999211 0.826794919240002 0 1.49999999999719 0.826794919243377 0 10.5000000000159 0.173205080755686 0 15.8338849492515 0.508577035510267 0 2.49999999999102 0.826794919240213 0 10.1000000000187 0.173205080755686 0 2.8999999999938 0.826794919243617 0 15.2993574447989 0.831314592868588 0 14.8999999999971 0.826794919242657 0 14.4999999999961 0.826794919242658 0 3.29999999999263 0.826794919243617 0 9.70000000002149 0.173205080755686 0 3.69999999999147 0.826794919243617 0 9.30000000002427 0.173205080755686 0 4.0999999999903 0.826794919243617 0 4.49999999998914 0.826794919243617 0 8.90000000002705 0.173205080755686 0 4.89999999998797 0.826794919243617 0 8.50000000002983 0.173205080755686 0 5.29999999998681 0.826794919243617 0 5.69999999998449 0.826794919242383 0 8.09910141477586 0.166485795059121 0 6.09999999998447 0.826794919243617 0 6.49999999998331 0.826794919243617 0 6.89999999998214 0.826794919243617 0 7.29999999998075 0.826794919243018 0 7.69999999997987 0.826794919243148 0 1.70000000000707 0.173205080757607 0 13.499999999993 0.826794919242336 0 13.0999999999923 0.826794919242697 0 13.9000884253257 0.828379939256167 0 0.506641475208022 0.168637425096977 0 12.6999999999914 0.826794919242744 0 15.0999999999958 0.173205080758772 0 14.7000008112358 0.173203284806108 0 0.900000000003744 0.173205080757609 0 12.2999999999903 0.826794919242657 0 1.30000000000541 0.173205080757607 0 11.8999999999891 0.826794919242668 0 2.29940860489605 0.165793056170904 0 11.4999999999882 0.826794919242758 0 2.70000000001123 0.173205080757609 0 3.1000000000129 0.173205080757609 0 11.0999999999873 0.826794919242715 0 3.50000000001456 0.173205080757607 0 10.6999999999861 0.826794919242764 0 3.90000000001623 0.173205080757609 0 10.2999999999852 0.826794919242759 0 4.30000000001789 0.173205080757607 0 4.70000000001956 0.173205080757609 0 9.89999999998405 0.826794919242736 0 5.10000000002122 0.173205080757607 0 9.49999999998289 0.826794919242657 0 5.50000000002288 0.173205080757608 0 9.09999999998171 0.826794919242731 0 5.90000000002455 0.173205080757608 0 6.30000000002622 0.173205080757608 0 8.69999999998059 0.82679491924274 0 6.70000000002787 0.173205080757607 0 8.29999999997969 0.82679491924282 0 7.10000000002954 0.173205080757608 0 7.50000000003121 0.173205080757609 0 15.4999999999974 0.173205080759918 0 0.166115050745933 0.491422964488694 0 0.302985888731723 0.83439513050655 0 15.6922736942162 0.815654138696531 0 8.09999999997948 0.826794919242848 0 8.19999999997958 0.653589838485829 0 7.99999999997967 0.653589838485872 0 8.39999999997957 0.653589838485763 0 8.29999999997951 0.480384757728964 0 8.49999999997927 0.480384757728878 0 8.5999999999797 0.653589838485656 0 8.69999999997898 0.480384757728697 0 8.09936479783543 0.483984524751002 0 7.89889995640994 0.483443222557347 0 7.79999999997985 0.653589838485708 0 7.69999999998024 0.482568040765242 0 7.79645162934511 0.316140149424588 0 7.59999999998004 0.653832425489461 0 7.49999999998032 0.480384757728063 0 7.39999999998017 0.653616792596627 0 7.29999999998032 0.480384757727631 0 7.19999999998034 0.653592833386099 0 7.0999999999803 0.480384757727202 0 6.99999999998044 0.653589838484526 0 6.89999999998028 0.480384757726783 0 6.7999999999806 0.653589838484268 0 6.69999999998025 0.480384757726355 0 6.59999999998073 0.65358983848395 0 6.49999999998023 0.480384757725918 0 6.39999999998085 0.653589838483615 0 6.2999999999802 0.480384757725469 0 6.19999999998097 0.653589838483274 0 6.09999999998018 0.480384757725009 0 5.99999999998109 0.653589838482929 0 5.89999999998015 0.480384757724548 0 5.79999999998125 0.653589838482601 0 5.69999999998011 0.480384757724105 0 5.59999999998118 0.653589838482109 0 5.49999999998009 0.480384757723655 0 5.39999999998145 0.653589838481903 0 5.29999999998006 0.480384757723202 0 5.19999999998159 0.653589838481573 0 5.09999999998003 0.480384757722739 0 4.99999999998171 0.653589838481231 0 4.89999999998 0.480384757722284 0 4.79999999998184 0.653589838480891 0 4.69999999997997 0.480384757721832 0 4.59999999998196 0.653589838480548 0 4.49999999997994 0.480384757721369 0 4.39999999998208 0.653589838480199 0 4.29999999997992 0.480384757720903 0 4.19999999998221 0.653589838479851 0 4.09999999997989 0.480384757720439 0 3.99999999997947 0.653589838477122 0 3.89999999997986 0.480384757719978 0 3.79999999997944 0.653589838476661 0 3.69999999997983 0.480384757719518 0 3.59999999997941 0.653589838476202 0 3.4999999999798 0.480384757719058 0 3.39999999997938 0.65358983847574 0 3.29999999997977 0.480384757718598 0 3.19999999997935 0.653589838475281 0 3.09999999997974 0.480384757718137 0 2.99999999997932 0.653589838474822 0 2.89999999997971 0.480384757717679 0 2.7999999999793 0.653589838474364 0 2.69999999997968 0.480384757717221 0 2.59999999997927 0.653589838473905 0 2.49999999997965 0.480384757716762 0 2.39999999997924 0.653589838473444 0 2.29940860487266 0.483873901626366 0 2.19993428941465 0.653977521131915 0 2.09920417199692 0.483093795650007 0 1.99990427347715 0.653933918540785 0 1.89976951723567 0.483875882968814 0 1.79996375451097 0.654015972399612 0 1.69999999997939 0.480384757714885 0 1.99881720977017 0.315897138893714 0 1.59999999997892 0.653589838471666 0 1.49999999997923 0.48038475771442 0 1.39999999997875 0.653589838471227 0 1.29999999997906 0.480384757713966 0 1.19999999997858 0.653589838470776 0 1.09999999997889 0.480384757713518 0 0.99999999997842 0.65358983847032 0 0.899999999978739 0.480384757713072 0 0.799999999978276 0.653589838469859 0 0.699999999978606 0.480384757712627 0 0.599999999978152 0.653589838469396 0 0.488902152079335 0.480182833362319 0 0.397961476484174 0.663879545519049 0 1.89999999999457 0.826794919240091 0 14.2999999999927 0.173205080757313 0 14.2005913950999 0.34510091248886 0 14.4000657105598 0.346264689401101 0 14.0013223237587 0.34128270625806 0 14.300738229825 0.5135282064438
[...]
<PointData Scalars="pressure_p1," Vectors="" Tensors="">
<DataArray type="Float64" Name="pressure_p1" format="ascii">
-0.0750857258836869 -0.0750887543816942 -16.7238393674106 -16.7240498189462 -0.0628394674555391 -0.0667610111102605 -0.0709159012603611 -0.0669272294608444 -0.229641083531657 -0.440620954448812 -0.660060454092621 -0.880049523061016 -1.10004308515541 -1.32003713821292 -1.54003147653066 -1.76002623720507 -1.98002155334523 -2.20001737819775 -2.42001358184617 -2.6400102059762 -2.86000742432941 -3.08000532161369 -3.30000379393424 -3.5200026801163 -3.74000186082504 -3.96000126053024 -4.18000082696084 -4.40000051966376 -4.62000030596372 -4.84000015960298 -5.06000005997613 -5.27999999138935 -5.49999994228997 -5.71999990453147 -5.93999987274238 -6.159999843851 -6.37999981681208 -6.59999979258763 -6.81999977446424 -7.03999976878273 -7.25999978597033 -7.47999984094222 -7.69999994962663 -7.92000011557914 -8.14000031308473 -8.36000048214457 -8.58000049197483 -8.80000024540833 -9.01999984692207 -9.23999950532781 -9.45999933405336 -9.67999929731779 -9.8999993001468 -10.1199992655312 -10.339999128476 -10.5599988018098 -10.7799981382835 -10.9999968805001 -11.2199945826178 -11.4399904832285 -11.6599833002931 -11.8799709052947 -12.0999498138737 -12.3199144027253 -12.5398557257653 -12.7597597548728 -12.9796048106595 -13.1993578763545 -13.4189694041182 -13.6383661311173 -13.8574413283686 -14.0760418174888 -14.293951019694 -14.5108672541005 -14.7263764661195 -14.9399186518305 -15.1507774513188 -15.3579269909504 -15.560059727751 -15.7556941829191 -15.9427330448922 -16.1186863094894 -16.2805051707289 -16.4244651020081 -16.5456010790043 -16.6398266478081 -16.7005602044881 -16.7253111545567 -16.7248398269879 -16.7242452385389 -16.724793570866 -16.7008007528773 -16.6407768339646 -16.5463867899294 -16.4245372480807 -16.2805216058456 -16.118701964484 -15.9427490342122 -15.7557100151012 -15.5600846411435 -15.3580043262347 -15.1509835902836 -14.9400714388503 -14.7263770338154 -14.5108678541129 -14.2939516739753 -14.0760424007221 -13.8574417924745 -13.6383664773995 -13.4189696523124 -13.199358049379 -12.979604928771 -12.7597598341235 -12.5398557781663 -12.319914436959 -12.0999498360871 -11.8799709198098 -11.6599833102063 -11.4399904909303 -11.2199945903001 -10.9999968907606 -10.7799981550127 -10.5599988316926 -10.3399991837983 -10.1199993701062 -9.89999950530958 -9.67999974479453 -9.46000060403994 -9.23992268666558 -9.01977978746883 -8.7994401670403 -8.57859014536986 -8.35897167824271 -8.13999636179958 -7.91999842536012 -7.69999911238205 -7.47999940407481 -7.25999955436026 -7.03999964544049 -6.81999970871421 -6.59999975755447 -6.37999979818987 -6.15999983403124 -5.93999986770744 -5.71999990221692 -5.49999994174252 -5.27999999237872 -5.06000006290195 -4.84000016565852 -4.62000031762319 -4.4000005416943 -4.18000086838744 -3.96000133846393 -3.74000200844528 -3.52000296685333 -3.3000043977234 -3.08000689935363 -2.85993395748391 -2.63985077239076 -2.41956558954592 -2.19873955678688 -1.97907865287718 -1.76002344555883 -1.54003213648519 -1.32004062763388 -1.10005050515794 -0.88006261935654 -0.661330828062011 -0.443014972811834 -0.230414305358533 -15.0466682261691 -14.6188366531437 -14.1851036853192 -13.747954350048 -13.3091862289391 -12.8696918200215 -15.4599325005179 -0.77006234224354 -12.4298888762457 -1.21004027139009 -11.9899618032206 -2.30999953405037 -1.65002890228069 -11.5499874114872 -16.7102160423758 -2.7500086708957 -11.1099959139644 -3.19000446023671 -16.4877665719172 -16.2016441279155 -15.8504731858392 -3.63000224177852 -10.6699985473079 -4.07000102861793 -10.2299992816695 -4.51000040395915 -4.95000010533442 -9.78999951274824 -5.38999996499662 -9.34998337655812 -5.8299998878776 -6.26999982912321 -8.90871678330407 -6.7099997791678 -7.14999976362251 -7.58999986695226 -8.03000026226791 -8.47000011621098 -1.86950858610266 -14.8334355100102 -14.4025561319826 -15.2549776088821 -0.559929715897122 -13.9668127277143 -16.3550081655867 -16.0322866323008 -0.990055557827283 -13.5287003705253 -1.4300362405219 -13.0894954802374 -2.52895173173431 -12.6498135420711 -2.96998457072491 -3.41000350420901 -12.2099343629211 -3.85000163133747 -11.7699779331195 -4.29000068700989 -11.3299928233069 -4.73000023333994 -5.17000002422867 -10.8899976067228 -5.60999992107786 -10.4499989980714 -6.04999985145681 -10.0099992914771 -6.48999978046789 -6.92999968632776 -9.56999926755215 -7.3699995200714 -9.12999959893805 -7.80999905722084 -8.24944666833528 -16.5974155204077 -0.180775126606463 -0.334089777259883 -16.673351046638 -8.91000007026746 -9.01992893296429 -8.79982835892932 -9.23999913958124 -9.12986748495388 -9.3499985969819 -9.45999910724522 -9.56999908411053 -8.90894319340737 -8.68846531295125 -8.57989294724998 -8.46952181401616 -8.57680016420811 -8.36000523093485 -8.25000086595571 -8.14000042242212 -8.03000013352555 -7.92000007101571 -7.80999976515655 -7.69999985628277 -7.58999967461493 -7.47999976386571 -7.36999967031936 -7.25999973579073 -7.14999969342988 -7.03999973921553 -6.92999972468229 -6.81999975785806 -6.70999975794879 -6.59999978348876 -6.48999979098146 -6.37999981189815 -6.26999982302002 -6.15999984123241 -6.04999985432251 -5.93999987138653 -5.82999988625858 -5.71999990389822 -5.60999992160934 -5.49999994212739 -5.38999996499709 -5.27999999163519 -5.17000002344059 -5.06000006073145 -4.95000010704316 -4.84000016116519 -4.73000022980812 -4.62000030891769 -4.51000041054513 -4.40000052501691 -4.29000067376446 -4.18000083620959 -4.07000105027268 -3.9600012751234 -3.85000157662496 -3.74000187920494 -3.6300022907085 -3.52000268732229 -3.41000321467869 -3.30000373630629 -3.19000430307616 -3.08000509231209 -2.96999773133635 -2.86000702602747 -2.74987251300185 -2.63993751414567 -2.52903834941387 -2.41983440306744 -2.30887410474958 -2.19985566298219 -2.08967561412162 -1.97997858251207 -1.86999874478014 -2.19813336196408 -1.76002318676704 -1.65002973981765 -1.54003200427765 -1.43003552844998 -1.32003790601303 -1.21004228922753 -1.10004398858738 -0.990049262957563 -0.8800489420965 -0.769524736753498 -0.658766024447412 -0.534628944547754 -0.437466560988588 -2.09000619860937 -15.6588904463072 -15.5610279935062 -15.7558472776712 -15.3596100736703 -15.6597747021556 -15.8505508351697 -15.9427523896367 -16.0323348911415 -16.1186969902846 -16.2016506514753 -16.2805166548261 -16.3550395669664 -16.4244994373935 -16.4885980084565 -16.5469223498941 -16.6039016761943 -16.6417507098699 -16.6753979386296 -15.8504538848871 -14.185099388509 -14.0760419630997 -13.8574414424672 -13.9668156124898 -13.7479542167701 -14.1851035033957 -13.6383662172377 -13.5287017202768 -14.2939512064945 -14.5108675617868 -14.4025619015906 -14.6188369312006 -14.7263774261015 -14.8335652292667 -14.9400119935024 -15.0466444791739 -15.1509686940605 -14.6188289401904 -12.8696914014141 -12.7597597759769 -12.5398557399296 -12.6498137898307 -12.4298888623015 -12.8696917879095 -12.3199144121063 -12.209934460776 -12.9796048416099 -13.0894960749587 -13.1993579209235 -13.3091861596485 -13.4189694669188 -13.3091852572311 -11.1099959003324 -10.9999968831494 -10.779998142318 -10.8899976160112 -10.6699985375203 -11.109995910599 -10.5599988082209 -10.4499990146738 -9.78999928887041 -9.89999929476993 -10.1199992751402 -10.0099993203129 -10.2299992411214 -9.78999928641053 -10.3399991378284 -9.67999922770667 -11.9899617369351 -11.8799709093577 -11.6599833030784 -11.7699779700977 -11.5499874085602 -11.9899617973301 -11.4399904853738 -11.3299928377366 -12.0999498200341 -11.2199945846972 -16.4885346672902 -6.70999973794766 -7.58999935790422 -4.95000010882837 -3.63000241170595 -5.82999988485508 -8.02999843914651 -3.19000503949039 -2.74979221534569 -4.07000107663059 -5.38999996510764 -4.51000041736234 -6.26999981749303 -7.14999961863735 -15.0457570120765 -15.3587768346178 -15.4598747985051 -0.771231537447376 -1.21004489734683 -1.65002867507844 -10.6699985262059 -10.2299992165091 -0.341368264948496 -16.2015903583201 -13.7479522279122 -16.5931769292436 -8.6900005025114 -12.429888705589 -11.5499873858547 -15.6589169685207 -9.34999932645416 -16.0323280871136 -16.3550308936335 -15.2558538148374 -1.43003442442837 -0.550174728928634 -0.990046169403853 -6.92999976365431 -4.29000066158354 -7.81000001490527 -5.60999992228611 -3.85000154090319 -2.53000452566251 -8.25000087937568 -2.97000621621532 -5.17000002274314 -3.41000318662864 -6.48999980241007 -6.0499998575362 -4.73000022635908 -7.36999979183167 -13.9668157810644 -11.7699779740485 -9.12975272975172 -12.649813811129 -10.8899976213724 -10.0099994122444 -13.0894961226045 -9.56999966741746 -10.4499990339591 -14.8335608939713 -11.3299928404355 -13.5287018183563 -12.2099344698286 -14.4025620077362 -1.87002114433431 -0.204797945098412 -16.7111812513763 -0.17489660451215 -16.705044516213 -16.6715358014318 -0.349306124119238 -8.7962751425895 -2.41680776716863 -15.1536784426751 -15.4625494925274 -2.08709060545002 -8.46660759866172 -14.5108803510087 -14.7264487587838 -14.2939604691591 -14.9408206629968 -14.0760484935514 -13.8574459617348 -13.6383692949392 -13.4189715317772 -15.7558981939395 -15.9428330281187 -16.1188134240195 -16.2806521959053 -13.1993592864762 -12.9796057321057 -16.4242916779499 -12.7597603487249 -16.5430460597189 -12.5398561033346 -12.3199146396288 -12.0999499606665 -11.8799709952897 -11.6599833551931 -11.4399905171174 -11.2199946048112 -10.9999968976265 -10.7799981559314 -10.5599988259585 -10.339999166556 -10.119999325426 -9.89999937901637 -9.67999932329686 -9.45999887287009 -9.23992319960609 -9.01893286574717 -2.63900272337368 -0.667347034305769 -2.85989156084496 -3.30000389903331 -1.76002728306124 -0.880564085836834 -1.54003262628286 -1.10004814898867 -3.07999728832596 -1.32003974146723 -3.52000280788925 -3.74000194763405 -3.9600013116946 -4.18000085538723 -4.62000031401117 -4.40000053496723 -5.06000006187102 -4.84000016369625 -5.27999999193105 -5.49999994174473 -5.93999986888451 -5.71999990269946 -6.37999980274621 -6.15999983639843 -6.5999997662678 -6.8199997255198 -7.03999967854713 -7.25999962219492 -7.69999947685522 -7.47999955286811 -7.91999947622993 -8.14000011082661 -8.35906427909271 -15.5610464925825 -1.97932439932401 -15.2561088745642 -8.6875909649329 -2.30809403686596 -16.7146992859309 -0.153671916143877 -16.7144094110659 -0.155684986753789 -0.493783860838891 -16.6217990407128 -16.6737155885003 -0.341910293741137 
</DataArray>
</PointData>
<CellData Scalars="pressure_p0," Vectors="velocity_p0," Tensors="">
<DataArray type="Float64" Name="pressure_p0" format="ascii">