<?xml version="1.0"?>
<VTKFile type="UnstructuredGrid" version="0.1" byte_order="LittleEndian">
<UnstructuredGrid>
<Piece NumberOfPoints="279" NumberOfCells="96">
<Points>
<DataArray type="Float64" NumberOfComponents="3" format="ascii">
2.500000000000000e-01 0.000000000000000e+00 0.000000000000000e+00 3.333333333331881e-01 1.666666666663762e-01 0.000000000000000e+00 3.333333333331881e-01 1.666666666663762e-01 0.000000000000000e+00 4.166666666665131e-01 3.333333333330262e-01 0.000000000000000e+00 4.166666666665131e-01 3.333333333330262e-01 0.000000000000000e+00 5.000000000000000e-01 5.000000000000000e-01 0.000000000000000e+00 5.000000000000000e-01 5.000000000000000e-01 0.000000000000000e+00 3.333333333336109e-01 4.166666666668055e-01 0.000000000000000e+00 3.333333333336109e-01 4.166666666668055e-01 0.000000000000000e+00 1.666666666671293e-01 3.333333333335646e-01 0.000000000000000e+00 1.666666666671293e-01 3.333333333335646e-01 0.000000000000000e+00 0.000000000000000e+00 2.500000000000000e-01 0.000000000000000e+00 7.500000000000000e-01 1.000000000000000e+00 0.000000000000000e+00 6.666666666666666e-01 8.333333333333333e-01 0.000000000000000e+00 6.666666666666666e-01 8.333333333333333e-01 0.000000000000000e+00 5.833333333333333e-01 6.666666666666666e-01 0.000000000000000e+00 5.833333333333333e-01 6.666666666666666e-01 0.000000000000000e+00 5.000000000000000e-01 5.000000000000000e-01 0.000000000000000e+00 0.000000000000000e+00 2.500000000000000e-01 0.000000000000000e+00 0.000000000000000e+00 3.999999999993061e-01 0.000000000000000e+00 1.666666666671293e-01 3.333333333335646e-01 0.000000000000000e+00 6.666666666666666e-01 8.333333333333333e-01 0.000000000000000e+00 5.999999999994290e-01 1.000000000000000e+00 0.000000000000000e+00 7.500000000000000e-01 1.000000000000000e+00 0.000000000000000e+00 1.262659817929549e-01 7.913299378255220e-01 0.000000000000000e+00 0.000000000000000e+00 6.999999999991673e-01 0.000000000000000e+00 0.000000000000000e+00 8.499999999995836e-01 0.000000000000000e+00 5.271054966329634e-01 8.488328532632591e-01 0.000000000000000e+00 4.499999999990660e-01 1.000000000000000e+00 0.000000000000000e+00 5.999999999994290e-01 1.000000000000000e+00 0.000000000000000e+00 6.666666666666666e-01 8.333333333333333e-01 0.000000000000000e+00 5.271054966329634e-01 8.488328532632591e-01 0.000000000000000e+00 5.999999999994290e-01 1.000000000000000e+00 0.000000000000000e+00 0.000000000000000e+00 5.499999999990286e-01 0.000000000000000e+00 1.555085255433845e-01 4.752619409895978e-01 0.000000000000000e+00 0.000000000000000e+00 3.999999999993061e-01 0.000000000000000e+00 1.555085255433845e-01 4.752619409895978e-01 0.000000000000000e+00 1.666666666671293e-01 3.333333333335646e-01 0.000000000000000e+00 0.000000000000000e+00 3.999999999993061e-01 0.000000000000000e+00 1.555085255433845e-01 4.752619409895978e-01 0.000000000000000e+00 3.333333333336109e-01 4.166666666668055e-01 0.000000000000000e+00 1.666666666671293e-01 3.333333333335646e-01 0.000000000000000e+00 1.555085255433845e-01 4.752619409895978e-01 0.000000000000000e+00 2.998933064660453e-01 5.734214616116567e-01 0.000000000000000e+00 3.333333333336109e-01 4.166666666668055e-01 0.000000000000000e+00 5.833333333333333e-01 6.666666666666666e-01 0.000000000000000e+00 5.271054966329634e-01 8.488328532632591e-01 0.000000000000000e+00 6.666666666666666e-01 8.333333333333333e-01 0.000000000000000e+00 4.293977045941481e-01 7.128112913903036e-01 0.000000000000000e+00 5.271054966329634e-01 8.488328532632591e-01 0.000000000000000e+00 5.833333333333333e-01 6.666666666666666e-01 0.000000000000000e+00 2.853648640097591e-01 7.463071008059871e-01 0.000000000000000e+00 4.293977045941481e-01 7.128112913903036e-01 0.000000000000000e+00 2.998933064660453e-01 5.734214616116567e-01 0.000000000000000e+00 0.000000000000000e+00 5.499999999990286e-01 0.000000000000000e+00 1.448015295635871e-01 6.434886585734013e-01 0.000000000000000e+00 1.555085255433845e-01 4.752619409895978e-01 0.000000000000000e+00 1.448015295635871e-01 6.434886585734013e-01 0.000000000000000e+00 2.998933064660453e-01 5.734214616116567e-01 0.000000000000000e+00 1.555085255433845e-01 4.752619409895978e-01 0.000000000000000e+00 3.808957665680138e-01 8.645016041761083e-01 0.000000000000000e+00 4.499999999990660e-01 1.000000000000000e+00 0.000000000000000e+00 5.271054966329634e-01 8.488328532632591e-01 0.000000000000000e+00 4.293977045941481e-01 7.128112913903036e-01 0.000000000000000e+00 3.808957665680138e-01 8.645016041761083e-01 0.000000000000000e+00 5.271054966329634e-01 8.488328532632591e-01 0.000000000000000e+00 0.000000000000000e+00 6.999999999991673e-01 0.000000000000000e+00 1.448015295635871e-01 6.434886585734013e-01 0.000000000000000e+00 0.000000000000000e+00 5.499999999990286e-01 0.000000000000000e+00 1.448015295635871e-01 6.434886585734013e-01 0.000000000000000e+00 2.853648640097591e-01 7.463071008059871e-01 0.000000000000000e+00 2.998933064660453e-01 5.734214616116567e-01 0.000000000000000e+00 2.853648640097591e-01 7.463071008059871e-01 0.000000000000000e+00 1.448015295635871e-01 6.434886585734013e-01 0.000000000000000e+00 1.262659817929549e-01 7.913299378255220e-01 0.000000000000000e+00 0.000000000000000e+00 6.999999999991673e-01 0.000000000000000e+00 1.262659817929549e-01 7.913299378255220e-01 0.000000000000000e+00 1.448015295635871e-01 6.434886585734013e-01 0.000000000000000e+00 3.808957665680138e-01 8.645016041761083e-01 0.000000000000000e+00 2.999999999990501e-01 1.000000000000000e+00 0.000000000000000e+00 4.499999999990660e-01 1.000000000000000e+00 0.000000000000000e+00 2.853648640097591e-01 7.463071008059871e-01 0.000000000000000e+00 3.808957665680138e-01 8.645016041761083e-01 0.000000000000000e+00 4.293977045941481e-01 7.128112913903036e-01 0.000000000000000e+00 5.000000000000000e-01 5.000000000000000e-01 0.000000000000000e+00 4.293977045941481e-01 7.128112913903036e-01 0.000000000000000e+00 5.833333333333333e-01 6.666666666666666e-01 0.000000000000000e+00 5.000000000000000e-01 5.000000000000000e-01 0.000000000000000e+00 2.998933064660453e-01 5.734214616116567e-01 0.000000000000000e+00 4.293977045941481e-01 7.128112913903036e-01 0.000000000000000e+00 2.998933064660453e-01 5.734214616116567e-01 0.000000000000000e+00 5.000000000000000e-01 5.000000000000000e-01 0.000000000000000e+00 3.333333333336109e-01 4.166666666668055e-01 0.000000000000000e+00 2.195877687281456e-01 8.878564404679016e-01 0.000000000000000e+00 2.999999999990501e-01 1.000000000000000e+00 0.000000000000000e+00 3.808957665680138e-01 8.645016041761083e-01 0.000000000000000e+00 2.853648640097591e-01 7.463071008059871e-01 0.000000000000000e+00 2.195877687281456e-01 8.878564404679016e-01 0.000000000000000e+00 3.808957665680138e-01 8.645016041761083e-01 0.000000000000000e+00 2.195877687281456e-01 8.878564404679016e-01 0.000000000000000e+00 1.499999999993971e-01 1.000000000000000e+00 0.000000000000000e+00 2.999999999990501e-01 1.000000000000000e+00 0.000000000000000e+00 1.262659817929549e-01 7.913299378255220e-01 0.000000000000000e+00 2.195877687281456e-01 8.878564404679016e-01 0.000000000000000e+00 2.853648640097591e-01 7.463071008059871e-01 0.000000000000000e+00 9.917075010409951e-02 9.058372756586014e-01 0.000000000000000e+00 0.000000000000000e+00 8.499999999995836e-01 0.000000000000000e+00 0.000000000000000e+00 1.000000000000000e+00 0.000000000000000e+00 1.499999999993971e-01 1.000000000000000e+00 0.000000000000000e+00 9.917075010409951e-02 9.058372756586014e-01 0.000000000000000e+00 0.000000000000000e+00 1.000000000000000e+00 0.000000000000000e+00 0.000000000000000e+00 8.499999999995836e-01 0.000000000000000e+00 9.917075010409951e-02 9.058372756586014e-01 0.000000000000000e+00 1.262659817929549e-01 7.913299378255220e-01 0.000000000000000e+00 2.195877687281456e-01 8.878564404679016e-01 0.000000000000000e+00 9.917075010409951e-02 9.058372756586014e-01 0.000000000000000e+00 1.499999999993971e-01 1.000000000000000e+00 0.000000000000000e+00 2.195877687281456e-01 8.878564404679016e-01 0.000000000000000e+00 1.262659817929549e-01 7.913299378255220e-01 0.000000000000000e+00 9.917075010409951e-02 9.058372756586014e-01 0.000000000000000e+00 4.166666666665131e-01 3.333333333330262e-01 0.000000000000000e+00 5.000000000000000e-01 5.000000000000000e-01 0.000000000000000e+00 3.333333333336109e-01 4.166666666668055e-01 0.000000000000000e+00 1.666666666671293e-01 3.333333333335646e-01 0.000000000000000e+00 3.333333333331881e-01 1.666666666663762e-01 0.000000000000000e+00 4.166666666665131e-01 3.333333333330262e-01 0.000000000000000e+00 3.333333333336109e-01 4.166666666668055e-01 0.000000000000000e+00 1.666666666671293e-01 3.333333333335646e-01 0.000000000000000e+00 4.166666666665131e-01 3.333333333330262e-01 0.000000000000000e+00 0.000000000000000e+00 2.500000000000000e-01 0.000000000000000e+00 0.000000000000000e+00 0.000000000000000e+00 0.000000000000000e+00 1.500000000000635e-01 1.499999999999882e-01 0.000000000000000e+00 1.500000000000635e-01 1.499999999999882e-01 0.000000000000000e+00 0.000000000000000e+00 0.000000000000000e+00 0.000000000000000e+00 2.500000000000000e-01 0.000000000000000e+00 0.000000000000000e+00 1.500000000000635e-01 1.499999999999882e-01 0.000000000000000e+00 2.500000000000000e-01 0.000000000000000e+00 0.000000000000000e+00 3.333333333331881e-01 1.666666666663762e-01 0.000000000000000e+00 1.500000000000635e-01 1.499999999999882e-01 0.000000000000000e+00 1.666666666671293e-01 3.333333333335646e-01 0.000000000000000e+00 0.000000000000000e+00 2.500000000000000e-01 0.000000000000000e+00 3.333333333331881e-01 1.666666666663762e-01 0.000000000000000e+00 1.666666666671293e-01 3.333333333335646e-01 0.000000000000000e+00 1.500000000000635e-01 1.499999999999882e-01 0.000000000000000e+00 2.500000000000000e-01 0.000000000000000e+00 0.000000000000000e+00 3.333333333331881e-01 1.666666666663762e-01 0.000000000000000e+00 4.000000000002777e-01 0.000000000000000e+00 0.000000000000000e+00 7.000000000008327e-01 0.000000000000000e+00 0.000000000000000e+00 7.736475786618975e-01 1.393304285805427e-01 0.000000000000000e+00 8.500000000008328e-01 0.000000000000000e+00 0.000000000000000e+00 4.992042824076202e-01 1.490973993763484e-01 0.000000000000000e+00 5.500000000005552e-01 0.000000000000000e+00 0.000000000000000e+00 4.000000000002777e-01 0.000000000000000e+00 0.000000000000000e+00 3.333333333331881e-01 1.666666666663762e-01 0.000000000000000e+00 4.992042824076202e-01 1.490973993763484e-01 0.000000000000000e+00 4.000000000002777e-01 0.000000000000000e+00 0.000000000000000e+00 4.166666666665131e-01 3.333333333330262e-01 0.000000000000000e+00 4.992042824076202e-01 1.490973993763484e-01 0.000000000000000e+00 3.333333333331881e-01 1.666666666663762e-01 0.000000000000000e+00 6.194807743958560e-01 2.412219107496123e-01 0.000000000000000e+00 4.992042824076202e-01 1.490973993763484e-01 0.000000000000000e+00 4.166666666665131e-01 3.333333333330262e-01 0.000000000000000e+00 7.000000000008327e-01 0.000000000000000e+00 0.000000000000000e+00 6.359519675930375e-01 1.128248248704907e-01 0.000000000000000e+00 7.736475786618975e-01 1.393304285805427e-01 0.000000000000000e+00 6.194807743958560e-01 2.412219107496123e-01 0.000000000000000e+00 6.359519675930375e-01 1.128248248704907e-01 0.000000000000000e+00 4.992042824076202e-01 1.490973993763484e-01 0.000000000000000e+00 6.359519675930375e-01 1.128248248704907e-01 0.000000000000000e+00 6.194807743958560e-01 2.412219107496123e-01 0.000000000000000e+00 7.736475786618975e-01 1.393304285805427e-01 0.000000000000000e+00 1.000000000000000e+00 2.857142857153761e-01 0.000000000000000e+00 8.995418595679957e-01 3.660610945775338e-01 0.000000000000000e+00 1.000000000000000e+00 4.285714285727172e-01 0.000000000000000e+00 7.576097615368714e-01 3.056501081260414e-01 0.000000000000000e+00 7.736475786618975e-01 1.393304285805427e-01 0.000000000000000e+00 6.194807743958560e-01 2.412219107496123e-01 0.000000000000000e+00 7.576097615368714e-01 3.056501081260414e-01 0.000000000000000e+00 7.738404604248252e-01 4.704509657696636e-01 0.000000000000000e+00 8.995418595679957e-01 3.660610945775338e-01 0.000000000000000e+00 8.984269496357760e-01 4.968844551721360e-01 0.000000000000000e+00 1.000000000000000e+00 5.714285714296619e-01 0.000000000000000e+00 1.000000000000000e+00 4.285714285727172e-01 0.000000000000000e+00 5.000000000000000e-01 5.000000000000000e-01 0.000000000000000e+00 6.227208784165946e-01 4.036087638678805e-01 0.000000000000000e+00 4.166666666665131e-01 3.333333333330262e-01 0.000000000000000e+00 6.227208784165946e-01 4.036087638678805e-01 0.000000000000000e+00 6.194807743958560e-01 2.412219107496123e-01 0.000000000000000e+00 4.166666666665131e-01 3.333333333330262e-01 0.000000000000000e+00 1.000000000000000e+00 2.857142857153761e-01 0.000000000000000e+00 8.926331999611968e-01 2.185069385476834e-01 0.000000000000000e+00 8.995418595679957e-01 3.660610945775338e-01 0.000000000000000e+00 8.995418595679957e-01 3.660610945775338e-01 0.000000000000000e+00 8.984269496357760e-01 4.968844551721360e-01 0.000000000000000e+00 1.000000000000000e+00 4.285714285727172e-01 0.000000000000000e+00 8.995418595679957e-01 3.660610945775338e-01 0.000000000000000e+00 7.738404604248252e-01 4.704509657696636e-01 0.000000000000000e+00 8.984269496357760e-01 4.968844551721360e-01 0.000000000000000e+00 1.000000000000000e+00 1.428571428577377e-01 0.000000000000000e+00 8.926331999611968e-01 2.185069385476834e-01 0.000000000000000e+00 1.000000000000000e+00 2.857142857153761e-01 0.000000000000000e+00 7.576097615368714e-01 3.056501081260414e-01 0.000000000000000e+00 8.926331999611968e-01 2.185069385476834e-01 0.000000000000000e+00 7.736475786618975e-01 1.393304285805427e-01 0.000000000000000e+00 7.576097615368714e-01 3.056501081260414e-01 0.000000000000000e+00 8.995418595679957e-01 3.660610945775338e-01 0.000000000000000e+00 8.926331999611968e-01 2.185069385476834e-01 0.000000000000000e+00 7.000000000008327e-01 0.000000000000000e+00 0.000000000000000e+00 5.500000000005552e-01 0.000000000000000e+00 0.000000000000000e+00 6.359519675930375e-01 1.128248248704907e-01 0.000000000000000e+00 5.500000000005552e-01 0.000000000000000e+00 0.000000000000000e+00 4.992042824076202e-01 1.490973993763484e-01 0.000000000000000e+00 6.359519675930375e-01 1.128248248704907e-01 0.000000000000000e+00 9.032561557247855e-01 1.001389019971927e-01 0.000000000000000e+00 1.000000000000000e+00 1.428571428577377e-01 0.000000000000000e+00 1.000000000000000e+00 0.000000000000000e+00 0.000000000000000e+00 9.032561557247855e-01 1.001389019971927e-01 0.000000000000000e+00 8.500000000008328e-01 0.000000000000000e+00 0.000000000000000e+00 7.736475786618975e-01 1.393304285805427e-01 0.000000000000000e+00 8.500000000008328e-01 0.000000000000000e+00 0.000000000000000e+00 9.032561557247855e-01 1.001389019971927e-01 0.000000000000000e+00 1.000000000000000e+00 0.000000000000000e+00 0.000000000000000e+00 9.032561557247855e-01 1.001389019971927e-01 0.000000000000000e+00 8.926331999611968e-01 2.185069385476834e-01 0.000000000000000e+00 1.000000000000000e+00 1.428571428577377e-01 0.000000000000000e+00 7.736475786618975e-01 1.393304285805427e-01 0.000000000000000e+00 8.926331999611968e-01 2.185069385476834e-01 0.000000000000000e+00 9.032561557247855e-01 1.001389019971927e-01 0.000000000000000e+00 1.000000000000000e+00 5.714285714296619e-01 0.000000000000000e+00 8.030410438586795e-01 6.461605083906008e-01 0.000000000000000e+00 1.000000000000000e+00 7.142857142862099e-01 0.000000000000000e+00 8.030410438586795e-01 6.461605083906008e-01 0.000000000000000e+00 1.000000000000000e+00 5.714285714296619e-01 0.000000000000000e+00 8.984269496357760e-01 4.968844551721360e-01 0.000000000000000e+00 6.194807743958560e-01 2.412219107496123e-01 0.000000000000000e+00 6.227208784165946e-01 4.036087638678805e-01 0.000000000000000e+00 7.576097615368714e-01 3.056501081260414e-01 0.000000000000000e+00 6.227208784165946e-01 4.036087638678805e-01 0.000000000000000e+00 7.738404604248252e-01 4.704509657696636e-01 0.000000000000000e+00 7.576097615368714e-01 3.056501081260414e-01 0.000000000000000e+00 6.666666666666666e-01 8.333333333333333e-01 0.000000000000000e+00 8.030410438586795e-01 6.461605083906008e-01 0.000000000000000e+00 5.833333333333333e-01 6.666666666666666e-01 0.000000000000000e+00 6.565871432066865e-01 5.373773809389624e-01 0.000000000000000e+00 7.738404604248252e-01 4.704509657696636e-01 0.000000000000000e+00 6.227208784165946e-01 4.036087638678805e-01 0.000000000000000e+00 6.565871432066865e-01 5.373773809389624e-01 0.000000000000000e+00 5.000000000000000e-01 5.000000000000000e-01 0.000000000000000e+00 5.833333333333333e-01 6.666666666666666e-01 0.000000000000000e+00 6.227208784165946e-01 4.036087638678805e-01 0.000000000000000e+00 5.000000000000000e-01 5.000000000000000e-01 0.000000000000000e+00 6.565871432066865e-01 5.373773809389624e-01 0.000000000000000e+00 8.699512850875576e-01 8.418204021921999e-01 0.000000000000000e+00 1.000000000000000e+00 7.142857142862099e-01 0.000000000000000e+00 8.030410438586795e-01 6.461605083906008e-01 0.000000000000000e+00 1.000000000000000e+00 7.142857142862099e-01 0.000000000000000e+00 8.699512850875576e-01 8.418204021921999e-01 0.000000000000000e+00 1.000000000000000e+00 8.571428571430554e-01 0.000000000000000e+00 6.666666666666666e-01 8.333333333333333e-01 0.000000000000000e+00 8.699512850875576e-01 8.418204021921999e-01 0.000000000000000e+00 8.030410438586795e-01 6.461605083906008e-01 0.000000000000000e+00 1.000000000000000e+00 1.000000000000000e+00 0.000000000000000e+00 8.699512850875576e-01 8.418204021921999e-01 0.000000000000000e+00 7.500000000000000e-01 1.000000000000000e+00 0.000000000000000e+00 8.699512850875576e-01 8.418204021921999e-01 0.000000000000000e+00 1.000000000000000e+00 1.000000000000000e+00 0.000000000000000e+00 1.000000000000000e+00 8.571428571430554e-01 0.000000000000000e+00 8.699512850875576e-01 8.418204021921999e-01 0.000000000000000e+00 6.666666666666666e-01 8.333333333333333e-01 0.000000000000000e+00 7.500000000000000e-01 1.000000000000000e+00 0.000000000000000e+00 7.738404604248252e-01 4.704509657696636e-01 0.000000000000000e+00 8.030410438586795e-01 6.461605083906008e-01 0.000000000000000e+00 8.984269496357760e-01 4.968844551721360e-01 0.000000000000000e+00 7.738404604248252e-01 4.704509657696636e-01 0.000000000000000e+00 6.565871432066865e-01 5.373773809389624e-01 0.000000000000000e+00 8.030410438586795e-01 6.461605083906008e-01 0.000000000000000e+00 6.565871432066865e-01 5.373773809389624e-01 0.000000000000000e+00 5.833333333333333e-01 6.666666666666666e-01 0.000000000000000e+00 8.030410438586795e-01 6.461605083906008e-01 0.000000000000000e+00 
</DataArray>
</Points>
<Cells>
<DataArray type="Int32" Name="connectivity" format="ascii">
0 1 2 3 4 5 6 7 8 9 10 11 12 13 14 15 16 17 18 19 20 21 22 23 24 25 26 27 28 29 30 31 32 33 34 35 36 37 38 39 40 41 42 43 44 45 46 47 48 49 50 51 52 53 54 55 56 57 58 59 60 61 62 63 64 65 66 67 68 69 70 71 72 73 74 75 76 77 78 79 80 81 82 83 84 85 86 87 88 89 90 91 92 93 94 95 96 97 98 99 100 101 102 103 104 105 106 107 108 109 110 111 112 113 114 115 116 117 118 119 120 121 122 123 124 125 126 127 128 129 130 131 132 133 134 135 136 137 138 139 140 141 142 143 144 145 146 147 148 149 150 151 152 153 154 155 156 157 158 159 160 161 162 163 164 165 166 167 168 169 170 171 172 173 174 175 176 177 178 179 180 181 182 183 184 185 186 187 188 189 190 191 192 193 194 195 196 197 198 199 200 201 202 203 204 205 206 207 208 209 210 211 212 213 214 215 216 217 218 219 220 221 222 223 224 225 226 227 228 229 230 231 232 233 234 235 236 237 238 239 240 241 242 243 244 245 246 247 248 249 250 251 252 253 254 255 256 257 258 259 260 261 262 263 264 265 266 267 268 269 270 271 272 273 274 275 276 277 278 
</DataArray>
<DataArray type="Int32" Name="offsets" format="ascii">
2 4 6 8 10 12 14 16 18 21 24 27 30 33 36 39 42 45 48 51 54 57 60 63 66 69 72 75 78 81 84 87 90 93 96 99 102 105 108 111 114 117 120 123 126 129 132 135 138 141 144 147 150 153 156 159 162 165 168 171 174 177 180 183 186 189 192 195 198 201 204 207 210 213 216 219 222 225 228 231 234 237 240 243 246 249 252 255 258 261 264 267 270 273 276 279 
</DataArray>
<DataArray type="UInt8" Name="types" format="ascii">
3 3 3 3 3 3 3 3 3 5 5 5 5 5 5 5 5 5 5 5 5 5 5 5 5 5 5 5 5 5 5 5 5 5 5 5 5 5 5 5 5 5 5 5 5 5 5 5 5 5 5 5 5 5 5 5 5 5 5 5 5 5 5 5 5 5 5 5 5 5 5 5 5 5 5 5 5 5 5 5 5 5 5 5 5 5 5 5 5 5 5 5 5 5 5 5 
</DataArray>
</Cells>
<PointData Scalars="age_conc," Vectors="" Tensors="">
<DataArray type="Float64" Name="age_conc" format="ascii">
9.999998478727390e-01 9.999999727424888e-01 9.999999541097742e-01 1.000000017409868e+00 1.000000003382833e+00 1.000000004855440e+00 1.000000002537788e+00 1.000000001108120e+00 1.000000005549683e+00 9.999999883655638e-01 9.999999960374443e-01 9.999999512563663e-01 1.000000000012171e+00 9.999999999776991e-01 9.999999998789808e-01 1.000000000112803e+00 9.999999998514181e-01 1.000000001894495e+00 9.999722922655122e-01 1.000003475653561e+00 9.999932285299781e-01 9.999999998104323e-01 1.000000000116501e+00 1.000000000119819e+00 9.999999942790779e-01 9.999999986932191e-01 9.999999982777947e-01 9.999999994995356e-01 1.000000000059749e+00 1.000000000259275e+00 9.999999997751264e-01 9.999999996478237e-01 1.000000000199256e+00 1.000000817826018e+00 9.999998551829405e-01 9.999985800445913e-01 1.000002529408299e+00 9.999922154232288e-01 9.999991707357234e-01 1.000001346089441e+00 9.999998431537678e-01 9.999936337052890e-01 1.000000140763994e+00 1.000001095800021e+00 9.999990710912170e-01 1.000000000332222e+00 9.999999991957647e-01 9.999999991797776e-01 1.000000006343560e+00 9.999999964741634e-01 9.999999991067475e-01 1.000000006805278e+00 9.999999963461785e-01 1.000000030645296e+00 1.000000358103662e+00 1.000000338760057e+00 9.999997703881296e-01 1.000000211573129e+00 1.000000057334956e+00 9.999998905176478e-01 9.999999987914240e-01 1.000000000134159e+00 9.999999995602026e-01 1.000000000266165e+00 9.999999978543102e-01 9.999999987632398e-01 1.000000025192339e+00 1.000000039415966e+00 1.000000067507642e+00 1.000000097467094e+00 1.000000007406695e+00 1.000000022164304e+00 9.999999988905937e-01 1.000000026384814e+00 9.999999862445648e-01 1.000000010149339e+00 9.999999799434967e-01 1.000000031346277e+00 9.999999985995701e-01 1.000000000420092e+00 1.000000000350617e+00 1.000000002423373e+00 9.999999942780872e-01 1.000000000483752e+00 1.000000010143874e+00 1.000000019071187e+00 1.000000000000901e+00 9.999999263777809e-01 1.000000297861071e+00 1.000000091228796e+00 1.000000556948710e+00 1.000000091638129e+00 9.999994027588428e-01 9.999999980468213e-01 1.000000000726707e+00 9.999999986820892e-01 9.999999986679529e-01 9.999999964307368e-01 9.999999980384526e-01 9.999999987678767e-01 1.000000001209954e+00 1.000000000390146e+00 9.999999923610015e-01 9.999999936621796e-01 1.000000001423332e+00 1.000000000957869e+00 1.000000000096117e+00 1.000000000203039e+00 1.000000000701176e+00 1.000000000980745e+00 9.999999999128827e-01 1.000000000242262e+00 1.000000000811289e+00 9.999999948976050e-01 9.999999983035646e-01 1.000000000349368e+00 1.000000001674237e+00 9.999999980242217e-01 9.999999948789015e-01 1.000000000727878e+00 1.000000036074997e+00 1.000000002780755e+00 1.000000052371904e+00 1.000000265155105e+00 9.999996127768878e-01 1.000000905938643e+00 1.000000072398856e+00 1.000000034633260e+00 1.000000083602435e+00 1.000140311251803e+00 9.996216223780423e-01 1.000056827331412e+00 1.000072678556515e+00 9.995690346479364e-01 1.000122442515678e+00 9.999794159936102e-01 9.999918384830035e-01 1.000014957766523e+00 9.999807951037718e-01 1.000013601958832e+00 1.000008799560953e+00 1.000000941433667e+00 1.000003381757003e+00 9.999921498870497e-01 9.999309747085505e-01 9.999788212703768e-01 9.999968884494189e-01 9.999995845281844e-01 9.999996068694457e-01 1.000000256955382e+00 9.999996159002749e-01 1.000007974336831e+00 9.999963344663572e-01 9.999764279087472e-01 1.000005279285321e+00 9.999898439733610e-01 9.999977363938299e-01 1.000000579564811e+00 9.999811347546901e-01 1.000002343350191e+00 9.999979147087923e-01 9.999962778043266e-01 9.999991254416646e-01 1.000001557178254e+00 9.999994913431199e-01 1.000002151541826e+00 1.000002953994817e+00 1.000000628942125e+00 1.000001390647381e+00 1.000001772537255e+00 9.999995977354107e-01 1.000000025404035e+00 9.999999306979245e-01 9.999999889678886e-01 1.000000444090676e+00 9.999997875877790e-01 1.000001637211929e+00 1.000000251169384e+00 1.000000086728807e+00 9.999999242304050e-01 9.999999973833108e-01 9.999999942266483e-01 9.999999817403461e-01 1.000001524278881e+00 1.000000117944879e+00 9.999989753272718e-01 1.000000600980134e+00 1.000000956818839e+00 9.999973116387446e-01 1.000000045000640e+00 9.999999679564782e-01 9.999999130237683e-01 9.999999638692590e-01 1.000000014375796e+00 9.999999695954137e-01 9.999999837981509e-01 1.000000086520460e+00 9.999999973374724e-01 1.000000020266376e+00 1.000000009608377e+00 1.000000020921937e+00 1.000000335076699e+00 9.999997047694436e-01 9.999998234011453e-01 1.000000208454338e+00 9.999998897986883e-01 9.999997984779719e-01 9.999987661438854e-01 1.000002642130196e+00 1.000001708551819e+00 1.000005622178170e+00 9.999998258523201e-01 1.000003326593160e+00 1.000000036660481e+00 1.000000010969158e+00 9.999999853789360e-01 1.000000122562497e+00 1.000000170397650e+00 9.999996554430326e-01 1.000000044697307e+00 1.000000040053169e+00 9.999999784580221e-01 1.000000027734018e+00 1.000000005354978e+00 1.000000023107620e+00 9.999996684130860e-01 9.999999157969564e-01 1.000000116018938e+00 9.999999914091026e-01 9.999999965891877e-01 9.999999971083013e-01 9.999999959126546e-01 9.999999870407846e-01 9.999999960466611e-01 1.000000919066350e+00 9.999998894189828e-01 1.000000666060072e+00 1.000000104004779e+00 1.000000077194950e+00 1.000000511378925e+00 9.999999263814259e-01 9.999999427069396e-01 1.000000187632797e+00 1.000000053318814e+00 1.000000098077347e+00 1.000000049333470e+00 1.000000122845317e+00 1.000000812682374e+00 1.000000325335968e+00 9.999997976747292e-01 1.000000847267965e+00 1.000000166765149e+00 9.999999953331857e-01 9.999999997074328e-01 9.999999953566040e-01 1.000000001049423e+00 9.999999972043671e-01 1.000000001298166e+00 9.999999569607990e-01 9.999999494319941e-01 9.999999954218995e-01 1.000000004481637e+00 9.999999630446991e-01 9.999999991606013e-01 9.999999974247246e-01 1.000000001367267e+00 1.000000001201340e+00 9.999999593191912e-01 9.999999622265753e-01 9.999999927426987e-01 1.000000040642222e+00 9.999999801526489e-01 9.999999953928502e-01 1.000000032194866e+00 1.000000063066361e+00 9.999999246538417e-01 1.000000196355960e+00 1.000000254137756e+00 9.999998738870717e-01 
</DataArray>
</PointData>
</Piece>
</UnstructuredGrid>
</VTKFile>
