<?xml version="1.0"?>
<VTKFile type="UnstructuredGrid" version="0.1" byte_order="LittleEndian">
<UnstructuredGrid>
<Piece NumberOfPoints="279" NumberOfCells="96">
<Points>
<DataArray type="Float64" NumberOfComponents="3" format="ascii">
2.500000000000000e-01 0.000000000000000e+00 0.000000000000000e+00 3.333333333331881e-01 1.666666666663762e-01 0.000000000000000e+00 3.333333333331881e-01 1.666666666663762e-01 0.000000000000000e+00 4.166666666665131e-01 3.333333333330262e-01 0.000000000000000e+00 4.166666666665131e-01 3.333333333330262e-01 0.000000000000000e+00 5.000000000000000e-01 5.000000000000000e-01 0.000000000000000e+00 5.000000000000000e-01 5.000000000000000e-01 0.000000000000000e+00 3.333333333336109e-01 4.166666666668055e-01 0.000000000000000e+00 3.333333333336109e-01 4.166666666668055e-01 0.000000000000000e+00 1.666666666671293e-01 3.333333333335646e-01 0.000000000000000e+00 1.666666666671293e-01 3.333333333335646e-01 0.000000000000000e+00 0.000000000000000e+00 2.500000000000000e-01 0.000000000000000e+00 7.500000000000000e-01 1.000000000000000e+00 0.000000000000000e+00 6.666666666666666e-01 8.333333333333333e-01 0.000000000000000e+00 6.666666666666666e-01 8.333333333333333e-01 0.000000000000000e+00 5.833333333333333e-01 6.666666666666666e-01 0.000000000000000e+00 5.833333333333333e-01 6.666666666666666e-01 0.000000000000000e+00 5.000000000000000e-01 5.000000000000000e-01 0.000000000000000e+00 0.000000000000000e+00 2.500000000000000e-01 0.000000000000000e+00 0.000000000000000e+00 3.999999999993061e-01 0.000000000000000e+00 1.666666666671293e-01 3.333333333335646e-01 0.000000000000000e+00 6.666666666666666e-01 8.333333333333333e-01 0.000000000000000e+00 5.999999999994290e-01 1.000000000000000e+00 0.000000000000000e+00 7.500000000000000e-01 1.000000000000000e+00 0.000000000000000e+00 1.262659817929549e-01 7.913299378255220e-01 0.000000000000000e+00 0.000000000000000e+00 6.999999999991673e-01 0.000000000000000e+00 0.000000000000000e+00 8.499999999995836e-01 0.000000000000000e+00 5.271054966329634e-01 8.488328532632591e-01 0.000000000000000e+00 4.499999999990660e-01 1.000000000000000e+00 0.000000000000000e+00 5.999999999994290e-01 1.000000000000000e+00 0.000000000000000e+00 6.666666666666666e-01 8.333333333333333e-01 0.000000000000000e+00 5.271054966329634e-01 8.488328532632591e-01 0.000000000000000e+00 5.999999999994290e-01 1.000000000000000e+00 0.000000000000000e+00 0.000000000000000e+00 5.499999999990286e-01 0.000000000000000e+00 1.555085255433845e-01 4.752619409895978e-01 0.000000000000000e+00 0.000000000000000e+00 3.999999999993061e-01 0.000000000000000e+00 1.555085255433845e-01 4.752619409895978e-01 0.000000000000000e+00 1.666666666671293e-01 3.333333333335646e-01 0.000000000000000e+00 0.000000000000000e+00 3.999999999993061e-01 0.000000000000000e+00 1.555085255433845e-01 4.752619409895978e-01 0.000000000000000e+00 3.333333333336109e-01 4.166666666668055e-01 0.000000000000000e+00 1.666666666671293e-01 3.333333333335646e-01 0.000000000000000e+00 1.555085255433845e-01 4.752619409895978e-01 0.000000000000000e+00 2.998933064660453e-01 5.734214616116567e-01 0.000000000000000e+00 3.333333333336109e-01 4.166666666668055e-01 0.000000000000000e+00 5.833333333333333e-01 6.666666666666666e-01 0.000000000000000e+00 5.271054966329634e-01 8.488328532632591e-01 0.000000000000000e+00 6.666666666666666e-01 8.333333333333333e-01 0.000000000000000e+00 4.293977045941481e-01 7.128112913903036e-01 0.000000000000000e+00 5.271054966329634e-01 8.488328532632591e-01 0.000000000000000e+00 5.833333333333333e-01 6.666666666666666e-01 0.000000000000000e+00 2.853648640097591e-01 7.463071008059871e-01 0.000000000000000e+00 4.293977045941481e-01 7.128112913903036e-01 0.000000000000000e+00 2.998933064660453e-01 5.734214616116567e-01 0.000000000000000e+00 0.000000000000000e+00 5.499999999990286e-01 0.000000000000000e+00 1.448015295635871e-01 6.434886585734013e-01 0.000000000000000e+00 1.555085255433845e-01 4.752619409895978e-01 0.000000000000000e+00 1.448015295635871e-01 6.434886585734013e-01 0.000000000000000e+00 2.998933064660453e-01 5.734214616116567e-01 0.000000000000000e+00 1.555085255433845e-01 4.752619409895978e-01 0.000000000000000e+00 3.808957665680138e-01 8.645016041761083e-01 0.000000000000000e+00 4.499999999990660e-01 1.000000000000000e+00 0.000000000000000e+00 5.271054966329634e-01 8.488328532632591e-01 0.000000000000000e+00 4.293977045941481e-01 7.128112913903036e-01 0.000000000000000e+00 3.808957665680138e-01 8.645016041761083e-01 0.000000000000000e+00 5.271054966329634e-01 8.488328532632591e-01 0.000000000000000e+00 0.000000000000000e+00 6.999999999991673e-01 0.000000000000000e+00 1.448015295635871e-01 6.434886585734013e-01 0.000000000000000e+00 0.000000000000000e+00 5.499999999990286e-01 0.000000000000000e+00 1.448015295635871e-01 6.434886585734013e-01 0.000000000000000e+00 2.853648640097591e-01 7.463071008059871e-01 0.000000000000000e+00 2.998933064660453e-01 5.734214616116567e-01 0.000000000000000e+00 2.853648640097591e-01 7.463071008059871e-01 0.000000000000000e+00 1.448015295635871e-01 6.434886585734013e-01 0.000000000000000e+00 1.262659817929549e-01 7.913299378255220e-01 0.000000000000000e+00 0.000000000000000e+00 6.999999999991673e-01 0.000000000000000e+00 1.262659817929549e-01 7.913299378255220e-01 0.000000000000000e+00 1.448015295635871e-01 6.434886585734013e-01 0.000000000000000e+00 3.808957665680138e-01 8.645016041761083e-01 0.000000000000000e+00 2.999999999990501e-01 1.000000000000000e+00 0.000000000000000e+00 4.499999999990660e-01 1.000000000000000e+00 0.000000000000000e+00 2.853648640097591e-01 7.463071008059871e-01 0.000000000000000e+00 3.808957665680138e-01 8.645016041761083e-01 0.000000000000000e+00 4.293977045941481e-01 7.128112913903036e-01 0.000000000000000e+00 5.000000000000000e-01 5.000000000000000e-01 0.000000000000000e+00 4.293977045941481e-01 7.128112913903036e-01 0.000000000000000e+00 5.833333333333333e-01 6.666666666666666e-01 0.000000000000000e+00 5.000000000000000e-01 5.000000000000000e-01 0.000000000000000e+00 2.998933064660453e-01 5.734214616116567e-01 0.000000000000000e+00 4.293977045941481e-01 7.128112913903036e-01 0.000000000000000e+00 2.998933064660453e-01 5.734214616116567e-01 0.000000000000000e+00 5.000000000000000e-01 5.000000000000000e-01 0.000000000000000e+00 3.333333333336109e-01 4.166666666668055e-01 0.000000000000000e+00 2.195877687281456e-01 8.878564404679016e-01 0.000000000000000e+00 2.999999999990501e-01 1.000000000000000e+00 0.000000000000000e+00 3.808957665680138e-01 8.645016041761083e-01 0.000000000000000e+00 2.853648640097591e-01 7.463071008059871e-01 0.000000000000000e+00 2.195877687281456e-01 8.878564404679016e-01 0.000000000000000e+00 3.808957665680138e-01 8.645016041761083e-01 0.000000000000000e+00 2.195877687281456e-01 8.878564404679016e-01 0.000000000000000e+00 1.499999999993971e-01 1.000000000000000e+00 0.000000000000000e+00 2.999999999990501e-01 1.000000000000000e+00 0.000000000000000e+00 1.262659817929549e-01 7.913299378255220e-01 0.000000000000000e+00 2.195877687281456e-01 8.878564404679016e-01 0.000000000000000e+00 2.853648640097591e-01 7.463071008059871e-01 0.000000000000000e+00 9.917075010409951e-02 9.058372756586014e-01 0.000000000000000e+00 0.000000000000000e+00 8.499999999995836e-01 0.000000000000000e+00 0.000000000000000e+00 1.000000000000000e+00 0.000000000000000e+00 1.499999999993971e-01 1.000000000000000e+00 0.000000000000000e+00 9.917075010409951e-02 9.058372756586014e-01 0.000000000000000e+00 0.000000000000000e+00 1.000000000000000e+00 0.000000000000000e+00 0.000000000000000e+00 8.499999999995836e-01 0.000000000000000e+00 9.917075010409951e-02 9.058372756586014e-01 0.000000000000000e+00 1.262659817929549e-01 7.913299378255220e-01 0.000000000000000e+00 2.195877687281456e-01 8.878564404679016e-01 0.000000000000000e+00 9.917075010409951e-02 9.058372756586014e-01 0.000000000000000e+00 1.499999999993971e-01 1.000000000000000e+00 0.000000000000000e+00 2.195877687281456e-01 8.878564404679016e-01 0.000000000000000e+00 1.262659817929549e-01 7.913299378255220e-01 0.000000000000000e+00 9.917075010409951e-02 9.058372756586014e-01 0.000000000000000e+00 4.166666666665131e-01 3.333333333330262e-01 0.000000000000000e+00 5.000000000000000e-01 5.000000000000000e-01 0.000000000000000e+00 3.333333333336109e-01 4.166666666668055e-01 0.000000000000000e+00 1.666666666671293e-01 3.333333333335646e-01 0.000000000000000e+00 3.333333333331881e-01 1.666666666663762e-01 0.000000000000000e+00 4.166666666665131e-01 3.333333333330262e-01 0.000000000000000e+00 3.333333333336109e-01 4.166666666668055e-01 0.000000000000000e+00 1.666666666671293e-01 3.333333333335646e-01 0.000000000000000e+00 4.166666666665131e-01 3.333333333330262e-01 0.000000000000000e+00 0.000000000000000e+00 2.500000000000000e-01 0.000000000000000e+00 0.000000000000000e+00 0.000000000000000e+00 0.000000000000000e+00 1.500000000000635e-01 1.499999999999882e-01 0.000000000000000e+00 1.500000000000635e-01 1.499999999999882e-01 0.000000000000000e+00 0.000000000000000e+00 0.000000000000000e+00 0.000000000000000e+00 2.500000000000000e-01 0.000000000000000e+00 0.000000000000000e+00 1.500000000000635e-01 1.499999999999882e-01 0.000000000000000e+00 2.500000000000000e-01 0.000000000000000e+00 0.000000000000000e+00 3.333333333331881e-01 1.666666666663762e-01 0.000000000000000e+00 1.500000000000635e-01 1.499999999999882e-01 0.000000000000000e+00 1.666666666671293e-01 3.333333333335646e-01 0.000000000000000e+00 0.000000000000000e+00 2.500000000000000e-01 0.000000000000000e+00 3.333333333331881e-01 1.666666666663762e-01 0.000000000000000e+00 1.666666666671293e-01 3.333333333335646e-01 0.000000000000000e+00 1.500000000000635e-01 1.499999999999882e-01 0.000000000000000e+00 2.500000000000000e-01 0.000000000000000e+00 0.000000000000000e+00 3.333333333331881e-01 1.666666666663762e-01 0.000000000000000e+00 4.000000000002777e-01 0.000000000000000e+00 0.000000000000000e+00 7.000000000008327e-01 0.000000000000000e+00 0.000000000000000e+00 7.736475786618975e-01 1.393304285805427e-01 0.000000000000000e+00 8.500000000008328e-01 0.000000000000000e+00 0.000000000000000e+00 4.992042824076202e-01 1.490973993763484e-01 0.000000000000000e+00 5.500000000005552e-01 0.000000000000000e+00 0.000000000000000e+00 4.000000000002777e-01 0.000000000000000e+00 0.000000000000000e+00 3.333333333331881e-01 1.666666666663762e-01 0.000000000000000e+00 4.992042824076202e-01 1.490973993763484e-01 0.000000000000000e+00 4.000000000002777e-01 0.000000000000000e+00 0.000000000000000e+00 4.166666666665131e-01 3.333333333330262e-01 0.000000000000000e+00 4.992042824076202e-01 1.490973993763484e-01 0.000000000000000e+00 3.333333333331881e-01 1.666666666663762e-01 0.000000000000000e+00 6.194807743958560e-01 2.412219107496123e-01 0.000000000000000e+00 4.992042824076202e-01 1.490973993763484e-01 0.000000000000000e+00 4.166666666665131e-01 3.333333333330262e-01 0.000000000000000e+00 7.000000000008327e-01 0.000000000000000e+00 0.000000000000000e+00 6.359519675930375e-01 1.128248248704907e-01 0.000000000000000e+00 7.736475786618975e-01 1.393304285805427e-01 0.000000000000000e+00 6.194807743958560e-01 2.412219107496123e-01 0.000000000000000e+00 6.359519675930375e-01 1.128248248704907e-01 0.000000000000000e+00 4.992042824076202e-01 1.490973993763484e-01 0.000000000000000e+00 6.359519675930375e-01 1.128248248704907e-01 0.000000000000000e+00 6.194807743958560e-01 2.412219107496123e-01 0.000000000000000e+00 7.736475786618975e-01 1.393304285805427e-01 0.000000000000000e+00 1.000000000000000e+00 2.857142857153761e-01 0.000000000000000e+00 8.995418595679957e-01 3.660610945775338e-01 0.000000000000000e+00 1.000000000000000e+00 4.285714285727172e-01 0.000000000000000e+00 7.576097615368714e-01 3.056501081260414e-01 0.000000000000000e+00 7.736475786618975e-01 1.393304285805427e-01 0.000000000000000e+00 6.194807743958560e-01 2.412219107496123e-01 0.000000000000000e+00 7.576097615368714e-01 3.056501081260414e-01 0.000000000000000e+00 7.738404604248252e-01 4.704509657696636e-01 0.000000000000000e+00 8.995418595679957e-01 3.660610945775338e-01 0.000000000000000e+00 8.984269496357760e-01 4.968844551721360e-01 0.000000000000000e+00 1.000000000000000e+00 5.714285714296619e-01 0.000000000000000e+00 1.000000000000000e+00 4.285714285727172e-01 0.000000000000000e+00 5.000000000000000e-01 5.000000000000000e-01 0.000000000000000e+00 6.227208784165946e-01 4.036087638678805e-01 0.000000000000000e+00 4.166666666665131e-01 3.333333333330262e-01 0.000000000000000e+00 6.227208784165946e-01 4.036087638678805e-01 0.000000000000000e+00 6.194807743958560e-01 2.412219107496123e-01 0.000000000000000e+00 4.166666666665131e-01 3.333333333330262e-01 0.000000000000000e+00 1.000000000000000e+00 2.857142857153761e-01 0.000000000000000e+00 8.926331999611968e-01 2.185069385476834e-01 0.000000000000000e+00 8.995418595679957e-01 3.660610945775338e-01 0.000000000000000e+00 8.995418595679957e-01 3.660610945775338e-01 0.000000000000000e+00 8.984269496357760e-01 4.968844551721360e-01 0.000000000000000e+00 1.000000000000000e+00 4.285714285727172e-01 0.000000000000000e+00 8.995418595679957e-01 3.660610945775338e-01 0.000000000000000e+00 7.738404604248252e-01 4.704509657696636e-01 0.000000000000000e+00 8.984269496357760e-01 4.968844551721360e-01 0.000000000000000e+00 1.000000000000000e+00 1.428571428577377e-01 0.000000000000000e+00 8.926331999611968e-01 2.185069385476834e-01 0.000000000000000e+00 1.000000000000000e+00 2.857142857153761e-01 0.000000000000000e+00 7.576097615368714e-01 3.056501081260414e-01 0.000000000000000e+00 8.926331999611968e-01 2.185069385476834e-01 0.000000000000000e+00 7.736475786618975e-01 1.393304285805427e-01 0.000000000000000e+00 7.576097615368714e-01 3.056501081260414e-01 0.000000000000000e+00 8.995418595679957e-01 3.660610945775338e-01 0.000000000000000e+00 8.926331999611968e-01 2.185069385476834e-01 0.000000000000000e+00 7.000000000008327e-01 0.000000000000000e+00 0.000000000000000e+00 5.500000000005552e-01 0.000000000000000e+00 0.000000000000000e+00 6.359519675930375e-01 1.128248248704907e-01 0.000000000000000e+00 5.500000000005552e-01 0.000000000000000e+00 0.000000000000000e+00 4.992042824076202e-01 1.490973993763484e-01 0.000000000000000e+00 6.359519675930375e-01 1.128248248704907e-01 0.000000000000000e+00 9.032561557247855e-01 1.001389019971927e-01 0.000000000000000e+00 1.000000000000000e+00 1.428571428577377e-01 0.000000000000000e+00 1.000000000000000e+00 0.000000000000000e+00 0.000000000000000e+00 9.032561557247855e-01 1.001389019971927e-01 0.000000000000000e+00 8.500000000008328e-01 0.000000000000000e+00 0.000000000000000e+00 7.736475786618975e-01 1.393304285805427e-01 0.000000000000000e+00 8.500000000008328e-01 0.000000000000000e+00 0.000000000000000e+00 9.032561557247855e-01 1.001389019971927e-01 0.000000000000000e+00 1.000000000000000e+00 0.000000000000000e+00 0.000000000000000e+00 9.032561557247855e-01 1.001389019971927e-01 0.000000000000000e+00 8.926331999611968e-01 2.185069385476834e-01 0.000000000000000e+00 1.000000000000000e+00 1.428571428577377e-01 0.000000000000000e+00 7.736475786618975e-01 1.393304285805427e-01 0.000000000000000e+00 8.926331999611968e-01 2.185069385476834e-01 0.000000000000000e+00 9.032561557247855e-01 1.001389019971927e-01 0.000000000000000e+00 1.000000000000000e+00 5.714285714296619e-01 0.000000000000000e+00 8.030410438586795e-01 6.461605083906008e-01 0.000000000000000e+00 1.000000000000000e+00 7.142857142862099e-01 0.000000000000000e+00 8.030410438586795e-01 6.461605083906008e-01 0.000000000000000e+00 1.000000000000000e+00 5.714285714296619e-01 0.000000000000000e+00 8.984269496357760e-01 4.968844551721360e-01 0.000000000000000e+00 6.194807743958560e-01 2.412219107496123e-01 0.000000000000000e+00 6.227208784165946e-01 4.036087638678805e-01 0.000000000000000e+00 7.576097615368714e-01 3.056501081260414e-01 0.000000000000000e+00 6.227208784165946e-01 4.036087638678805e-01 0.000000000000000e+00 7.738404604248252e-01 4.704509657696636e-01 0.000000000000000e+00 7.576097615368714e-01 3.056501081260414e-01 0.000000000000000e+00 6.666666666666666e-01 8.333333333333333e-01 0.000000000000000e+00 8.030410438586795e-01 6.461605083906008e-01 0.000000000000000e+00 5.833333333333333e-01 6.666666666666666e-01 0.000000000000000e+00 6.565871432066865e-01 5.373773809389624e-01 0.000000000000000e+00 7.738404604248252e-01 4.704509657696636e-01 0.000000000000000e+00 6.227208784165946e-01 4.036087638678805e-01 0.000000000000000e+00 6.565871432066865e-01 5.373773809389624e-01 0.000000000000000e+00 5.000000000000000e-01 5.000000000000000e-01 0.000000000000000e+00 5.833333333333333e-01 6.666666666666666e-01 0.000000000000000e+00 6.227208784165946e-01 4.036087638678805e-01 0.000000000000000e+00 5.000000000000000e-01 5.000000000000000e-01 0.000000000000000e+00 6.565871432066865e-01 5.373773809389624e-01 0.000000000000000e+00 8.699512850875576e-01 8.418204021921999e-01 0.000000000000000e+00 1.000000000000000e+00 7.142857142862099e-01 0.000000000000000e+00 8.030410438586795e-01 6.461605083906008e-01 0.000000000000000e+00 1.000000000000000e+00 7.142857142862099e-01 0.000000000000000e+00 8.699512850875576e-01 8.418204021921999e-01 0.000000000000000e+00 1.000000000000000e+00 8.571428571430554e-01 0.000000000000000e+00 6.666666666666666e-01 8.333333333333333e-01 0.000000000000000e+00 8.699512850875576e-01 8.418204021921999e-01 0.000000000000000e+00 8.030410438586795e-01 6.461605083906008e-01 0.000000000000000e+00 1.000000000000000e+00 1.000000000000000e+00 0.000000000000000e+00 8.699512850875576e-01 8.418204021921999e-01 0.000000000000000e+00 7.500000000000000e-01 1.000000000000000e+00 0.000000000000000e+00 8.699512850875576e-01 8.418204021921999e-01 0.000000000000000e+00 1.000000000000000e+00 1.000000000000000e+00 0.000000000000000e+00 1.000000000000000e+00 8.571428571430554e-01 0.000000000000000e+00 8.699512850875576e-01 8.418204021921999e-01 0.000000000000000e+00 6.666666666666666e-01 8.333333333333333e-01 0.000000000000000e+00 7.500000000000000e-01 1.000000000000000e+00 0.000000000000000e+00 7.738404604248252e-01 4.704509657696636e-01 0.000000000000000e+00 8.030410438586795e-01 6.461605083906008e-01 0.000000000000000e+00 8.984269496357760e-01 4.968844551721360e-01 0.000000000000000e+00 7.738404604248252e-01 4.704509657696636e-01 0.000000000000000e+00 6.565871432066865e-01 5.373773809389624e-01 0.000000000000000e+00 8.030410438586795e-01 6.461605083906008e-01 0.000000000000000e+00 6.565871432066865e-01 5.373773809389624e-01 0.000000000000000e+00 5.833333333333333e-01 6.666666666666666e-01 0.000000000000000e+00 8.030410438586795e-01 6.461605083906008e-01 0.000000000000000e+00 
</DataArray>
</Points>
<Cells>
<DataArray type="Int32" Name="connectivity" format="ascii">
0 1 2 3 4 5 6 7 8 9 10 11 12 13 14 15 16 17 18 19 20 21 22 23 24 25 26 27 28 29 30 31 32 33 34 35 36 37 38 39 40 41 42 43 44 45 46 47 48 49 50 51 52 53 54 55 56 57 58 59 60 61 62 63 64 65 66 67 68 69 70 71 72 73 74 75 76 77 78 79 80 81 82 83 84 85 86 87 88 89 90 91 92 93 94 95 96 97 98 99 100 101 102 103 104 105 106 107 108 109 110 111 112 113 114 115 116 117 118 119 120 121 122 123 124 125 126 127 128 129 130 131 132 133 134 135 136 137 138 139 140 141 142 143 144 145 146 147 148 149 150 151 152 153 154 155 156 157 158 159 160 161 162 163 164 165 166 167 168 169 170 171 172 173 174 175 176 177 178 179 180 181 182 183 184 185 186 187 188 189 190 191 192 193 194 195 196 197 198 199 200 201 202 203 204 205 206 207 208 209 210 211 212 213 214 215 216 217 218 219 220 221 222 223 224 225 226 227 228 229 230 231 232 233 234 235 236 237 238 239 240 241 242 243 244 245 246 247 248 249 250 251 252 253 254 255 256 257 258 259 260 261 262 263 264 265 266 267 268 269 270 271 272 273 274 275 276 277 278 
</DataArray>
<DataArray type="Int32" Name="offsets" format="ascii">
2 4 6 8 10 12 14 16 18 21 24 27 30 33 36 39 42 45 48 51 54 57 60 63 66 69 72 75 78 81 84 87 90 93 96 99 102 105 108 111 114 117 120 123 126 129 132 135 138 141 144 147 150 153 156 159 162 165 168 171 174 177 180 183 186 189 192 195 198 201 204 207 210 213 216 219 222 225 228 231 234 237 240 243 246 249 252 255 258 261 264 267 270 273 276 279 
</DataArray>
<DataArray type="UInt8" Name="types" format="ascii">
3 3 3 3 3 3 3 3 3 5 5 5 5 5 5 5 5 5 5 5 5 5 5 5 5 5 5 5 5 5 5 5 5 5 5 5 5 5 5 5 5 5 5 5 5 5 5 5 5 5 5 5 5 5 5 5 5 5 5 5 5 5 5 5 5 5 5 5 5 5 5 5 5 5 5 5 5 5 5 5 5 5 5 5 5 5 5 5 5 5 5 5 5 5 5 5 
</DataArray>
</Cells>
<PointData Scalars="age_conc," Vectors="" Tensors="">
<DataArray type="Float64" Name="age_conc" format="ascii">
9.995936541413755e-01 9.997442858807466e-01 9.997347378602680e-01 9.999098152491684e-01 9.998944509330903e-01 1.000000292134594e+00 9.999930086296521e-01 9.999523986904434e-01 9.999626957720767e-01 9.998741359661409e-01 9.998814505167306e-01 9.997855676063310e-01 9.999999403911479e-01 1.000000338921464e+00 1.000001161666396e+00 9.999995826619357e-01 1.000003525608698e+00 9.999855517404663e-01 9.530635643358133e-01 9.847398100301662e-01 9.720795007874146e-01 1.000025626732073e+00 9.999995277684390e-01 9.999989317487539e-01 1.000051835039470e+00 9.994595238321549e-01 1.000155350040712e+00 1.000047912351043e+00 1.000001931361173e+00 1.000002222860300e+00 1.000022399331033e+00 1.000030792924315e+00 1.000007719240702e+00 9.960525735533162e-01 9.920828961880501e-01 9.844148111633805e-01 9.916062076504114e-01 9.719434275103425e-01 9.833154042324429e-01 9.900981446545420e-01 9.886155891109064e-01 9.739335722224137e-01 9.893017079976328e-01 9.978203374422052e-01 9.880378492352665e-01 9.998605098320458e-01 1.000082940702222e+00 1.000082247977691e+00 9.998084286522413e-01 1.000261527414442e+00 9.997803699981035e-01 1.000166775493369e+00 1.000103530673554e+00 9.980841581315986e-01 9.953333884544424e-01 9.998789332889346e-01 9.919259505633667e-01 9.991393600846191e-01 9.979913197408783e-01 9.926270923641234e-01 1.000054152461797e+00 1.000009898845775e+00 1.000043636562196e+00 9.999146484579948e-01 1.000103495200674e+00 1.000093040221320e+00 9.997737260199631e-01 9.988779039942441e-01 9.957253189331295e-01 9.985838264176033e-01 1.000670796285592e+00 9.976846508583223e-01 1.000038397516741e+00 9.989249364762566e-01 1.000200273544635e+00 9.993793805614004e-01 1.000470699137071e+00 9.987091560821001e-01 1.000069112370773e+00 9.999930360295392e-01 1.000004008170788e+00 9.999026768357900e-01 1.000251060532376e+00 9.998399121335655e-01 9.977816217060216e-01 1.000082936839444e+00 1.000091460408199e+00 9.973456010829912e-01 9.961363067630287e-01 1.001259305914039e+00 9.964808183241525e-01 9.981332070616294e-01 9.894443484257496e-01 1.000054014038094e+00 9.999969293734304e-01 1.000067437089040e+00 9.999874106408468e-01 1.000095693619094e+00 1.000109044927858e+00 1.000048849195318e+00 9.999837525033194e-01 9.999996264408855e-01 1.000020510513905e+00 1.000191425665153e+00 9.999203513396860e-01 1.000019973378778e+00 1.000021705883065e+00 1.000003258640677e+00 9.999929810757006e-01 1.000015517446893e+00 9.999985729310567e-01 1.000021168876088e+00 1.000062859427536e+00 9.999977627997534e-01 1.000052378345178e+00 1.000018933695557e+00 9.999824025265874e-01 1.000076533140134e+00 1.000027616571330e+00 1.000036267210815e+00 9.996663455919789e-01 1.000355171835545e+00 9.997472819132704e-01 9.973250661452587e-01 9.938989696341963e-01 1.000839467122446e+00 1.000143733101499e+00 9.989169431651992e-01 9.991116102376385e-01 1.006676244141627e+00 8.834243645280702e-01 9.745006061127142e-01 9.722033363821793e-01 8.793475751063343e-01 1.002112251259462e+00 9.697306366288965e-01 9.870972867781473e-01 1.000313947830870e+00 9.718307406147111e-01 1.004248394252497e+00 9.915287130254331e-01 9.948330501064457e-01 9.993325617491869e-01 9.809693079635391e-01 9.314929227275436e-01 9.554025003424119e-01 9.676963010000994e-01 9.991178741642018e-01 9.997666027326469e-01 1.000414931478502e+00 9.833998715545833e-01 9.953309854996604e-01 9.702648515878998e-01 9.552047337128367e-01 9.843522605182338e-01 9.665038858285158e-01 9.753162509395537e-01 9.828540211677708e-01 9.567545705322580e-01 9.959477834504284e-01 9.816513288123619e-01 9.750567950874008e-01 9.996843376907516e-01 9.970057382019828e-01 1.001179425389623e+00 9.968236769266218e-01 9.991929628451343e-01 9.841931443904305e-01 9.968802087667173e-01 9.966595675386414e-01 1.001196355051378e+00 1.000003930872482e+00 9.998554627764993e-01 9.998240529825470e-01 1.001328150490404e+00 1.000701622238560e+00 9.969566136864386e-01 1.000202915122722e+00 1.000156740111314e+00 1.001004535018965e+00 1.000819062686068e+00 1.000239908056658e+00 9.996688389798334e-01 9.922073399835011e-01 9.931802888467242e-01 9.792750945770005e-01 9.943821571008106e-01 9.946760431155428e-01 9.760701083156265e-01 1.000016922230599e+00 9.999918207877961e-01 9.998442248828212e-01 1.000101811762589e+00 1.000907701252991e+00 9.996047237948819e-01 1.000729367447255e+00 1.000273435769760e+00 1.000967835444597e+00 1.000020685720177e+00 1.000041460273051e+00 1.000007380128396e+00 1.000441995236975e+00 1.000058856298870e+00 9.997063622506113e-01 1.000532653772057e+00 1.000439084570650e+00 9.998816631188898e-01 1.000357266519584e+00 9.928650790218024e-01 9.970014622190310e-01 9.939340667277603e-01 9.833713239714723e-01 9.999785122163389e-01 1.000075629819362e+00 1.000010011257772e+00 9.999803411359134e-01 1.000223737542353e+00 1.000203832403060e+00 9.997563356126197e-01 1.000088011185967e+00 1.000083058718235e+00 9.999812298872117e-01 1.000066505558607e+00 1.000040736956747e+00 1.000022801563911e+00 9.997972672671944e-01 1.000098626375357e+00 1.000185780976935e+00 1.000438665940420e+00 9.998983848405117e-01 1.000148152679366e+00 9.997294574393397e-01 1.000557474707220e+00 1.000631120909460e+00 9.952186306407848e-01 9.941247649402605e-01 1.002161176685618e+00 9.945828941304358e-01 1.000945399223160e+00 1.001336101520557e+00 1.000744107418222e+00 9.995642750005946e-01 9.985879032629609e-01 9.957382202238604e-01 1.000965026665088e+00 9.940679916721612e-01 9.967695996520879e-01 9.924541412714136e-01 9.991911846645812e-01 9.923669947696965e-01 9.916326478109849e-01 9.968399287988058e-01 1.000126190760984e+00 1.000120251177999e+00 9.999518222470517e-01 1.000008780427343e+00 1.000090729961717e+00 1.000000846937600e+00 1.000350224184032e+00 1.000360635504761e+00 9.995259244638549e-01 1.000038590104365e+00 1.000258488055922e+00 1.000105621068707e+00 1.000089061921429e+00 1.000000343784411e+00 1.000000343618491e+00 1.000188622018902e+00 1.000367048151853e+00 1.000227871425482e+00 9.998412039142280e-01 9.996472147216872e-01 1.000846174889130e+00 1.000181146868929e+00 9.960011388196769e-01 1.000185333289885e+00 9.966303631790320e-01 9.985649534345998e-01 9.999862886212637e-01 
</DataArray>
</PointData>
</Piece>
</UnstructuredGrid>
</VTKFile>
