<?xml version="1.0"?>
<VTKFile type="UnstructuredGrid" version="0.1" byte_order="LittleEndian">
<UnstructuredGrid>
<Piece NumberOfPoints="570" NumberOfCells="968">
<Points>
<DataArray type="Float64" NumberOfComponents="3" format="ascii">
0 0 0 0 1 0 16 1 0 16 0 0 0 0.199999999999558 0 0 0.399999999998975 0 0 0.599999999998947 0 0 0.799999999999473 0 0.199999999999623 1 0 0.399999999999246 1 0 0.599999999998836 1 0 0.799999999998394 1 0 0.999999999997972 1 0 1.19999999999764 1 0 1.39999999999734 1 0 1.59999999999703 1 0 1.79999999999673 1 0 1.99999999999638 1 0 2.19999999999584 1 0 2.39999999999526 1 0 2.59999999999468 1 0 2.79999999999409 1 0 2.99999999999351 1 0 3.19999999999293 1 0 3.39999999999234 1 0 3.59999999999176 1 0 3.79999999999118 1 0 3.99999999999059 1 0 4.19999999999001 1 0 4.39999999998943 1 0 4.59999999998885 1 0 4.79999999998826 1 0 4.99999999998768 1 0 5.1999999999871 1 0 5.39999999998651 1 0 5.59999999998593 1 0 5.79999999998535 1 0 5.99999999998476 1 0 6.19999999998418 1 0 6.3999999999836 1 0 6.59999999998302 1 0 6.79999999998243 1 0 6.99999999998185 1 0 7.19999999998127 1 0 7.39999999998068 1 0 7.5999999999801 1 0 7.79999999997952 1 0 7.99999999997911 1 0 8.19999999997946 1 0 8.39999999997999 1 0 8.59999999998051 1 0 8.79999999998104 1 0 8.99999999998157 1 0 9.1999999999821 1 0 9.39999999998262 1 0 9.59999999998315 1 0 9.79999999998367 1 0 9.9999999999842 1 0 10.1999999999847 1 0 10.3999999999852 1 0 10.5999999999858 1 0 10.7999999999863 1 0 10.9999999999868 1 0 11.1999999999874 1 0 11.3999999999879 1 0 11.5999999999884 1 0 11.7999999999889 1 0 11.9999999999895 1 0 12.19999999999 1 0 12.3999999999905 1 0 12.5999999999911 1 0 12.7999999999916 1 0 12.9999999999921 1 0 13.1999999999926 1 0 13.3999999999932 1 0 13.5999999999937 1 0 13.7999999999942 1 0 13.9999999999947 1 0 14.1999999999953 1 0 14.3999999999958 1 0 14.5999999999963 1 0 14.7999999999968 1 0 14.9999999999974 1 0 15.1999999999979 1 0 15.3999999999984 1 0 15.5999999999989 1 0 15.7999999999995 1 0 16 0.8 0 16 0.600000000001387 0 16 0.400000000001664 0 16 0.200000000000832 0 15.7999999999992 0 0 15.5999999999983 0 0 15.3999999999975 0 0 15.1999999999967 0 0 14.9999999999958 0 0 14.799999999995 0 0 14.5999999999942 0 0 14.3999999999933 0 0 14.1999999999925 0 0 13.999999999992 0 0 13.7999999999931 0 0 13.5999999999945 0 0 13.3999999999958 0 0 13.1999999999972 0 0 12.9999999999986 0 0 12.8 0 0 12.6000000000014 0 0 12.4000000000028 0 0 12.2000000000042 0 0 12.0000000000055 0 0 11.8000000000069 0 0 11.6000000000083 0 0 11.4000000000097 0 0 11.2000000000111 0 0 11.0000000000125 0 0 10.8000000000139 0 0 10.6000000000152 0 0 10.4000000000166 0 0 10.200000000018 0 0 10.0000000000194 0 0 9.8000000000208 0 0 9.60000000002219 0 0 9.40000000002358 0 0 9.20000000002496 0 0 9.00000000002635 0 0 8.80000000002774 0 0 8.60000000002913 0 0 8.40000000003051 0 0 8.2000000000319 0 0 8.00000000003294 0 0 7.80000000003245 0 0 7.60000000003162 0 0 7.40000000003079 0 0 7.20000000002996 0 0 7.00000000002913 0 0 6.8000000000283 0 0 6.60000000002746 0 0 6.40000000002663 0 0 6.2000000000258 0 0 6.00000000002496 0 0 5.80000000002413 0 0 5.6000000000233 0 0 5.40000000002247 0 0 5.20000000002164 0 0 5.0000000000208 0 0 4.80000000001997 0 0 4.60000000001914 0 0 4.40000000001831 0 0 4.20000000001748 0 0 4.00000000001664 0 0 3.80000000001581 0 0 3.60000000001498 0 0 3.40000000001415 0 0 3.20000000001331 0 0 3.00000000001248 0 0 2.80000000001165 0 0 2.60000000001082 0 0 2.40000000000998 0 0 2.20000000000916 0 0 2.00000000000832 0 0 1.80000000000749 0 0 1.60000000000666 0 0 1.40000000000583 0 0 1.20000000000499 0 0 1.00000000000416 0 0 0.800000000003328 0 0 0.600000000002495 0 0 0.400000000001665 0 0 0.200000000000832 0 0 13.700657105669 0.16981258116099 0 13.2999999999965 0.173205080755686 0 12.8999999999993 0.173205080755686 0 12.5000000000021 0.173205080755686 0 12.1000000000048 0.173205080755686 0 11.7000000000076 0.173205080755686 0 14.0999999999922 0.173205080756647 0 0.699999999998615 0.826794919243495 0 11.3000000000104 0.173205080755686 0 1.09999999999781 0.826794919243437 0 10.9000000000132 0.173205080755687 0 2.09999999999211 0.826794919240002 0 1.49999999999719 0.826794919243377 0 10.5000000000159 0.173205080755686 0 15.8338849492515 0.508577035510267 0 2.49999999999102 0.826794919240213 0 10.1000000000187 0.173205080755686 0 2.8999999999938 0.826794919243617 0 15.2993574447989 0.831314592868588 0 14.8999999999971 0.826794919242657 0 14.4999999999961 0.826794919242658 0 3.29999999999263 0.826794919243617 0 9.70000000002149 0.173205080755686 0 3.69999999999147 0.826794919243617 0 9.30000000002427 0.173205080755686 0 4.0999999999903 0.826794919243617 0 4.49999999998914 0.826794919243617 0 8.90000000002705 0.173205080755686 0 4.89999999998797 0.826794919243617 0 8.50000000002983 0.173205080755686 0 5.29999999998681 0.826794919243617 0 5.69999999998449 0.826794919242383 0 8.09910141477586 0.166485795059121 0 6.09999999998447 0.826794919243617 0 6.49999999998331 0.826794919243617 0 6.89999999998214 0.826794919243617 0 7.29999999998075 0.826794919243018 0 7.69999999997987 0.826794919243148 0 1.70000000000707 0.173205080757607 0 13.499999999993 0.826794919242336 0 13.0999999999923 0.826794919242697 0 13.9000884253257 0.828379939256167 0 0.506641475208022 0.168637425096977 0 12.6999999999914 0.826794919242744 0 15.0999999999958 0.173205080758772 0 14.7000008112358 0.173203284806108 0 0.900000000003744 0.173205080757609 0 12.2999999999903 0.826794919242657 0 1.30000000000541 0.173205080757607 0 11.8999999999891 0.826794919242668 0 2.29940860489605 0.165793056170904 0 11.4999999999882 0.826794919242758 0 2.70000000001123 0.173205080757609 0 3.1000000000129 0.173205080757609 0 11.0999999999873 0.826794919242715 0 3.50000000001456 0.173205080757607 0 10.6999999999861 0.826794919242764 0 3.90000000001623 0.173205080757609 0 10.2999999999852 0.826794919242759 0 4.30000000001789 0.173205080757607 0 4.70000000001956 0.173205080757609 0 9.89999999998405 0.826794919242736 0 5.10000000002122 0.173205080757607 0 9.49999999998289 0.826794919242657 0 5.50000000002288 0.173205080757608 0 9.09999999998171 0.826794919242731 0 5.90000000002455 0.173205080757608 0 6.30000000002622 0.173205080757608 0 8.69999999998059 0.82679491924274 0 6.70000000002787 0.173205080757607 0 8.29999999997969 0.82679491924282 0 7.10000000002954 0.173205080757608 0 7.50000000003121 0.173205080757609 0 15.4999999999974 0.173205080759918 0 0.166115050745933 0.491422964488694 0 0.302985888731723 0.83439513050655 0 15.6922736942162 0.815654138696531 0 8.09999999997948 0.826794919242848 0 8.19999999997958 0.653589838485829 0 7.99999999997967 0.653589838485872 0 8.39999999997957 0.653589838485763 0 8.29999999997951 0.480384757728964 0 8.49999999997927 0.480384757728878 0 8.5999999999797 0.653589838485656 0 8.69999999997898 0.480384757728697 0 8.09936479783543 0.483984524751002 0 7.89889995640994 0.483443222557347 0 7.79999999997985 0.653589838485708 0 7.69999999998024 0.482568040765242 0 7.79645162934511 0.316140149424588 0 7.59999999998004 0.653832425489461 0 7.49999999998032 0.480384757728063 0 7.39999999998017 0.653616792596627 0 7.29999999998032 0.480384757727631 0 7.19999999998034 0.653592833386099 0 7.0999999999803 0.480384757727202 0 6.99999999998044 0.653589838484526 0 6.89999999998028 0.480384757726783 0 6.7999999999806 0.653589838484268 0 6.69999999998025 0.480384757726355 0 6.59999999998073 0.65358983848395 0 6.49999999998023 0.480384757725918 0 6.39999999998085 0.653589838483615 0 6.2999999999802 0.480384757725469 0 6.19999999998097 0.653589838483274 0 6.09999999998018 0.480384757725009 0 5.99999999998109 0.653589838482929 0 5.89999999998015 0.480384757724548 0 5.79999999998125 0.653589838482601 0 5.69999999998011 0.480384757724105 0 5.59999999998118 0.653589838482109 0 5.49999999998009 0.480384757723655 0 5.39999999998145 0.653589838481903 0 5.29999999998006 0.480384757723202 0 5.19999999998159 0.653589838481573 0 5.09999999998003 0.480384757722739 0 4.99999999998171 0.653589838481231 0 4.89999999998 0.480384757722284 0 4.79999999998184 0.653589838480891 0 4.69999999997997 0.480384757721832 0 4.59999999998196 0.653589838480548 0 4.49999999997994 0.480384757721369 0 4.39999999998208 0.653589838480199 0 4.29999999997992 0.480384757720903 0 4.19999999998221 0.653589838479851 0 4.09999999997989 0.480384757720439 0 3.99999999997947 0.653589838477122 0 3.89999999997986 0.480384757719978 0 3.79999999997944 0.653589838476661 0 3.69999999997983 0.480384757719518 0 3.59999999997941 0.653589838476202 0 3.4999999999798 0.480384757719058 0 3.39999999997938 0.65358983847574 0 3.29999999997977 0.480384757718598 0 3.19999999997935 0.653589838475281 0 3.09999999997974 0.480384757718137 0 2.99999999997932 0.653589838474822 0 2.89999999997971 0.480384757717679 0 2.7999999999793 0.653589838474364 0 2.69999999997968 0.480384757717221 0 2.59999999997927 0.653589838473905 0 2.49999999997965 0.480384757716762 0 2.39999999997924 0.653589838473444 0 2.29940860487266 0.483873901626366 0 2.19993428941465 0.653977521131915 0 2.09920417199692 0.483093795650007 0 1.99990427347715 0.653933918540785 0 1.89976951723567 0.483875882968814 0 1.79996375451097 0.654015972399612 0 1.69999999997939 0.480384757714885 0 1.99881720977017 0.315897138893714 0 1.59999999997892 0.653589838471666 0 1.49999999997923 0.48038475771442 0 1.39999999997875 0.653589838471227 0 1.29999999997906 0.480384757713966 0 1.19999999997858 0.653589838470776 0 1.09999999997889 0.480384757713518 0 0.99999999997842 0.65358983847032 0 0.899999999978739 0.480384757713072 0 0.799999999978276 0.653589838469859 0 0.699999999978606 0.480384757712627 0 0.599999999978152 0.653589838469396 0 0.488902152079335 0.480182833362319 0 0.397961476484174 0.663879545519049 0 1.89999999999457 0.826794919240091 0 14.2999999999927 0.173205080757313 0 14.2005913950999 0.34510091248886 0 14.4000657105598 0.346264689401101 0 14.0013223237587 0.34128270625806 0 14.300738229825 0.5135282064438
[...]
<CellData Scalars="pressure_p0," Vectors="" Tensors="">
<DataArray type="Float64" Name="pressure_p0" format="ascii">
-22.3969464402559 -0.441785792639171 -22.4081781829582 -0.395219126311759 -22.3963199176915 -0.445404449521256 -22.3728925385504 -0.540520365785983 -20.8086051499368 -12.1462958474366 -20.4134041779239 -3.44669872448585 -11.6961922472116 -2.99667285891043 -0.749090311889797 -0.600582496851345 -1.05005196018128 -0.900107847772042 -1.35004804476914 -1.20005018035451 -1.65004277638528 -1.50004521517179 -1.95003732446068 -1.80003983545219 -2.55000943779587 -2.25003222043135 -2.10003459193046 -3.14993918578453 -2.40002968874049 -2.99997376442484 -3.44998319382575 -3.299985014054 -3.7500125631412 -3.60001427172501 -4.05000994722413 -3.90001125992686 -4.35000802829211 -4.20000898465052 -2.70000729438153 -4.65000646423875 -4.50000722392724 -4.9500051264782 -4.80000576715943 -5.25000396865721 -2.84995770810029 -5.10000452238408 -5.55000295563543 -5.40000344270512 -5.85000205140691 -5.70000249005978 -6.1500012186868 -6.00000162725253 -6.45000041901105 -6.30000081651523 -6.74999961201972 -6.60000001871066 -7.04999875404111 -6.8999991921442 -7.34999779610346 -7.19999829084332 -7.64999668140183 -22.3950495071692 -7.49999726231843 -7.94999534214115 -7.79999604474532 -8.2499936956199 -8.09999456346341 -8.54999163936378 -8.39999272662813 -22.3052209945683 -8.84998904507094 -8.69999041981118 -9.14998575107368 -8.99998749927926 -9.44998155302254 -22.3544904682691 -9.29998378366531 -9.74997619247971 -9.59997904369446 -22.1784632437775 -18.4215537253631 -10.0499693432184 -20.5442107922017 -22.3547754656503 -20.6762993112808 -14.0991145925958 -18.274673634042 -9.89997298957239 -22.0219007656584 -14.2489992000289 -22.2457718816528 -10.3499605947713 -2.85002325858599 -16.493851261613 -3.00002138762728 -10.1999652553249 -14.2489992096426 -20.9333145232965 -10.6499494295183 -15.2976522314486 -13.1995765848499 -18.4215537785904 -20.4105054952749 -10.4999553771385 -20.2751206930746 -10.9499351712177 -10.7999427537843 -22.1036361848229 -11.2499168428521 -22.2457543422652 -21.933835689891 -16.6430717355674 -20.000130269861 -22.1036370670539 -16.6430717089584 -11.099926549855 -15.4473500491746 -21.8399830954859 -13.0496256670428 -18.2746735187656 -20.1383012579522 -15.4473500374457 -11.5498932557719 -13.0496257469965 -20.8058012071022 -11.3999057480674 -21.0583955107115 -21.6368665492095 -11.6998788444597 -14.3988689660423 -14.0991145718749 -21.5284991006748 -18.5680593862883 -16.7921951986398 -15.59700955642 -21.7408380988044 -19.720257850523 -18.2746734930145 -12.8996692725226 -21.7408394798704 -21.9338367289953 -19.5787872672222 -20.0001298015849 -22.1784423957606 -20.8060749784708 -11.8498626414288 -16.3445443109923 -18.1274578972843 -19.2932691949788 -12.1498228142288 -17.9799422131929 -19.2932693411537 -13.3495210737636 -16.3445442893357 -21.3001161579894 -19.1493923825841 -17.5358933822285 -15.1479203462517 -13.4994583137527 -14.9981581835041 -13.3495210806504 -17.8321576974734 -16.4938512136641 -21.8399796926209 -15.5970095499393 -19.436427671119 -21.4161452593309 -15.1479203363557 -16.7921951840055 -12.8996693482033 -14.0991145670665 -17.6841329749587 -17.5358933359998 -17.6841328750969 -19.14939242744 -20.9333020803336 -14.3988689614907 -18.5680593677413 -14.6985561805201 -19.8607426254104 -13.499458317241 -16.4938512016888 -17.6841328508842 -18.859768539352 -14.998158178796 -14.5487220024267 -13.7993072633713 -21.3000885177879 -18.7141471043463 -12.1495056813075 -13.9492167691612 -19.004870092969 -13.6493874015006 -14.848369144633 -21.058636481586 -20.8066075003004 -16.0457077721679 -21.180741182981 -17.2388588656792 -11.8498623228027 -17.3874618027593 -17.0901027048822 -16.1951603210174 -19.8607427421382 -19.436428135613 -11.9998438207168 -19.0048701152097 -10.4999546332695 -13.6493873913348 -14.848369135792 -8.99998747043549 -2.70002528358468 -4.80000602738069 -21.0583866687726 -6.89999919453104 -10.7999412501483 -8.69999040466702 -8.09999455950632 -12.149822853095 -3.59964507506464 -4.50000777446289 -6.30000082599598 -5.40000350917413 -7.19999829169498 -12.4497718669263 -16.9412099380872 -9.59997893973847 -12.2997990404038 -12.2997990775873 -11.9998439100623 -20.544142260673 -19.1493922578545 -0.903391131029506 -14.698556197602 -13.1995766290387 -17.238858826558 -12.2994810245461 -13.7993072873861 -17.8321576446578 -13.4994583304732 -15.896194077455 -16.1951603599392 -15.2976522101256 -14.99815820188 -17.0901027762817 -15.8961941090192 -17.3874618882303 -15.7466260233395 -1.50005204130206 -18.8597685732304 -16.045707754597 -19.5787876504133 -12.5997412107094 -2.10003509280193 -20.9341153472835 -12.5997419208768 -21.5284988950131 -19.4364282448217 -13.1995766567514 -17.3874617817461 -16.1951603112734 -15.2976522047195 -11.6998786889208 -17.9799420749682 -12.7497076980684 -12.4497722924532 -21.4161170651874 -12.4497721049442 -18.4215536765844 -14.2489991905795 -11.9989774537132 -14.8483691268548 -19.0048701486187 -17.832157593133 -17.2388587878332 -13.0496258387179 -16.0457077370789 -15.4473500257068 -20.1382992677378 -19.5787879428553 -16.6430716824927 -13.6493873861638 -20.2751187948417 -9.29998372891357 -10.1999648746217 -8.39999271876006 -6.00000164534923 -5.70000252461828 -3.89993679012694 -6.60000002361469 -4.20001029424065 -5.10000465211335 -11.0999232544574 -7.79999604298218 -7.49999726195944 -9.89997279147706 -0.607251667285662 -19.2932694888905 -22.2477295463822 -1.20006367795357 -20.0001288895226 -19.8607420148518 -13.3495210997357 -1.80004286733141 -10.0499690747927 -16.3445442677681 -2.40002746090855 -10.6499483393674 -8.84998902507893 -22.3071236103514 -8.24999369025627 -9.44998148054327 -7.04999875551645 -5.85000207554051 -4.05001277217551 -4.65000686895414 -11.2499106092436 -5.25000406070632 -7.64999668044389 -3.44972573301489 -6.45000042555934 -22.3048146906913 -17.535893290476 -0.753389140524018 -18.1274579515718 -15.1479203264078 -1.35005777247338 -16.7921952574149 -12.8996689969902 -2.550021801477 -20.4104402008854 -1.95003888787903 -14.6985561760983 -14.3988689838467 -18.568059483974 -15.5970095821488 -10.3499600641408 -13.7993072596325 -8.54999162891672 -4.95000531404438 -9.14998571301408 -7.94999533954981 -6.15000123126907 -3.74993939618438 -6.74999961533685 -5.55000300233147 -10.9499327616947 -7.34999779633272 -4.3500089955552 -0.453929080161086 -9.74997605377499 -1.35004891092146 -22.3946099888928 -1.0500705663171 -1.05005102316714 -0.743490921243856 -1.65004346037228 -1.65004736247194 -22.3525791150852 -10.0499693013819 -9.44998153933689 -7.64999668119895 -9.74997616792583 -8.24999369453271 -9.14998574364035 -6.45000042028423 -2.25003118755349 -4.05000968876266 -7.04999875432598 -5.85000205574934 -5.25000398062554 -4.35000795339247 -5.55000296319142 -4.65000646523282 -6.74999961266889 -6.15000122107372 -8.54999163726423 -7.94999534160995 -4.9500051410838 -3.75001226494719 -7.34999779613894 -18.8597685412205 -10.6499493638179 -8.84998904109461 -10.3499605315755 -3.44968767428391 -1.95003772897057 -20.675971738726 -22.103471595088 -13.9492167593401 -22.1783034969971 -10.9499352025802 -2.25003255818928 -19.7202590293366 -21.6368687130175 -22.2440699850122 -14.5487219936313 -18.1274580082632 -17.0901026871891 -22.0219014889254 -22.3033849471233 -2.55000980588009 -3.14954208873268 -2.84984297260349 -11.2499170291009 -18.7141470791265 -22.0219012378178 -15.8961940695336 -15.746626009081 -16.9412099058615 -21.1807229424881 -0.083056678765708 -21.9338252559311 -12.149379098653 -22.0218873621312 -17.9799421013791 -12.7497079090144 -21.8399623040725 -12.7497074516148 -21.7408304441804 -21.4160926424353 -22.1782735516607 -21.933814766949 -14.5487220111278 -0.894512067525901 -1.20005193143125 -1.50004692904394 -20.2754217445932 -15.7466260376211 -13.9492167803274 -21.8399752327603 -1.80004085786387 -12.5997420205099 -21.3000631407082 -20.8060258907201 -18.7141471373794 -16.9412099705459 -21.6368481526633 -2.10003518784197 -19.7202589282038 -11.8493136770273 -8.69999041429509 -22.4487390993306 -11.5498933938139 -21.7408194803217 -5.70000250123227 -8.39999272374153 -7.49999726216875 -6.0000016334596 -8.09999456199996 -4.80000579679063 -6.30000081986154 -4.20000871072912 -6.60000002046034 -4.50000719833019 -5.40000346177318 -5.10000455121544 -3.90001050011245 -7.19999829113506 -10.1999651507849 -7.79999604408301 -9.29998376431777 -3.59971790698094 -10.4999552288786 -9.89997292674755 -9.59997900828749 -22.1034526167581 -8.99998748888594 -6.89999919299278 -3.2992921181749 -10.7999426363654 -1.65004220481895 -2.40003044409845 -0.451562988132878 -21.5284749427775 -2.69989339377907 -21.6368631274174 -1.95003690890588 -11.0999267698285 -21.1813257125816 -20.1383028833266 -21.3004127869143 -0.750114893233419 -2.25003191507178 -2.99946236474811 -3.15001947662235 -21.5284908320407 -1.05005431620574 -9.44998156779177 -1.35004776502836 -21.1810081698978 -8.8499890494632 -7.94999534273656 -8.54999164169608 -9.14998575921557 -6.74999961130777 -11.5498930107549 -10.9499351627758 -6.15000121611088 -10.3499606530335 -5.85000204683408 -7.34999779606879 -5.55000294805954 -3.75001277541818 -9.74997621827675 -4.95000511710158 -4.35000811752655 -4.05001016988321 -5.25000395788063 -3.45001593536781 -21.4161453724556 -4.65000647694094 -7.64999668163214 -6.45000041762007 -7.04999875373013 -10.6499494837789 -10.0499693851029 -8.24999369683243 -11.3999065769623 -11.2499167536075 -16.0457078130225 -17.2388589524633 -11.6993306090979 -18.7141470750889 -19.2932682557113 -18.1274581060043 -16.9412100439757 -19.8607370229995 -13.3495213932916 -12.7497101072872 -14.8483691685494 -17.5358934812814 -15.1479203709084 -13.9492168474704 -16.3445443609781 -14.5487220385289 -20.4107262185196 -15.7466260711619 -0.60160828953218 -13.0496265158882 -16.6430717964814 -15.4473500772478 -17.8321578033193 -14.2489992484223 -1.80003958871552 -2.10003441173951 -13.6493875383589 -20.1382917028731 -12.4496867004438 -19.0048697559823 -1.50004500239004 -0.900110148382541 -2.99892046822787 -20.6762245053884 -20.4108118194664 -11.697560574811 -12.2992644851782 -1.20005069945746 -19.5787850394067 -3.30001770458332 -9.59997905383384 -7.79999604495175 -8.99998750241174 -9.29998378939153 -18.4215538337092 -5.70000248702461 -6.60000001818554 -6.00000162546696 -8.69999042149169 -4.20000906263618 -11.099926539761 -5.10000451735009 -6.89999919188887 -8.39999272751404 -3.90001136867761 -5.40000343811982 -3.60001428916997 -10.7999427668571 -4.80000576799717 -4.50000724942038 -7.49999726236747 -10.1999652803593 -7.1999982907572 -10.4999554054483 -6.30000081552403 -9.8999730064903 -8.09999456391528 -11.399905662665 -17.0901028389066 -16.1951603954535 -19.1493917545642 -19.7202549848875 -13.7993073686968 -15.8961941381078 -14.6985562177791 -13.1995770486448 -15.2976522520894 -18.2746736934619 -14.0991146346104 -14.9981582209241 -17.3874619608593 -17.9799422926417 -20.0001222946617 -16.7921953099312 -20.5446860820269 -12.8996703113505 -16.4938513049667 -17.684133055005 -15.5970096062472 -14.3988690099733 -18.8597684153066 -20.2754060296913 -13.4994585129646 -12.5996553199138 -18.5680594803793 -19.4364264213769 -2.55002735602079 -2.40002959568875 -0.0912442948673916 -22.4488678013684 -0.0807438351641577 -22.4476946240449 -11.6944216476861 -2.99608317966504 -12.1461673153626 -20.4134159518835 -3.44670159514747 -20.8083090075055 -11.9961223402252 -3.29666651725161 -20.5470623414819 -20.9363729618548 -2.84736250403001 -11.5470362145935 -11.5481258687872 -20.9338866037677 -20.544482136516 -2.84932250955233 -11.9985684539516 -3.29903767051559 -0.174304084533328 -22.4433260158187 -0.163801360439233 -22.4420556820804 -22.4493530789949 -0.0732232974997242 -0.173252725890635 -22.4415985730304 -22.4496004091288 -22.4418343927142 -0.0732288453975123 -0.173255539375916 -11.9957118150553 -20.9361184747141 -20.5467857373426 -3.2963774053455 -11.5452685441927 -2.84677674053473 -11.8446871802704 -3.1463735101687 -20.6791463535306 -21.0611638955323 -2.69736248352161 -11.3970460315637 -22.3447439222483 -0.633267217944187 -11.2499168061204 -2.55002860450319 -21.1813744217325 -13.1995768371866 -14.0991150759394 -12.29912568887 -12.5997405620291 -12.8996690351447 -12.4494172066323 -12.7497070097231 -13.4994586519927 -13.0496258805523 -13.7993076776134 -11.0999251681952 -13.3495214013989 -10.7999417528592 -15.2976534563366 -13.6493877790206 -10.4999548096429 -10.9499342433705 -10.6499488049098 -10.1999649530771 -13.9492172289721 -10.3499602486238 -9.89997283279147 -14.3988695905741 -9.59997896408171 -14.6985569634883 -10.0499691617077 -14.9981591703975 -16.493854367441 -9.74997609995792 -9.29998374436859 -14.2489997615655 -8.99998748075983 -14.5487227018674 -9.44998150722155 -14.8483700151711 -8.69999041180671 -9.14998572939349 -15.1479214459571 -8.84998903561357 -8.39999272380374 -15.5970111303019 -15.8961960638723 -8.09999456309702 -8.54999163593268 -16.1951628255155 -18.2746856443952 -15.4473514388217 -8.24999369503452 -7.79999604551285 -15.7466277926791 -7.94999534282122 -7.49999726367053 -16.045709986591 -7.19999829272191 -7.64999668262915 -6.89999919491939 -7.34999779765967 -16.3445471017339 -16.7921991644536 -17.0901076840758 -6.60000002330749 -7.04999875607031 -17.3874680434672 -6.30000082477859 -6.74999961505541 -17.6841406815794 -16.6430752479956 -16.9412143849256 -6.45000042417518 -6.00000164270376 -17.9799518441254 -17.2388644048941 -17.5359003208378 -6.15000122814305 -5.70000251933943 -5.40000349824073 -5.85000206924912 -17.8321663720571 -5.55000298955467 -5.10000462688953 -4.80000595860979 -5.25000403285281 -18.127468828732 -4.50000754082711 -4.95000524543106 -18.5680744250389 -18.859787105324 -4.65000666803485 -21.6370068350227 -4.20000925875511 -19.1494151557051 -21.6370097427601 -19.4364557950448 -4.35000826122725 -3.89989318943654 -18.7141638267272 -18.4215672394813 -3.59928110333482 -19.720291932565 -4.04996914337928 -19.2932944515855 -19.0048906924948 -3.74953283774651 -20.0001681237063 -19.5788178462159 -19.8607777093215 -20.2757240678702 -2.40002944214031 -20.1386072523739 -2.1000353620512 -21.3001770494683 -2.25003245990215 -1.80004254869441 -21.4162204639055 -21.5286177510258 -1.50005121206519 -1.95003872962568 -1.65004629836004 -21.7409966978171 -1.20006290101445 -0.906035550639162 -21.8401505003261 -1.35005565365487 -19.7202904236153 -21.9340162372498 -20.000164243723 -19.8607763925917 -1.05270866166184 -19.1494148958954 -19.4364551520433 -20.2757148549914 -19.5788173156639 -22.0220769866361 -19.2932942287519 -20.1386033793341 -22.1036538324042 -18.8597870212529 -19.0048906078168 -22.1771581241404 -22.2467085829965 -18.7141638049341 -18.5680744195758 -18.2746856713085 -21.3004651546894 -18.4215672450997 -21.4162197174888 -21.5286238728585 -18.1274688449392 -21.7409913523349 -21.8401479043671 -21.9340111846646 -22.022074589433 -17.9799518816534 -22.1036505489941 -17.6841407198536 -22.1771665419415 -17.8321663910291 -17.3874680783798 -22.2430863236553 -17.5359003391228 -17.238864421144 -17.090107714262 -16.7921991898069 -16.9412143987825 -16.6430752595446 -16.4938543883923 -16.344547111242 -16.1951628426919 -16.045709994384 -15.8961960779531 -15.5970111419843 -15.7466277991012 -15.4473514442338 -15.2976534663723 -15.1479214507782 -14.9981591797122 -14.8483700199733 -14.698556973461 -14.5487227076091 -14.3988696036872 -14.2489997701569 -14.0991150974263 -13.9492172448109 -13.7993077200336 -13.4994587484544 -13.6493878133864 -13.1995770741267 -13.349521484105 -13.0496260661132 -12.8996695237755 -12.5996520488648 -12.7497069350964 -12.2989093079584 -12.4493292172598 -3.59935399847283 -0.897163126168897 -2.40003091648259 -3.89996956935646 -4.50000724143582 -1.20005578656804 -2.10003543596246 -1.50004849387538 -1.80004152129845 -4.20000857913688 -4.80000583682619 -2.2500328443888 -1.05270162833924 -3.74960880686247 -1.95003849202061 -5.10000457424498 -1.35005324694221 -1.65004537113673 -5.40000347382733 -4.35000801442007 -4.04996902516621 -4.65000656369162 -6.30000082166787 -5.70000250740146 -6.00000163666467 -6.89999919413425 -4.95000520225997 -6.60000002170624 -5.25000401375469 -5.55000298053343 -6.15000122586916 -7.19999829242983 -5.85000206478394 -6.45000042300381 -7.49999726376617 -8.09999456434351 -7.79999604605771 -6.74999961446212 -7.04999875580236 -8.69999041665234 -8.39999272630456 -7.34999779761071 -7.64999668278838 -8.99998749006526 -7.94999534326662 -8.24999369596626 -9.29998376227146 -8.84998903913244 -8.54999163775956 -9.59997899888479 -9.89997290192389 -10.4999551210238 -9.14998573615842 -10.1999650956642 -9.44998152032217 -9.74997612577703 -10.79994247934 -10.0499692142498 -11.0999269027381 -10.3499603611352 -10.6499490619761 -10.9499348550044 -11.249918030079 -21.1810854465763 -2.55002978906122 -11.3999087979842 -21.0587368287528 -20.6762906731722 -2.69991440574636 -11.8490332273838 -3.14933204540793 -22.4217181998298 -0.324399513162054 -22.3554976050504 -0.598591815651041 -22.4209350760335 -0.32945750876458 -11.8444055790461 -3.1460819088139 -20.6788744159319 -21.0612269587986 -2.69736743538472 -11.3970502564485 -22.3667642218406 -0.560186680052656 -22.4432344150492 -0.164467487372035 -22.4445278708871 -0.153956318259946 -22.4215354099567 -22.4210736831077 -0.327101799695783 -0.32474477573949 -0.315990935341709 -22.4247739202055 -0.307827663087125 -22.4230321310591 -22.3458766409979 -0.631097448184625 -22.2966642361633 -0.773175674006289 -22.4075481460938 -0.398792569971775 -22.2933093383769 -0.782041502470311 
</DataArray>
</CellData>
</Piece>
</UnstructuredGrid>
</VTKFile>
