<?xml version="1.0"?>
<VTKFile type="UnstructuredGrid" version="0.1" byte_order="LittleEndian">
<UnstructuredGrid>
<Piece NumberOfPoints="570" NumberOfCells="968">
<Points>
<DataArray type="Float64" NumberOfComponents="3" format="ascii">
0 0 0 0 0.199999999999558 0 0.146410161514643 0.146410161514302 0 0.200000000000832 0 0 0.400000000001665 0 0 0.307726305780858 0.184345861302666 0 0.452046971099063 0.313775722297172 0 0.488902152079335 0.480182833362319 0 0.321175850119874 0.390561251754679 0 0.166115050745933 0.491422964488694 0 0.161493227956189 0.305461544702779 0 0 0.399999999998975 0 0 0.599999999998947 0 0.18250136059178 0.684907113579643 0 0 0.799999999999473 0 0.146410161513344 0.853589838486413 0 0.302985888731723 0.83439513050655 0 0.397961476484174 0.663879545519049 0 0.31024977577568 0.541876770366344 0 0.599999999978152 0.653589838469396 0 0.500105262798652 0.828782687940994 0 0.699999999998615 0.826794919243495 0 0.899999999998183 0.826794919243489 0 0.99999999997842 0.65358983847032 0 0.799999999978276 0.653589838469859 0 0.899999999978739 0.480384757713072 0 0.999999999979158 0.32679491924348 0 0.799999999979014 0.326794919243033 0 0.699999999978606 0.480384757712627 0 0.605287844253745 0.324818388466379 0 0.700000000002989 0.173205080757564 0 0.506641475208022 0.168637425096977 0 0.600000000002495 0 0 0.800000000003328 0 0 0.900000000003744 0.173205080757609 0 1.00000000000416 0 0 1.20000000000499 0 0 1.10000000000465 0.173205080757565 0 1.09999999997889 0.480384757713518 0 1.19999999998567 0.326794966297478 0 1.29999999997906 0.480384757713966 0 1.49999999997923 0.48038475771442 0 1.39999999998593 0.326795342759386 0 1.30000000000541 0.173205080757607 0 1.40000000000583 0 0 1.60000000000666 0 0 1.50000000000632 0.173205080757565 0 1.70000000000707 0.173205080757607 0 1.80000000000749 0 0 1.89467744402659 0.161414216173798 0 1.79999999997981 0.326829224301757 0 1.99881720977017 0.315897138893714 0 1.89976951723567 0.483875882968814 0 1.69999999997939 0.480384757714885 0 1.59999999998559 0.326798730913892 0 1.59999999997892 0.653589838471666 0 1.99990427347715 0.653933918540785 0 1.79996375451097 0.654015972399612 0 1.89999999999457 0.826794919240091 0 1.69999999999588 0.826794919243956 0 1.29999999999749 0.82679491924339 0 1.49999999999719 0.826794919243377 0 1.39999999997875 0.653589838471227 0 1.19999999997858 0.653589838470776 0 1.09999999999781 0.826794919243437 0 1.19999999999764 1 0 1.39999999999734 1 0 1.59999999999703 1 0 1.79999999999673 1 0 1.99999999999638 1 0 0.999999999997972 1 0 0.799999999998394 1 0 0.599999999998836 1 0 0.399999999999246 1 0 0.199999999999623 1 0 0 1 0 2.99999999999351 1 0 2.79999999999409 1 0 2.8999999999938 0.826794919243617 0 2.99999999997932 0.653589838474822 0 2.7999999999793 0.653589838474364 0 2.59999999997927 0.653589838473905 0 2.69999999999438 0.826794919243617 0 2.59999999999468 1 0 2.39999999999526 1 0 2.49999999999102 0.826794919240213 0 2.29999999999147 0.826794919240099 0 2.19999999999584 1 0 2.09999999999211 0.826794919240002 0 2.19993428941465 0.653977521131915 0 2.39999999997924 0.653589838473444 0 2.49999999997965 0.480384757716762 0 2.39927718374402 0.325489244791284 0 2.29940860487266 0.483873901626366 0 2.09920417199692 0.483093795650007 0 2.19467744401739 0.318966729862664 0 2.09862007808377 0.15808197125514 0 2.00000000000832 0 0 2.20000000000916 0 0 2.29940860489605 0.165793056170904 0 2.49984505286392 0.167861385366196 0 2.40000000000998 0 0 2.60000000001082 0 0 2.70000000001123 0.173205080757609 0 2.59991968707169 0.326649844303302 0 2.69999999997968 0.480384757717221 0 2.79999999998004 0.326794919247688 0 2.89999999997971 0.480384757717679 0 2.99999999998008 0.326794919248122 0 2.90000000001197 0.173205080757556 0 2.80000000001165 0 0 3.00000000001248 0 0 3.1000000000129 0.173205080757609 0 3.20000000001331 0 0 3.40000000001415 0 0 3.30000000001383 0.173205080757557 0 3.39999999998013 0.326794919249166 0 3.4999999999798 0.480384757719058 0 3.29999999997977 0.480384757718598 0 3.19999999998011 0.326794919248667 0 3.09999999997974 0.480384757718137 0 3.19999999997935 0.653589838475281 0 3.09999999999322 0.82679491924362 0 3.19999999999293 1 0 3.29999999999263 0.826794919243617 0 3.39999999999234 1 0 3.49999999999205 0.826794919243618 0 3.39999999997938 0.65358983847574 0 3.59999999997941 0.653589838476202 0 3.59999999999176 1 0 3.69999999999147 0.826794919243617 0 3.79999999999118 1 0 3.99999999999059 1 0 3.89999999999089 0.826794919243617 0 3.99999999997947 0.653589838477122 0 3.79999999997944 0.653589838476661 0 3.89999999997986 0.480384757719978 0 3.99999999998022 0.326794919250634 0 3.7999999999802 0.326794919250145 0 3.69999999997983 0.480384757719518 0 3.59999999998016 0.326794919249649 0 3.70000000001549 0.173205080757555 0 3.50000000001456 0.173205080757607 0 3.60000000001498 0 0 3.80000000001581 0 0 3.90000000001623 0.173205080757609 0 4.00000000001664 0 0 4.20000000001748 0 0 4.10000000001697 0.173205080757556 0 4.09999999997989 0.480384757720439 0 4.19999999998026 0.326794919251066 0 4.29999999997992 0.480384757720903 0 4.49999999997994 0.480384757721369 0 4.39999999998029 0.326794919251619 0 4.30000000001789 0.173205080757607 0 4.40000000001831 0 0 4.60000000001914 0 0 4.50000000001863 0.173205080757555 0 4.70000000001956 0.173205080757609 0 4.80000000001997 0 0 4.90000000002048 0.173205080757554 0 4.79999999998032 0.326794919252607 0 4.99999999998037 0.326794919253095 0 4.89999999998 0.480384757722284 0 4.69999999997997 0.480384757721832 0 4.59999999998031 0.326794919252055 0 4.59999999998196 0.653589838480548 0 4.99999999998171 0.653589838481231 0 4.79999999998184 0.653589838480891 0 4.89999999998797 0.826794919243617 0 4.69999999998856 0.826794919243627 0 4.29999999998971 0.826794919243625 0 4.49999999998914 0.826794919243617 0 4.39999999998208 0.653589838480199 0 4.19999999998221 0.653589838479851 0 4.0999999999903 0.826794919243617 0 4.19999999999001 1 0 4.39999999998943 1 0 4.59999999998885 1 0 4.79999999998826 1 0 4.99999999998768 1 0 5.1999999999871 1 0 5.39999999998651 1 0 5.59999999998593 1 0 5.79999999998535 1 0 5.99999999998476 1 0 5.89999999998505 0.826794919243612 0 5.99999999998109 0.653589838482929 0 5.79999999998125 0.653589838482601 0 5.59999999998118 0.653589838482109 0 5.69999999998449 0.826794919242383 0 5.49999999998621 0.826794919243633 0 5.29999999998681 0.826794919243617 0 5.09999999998738 0.826794919243621 0 5.19999999998159 0.653589838481573 0 5.39999999998145 0.653589838481903 0 5.49999999998009 0.480384757723655 0 5.39999999998042 0.32679491925402 0 5.29999999998006 0.480384757723202 0 5.09999999998003 0.480384757722739 0 5.19999999998041 0.32679491925358 0 5.10000000002122 0.173205080757607 0 5.0000000000208 0 0 5.20000000002164 0 0 5.30000000002196 0.173205080757554 0 5.40000000002247 0 0 5.6000000000233 0 0 5.70000000002362 0.173205080757558 0 5.50000000002288 0.173205080757608 0 5.59999999998045 0.32679491925456 0 5.69999999998011 0.480384757724105 0 5.79999999998046 0.326794919254995 0 5.89999999998015 0.480384757724548 0 5.99999999998052 0.326794919255529 0 5.90000000002455 0.173205080757608 0 5.80000000002413 0 0 6.00000000002496 0 0 6.10000000002548 0.173205080757557 0 6.2000000000258 0 0 6.40000000002663 0 0 6.30000000002622 0.173205080757608 0 6.39999999998056 0.326794919256525 0 6.49999999998023 0.480384757725918 0 6.2999999999802 0.480384757725469 0 6.19999999998054 0.326794919256036 0 6.09999999998018 0.480384757725009 0 6.19999999998097 0.653589838483274 0 6.09999999998447 0.826794919243617 0 6.29999999998389 0.826794919243609 0 6.49999999998331 0.826794919243617 0 6.39999999998085 0.653589838483615 0 6.59999999998073 0.65358983848395 0 6.69999999998272 0.826794919243633 0 6.89999999998214 0.826794919243617 0 6.99999999998044 0.653589838484526 0 6.7999999999806 0.653589838484268 0 6.89999999998028 0.480384757726783 0 6.9999999999806 0.326794919257912 0 6.7999999999806 0.326794919257481 0 6.69999999998025 0.480384757726355 0 6.59999999998057 0.326794919257011 0 6.70000000002787 0.173205080757607 0 6.50000000002713 0.173205080757552 0 6.60000000002746 0 0 6.8000000000283 0 0 6.90000000002861 0.173205080757565 0 7.00000000002913 0 0 7.20000000002996 0 0 7.10000000002954 0.173205080757608 0 7.0999999999803 0.480384757727202 0 7.19999999998065 0.326794919258435 0 7.29999999998032 0.480384757727631 0 7.49999999998032 0.480384757728063 0 7.39999999999173 0.326798730923102 0 7.30000000003047 0.173205080757555 0 7.40000000003079 0 0 7.60000000003162 0 0 7.50000000003121 0.173205080757609 0 7.69428318064084 0.162409824225203 0 7.80000000003245 0 0 7.89833533231231 0.159153776946481 0 7.79645162934511 0.316140149424588 0 7.99428318062892 0.319962337916783 0 7.89889995640994 0.483443222557347 0 7.69999999998024 0.482568040765242 0 7.59999999998064 0.326829224301858 0 7.59999999998004 0.653832425489461 0 7.99999999997967 0.653589838485872 0 7.79999999997985 0.653589838485708 0 7.8999999999796 0.826794919242969 0 7.69999999997987 0.826794919243148 0 7.29999999998075 0.826794919243018 0 7.49999999998028 0.826794919242988 0 7.39999999998017 0.653616792596627 0 7.19999999998034 0.653592833386099 0 7.09999999998123 0.82679491924293 0 7.19999999998127 1 0 7.39999999998068 1 0 7.5999999999801 1 0 7.79999999997952 1 0 7.99999999997911 1 0 6.99999999998185 1 0 6.79999999998243 1 0 6.59999999998302 1 0 6.3999999999836 1 0 6.19999999998418 1 0 8.99999999998157 1 0 8.79999999998104 1 0 8.8999999999812 0.826794919242764 0 8.99999999998142 0.653589838485693 0 8.79999999998073 0.653589838485724 0 8.5999999999797 0.653589838485656 0 8.69999999998059 0.82679491924274 0 8.59999999998051 1 0 8.39999999997999 1 0 8.49999999997993 0.826794919242879 0 8.29999999997969 0.82679491924282 0 8.19999999997946 1 0 8.09999999997948 0.826794919242848 0 8.19999999997958 0.653589838485829 0 8.39999999997957 0.653589838485763 0 8.49999999997927 0.480384757728878 0 8.40000000003054 0.32679491922581 0 8.29999999997951 0.480384
[...]
<CellData Scalars="pressure_p0," Vectors="" Tensors="">
<DataArray type="Float64" Name="pressure_p0" format="ascii">
-0.0577769961024896 -0.0244175661020485 -0.0513173669283585 -0.102608841784548 -0.109046372798899 -0.151340102803478 -0.202445405950115 -0.211111797530998 -0.180189201398555 -0.131742957052354 -0.210372657700585 -0.132934818138357 -0.18672933845771 -0.108129249472131 -0.0269105064177325 -0.0276827275362708 -0.054594158028749 -0.0580937495591484 -0.109826172573011 -0.030407860528277 -0.0548252277938568 -0.0577795921748326 -0.0244229769315888 -0.108269154720035 -0.105348755521473 -0.150554051550357 -0.200561197158992 -0.200215188412649 -0.249715844618827 -0.147290083071576 -0.148487728145492 -0.24785106298651 -0.199538256003184 -0.298190470834646 -0.350028715253416 -0.350029727858085 -0.30005187380076 -0.300054083364538 -0.250060609615886 -0.350032061753495 -0.400027118453156 -0.40002765682915 -0.500021516867445 -0.450024343414123 -0.50002166998773 -0.450024513038077 -0.4000286092367 -0.450025240937665 -0.500023105360621 -0.450029124914909 -0.500024465690433 -0.450031306946133 -0.400032204909896 -0.350916202647555 -0.299078688925219 -0.257744006960704 -0.260696277178807 -0.350922945742431 -0.302037357287655 -0.301155343984947 -0.251155451510611 -0.350047084012484 -0.400039415186108 -0.400038803827437 -0.500026834779469 -0.450033153287003 -0.500027554453635 -0.550023249121246 -0.600019408771236 -0.600019150506592 -0.55002235238066 -0.550021566242331 -0.600018327125376 -0.650016134732895 -0.650015970996634 -0.75001210209617 -0.70001379449091 -0.750011695149346 -0.700013630764248 -0.650016215852465 -0.700013347250962 -0.750010434900811 -0.800007731248757 -0.800009671823045 -0.850003118595668 -0.899118914505701 -0.949119912435206 -0.998891201777323 -0.998695759958043 -0.899123795014589 -0.94892832824237 -0.949776788279991 -0.999641117028422 -0.899973443547619 -0.850010991058327 -0.850009804888011 -0.800011154103933 -0.800010745887897 -0.850002933542268 -0.850003223319342 -0.899964612276056 -0.999820781716138 -0.949947196326805 -0.949985197378841 -0.900001857006606 -0.99999027290617 -0.950006854534294 -1.00000603603658 -0.900007810121865 -0.850008854044883 -0.800010126172823 -0.800010075048567 -0.750011446426215 -0.700013046732251 -0.650014774398493 -0.700013180303709 -0.750011669038396 -0.750011934022529 -0.70001362582531 -0.650015401032016 -0.650015088743596 -0.600017796551436 -0.55001997197438 -0.550019413454288 -0.600016986673363 -0.600016797552772 -0.550018967534619 -1.45000115062279 -1.5000009698746 -1.40000135438351 -1.40000127083419 -1.50000093912592 -1.4500010501662 -1.50000088703482 -1.45000096154437 -1.40000096666558 -1.35000143336707 -1.35000115931373 -1.3000011010974 -1.30000189862244 -1.35000166877882 -1.30000201654859 -1.20000307904907 -1.2500025225734 -1.20000304001195 -1.15000373614153 -1.1000044679555 -1.05000519999673 -1.09999364166983 -1.04997862789691 -1.04984671248977 -1.099762988894 -1.14989438791694 -1.14999283708597 -1.25000228392204 -1.25000195881283 -1.19990372874748 -1.19978070231232 -1.24986611796967 -1.24984169844765 -1.14890121155886 -1.14889845691435 -1.09888953436197 -1.04869553539002 -1.04879251665795 -1.098794924123 -1.04977722434011 -1.09968098798588 -1.14991011031312 -1.1997592354039 -1.24998035649957 -1.19988217569964 -1.29997875290709 -1.35000397472247 -1.29996202348644 -1.29998690643612 -1.34998720084938 -1.34998725812637 -1.40000080736939 -1.45000097209695 -1.50000090969563 -1.45000118145241 -1.40000139293777 -1.40000237037831 -1.4500018481509 -1.5500011229467 -1.50000136288619 -1.50000115627096 -1.60000085001449 -1.60000090546602 -1.65000076420903 -1.70000063823602 -1.70000062010643 -1.65000071201367 -1.75000052476647 -1.70000058299174 -1.75000051170506 -1.6500006799341 -1.60000075680345 -1.55000095428787 -1.55000087052057 -1.55000080556837 -1.60000072966676 -1.55000081611712 -1.55000083927028 -1.60000072545122 -1.60000071998149 -1.65000063160874 -1.75000047862866 -1.70000055039851 -1.7000005519642 -1.75000048375786 -1.65000063277357 -1.65000063903298 -1.75000049028253 -1.70000056744169 -1.80000042945606 -1.85000036851797 -1.85000036429614 -1.80000041870439 -1.80000041643154 -1.8500003602886 -1.90000031295419 -1.90000031135161 -2.00000022806392 -1.95000026703732 -2.00000022900275 -1.9500002694722 -1.90000031917433 -2.00000023234645 -1.95000027185124 -2.00000023423402 -1.95000027716507 -1.95000027978632 -1.9000003230621 -1.85000037925702 -1.8000004373564 -1.85000038495365 -1.80000045322891 -1.75000054376594 -1.80000046017102 -1.85000039278846 -1.90000033326154 -1.9000003302633 -1.95000028332197 -2.0500002008668 -2.00000023904867 -2.1000001667021 -2.10000016599923 -2.0000002376371 -2.05000019917092 -2.05000019792176 -2.10000016435282 -2.150000135643 -2.15000013503793 -2.20000010784109 -2.25000008327567 -2.25000008356403 -2.20000010863934 -2.15000013648457 -2.20000010899661 -2.25000008397875 -2.30000006064038 -2.30000006046871 -2.35000003864439 -2.40000001742111 -2.44999999658427 -2.40000001736626 -2.44999999656962 -2.49999997579927 -2.44999999655993 -2.40000001724899 -2.35000003834692 -2.35000003846671 -2.30000006010226 -2.30000005991872 -2.35000003798542 -2.35000003811188 -2.4000000171948 -2.44999999655176 -2.49999997584206 -2.44999999655071 -2.40000001708048 -2.499999975952 -2.44999999655059 -2.49999997598617 -2.40000001704616 -2.35000003784736 -2.30000005952455 -2.30000005940535 -2.25000008203115 -2.2000001062977 -2.15000013243086 -2.20000010655614 -2.25000008237238 -2.20000010741883 -2.25000008268498 -2.15000013377323 -2.15000013312847 -2.10000016344907 -2.05000019531279 -2.05000019405092 -2.1000001617198 -2.10000016121288 -2.0500001927112 -2.94999971812299 -2.99999967190904 -2.89999975869937 -2.89999975764488 -2.99999966984829 -2.94999971531068 -2.94999971274542 -2.99999966300172 -2.89999975417929 -2.84999979407683 -2.84999979278227 -2.7999998259469 -2.79999982768565 -2.84999979550389 -2.79999982821808 -2.69999988499939 -2.74999985802848 -2.69999988473685 -2.64999990993207 -2.59999993306347 -2.54999995497481 -2.59999993294409 -2.54999995483729 -2.54999995471361 -2.59999993255681 -2.64999990928081 -2.64999990958973 -2.74999985731537 -2.69999988388225 -2.74999985667018 -2.74999985546241 -2.69999988348525 -2.74999985491029 -2.64999990846197 -2.64999990872095 -2.59999993238846 -2.54999995449786 -2.54999995439938 -2.59999993206883 -2.49999997572087 -2.49999997567899 -2.5499999542538 -2.59999993191343 -2.64999990809036 -2.6999998827587 -2.69999988242899 -2.79999982294831 -2.74999985414731 -2.8499997876566 -2.79999982358683 -2.79999982509043 -2.84999979028659 -2.8499997891604 -2.89999975238728 -2.94999970766379 -2.99999965931174 -2.94999970538712 -2.89999974934189 -2.89999974811777 -2.94999970242492 -3.04999958988251 -2.99999965078031 -2.99999965316009 -3.09999952552493 -3.0999995207821 -3.14999943742044 -3.19999934280696 -3.19999935260438 -3.14999944950364 -3.24999925073721 -3.19999937832756 -3.24999927049365 -3.14999945895878 -3.09999953802219 -3.04999959579707 -3.04999960041233 -3.04999961068487 -3.09999954554527 -3.04999961572155 -3.04999962119354 -3.09999956290201 -3.09999955894611 -3.14999949982416 -3.19999942674295 -3.24999934955374 -3.19999941938579 -3.24999933040871 -3.14999948939334 -3.1499994796367 -3.199999393565 -3.24999931197967 -3.29999919820565 -3.34999910151895 -3.34999913457338 -3.29999924646952 -3.29999925935591 -3.34999916723178 -3.39999903842363 -3.39999905845267 -3.44999895087172 -3.49999882230844 -3.49999879819859 -3.44999890301333 -3.39999895380874 -3.49999867162304 -3.44999885047838 -3.49999855681284 -3.44999868864559 -3.44999859185012 -3.39999889296889 -3.34999901877762 -3.29999916753941 -3.34999897611498 -3.29999911334629 -3.29999909198859 -3.24999922514639 -3.34999891869744 -3.39999872377998 -3.39999877440397 -3.44999845060732 -3.49999814644647 -3.54999766191102 -3.59999713061351 -3.59999757334838 -3.49999828289227 -3.54999806163776 -3.54999829475115 -3.59999824511296 -3.64999745139953 -3.64999803113897 -3.69999843311376 -3.74999902409246 -3.6999967613743 -3.64999607459341 -3.69999494006496 -3.74999177680498 -3.79904321770883 -3.79904734351599 -3.84904548747355 -3.89877004885905 -3.99957384587297 -3.94972136802911 -3.99862244414184 -3.89818200477945 -3.94827508614323 -3.94818155796787 -3.99875723957195 -3.89922754581324 -3.84941233912789 -3.84846033080488 -3.74999781916641 -3.80000051355194 -3.79999841303398 -3.84999744732466 -3.84999749457003 -3.89981513504564 -3.94981401497032 -3.99970727639626 -3.94999647584629 -3.89999696633467 -3.99999562738762 -3.94999625531918 -3.99999557898043 -3.8999968567646 -3.84999728577593 -3.79999771317835 -3.79999766050303 -3.69999816971141 -3.74999793574964 -3.64999837123344 -3.69999816554777 -3.74999797949232 -3.69999834778583 -3.7499981231801 -3.6499983923934 -3.64999836828982 -3.59999841742337 -3.54999858822776 -3.54999864595897 -3.59999852581035 -3.59999854018029 -3.54999869430123 -4.44998395992676 -4.49998164426063 -4.39998595479155 -4.39998592210611 -4.49998163606274 -4.44998393074701 -4.49998163236343 -4.44998391268726 -4.39998585320485 -4.34998759922163 -4.34998750669315 -4.29998881778739 -4.29998912084983 -4.3499877014378 -4.29998920211288 -4.19999174543631 -4.24999056809358 -4.1999916351043 -4.14999286801997 -4.09999384796421 -4.04999476581427 -4.09999378701793 -4.04999473988404 -4.04988917376049 -4.09988736130882 -4.14999237769572 -4.14999264894617 -4.24999034363269 -4.19999088566932 -4.2499900818174 -4.1999900712855 -4.14984405542886 -4.14987271474229 -4.09976708635578 -4.0488195052567 -4.04877862035575 -4.09969767584048 -4.04984990020395 -4.09981761398197 -4.14996623704462 -4.19996083772871 -4.19996411775115 -4.29998996497759 -4.24999247912411 -4.34998821351387 -4.29998906361052 -4.2499893071804 -4.24998943168372 -4.29998865921549 -4.34998748002495 -4.34998763210401 -4.39998586711548 -4.49998166220418 -4.44998396093222 -4.44998402512129 -4.39998605665928 -4.39998622632018 -4.44998415393315 -4.49998176462444 -4.54997905827205 -4.49998173262101 -4.59997593657757 -4.59997593308484 -4.64997234097206 -4.69996819567847 -4.6999682135287 -4.64997234687877 -4.6999682021511 -4.64997233739136 -4.59997590943687 -4.54997903257852 -4.54997900857874 -4.54997896687756 -4.59997588170515 -4.54997896590189 -4.54997896967782 -4.59997587448898 -4.59997587408361 -4.64997229719562 -4.74996339665456 -4.69996816584634 -4.6999681670061 -4.74996339917047 -4.64997229934199 -4.64997230292311 -4.69996817378119 -4.74996340199549 -4.7999579010746 -4.84995155475722 -4.84995155284535 -4.79995789649393 -4.79995789539607 -4.84995155094808 -4.89994423834191 -4.89994423751941 -4.99992609467946 -4.94993580801909 -4.99992609532929 -4.94993580942824 -4.89994424144707 -4.94993581080226 -4.99992609774797 -4.99992615180671 -4.94993585957969 -4.94993586067066 -4.89994428307487 -4.84995159382083 -4.74996343598846 -4.79995793418899 -4.74996344009107 -4.84995159579133 -4.79995793943665 -4.74996341931038 -4.79995791132844 -4.84995156344929 -4.89994424683895 -4.89994428579825 -4.94993581582093 -4.99992610111923 -5.04991490853503 -5.09990201412135 -5.09990208388871 -4.99992615348838 -5.04991496887848 -5.04991496813441 -5.09990208257146 -5.14988724019885 -5.14988723954607 -5.19987013997693 -5.19987014128829 -5.14988715976749 -5.1998700486088 -5.29982763408132 -5.24985033796549 -5.29982775707748 -5.34980148220196 -5.39977135996645 -5.44973666401125 -5.3997715231378 -5.44973685214941 -5.49969691510308 -5.44973685099219 -5.39977152115539 -5.34980162315197 -5.34980162402828 -5.24985044483166 -5.2498504441223 -5.29982775553564 -5.29982763091177 -5.34980147584443 -5.34980147769549 -5.39977135588434 -5.44973665805366 -5.49969669583731 -5.44973665560119 -5.39977135166956 -5.49969669019269 -5.49969668875291 -5.44973665314346 -5.3997713505969 -5.34980147398955 -5.29982762768527 -5.29982762686156 -5.1998700426613 -5.24985033144687 -5.1498871540597 -5.19987004333075 -5.24985033290324 -5.24985033435111 -5.19987004592497 -5.14988715651249 -5.14988715529429 -5.09990201144844 -5.04991490496125 -5.049914903787 -5.099902009146 -5.09990200853955 -5.0499149025837 -5.9489180631865 -5.99875384393098 -5.89906064370581 -5.8990606494746 -5.99875385270034 -5.94891807705253 -5.94891809052374 -5.99875388513071 -5.89906067119862 -5.84918444065491 -5.84918444979345 -5.79929192652286 -5.79929191150992 -5.84918443133055 -5.79929190758221 -5.69946623289532 -5.7493852180581 -5.69946623564645 -5.64953656963936 -5.59959763777625 -5.54965065669754 -5.59959763974765 -5.549650660028 -5.54965066334436 -5.59959764743434 -5.64953657879189 -5.64953657423372 -5.74938522452321 -5.7493852309038 -5.69946624628375 -5.69946663253765 -5.74938568262779 -5.64953692103983 -5.649536918801 -5.59959793841382 -5.54965091941023 -5.54965092099651 -5.59959794212344 -5.49969691777403 -5.54965067148452 -5.49969670133632 -5.59959765506238 -5.64953659020609 -5.69946663783509 -5.69946625715393 -5.79929194248207 -5.74938524734463 -5.84918447422682 -5.7992924472272 -5.74938568588223 -5.79929243942749 -5.84918505040646 -5.84918505529828 -5.89906135262676 -5.94891889001173 -5.99875479112902 -5.94891889764888 -5.89906136452202 -5.89906069545592 -5.94891812817716 -5.99875392346176 -6.04856479511804 -5.99875480999625 -6.09834813667834 -6.09834696267663 -6.14809606890109 -6.19780709650353 -6.19780864985491 -6.14809741404117 -6.19780859635616 -6.24747600663736 -6.14809739304163 -6.09834810551502 -6.04856581316614 -6.04856580075086 -6.04856473473512 -6.09834689959848 -6.04856471417143 -6.04856469278476 -6.09834683549459 -6.09834684936186 -6.14809590104727 -6.24747398301274 -6.19780688462099 -6.19780690749578 -6.24747404060932 -6.14809593540715 -6.14809596807303 -6.24747409474815 -6.19780698857523 -6.29709073695529 -6.34664910515063 -6.34664901152361 -6.29709060039663 -6.29709056106497 -6.34664891100684 -6.3961403092541 -6.39614023916893 -6.44555430202941 -6.4948794509306 -6.49487957829354 -6.44555448325501 -6.396140549076 -6.49488001635312 -6.44555465188215 -6.4455581616254 -6.49488390935997 -6.445558283863 -6.39614343223473 -6.34665168460107 -6.29709288586045 -6.24747604344805 -6.34665175100815 -6.29709298081749 -6.24747426957064 -6.29709092802993 -6.34664941807882 -6.39614089648936 -6.39614360515771 -6.49488422960802 -6.49488065901929 -6.44555522549935 -6.54410377305402 -6.59320896254985 -6.59321369238297 -6.54410777946497 -6.54410755143238 -6.59321309204771 -6.64218377897134 -6.64218333935428 -6.69099680382499 -6.69099798785537 -6.64217842773913 -6.73962418507024 -6.69099146148357 -6.78815484582612 -6.78825841751367 -6.83634008697205 -6.8843565669296 -6.93184534246818 -6.88520496907211 -6.93289696002312 -6.93279393530677 -6.88509837768306 -6.83729007950827 -6.83729063921248 -6.73972716372678 -6.73972648259509 -6.78825615227407 -6.788151319232 -6.83624981760661 -6.83635752299846 -6.88426955978866 -6.93185324381884 -6.93185992048301 -6.88417359549166 -6.93174238048961 -6.88415013030345 -6.83622707202246 -6.78804292678758 -6.78804265086305 -6.6909873388643 -6.73961880679586 -6.64217527333552 -6.69098768323881 -6.73961961347802 -6.69098925408126 -6.73962062267695 -6.64217644763608 -6.64217585103881 -6.59320776674104 -6.54410270707118 -6.54410239226084 -6.59320693926269 -6.59320671327345 -6.54410206148733 -7.37494690847133 -7.41355539345359 -7.33483736165852 -7.33488422618964 -7.41361473234297 -7.37500060743234 -7.41361807622157 -7.37500205463272 -7.33488672517055 -7.29346552993432 -7.29346681936855 -7.25091699497364 -7.25091434788114 -7.29342391822304 -7.25087895315174 -7.20735101119289 -7.16297008945795 -7.16299559938999 -7.11784939817484 -7.0720943203094 -6.97898012501635 -7.02577234458865 -6.97907583091725 -7.07220823965569 -7.02597364433467 -7.02679374227683 -6.97989174446895 -7.07313435149173 -7.11808121745068 -7.11796959143813 -7.20738154795546 -7.16310701531674 -7.20738194568816 -7.16310200767895 -7.11795992489437 -7.11807539570496 -7.07311936277891 -7.02689699435983 -6.98000661962844 -7.0260723960568 -7.0721885446793 -6.9792824774234 -7.02577562698867 -6.97907297196117 -7.07209683376734 -7.11786012278502 -7.16299196285319 -7.16298169024313 -7.25088856769519 -7.20736145783211 -7.29343229981051 -7.25088850246839 -7.20737169989079 -7.2073711113607 -7.25088524822558 -7.29343011708548 -7.2934314130276 -7.33484238752848 -7.41356204776173 -7.37495352319593 -7.37495520347421 -7.33484519051737 -7.33484572669175 -7.37495648953916 -7.45044821499188 -7.41356649131642 -7.41356608721056 -7.48533907458456 -7.4853389141714 -7.51793623122093 -7.57479476890715 -7.54789227289462 -7.54789961704736 -7.51792945718108 -7.54878939917598 -7.51786823503595 -7.48526704959951 -7.45044789092084 -7.45044748039174 -7.45050039970852 -7.485325144448 -7.45049812009449 -7.45043713461164 -7.48525281771417 -7.48531955407074 -7.51784609239036 -7.5471253059296 -7.57413936364745 -7.54666313185404 -7.57100167390648 -7.56946190780415 -7.51733824799477 -7.51733986103832 -7.54831010676606 -7.59389912414424 -7.62348625608397 -7.60380779184245 -7.60668777174279 -7.62379487938835 -7.59337633208654 -7.59707708862255 -7.61717491501363 -7.63198796367667 -7.63015552186649 -7.64048962522088 -7.64444021328258 -7.64197971850412 -7.64419603996479 -7.63047602598421 -7.64412172559731 -7.64136954549321 -7.64072214928672 -7.64358884525644 -7.6300720849686 -7.57586055304673 -7.59846055048703 -7.57498131302794 -7.61833056359745 -7.61802243537311 -7.59811425222957 -7.59797757711351 -7.61738747191614 -7.63037331663191 -7.63111994247885 -7.64131853723714 -7.64454836538253 -7.64059172556775 
</DataArray>
</CellData>
</Piece>
</UnstructuredGrid>
</VTKFile>
