<?xml version="1.0"?>
<VTKFile type="UnstructuredGrid" version="0.1" byte_order="LittleEndian">
<UnstructuredGrid>
<Piece NumberOfPoints="570" NumberOfCells="968">
<Points>
<DataArray type="Float64" NumberOfComponents="3" format="ascii">
0 0 0 0 0.199999999999558 0 0.146410161514643 0.146410161514302 0 0.200000000000832 0 0 0 0.399999999998975 0 0.161493227956189 0.305461544702779 0 0.166115050745933 0.491422964488694 0 0.321175850119874 0.390561251754679 0 0.452046971099063 0.313775722297172 0 0.488902152079335 0.480182833362319 0 0.307726305780858 0.184345861302666 0 0.400000000001665 0 0 0.600000000002495 0 0 0.700000000002989 0.173205080757564 0 0.506641475208022 0.168637425096977 0 0.605287844253745 0.324818388466379 0 0.699999999978606 0.480384757712627 0 0.799999999979014 0.326794919243033 0 0.899999999978739 0.480384757713072 0 0.999999999979158 0.32679491924348 0 0.900000000003744 0.173205080757609 0 0.800000000003328 0 0 0.899999999998183 0.826794919243489 0 0.99999999997842 0.65358983847032 0 0.799999999978276 0.653589838469859 0 0.599999999978152 0.653589838469396 0 0.500105262798652 0.828782687940994 0 0.699999999998615 0.826794919243495 0 0.302985888731723 0.83439513050655 0 0.397961476484174 0.663879545519049 0 0.31024977577568 0.541876770366344 0 0.18250136059178 0.684907113579643 0 0 0.599999999998947 0 0.146410161513344 0.853589838486413 0 0 0.799999999999473 0 0 1 0 0.199999999999623 1 0 0.399999999999246 1 0 0.599999999998836 1 0 0.799999999998394 1 0 0.999999999997972 1 0 1.19999999999764 1 0 1.39999999999734 1 0 1.59999999999703 1 0 1.79999999999673 1 0 1.99999999999638 1 0 1.89999999999457 0.826794919240091 0 1.69999999999588 0.826794919243956 0 1.59999999997892 0.653589838471666 0 1.79996375451097 0.654015972399612 0 1.99990427347715 0.653933918540785 0 1.89976951723567 0.483875882968814 0 1.99881720977017 0.315897138893714 0 1.79999999997981 0.326829224301757 0 1.89467744402659 0.161414216173798 0 1.80000000000749 0 0 1.70000000000707 0.173205080757607 0 1.50000000000632 0.173205080757565 0 1.60000000000666 0 0 1.69999999997939 0.480384757714885 0 1.59999999998559 0.326798730913892 0 1.49999999997923 0.48038475771442 0 1.39999999998593 0.326795342759386 0 1.29999999997906 0.480384757713966 0 1.40000000000583 0 0 1.30000000000541 0.173205080757607 0 1.20000000000499 0 0 1.10000000000465 0.173205080757565 0 1.00000000000416 0 0 1.19999999998567 0.326794966297478 0 1.09999999997889 0.480384757713518 0 1.19999999997858 0.653589838470776 0 1.09999999999781 0.826794919243437 0 1.29999999999749 0.82679491924339 0 1.49999999999719 0.826794919243377 0 1.39999999997875 0.653589838471227 0 2.59999999997927 0.653589838473905 0 2.69999999999438 0.826794919243617 0 2.8999999999938 0.826794919243617 0 2.99999999997932 0.653589838474822 0 2.7999999999793 0.653589838474364 0 2.89999999997971 0.480384757717679 0 2.99999999998008 0.326794919248122 0 2.79999999998004 0.326794919247688 0 2.90000000001197 0.173205080757556 0 2.80000000001165 0 0 2.70000000001123 0.173205080757609 0 2.60000000001082 0 0 2.69999999997968 0.480384757717221 0 2.59991968707169 0.326649844303302 0 2.49999999997965 0.480384757716762 0 2.39927718374402 0.325489244791284 0 2.29940860487266 0.483873901626366 0 2.40000000000998 0 0 2.49984505286392 0.167861385366196 0 2.29940860489605 0.165793056170904 0 2.20000000000916 0 0 2.09862007808377 0.15808197125514 0 2.00000000000832 0 0 2.19467744401739 0.318966729862664 0 2.09920417199692 0.483093795650007 0 2.19993428941465 0.653977521131915 0 2.39999999997924 0.653589838473444 0 2.49999999999102 0.826794919240213 0 2.29999999999147 0.826794919240099 0 2.09999999999211 0.826794919240002 0 2.19999999999584 1 0 2.39999999999526 1 0 2.59999999999468 1 0 2.79999999999409 1 0 2.99999999999351 1 0 3.19999999999293 1 0 3.39999999999234 1 0 3.59999999999176 1 0 3.79999999999118 1 0 3.99999999999059 1 0 3.89999999999089 0.826794919243617 0 3.99999999997947 0.653589838477122 0 3.79999999997944 0.653589838476661 0 3.59999999997941 0.653589838476202 0 3.69999999999147 0.826794919243617 0 3.29999999999263 0.826794919243617 0 3.49999999999205 0.826794919243618 0 3.39999999997938 0.65358983847574 0 3.19999999997935 0.653589838475281 0 3.09999999999322 0.82679491924362 0 3.20000000001331 0 0 3.00000000001248 0 0 3.1000000000129 0.173205080757609 0 3.09999999997974 0.480384757718137 0 3.19999999998011 0.326794919248667 0 3.29999999997977 0.480384757718598 0 3.4999999999798 0.480384757719058 0 3.39999999998013 0.326794919249166 0 3.30000000001383 0.173205080757557 0 3.40000000001415 0 0 3.60000000001498 0 0 3.50000000001456 0.173205080757607 0 3.70000000001549 0.173205080757555 0 3.59999999998016 0.326794919249649 0 3.69999999997983 0.480384757719518 0 3.7999999999802 0.326794919250145 0 3.99999999998022 0.326794919250634 0 3.89999999997986 0.480384757719978 0 3.80000000001581 0 0 3.90000000001623 0.173205080757609 0 4.00000000001664 0 0 4.20000000001748 0 0 4.10000000001697 0.173205080757556 0 4.09999999997989 0.480384757720439 0 4.19999999998026 0.326794919251066 0 4.29999999997992 0.480384757720903 0 4.49999999997994 0.480384757721369 0 4.39999999998029 0.326794919251619 0 4.40000000001831 0 0 4.30000000001789 0.173205080757607 0 4.0999999999903 0.826794919243617 0 4.19999999998221 0.653589838479851 0 4.39999999998208 0.653589838480199 0 4.29999999998971 0.826794919243625 0 4.49999999998914 0.826794919243617 0 4.69999999998856 0.826794919243627 0 4.59999999998196 0.653589838480548 0 4.99999999998171 0.653589838481231 0 4.79999999998184 0.653589838480891 0 4.89999999998797 0.826794919243617 0 4.70000000001956 0.173205080757609 0 4.60000000001914 0 0 4.50000000001863 0.173205080757555 0 4.59999999998031 0.326794919252055 0 4.69999999997997 0.480384757721832 0 4.79999999998032 0.326794919252607 0 4.89999999998 0.480384757722284 0 4.99999999998037 0.326794919253095 0 4.90000000002048 0.173205080757554 0 4.80000000001997 0 0 5.0000000000208 0 0 5.10000000002122 0.173205080757607 0 5.20000000002164 0 0 5.30000000002196 0.173205080757554 0 5.40000000002247 0 0 5.49999999998009 0.480384757723655 0 5.39999999998042 0.32679491925402 0 5.29999999998006 0.480384757723202 0 5.19999999998041 0.32679491925358 0 5.09999999998003 0.480384757722739 0 5.19999999998159 0.653589838481573 0 5.09999999998738 0.826794919243621 0 5.29999999998681 0.826794919243617 0 5.49999999998621 0.826794919243633 0 5.39999999998145 0.653589838481903 0 5.59999999998118 0.653589838482109 0 5.69999999998449 0.826794919242383 0 5.89999999998505 0.826794919243612 0 5.79999999998125 0.653589838482601 0 5.99999999998109 0.653589838482929 0 5.89999999998015 0.480384757724548 0 5.79999999998046 0.326794919254995 0 5.99999999998052 0.326794919255529 0 5.90000000002455 0.173205080757608 0 5.80000000002413 0 0 5.70000000002362 0.173205080757558 0 5.6000000000233 0 0 5.50000000002288 0.173205080757608 0 5.59999999998045 0.32679491925456 0 5.69999999998011 0.480384757724105 0 5.99999999998476 1 0 5.79999999998535 1 0 5.59999999998593 1 0 5.39999999998651 1 0 5.1999999999871 1 0 4.79999999998826 1 0 4.99999999998768 1 0 4.59999999998885 1 0 4.39999999998943 1 0 4.19999999999001 1 0 7.99999999997911 1 0 7.79999999997952 1 0 7.8999999999796 0.826794919242969 0 7.99999999997967 0.653589838485872 0 7.79999999997985 0.653589838485708 0 7.59999999998004 0.653832425489461 0 7.5999999999801 1 0 7.69999999997987 0.826794919243148 0 7.80000000003245 0 0 7.89833533231231 0.159153776946481 0 7.79645162934511 0.316140149424588 0 7.99428318062892 0.319962337916783 0 7.89889995640994 0.483443222557347 0 7.69999999998024 0.482568040765242 0 7.59999999998064 0.326829224301858 0 7.69428318064084 0.162409824225203 0 7.50000000003121 0.173205080757609 0 7.60000000003162 0 0 7.40000000003079 0 0 7.30000000003047 0.173205080757555 0 7.39999999999173 0.326798730923102 0 7.49999999998032 0.480384757728063 0 7.29999999998032 0.480384757727631 0 7.0999999999803 0.480384757727202 0 7.19999999998065 0.326794919258435 0 7.10000000002954 0.173205080757608 0 7.00000000002913 0 0 7.20000000002996 0 0 7.29999999998075 0.826794919243018 0 7.39999999998068 1 0 7.49999999998028 0.826794919242988 0 7.39999999998017 0.653616792596627 0 7.19999999998034 0.653592833386099 0 7.09999999998123 0.82679491924293 0 7.19999999998127 1 0 6.99999999998185 1 0 6.79999999998243 1 0 6.89999999998214 0.826794919243617 0 6.99999999998044 0.653589838484526 0 6.7999999999806 0.653589838484268 0 6.59999999998073 0.65358983848395 0 6.59999999998302 1 0 6.69999999998272 0.826794919243633 0 6.8000000000283 0 0 6.90000000002861 0.173205080757565 0 6.7999999999806 0.326794919257481 0 6.9999999999806 0.326794919257912 0 6.89999999998028 0.480384757726783 0 6.69999999998025 0.480384757726355 0 6.59999999998057 0.326794919257011 0 6.70000000002787 0.173205080757607 0 6.50000000002713 0.173205080757552 0 6.60000000002746 0 0 6.40000000002663 0 0 6.30000000002622 0.173205080757608 0 6.39999999998056 0.326794919256525 0 6.49999999998023 0.480384757725918 0 6.2999999999802 0.480384757725469 0 6.09999999998018 0.480384757725009 0 6.19999999998054 0.326794919256036 0 6.10000000002548 0.173205080757557 0 6.00000000002496 0 0 6.2000000000258 0 0 6.29999999998389 0.826794919243609 0 6.3999999999836 1 0 6.49999999998331 0.826794919243617 0 6.39999999998085 0.653589838483615 0 6.19999999998097 0.653589838483274 0 6.09999999998447 0.826794919243617 0 6.19999999998418 1 0 15.1999999999967 0 0 15.0999999999958 0.173205080758772 0 15.1999999999948 0.346410161518566 0 15.3999286049735 0.345943693538518 0 15.4999999999974 0.173205080759918 0 15.2999999999966 0.173205080759903 0 15.3999999999975 0 0 15.5999999999983 0 0 15.6970055908713 0.165595326855222 0 15.7999999999992 0 0 15.8535898384854 0.14641016151462 0 16 0.200000000000832 0 16 0 0 16 0.400000000001664 0 15.8174986394052 0.315092886420472 0 15.6897502242161 0.458123229624088 0 15.6019618399576 0.336034570707542 0 15.5104790910397 0.519510680695851 0 15.5479530288792 0.6862242
[...]
<CellData Scalars="pressure_p0," Vectors="" Tensors="">
<DataArray type="Float64" Name="pressure_p0" format="ascii">
-0.0976253538623921 -0.230988606605205 -0.205274310220908 -0.41043412032119 -0.436126143793428 -0.218403547806705 -0.110742931364005 -0.107659772869441 -0.432531786375805 -0.746910643454246 -0.531717951080484 -0.720681138309145 -0.526953610408536 -0.841454587829865 -0.605218990390276 -0.844339330856277 -0.80964917323599 -1.20450210283804 -1.00449953811126 -1.40007513108026 -1.20802784003564 -1.04270781855272 -1.03088539905126 -1.1961988238624 -1.40358750580081 -1.40359454167616 -1.60006080200306 -1.80005865492613 -2.00005422668628 -1.80006106413838 -2.0000569496633 -1.80006318384513 -1.60006869770646 -1.6000679213722 -1.60005518646476 -1.60005570440734 -1.80005316011618 -2.00005072372695 -2.00005093790104 -1.8000534424792 -1.80005431104004 -2.00005265672225 -1.60005694193611 -1.40005651261672 -1.4000555774916 -1.19266644430651 -1.20012942772494 -1.40005886672682 -1.00013589923506 -1.20013172757964 -0.802126325695333 -0.800760774812763 -0.602062812202746 -0.991304963977042 -0.798113549891984 -0.998771561055473 -0.589029376756481 -0.593858699198818 -0.439270148266347 -0.121661639139226 -0.232407678003841 -0.432979035544261 -0.42130871354099 -0.219286884384917 -0.230991418474171 -0.0976309011718224 -4.00002731007048 -3.80002935631766 -3.9999637335699 -3.60000749553318 -3.60003152451606 -3.4000337029018 -3.20003610245748 -3.20003600822393 -3.20003686164444 -3.40000974600081 -3.40001011599655 -3.59985518486203 -3.79994181266014 -3.79978866542723 -3.99928128645164 -3.79909307109455 -3.99855821563835 -3.79569862754077 -3.59988224069879 -3.79648152307173 -3.99556171647025 -3.99477490576925 -3.59648659678577 -3.59648164509508 -3.4000281600765 -3.2000358665677 -3.20003388488653 -3.00003763270346 -3.40003614523105 -3.40003496222049 -3.20003733766543 -2.80004184955614 -3.00003928734903 -3.00003890462621 -2.60004506473955 -2.6000448250905 -2.80004150942337 -2.80004177935336 -2.60004522347754 -2.40004906424319 -2.40004874633311 -2.20005336123966 -2.00005777821153 -2.40004771462916 -2.20005229644105 -2.20005136688565 -2.20004944842723 -2.40004704639498 -2.20004876193905 -2.20004818757757 -2.40004577108369 -2.4000460192136 -2.60004323009466 -2.80004081552949 -3.00003834755219 -2.80004099700511 -3.0000386552942 -2.8000415972002 -3.00003899512907 -2.60004405511338 -2.60004364828088 -5.40001401816427 -5.40001376077708 -5.20001488475397 -5.20001564222197 -5.20001575029112 -5.4000142396331 -5.60001273292019 -5.6000128103677 -5.80001153349513 -6.00001032494217 -6.00001029986012 -5.80001144518478 -5.6000124608636 -5.80001137112285 -6.00001027568661 -6.00001031991992 -5.80001143430205 -5.80001168190895 -5.60001233067587 -5.80001241693451 -5.60001301209085 -5.60001404787203 -5.40001684897716 -5.19985836829647 -5.19991535486985 -5.39995971449923 -5.39995983374062 -5.19996057033648 -4.79913993755639 -4.99947964013001 -4.99937784787986 -4.59560071880059 -4.59559784655117 -4.79952566184424 -4.99991826173714 -4.79904122079377 -4.59963241497344 -4.39871461800531 -4.39516726381819 -4.19910778811778 -4.39555372114896 -4.19516237887735 -4.19477343070967 -4.19938826695386 -4.199917999576 -4.39905545667202 -4.59958339779803 -4.59997748105607 -5.00001724584946 -5.00001694899228 -4.7996243127857 -4.80001925661976 -5.00001745664348 -4.8000192400016 -4.60002117255843 -4.40002319323572 -4.399979551965 -4.20002519447703 -7.80000151827567 -8.00000059492213 -8.00000059677637 -7.60000243419505 -7.60000243105787 -7.80000152749993 -8.00000060321762 -7.80000152301052 -7.60000244571422 -7.40000335516465 -7.40000334739139 -7.20000428023384 -7.40000333957528 -7.20000426065608 -7.20000425592064 -6.8000061363534 -7.00000518387722 -6.60000711595023 -6.80000614160368 -7.00000519500521 -7.00000520729055 -6.80000617117399 -6.60000714088664 -6.60000712582772 -6.40000816566333 -6.20000919258502 -6.20000919096293 -6.2000092029725 -6.4000081355235 -6.4000081349888 -6.40000832938783 -6.40000839812112 -6.20000959897221 -6.00001085442414 -6.00001062064978 -6.20000939765574 -6.20000929272871 -6.40000820664638 -6.6000072470144 -6.60000720343196 -6.80000619508332 -7.00000524163398 -7.00000526101452 -6.80000624839278 -6.60000731572867 -6.8000062733707 -7.20000432851881 -7.00000528866527 -7.20000431807989 -7.40000339517871 -7.20000429321487 -7.40000338293213 -7.40000337372077 -7.60000245297021 -7.80000154248582 -7.80000153789271 -8.00000060778077 -7.60000246969524 -7.60000246521189 -7.80000154787802 -8.19999966485593 -8.00000061550642 -8.3999986828768 -8.3999986832773 -8.00000061402449 -8.19999966306253 -8.19999966070183 -8.39999868002634 -8.59999765966658 -8.59999765843458 -8.79999658036051 -8.99999543446409 -8.99999543510135 -8.79999658206224 -8.79999658018778 -8.59999765919644 -8.39999867192575 -8.19999964909593 -8.39999867296403 -8.19999965178124 -8.19999965426806 -8.39999867647158 -8.59999765364913 -8.99999543002295 -8.79999657684072 -8.9999954293209 -8.59999765230577 -8.79999657497373 -8.99999542855187 -8.79999657441495 -8.59999765083893 -9.39999286937254 -9.19999419903385 -9.19999419931558 -9.39999286973064 -9.19999420025798 -9.39999287006035 -9.59999142251063 -9.99998809308858 -9.79998983734664 -9.79998983726897 -9.5999914221333 -9.99998809315391 -9.9999880931818 -9.79998983719113 -9.59999142202419 -9.39999287140397 -9.1999942019399 -8.99999543288821 -9.19999420521169 -9.19999420435124 -9.39999287494111 -9.39999287524312 -9.59999142761976 -9.799989843191 -9.99998809958919 -9.7999898432683 -9.59999142797202 -9.59999142318556 -9.79998983766881 -10.1999861648292 -9.9999880929799 -9.99998809954593 -10.3999840351223 -10.3999840263659 -10.59998164731 -10.799979005943 -10.7999789944094 -10.7999790071447 -10.9999760443371 -10.9999760434265 -10.5999816576236 -10.5999816580455 -10.3999840356177 -10.1999861725169 -10.1999861726508 -10.1999861654656 -10.1999861656254 -10.3999840273722 -10.1999861658137 -10.3999840279457 -10.3999840281315 -10.5999816502966 -10.7999789981829 -10.9999760360506 -10.799978998613 -10.5999816492572 -10.5999816497429 -10.999976034884 -10.799978996815 -10.999976033847 -11.1999727166329 -11.3999690029298 -11.3999690008882 -11.1999727202725 -11.1999727194104 -11.3999690052104 -11.5999648374193 -11.5999648357653 -11.9999549008809 -11.7999601595997 -11.9999549039827 -11.5999648303758 -11.7999601552653 -11.9999548906375 -11.7999601513568 -11.7999601638947 -11.9999549080279 -11.5999648455636 -11.7999601603934 -11.7999601354412 -11.5999648208233 -11.5999648407544 -11.3999689926411 -11.1999727117333 -10.999976029677 -11.1999727268715 -11.1999727293308 -11.3999690128539 -11.3999690110459 -15.7995609025606 -15.9995058263077 -15.5996099504089 -15.5996101081144 -15.9995059163922 -15.7995612260414 -15.9983505114696 -15.7988290768926 -15.5988786816163 -15.3996537141926 -15.3996538665021 -15.1996931078221 -15.1996922775509 -15.1996921902569 -15.3996534657812 -15.5946940611275 -15.7984546105523 -15.9978036474853 -15.9939949989715 -15.5923324711863 -15.7922838985933 -15.7926595031298 -15.9945433942785 -15.5965176616858 -15.397295341902 -15.199695404837 -14.9997266934345 -15.3934857550765 -15.195884551757 -14.9997204541828 -15.1958802806414 -15.3958444387545 -14.5997819046022 -14.7997538589018 -14.7997558387614 -14.5997834485081 -14.7997575654073 -14.9997279152505 -14.5997840572582 -14.3998082196835 -14.1998295552232 -14.1998292993949 -14.3998074967896 -13.9998484603025 -13.999848233771 -14.1998287790688 -14.3998069331603 -14.5997842925081 -14.7997571257072 -14.9997265599191 -14.799757136588 -14.9997266512982 -14.7997573553757 -14.9997268376701 -14.5997843326297 -14.5997843014495 -14.3998083123211 -14.1998297984801 -14.1998298637957 -14.3998084290696 -14.3998084419031 -14.1998299176495 -13.9998490020741 -13.7998659865554 -13.5998810777072 -13.5998810528139 -13.9998489739501 -13.7998659286353 -13.7998658658215 -13.9998488265907 -13.5998809489259 -13.3998944680475 -13.3998944264721 -13.1999063649468 -13.1999064273549 -13.19990644418 -13.399894509698 -13.599880673902 -13.7998654004731 -13.5998807927157 -13.7998656298258 -13.7998657418459 -13.9998487702451 -13.5998809347281 -13.3998943761114 -13.1999063726078 -13.3998943237636 -13.1999063037056 -13.1999062301471 -12.999916900435 -13.3998942007653 -12.599934810367 -12.7999263876553 -12.7999264376734 -12.5999348599832 -12.9999169754412 -12.9999170011836 -12.7999264723823 -12.5999348730503 -12.3999423533784 -12.1999489948959 -12.1999489881517 -12.3999423355262 -11.9999548987602 -11.9999548722658 -12.1999489535649 -12.3999422996748 -12.5999348972218 -12.9999170642393 -12.7999265012176 -12.7999264911373 -12.9999170385913 -12.799926456003 -12.9999170142052 -12.5999348689773 -12.5999348825499 -12.3999423349722 -12.1999489840748 -12.1999489914246 -12.3999423541277 -12.3999423598142 -12.1999489994964 -29.2605299878245 -29.2605313529094 -29.1608712751126 -29.0529906263833 -29.0529893063877 -29.1608703895795 -29.1608713018497 -29.2603306225021 -29.3513041762806 -29.3511365658214 -29.4349619919911 -29.4326088596455 -29.351330681507 -29.4325873588648 -29.5035502269338 -29.5629370711567 -29.5632766890618 -29.6111816777594 -29.642542021536 -29.6443086912307 -29.6681004638192 -29.6755897437159 -29.6664589821223 -29.6667140087657 -29.6733461835234 -29.6418355760403 -29.6134221760649 -29.612681377317 -29.5040380060011 -29.5063169859905 -29.5641361619681 -29.5526712597466 -29.626742279548 -29.5848755054574 -29.5775611580808 -29.6259951619442 -29.6427548609974 -29.6747221230444 -29.6745740521254 -29.6682076824141 -29.6661753721102 -29.6752929895861 -29.6696214753507 -29.6463666716068 -29.6419929665955 -29.6106608310245 -29.5513132303943 -29.5606572115534 -29.5018356217237 -29.4305638079618 -29.3511043691917 -29.4293897533704 -29.493802988878 -29.4897793680817 -29.4337430000085 -29.3497651959605 -29.3497779412379 -29.2605660572948 -29.16110150025 -29.1610991641275 -29.1608564894417 -29.2603104313521 -29.2605640690185 -28.8151547716435 -28.8149229860355 -28.9374685607944 -29.0529642606873 -29.0532225297124 -28.9377154626809 -29.0532282070695 -28.9377185650738 -28.815161507812 -28.6860761405183 -28.6860798965735 -28.5509820805587 -28.5509740348443 -28.685859620244 -28.5507764838036 -28.2643833307152 -28.4101394392913 -28.2645450156233 -28.1139200297174 -27.9591491091063 -27.9595950721793 -27.6383317087508 -27.6379780234792 -27.8003652003122 -27.8039438145094 -27.6411835704687 -27.8011020329042 -27.9627534997975 -28.1147573419693 -28.1143944945858 -28.4103182706547 -28.4103169432915 -28.2649066463097 -28.2648273282301 -28.1142810488523 -28.1146860795708 -27.9626661574698 -27.8013837065236 -27.8042603022871 -27.6415557937485 -27.8003468654198 -27.6382594099454 -27.639004898832 -27.9594551744248 -27.9591371097386 -28.1139431315981 -28.2644518658357 -28.2644167297985 -28.5508081213215 -28.4101716606329 -28.6858864987751 -28.5508085070146 -28.4102076377426 -28.5507976929263 -28.410208333065 -28.6858792178846 -28.6858837182077 -28.8149368576815 -29.0529761833501 -28.9374842827073 -28.9374899851939 -28.9374943400538 -28.8149486183414 -28.8149468461724 -26.2385239450889 -26.2384651513767 -26.0542761076442 -26.0543303989895 -26.0543315085251 -26.2385270192395 -26.4210823399069 -26.4210849095834 -26.6018509870893 -26.6018435760529 -26.4210177447074 -26.7805697075709 -26.6017759524731 -26.9575884865882 -26.957997307685 -27.1318657740662 -27.3039459427896 -27.3070014250086 -27.4724539031501 -27.475856241457 -27.4761992985741 -27.3066531615749 -27.135338176515 -27.1353184049389 -26.7809843088331 -26.9580140814775 -26.780991266414 -26.9576169195337 -27.1315906247173 -27.1319873594824 -27.3036962419061 -27.4725574545074 -27.4725523885628 -27.4721369450715 -27.3033444952884 -27.3032550537505 -27.1315061018569 -26.957229434805 -26.9572265613533 -26.7805863027289 -26.6017917848033 -26.4210300202419 -26.6017922711043 -26.7805889582232 -26.7805909227668 -26.6017886913024 -26.4210277740443 -26.4210293103118 -26.2384710357008 -26.0542808844861 -26.0542818407262 -26.0542826634366 -26.2384740012424 -26.2384736194852 -25.4932916111974 -25.4932917696252 -25.6815635541803 -25.8686012200413 -25.8686009020138 -25.6815631006035 -25.6815626637882 -25.8685996493772 -25.493291110758 -25.3038979479353 -25.3038977927022 -25.1134848734076 -25.1134849965609 -25.3038981303412 -25.1134850506946 -24.9221463553725 -24.729967645575 -24.7299676455069 -24.5370271014013 -24.3433960257226 -24.3433960500082 -24.1491393764109 -24.1491395069901 -24.1491394389954 -24.3433961753678 -24.5370271804973 -24.5370271359322 -24.9221463201963 -24.7299676982302 -24.9221463028404 -24.9221762074201 -24.7299948609846 -24.5370518662044 -24.5370518860328 -24.343418525638 -24.1491598451403 -24.1491598352284 -23.954316618159 -24.1491395876997 -23.954334910487 -24.3434185270191 -24.3433961868739 -24.5370271325919 -24.7299947782362 -24.7299675442867 -25.1134843624254 -24.922145964462 -25.3038968401293 -25.1135175052769 -24.9221761218891 -25.1135177689838 -25.3039337974496 -25.3039335739842 -25.4933307684713 -25.8686471291964 -25.6816056718105 -25.6816051636354 -25.8686457165154 -25.8685968852759 -25.6815604504467 -25.4932898595159 -25.4933301293714 -22.3808864245417 -22.3808783525328 -22.1828751043924 -21.9846679224093 -21.9846744723492 -22.182882383804 -22.1828823645303 -22.3808863829863 -22.5786641982558 -22.5786641761111 -22.9734393303714 -22.7761909037009 -22.7761909508297 -22.5786552344273 -22.77618102013 -23.1703670389491 -22.9734283357075 -23.1703792346589 -23.3669638011008 -23.5631819696482 -23.5631969196682 -23.7589810613246 -23.7589976043065 -23.9543348731436 -23.7589976261552 -23.563196869968 -23.3669772981241 -23.3669773232877 -22.9734393548601 -23.1703791837812 -23.1703669326694 -23.3669635927842 -23.3669636615222 -23.5631818646982 -23.7589808593012 -23.9543165365838 -23.7589809319655 -23.9543163566803 -23.7589807895287 -23.9543163897363 -23.5631817204947 -23.5631816863063 -23.3669635256031 -23.1703668014706 -23.1703667696032 -22.776180779256 -22.9734280814932 -22.5786550106417 -22.7761808074737 -22.9734281419985 -22.9734282033589 -22.7761809221625 -22.5786551162787 -22.5786550632176 -22.3808782663696 -22.1828750022898 -22.1828749572621 -22.1828749125215 -22.3808781441226 -22.3808781684032 -21.5877207018112 -21.5877206846092 -21.7862768888533 -21.984667745519 -21.9846677660603 -21.7862769264492 -21.9846678485711 -21.7862769642179 -21.5877207707007 -21.3890157019909 -21.3890157334574 -21.1901768869065 -21.1901768296511 -21.3890156706292 -21.1901768153202 -20.9912176005969 -20.7921502177037 -20.7921502296437 -20.5929856362245 -20.3937337669547 -20.3937337769842 -20.1944035188984 -20.1944035557259 -20.1944035373314 -20.3937338167837 -20.5929856797982 -20.592985658004 -20.991217626687 -20.9912176528355 -20.7921502772192 -20.7921537654938 -20.5929888462179 -20.5929888363573 -20.3937366304655 -20.1944061096635 -20.1944061010633 -20.1944036002003 -19.9950030106457 -19.9950052602992 -20.3937366486908 -20.3937338543402 -20.5929857312371 -20.7921537868053 -20.7921503212147 -21.1901769392396 -20.9912177138011 -21.3890158062209 -21.1901812307702 -20.9912215742781 -21.1901812054467 -20.9912215626447 -21.3890205693312 -21.3890205831716 -21.587726108978 -21.9846744366857 -21.7862829360886 -21.7862829525125 -21.786277050837 -21.5877208330671 -21.5877261391306 -18.3979990977297 -18.3979981828607 -18.1982162920285 -17.9984109762689 -17.9984116673043 -18.1982170739157 -18.1982170373746 -18.3979990510743 -18.5977549304024 -18.5977549123805 -18.7974815037575 -18.7974815297523 -18.5977539066299 -18.7974803715824 -19.1968314365266 -18.9971741549892 -19.1968328865261 -19.3964479648937 -19.5960190117879 -19.5960208198766 -19.7955393098056 -19.9950052440342 -19.7955413199155 -19.7955413279285 -19.5960208039903 -19.3964495756798 -19.396449584168 -18.9971754490349 -19.1968328683226 -18.9971754380474 -19.1968313999192 -19.3964479084302 -19.3964479231741 -19.5960189794138 -19.7955392530855 -19.9950029772534 -19.7955392690875 -19.9950029346907 -19.7955392369892 -19.9950029433034 -19.5960189492114 -19.5960189414926 -19.3964478935852 -19.1968313710248 -19.1968313636799 -18.9971740744746 -18.797480282947 -18.5977537985421 -18.7974802901425 -18.9971740890636 -18.7974803203206 -18.9971741038065 -18.5977538283556 -18.597753812783 -18.397998092925 -18.198216144417 -18.1982161304143 -18.1982161214007 -18.3979980549212 -18.3979980607241 -17.5987393870572 -17.5987394132568 -17.9984107625837 -17.7985844543733 -17.9984107608841 -17.7985844385966 -17.7985844350082 -17.9984107847707 -17.5987393488832 -17.398877564478 -17.3988774870513 -17.1990005841963 -17.1990008556749 -17.3988776534697 -17.199000929978 -16.7992089549396 -16.9991109124249 -16.7992088572423 -16.5992964338404 -16.3993743955689 -16.3993743591428 -16.1994439000822 -16.1990210172461 -16.1994439369523 -16.3989505912239 -16.5992960203908 -16.5992962512823 -16.9991107042324 -16.9991104599044 -16.7992081514516 -16.7992077392639 -16.5987063591185 -16.5988240565829 -16.3984778927312 -16.1945693837538 -16.1947417570966 -16.1988506242099 -16.3981879676864 -16.3986605676149 -16.5991812142823 -16.7990895314379 -16.7990926227569 -17.1990019189231 -16.999113153297 -17.3988783532227 -17.199001416165 -16.9991102040374 -16.9991102833049 -17.1990009208073 -17.3988780378121 -17.3988782265812 -17.5987399732355 -17.7985851803734 -17.9984115663676 -17.7985852656186 -17.7985847665368 -17.5987398242689 -17.5987402158525 
</DataArray>
</CellData>
</Piece>
</UnstructuredGrid>
</VTKFile>
