<?xml version="1.0"?>
<VTKFile type="UnstructuredGrid" version="0.1" byte_order="LittleEndian">
<UnstructuredGrid>
<Piece NumberOfPoints="714" NumberOfCells="1306">
<Points>
<DataArray type="Float64" NumberOfComponents="3" format="ascii">
0.000000000000000e+00 0.000000000000000e+00 0.000000000000000e+00 5.000000000000000e+00 0.000000000000000e+00 0.000000000000000e+00 5.000000000000000e+00 1.000000000000000e+00 0.000000000000000e+00 0.000000000000000e+00 1.000000000000000e+00 0.000000000000000e+00 9.999999999992801e-02 0.000000000000000e+00 0.000000000000000e+00 1.999999999998339e-01 0.000000000000000e+00 0.000000000000000e+00 2.999999999997341e-01 0.000000000000000e+00 0.000000000000000e+00 3.999999999996643e-01 0.000000000000000e+00 0.000000000000000e+00 4.999999999995944e-01 0.000000000000000e+00 0.000000000000000e+00 5.999999999995166e-01 0.000000000000000e+00 0.000000000000000e+00 6.999999999992880e-01 0.000000000000000e+00 0.000000000000000e+00 7.999999999989961e-01 0.000000000000000e+00 0.000000000000000e+00 8.999999999987042e-01 0.000000000000000e+00 0.000000000000000e+00 9.999999999984124e-01 0.000000000000000e+00 0.000000000000000e+00 1.099999999998120e+00 0.000000000000000e+00 0.000000000000000e+00 1.199999999997829e+00 0.000000000000000e+00 0.000000000000000e+00 1.299999999997537e+00 0.000000000000000e+00 0.000000000000000e+00 1.399999999997245e+00 0.000000000000000e+00 0.000000000000000e+00 1.499999999996953e+00 0.000000000000000e+00 0.000000000000000e+00 1.599999999996661e+00 0.000000000000000e+00 0.000000000000000e+00 1.699999999996369e+00 0.000000000000000e+00 0.000000000000000e+00 1.799999999996077e+00 0.000000000000000e+00 0.000000000000000e+00 1.899999999995785e+00 0.000000000000000e+00 0.000000000000000e+00 1.999999999995511e+00 0.000000000000000e+00 0.000000000000000e+00 2.099999999995593e+00 0.000000000000000e+00 0.000000000000000e+00 2.199999999995745e+00 0.000000000000000e+00 0.000000000000000e+00 2.299999999995897e+00 0.000000000000000e+00 0.000000000000000e+00 2.399999999996049e+00 0.000000000000000e+00 0.000000000000000e+00 2.499999999996201e+00 0.000000000000000e+00 0.000000000000000e+00 2.599999999996353e+00 0.000000000000000e+00 0.000000000000000e+00 2.699999999996505e+00 0.000000000000000e+00 0.000000000000000e+00 2.799999999996657e+00 0.000000000000000e+00 0.000000000000000e+00 2.899999999996809e+00 0.000000000000000e+00 0.000000000000000e+00 2.999999999996961e+00 0.000000000000000e+00 0.000000000000000e+00 3.099999999997114e+00 0.000000000000000e+00 0.000000000000000e+00 3.199999999997265e+00 0.000000000000000e+00 0.000000000000000e+00 3.299999999997417e+00 0.000000000000000e+00 0.000000000000000e+00 3.399999999997569e+00 0.000000000000000e+00 0.000000000000000e+00 3.499999999997721e+00 0.000000000000000e+00 0.000000000000000e+00 3.599999999997873e+00 0.000000000000000e+00 0.000000000000000e+00 3.699999999998025e+00 0.000000000000000e+00 0.000000000000000e+00 3.799999999998176e+00 0.000000000000000e+00 0.000000000000000e+00 3.899999999998329e+00 0.000000000000000e+00 0.000000000000000e+00 3.999999999998481e+00 0.000000000000000e+00 0.000000000000000e+00 4.099999999998633e+00 0.000000000000000e+00 0.000000000000000e+00 4.199999999998784e+00 0.000000000000000e+00 0.000000000000000e+00 4.299999999998937e+00 0.000000000000000e+00 0.000000000000000e+00 4.399999999999088e+00 0.000000000000000e+00 0.000000000000000e+00 4.499999999999240e+00 0.000000000000000e+00 0.000000000000000e+00 4.599999999999393e+00 0.000000000000000e+00 0.000000000000000e+00 4.699999999999545e+00 0.000000000000000e+00 0.000000000000000e+00 4.799999999999696e+00 0.000000000000000e+00 0.000000000000000e+00 4.899999999999848e+00 0.000000000000000e+00 0.000000000000000e+00 5.000000000000000e+00 9.999999999981467e-02 0.000000000000000e+00 5.000000000000000e+00 1.999999999995579e-01 0.000000000000000e+00 5.000000000000000e+00 2.999999999992664e-01 0.000000000000000e+00 5.000000000000000e+00 3.999999999989749e-01 0.000000000000000e+00 5.000000000000000e+00 4.999999999986943e-01 0.000000000000000e+00 5.000000000000000e+00 5.999999999989468e-01 0.000000000000000e+00 5.000000000000000e+00 6.999999999992100e-01 0.000000000000000e+00 5.000000000000000e+00 7.999999999994734e-01 0.000000000000000e+00 5.000000000000000e+00 8.999999999997368e-01 0.000000000000000e+00 4.899999999999999e+00 1.000000000000000e+00 0.000000000000000e+00 4.800000000000000e+00 1.000000000000000e+00 0.000000000000000e+00 4.699999999999999e+00 1.000000000000000e+00 0.000000000000000e+00 4.600000000000000e+00 1.000000000000000e+00 0.000000000000000e+00 4.499999999999999e+00 1.000000000000000e+00 0.000000000000000e+00 4.399999999999999e+00 1.000000000000000e+00 0.000000000000000e+00 4.299999999999999e+00 1.000000000000000e+00 0.000000000000000e+00 4.199999999999998e+00 1.000000000000000e+00 0.000000000000000e+00 4.099999999999999e+00 1.000000000000000e+00 0.000000000000000e+00 3.999999999999999e+00 1.000000000000000e+00 0.000000000000000e+00 3.899999999999999e+00 1.000000000000000e+00 0.000000000000000e+00 3.799999999999999e+00 1.000000000000000e+00 0.000000000000000e+00 3.699999999999998e+00 1.000000000000000e+00 0.000000000000000e+00 3.599999999999999e+00 1.000000000000000e+00 0.000000000000000e+00 3.499999999999999e+00 1.000000000000000e+00 0.000000000000000e+00 3.399999999999999e+00 1.000000000000000e+00 0.000000000000000e+00 3.299999999999999e+00 1.000000000000000e+00 0.000000000000000e+00 3.199999999999998e+00 1.000000000000000e+00 0.000000000000000e+00 3.099999999999999e+00 1.000000000000000e+00 0.000000000000000e+00 2.999999999999999e+00 1.000000000000000e+00 0.000000000000000e+00 2.899999999999999e+00 1.000000000000000e+00 0.000000000000000e+00 2.799999999999999e+00 1.000000000000000e+00 0.000000000000000e+00 2.699999999999999e+00 1.000000000000000e+00 0.000000000000000e+00 2.599999999999999e+00 1.000000000000000e+00 0.000000000000000e+00 2.500000000000000e+00 1.000000000000000e+00 0.000000000000000e+00 2.399999999999999e+00 1.000000000000000e+00 0.000000000000000e+00 2.299999999999999e+00 1.000000000000000e+00 0.000000000000000e+00 2.199999999999999e+00 1.000000000000000e+00 0.000000000000000e+00 2.100000000000000e+00 1.000000000000000e+00 0.000000000000000e+00 2.000000000000000e+00 1.000000000000000e+00 0.000000000000000e+00 1.899999999999999e+00 1.000000000000000e+00 0.000000000000000e+00 1.799999999999999e+00 1.000000000000000e+00 0.000000000000000e+00 1.699999999999999e+00 1.000000000000000e+00 0.000000000000000e+00 1.599999999999999e+00 1.000000000000000e+00 0.000000000000000e+00 1.500000000000000e+00 1.000000000000000e+00 0.000000000000000e+00 1.399999999999999e+00 1.000000000000000e+00 0.000000000000000e+00 1.299999999999999e+00 1.000000000000000e+00 0.000000000000000e+00 1.199999999999999e+00 1.000000000000000e+00 0.000000000000000e+00 1.100000000000000e+00 1.000000000000000e+00 0.000000000000000e+00 9.999999999999991e-01 1.000000000000000e+00 0.000000000000000e+00 8.999999999999995e-01 1.000000000000000e+00 0.000000000000000e+00 7.999999999999998e-01 1.000000000000000e+00 0.000000000000000e+00 7.000000000000002e-01 1.000000000000000e+00 0.000000000000000e+00 5.999999999999996e-01 1.000000000000000e+00 0.000000000000000e+00 4.999999999999991e-01 1.000000000000000e+00 0.000000000000000e+00 3.999999999999995e-01 1.000000000000000e+00 0.000000000000000e+00 3.000000000000007e-01 1.000000000000000e+00 0.000000000000000e+00 1.999999999999993e-01 1.000000000000000e+00 0.000000000000000e+00 9.999999999999964e-02 1.000000000000000e+00 0.000000000000000e+00 0.000000000000000e+00 8.999999999995836e-01 0.000000000000000e+00 0.000000000000000e+00 7.999999999999998e-01 0.000000000000000e+00 0.000000000000000e+00 7.000000000006934e-01 0.000000000000000e+00 0.000000000000000e+00 6.000000000013869e-01 0.000000000000000e+00 0.000000000000000e+00 5.000000000020587e-01 0.000000000000000e+00 0.000000000000000e+00 4.000000000016644e-01 0.000000000000000e+00 0.000000000000000e+00 3.000000000012483e-01 0.000000000000000e+00 0.000000000000000e+00 2.000000000008322e-01 0.000000000000000e+00 0.000000000000000e+00 1.000000000004160e-01 0.000000000000000e+00 7.477570327540725e-01 4.905967956478702e-01 0.000000000000000e+00 1.346210646643281e+00 4.806066422083806e-01 0.000000000000000e+00 1.949496869330408e+00 5.032480558805372e-01 0.000000000000000e+00 4.449999999999997e+00 5.000000000000384e-01 0.000000000000000e+00 3.859142349610828e+00 5.103468031113156e-01 0.000000000000000e+00 3.246530027037640e+00 5.183101712757180e-01 0.000000000000000e+00 2.657531292711257e+00 5.037429884868682e-01 0.000000000000000e+00 3.824015840967434e-01 6.064457502813875e-01 0.000000000000000e+00 2.306343155343502e+00 6.315316747431162e-01 0.000000000000000e+00 1.049999999998266e+00 3.374999999994497e-01 0.000000000000000e+00 1.641930697057102e+00 3.436055112169133e-01 0.000000000000000e+00 4.150000000000006e+00 6.625000000000185e-01 0.000000000000000e+00 3.552784161359181e+00 6.642488388863971e-01 0.000000000000000e+00 2.940292465243163e+00 6.575992780735344e-01 0.000000000000000e+00 1.641237689750194e+00 6.703960699373966e-01 0.000000000000000e+00 1.050000000000000e+00 6.706367924525535e-01 0.000000000000000e+00 2.960517759676693e+00 3.261740577967960e-01 0.000000000000000e+00 3.551899302943298e+00 3.210887133285832e-01 0.000000000000000e+00 4.150779393876139e+00 3.209867287821391e-01 0.000000000000000e+00 2.213980362532827e+00 3.194901812685164e-01 0.000000000000000e+00 4.927283029162088e-01 3.252862896001115e-01 0.000000000000000e+00 4.696684455724628e+00 3.145438084075651e-01 0.000000000000000e+00 4.690990908683984e+00 6.962960281446974e-01 0.000000000000000e+00 2.487221901830106e+00 2.763334294511438e-01 0.000000000000000e+00 6.215262983536076e-01 7.328515730233995e-01 0.000000000000000e+00 2.065768881873406e+00 7.342557316219342e-01 0.000000000000000e+00 2.543072460766750e+00 7.257064952909391e-01 0.000000000000000e+00 8.105176211436336e-01 2.535517621144286e-01 0.0000000000000
[...]
<CellData Scalars="A_conc,As-lin_conc,Bs-lang_conc,Cs-freund_conc," Vectors="" Tensors="">
<DataArray type="Float64" Name="A_conc" format="ascii">
4.443871400222073e-07 2.129424146365256e-01 8.539567304356263e-14 7.605325862735046e-07 1.250942287471445e-01 1.595153516971943e-06 3.369794111986721e-06 3.654022338555542e-02 1.901344071198610e-01 8.032491757536810e-07 5.023259761599395e-13 5.948088217630589e-08 6.177828491722645e-08 1.836363873401933e-12 1.227989036447544e-06 4.701998893809901e-07 1.731570553874002e-06 1.846372333210246e-06 1.134963348589226e-07 1.219429372188284e-06 1.099694302646754e-09 6.185073893124362e-08 5.422788837948745e-08 5.907631910529211e-08 4.576135425183526e-07 3.258845690257172e-08 2.614012889839227e-07 9.988190269401132e-02 6.900276860093959e-07 1.153126143258894e-06 2.395119728486207e-08 7.746073786152039e-07 4.424836048082804e-09 1.286435496432556e-19 2.444738452899821e-07 1.662012905420872e-01 2.106086555594443e-08 1.786458254155248e-09 3.664810089617428e-08 1.343323858003836e-01 8.453472306083327e-12 1.225928009703722e-07 2.446992584935750e-20 3.703814106611766e-13 2.955781233171870e-10 1.295037894653525e-06 2.086850235761596e-06 1.425913727197831e-03 7.608551661683761e-08 5.475146265727410e-07 1.879704198694683e-01 2.556843788179189e-07 8.493987061051490e-08 1.535352123651011e-01 1.814998457509841e-01 2.314752344856134e-01 2.285961888115179e-09 3.063362003641739e-02 8.645238495198948e-02 1.318685103640584e-06 4.493557443502673e-10 3.345941833566872e-02 7.980978842339517e-05 3.391363669271585e-11 1.012133953307058e-10 7.022052720306783e-06 1.074060127738011e-03 7.845658844159684e-10 2.042291918420142e-01 7.525699063714129e-02 2.171999393475793e-10 4.762835017718431e-16 3.049712293686229e-08 1.992104622339184e-06 2.441327479641448e-03 2.100428805846125e-07 1.151889375892829e-07 1.352516852935005e-06 6.128426206494803e-03 3.402387855346237e-11 2.977878023896719e-07 2.115934495076075e-07 3.208958428275345e-09 3.182397359574307e-11 2.630741479038014e-04 1.306722733265081e-07 5.454956437381005e-07 3.933623523853002e-03 1.778771793324874e-07 8.668190871897533e-10 8.646167729506810e-09 3.519791633179156e-04 5.668739501363865e-02 1.501000977633213e-04 5.096876591454329e-07 1.156942281240587e-06 1.386213231958868e-04 3.900749613448030e-02 2.136598270200886e-14 8.643160366883186e-02 4.168779934843917e-13 2.056467953164925e-07 2.237092441154682e-07 1.478867001635362e-04 8.514888301518356e-08 3.199564627724165e-03 1.240659593318577e-06 1.054725780994484e-01 7.375044428272797e-08 4.991686924412353e-03 5.431299111090889e-11 1.808352240788534e-07 1.589109438140254e-07 7.101997373914515e-09 5.595318183173393e-07 4.495434473125071e-02 1.264630695550066e-06 2.327264800233278e-09 7.192844185579880e-11 9.919057250818838e-02 1.004926702324560e-10 1.378965292869289e-07 1.533165836752189e-12 3.118927544417644e-07 9.039551425899235e-02 8.984213997232429e-10 3.391548635968003e-13 9.724262696724705e-08 5.391809220857367e-02 1.302787287364635e-02 2.729909831682734e-07 8.545743891649276e-10 6.268890235051009e-03 1.788816246040879e-02 1.681689343794557e-05 7.996401406008620e-11 1.354915468959871e-06 2.234906768835495e-01 9.598663029960899e-04 1.015114793206932e-05 4.126469058615856e-09 8.718147285914780e-02 4.656350210126677e-07 1.158757776849962e-11 1.506914076888145e-09 5.647539084858772e-10 2.728100577050618e-03 5.243915298877221e-09 1.240679872067791e-06 4.312825725975611e-03 4.686550177425036e-09 6.522418659427812e-07 1.684890036852243e-05 5.732395410372288e-04 5.022999237753099e-11 3.160605030686492e-10 1.564604801341219e-08 5.613851591580125e-02 3.244479633375236e-08 1.820269004191120e-10 2.075318281618790e-06 1.131522410778567e-02 1.424867608590704e-12 6.481489521291744e-15 1.807786849512569e-12 3.051609762210313e-07 2.381954117724060e-07 1.002377201884483e-10 5.412983660984200e-11 2.225745440098437e-10 4.027022015744523e-07 3.909505526635170e-08 7.744716316905007e-10 2.233677878875485e-10 4.919394826080405e-10 5.512836011233896e-05 2.898427425868589e-02 8.021724503059252e-15 1.383387302967887e-11 8.346047696199512e-11 1.121411274500159e-04 3.750542713191687e-02 1.429585063417373e-01 3.128464557335699e-10 1.219811925362521e-11 2.825571911461678e-08 1.465878275435333e-07 3.684900679935331e-10 1.025379430460527e-13 1.293268904066907e-09 3.371878490628375e-08 5.886839421344246e-08 1.591298497325471e-06 5.999778813872411e-07 2.642189584534832e-07 1.862344773989102e-09 5.345839934135343e-07 2.983607894079725e-07 4.907800352286050e-18 1.882127770764676e-17 2.166382869960647e-07 6.377566814978969e-12 2.600382811166141e-01 1.090662649315047e-09 3.882416056060368e-05 2.565686885891985e-02 5.569877694253535e-12 6.582642211156234e-09 1.276942039024513e-06 1.616857076533102e-01 8.071736475496397e-10 2.242615041237305e-14 8.355794966932899e-06 4.966406539561926e-07 1.783463949498583e-06 2.546040430609995e-11 2.809154249239200e-07 7.007293028708997e-12 8.381409244142658e-07 1.305525193511653e-07 5.639702571335946e-08 1.144972512638856e-01 1.513307951040230e-09 1.879150297601669e-09 7.400456579338345e-09 2.453591098684617e-01 3.933339043310948e-07 6.024801071231651e-08 1.375037976705463e-11 3.628595887130131e-09 4.659814921117707e-09 2.332099576445481e-07 4.107388166361357e-07 1.203217635653281e-07 3.536749840379719e-05 5.476117670535105e-04 1.736382038050586e-03 5.275214110162616e-06 3.092423697448456e-07 4.743949871997759e-11 2.683135696926990e-03 1.496119768699917e-08 1.578372731859819e-06 3.999832481682775e-12 2.470195790012438e-09 1.743430054149439e-04 4.433388156874409e-02 7.363400102359125e-11 2.252901649231307e-06 2.495000864329489e-11 2.449066371751455e-11 1.461878498455665e-10 1.419950324625907e-09 1.689126643424161e-04 4.320575705966802e-02 4.371122268902406e-02 7.332546909241603e-07 5.247790843239204e-19 1.705328060710327e-06 6.967503312957037e-12 6.687962878605588e-10 3.437944072717188e-09 5.182404377377489e-04 2.970082328924655e-04 1.935079610796748e-08 1.782799603445940e-06 3.034472367829977e-07 6.924720282568031e-07 3.100920284479758e-09 2.736456305813813e-11 1.201860852427973e-11 1.044324070794490e-09 4.599918074845740e-03 6.668417596387205e-07 8.063272547851471e-08 1.392136281466192e-06 1.742417225718693e-07 9.854297306273287e-07 6.641815721842442e-08 7.562854310453687e-08 1.745329225194767e-10 9.198446078066531e-03 2.312854948437787e-11 1.902151448623153e-06 1.032598533326169e-01 2.456544625744131e-08 5.798367359423234e-08 8.667404388563717e-09 1.586710858457882e-05 6.169250993930020e-04 2.171139400557400e-09 7.795608232026937e-12 7.134873311628132e-10 8.171258024054342e-10 4.879729092172220e-08 9.810061410197575e-11 3.259007492047325e-09 1.391761422014700e-06 2.322764499974171e-11 2.807298500684041e-11 6.281875263020434e-09 1.644941586798918e-10 3.449443554219520e-04 5.377795300581330e-02 5.401863153045655e-08 1.334617776018906e-06 1.254156933420326e-06 9.263022131265035e-02 5.174493321089934e-04 1.246297757030097e-08 8.905946677778196e-04 3.104319590533911e-08 9.124794121493912e-11 1.510565303310175e-09 2.847622022516870e-10 1.073535605284974e-07 5.104805011226557e-13 5.603761004677465e-13 1.904955664273554e-01 3.061438397292529e-02 2.439801835558609e-02 5.099051052624951e-09 6.161100487399269e-09 1.515075841097135e-07 1.847451613115642e-10 1.618370077791335e-04 7.919347172588693e-05 6.499842909792932e-08 5.184185301935889e-09 9.207262495763339e-07 2.253972666708868e-01 2.182236077907004e-01 2.196061817474199e-01 2.246277594127498e-01 8.039131066150301e-02 1.308685121097870e-06 6.441665156975626e-07 3.792612212420158e-10 2.489755079324117e-05 2.201520880250480e-10 4.126216404394435e-12 4.190584861417860e-07 1.627167130664100e-13 1.481780912329617e-01 1.308244213912926e-12 9.103728236359591e-07 4.730139268999189e-10 4.239724734738820e-12 2.011423208302932e-07 2.507173861809532e-09 2.501432793145285e-01 4.145396907992689e-14 6.736059503387092e-08 2.295902898135458e-13 2.347100640909844e-06 3.932527745412007e-02 3.351790360878148e-10 7.319237242778286e-10 5.627700846773150e-07 1.859525870675010e-09 1.809728656058455e-06 8.505926388108556e-12 1.927876640679481e-06 1.630032969556223e-02 7.888161278472628e-07 1.829254978406455e-02 2.603982287592567e-09 3.222114897047198e-04 3.480701950389643e-05 2.007303218142909e-01 2.610607307652337e-01 2.610607380107226e-01 1.201314593503642e-01 1.183548354039106e-01 2.447819907140620e-09 7.847847549814218e-10 5.213377362655219e-02 4.304581107035098e-10 2.833996752873483e-02 9.029136051177948e-11 1.987777921584040e-01 1.685520356315572e-06 3.485606531527979e-07 9.728412814866622e-04 3.680916476521798e-08 2.078103473519987e-10 8.719400840961630e-10 2.336846218119054e-18 3.665599206797034e-13 1.154784354753672e-01 1.959308887549468e-01 2.216325279441810e-11 5.799765740596373e-08 3.336218660606431e-10 6.432263771551699e-09 1.627089338803019e-06 8.285942342777319e-07 8.255127619277380e-03 5.034056392019162e-03 1.640344892574837e-08 1.024845531004710e-09 1.795847368586662e-01 3.156764854768533e-10 5.839314476216893e-07 5.954339424864698e-07 5.511117029023173e-07 1.971135372968070e-08 1.568632711339335e-06 1.549207761302447e-01 6.393098958245805e-03 9.315730878388549e-11 2.603208308692689e-01 1.184266008202352e-10 1.241877224099733e-07 2.136846136919050e-02 1.860066504227877e-01 3.298616514906863e-08 7.767231037665252e-08 4.629066091092749e-05 5.109216906764622e-13 1.110507590313401e-08 7.478083593096958e-07 4.520328460435477e-03 9.010496046771928e-02 1.641870377636348e-09 6.393691421508371e-08 1.071658580554689e-09 5.475121302960221e-10 6.829883237399973e-08 1.104308196510374e-03 8.113194683290306e-02 5.497045886566782e-07 7.077566346948945e-10 2.591021207900837e-08 7.104359085544671e-04 7.100052150326468e-02 5.409998802948045e-07 7.313652631904839e-11 3.033910089316540e-04 3.713523346043604e-05 7.525249429253344e-10 7.432650408228270e-05 3.255887493422045e-04 1.306979020406787e-02 6.834942186087017e-06 2.498079168037542e-02 3.717403587580152e-05 1.018710176675624e-14 1.933834487256620e-06 2.384967233447071e-01 4.173372476151789e-14 2.028632892832779e-08 3.716518153591851e-06 2.272572319459669e-01 8.840024766717179e-03 2.856229202207444e-06 7.322763007605889e-11 9.665673899041828e-08 1.517968946639507e-18 5.962760482953800e-11 1.443221103682913e-01 1.885807194007343e-01 1.894473772820158e-06 2.366385946290960e-15 1.574392714367975e-08 7.017525316003326e-07 2.289752376375330e-01 2.194443284282044e-01 1.096894872429953e-07 2.767952440426096e-02 6.765221812389730e-12 7.026850054019206e-12 3.157558832725760e-10 1.826333102956742e-01 1.668513854364092e-01 1.782498403797851e-01 1.045823798246358e-07 1.232935963113420e-07 2.375120325172090e-09 2.853328965041715e-15 8.029279577355160e-02 3.371761657426507e-08 1.203349458575207e-01 6.286458830964416e-05 8.660297193989386e-11 5.687263268364713e-12 4.982864513830972e-02 1.626377576940090e-04 8.033596744191331e-05 4.482944342832223e-07 7.163471560114897e-03 2.184596565371055e-01 1.320363654081162e-01 1.927642206990726e-02 3.486540567558253e-02 8.785633372159904e-05 3.681909000309315e-13 1.030427696701834e-01 1.325608162084175e-08 1.339407674321167e-01 2.975147203509608e-10 4.639568118590062e-07 6.179075616066326e-07 5.808377357401337e-03 1.213463158244214e-06 9.896255971298374e-04 1.715948321532452e-05 6.156862899477322e-08 2.332621679849494e-10 2.597376509129069e-19 1.062872120644596e-01 1.735306680859110e-06 5.546778589311362e-15 1.298832146665131e-06 2.961967121268281e-09 2.980180813546345e-07 1.431266011312822e-02 7.462504141843192e-02 1.366640609570578e-01 1.407750148277361e-01 8.692623515742050e-07 2.065295825521116e-06 6.816053772694934e-10 4.779442102149500e-11 1.580690733090405e-01 1.133801879512879e-01 9.407258270404463e-08 3.426268305437770e-02 7.832904134850355e-10 1.667905944275636e-01 2.487241504358186e-09 2.474853882998918e-07 1.239917675144578e-01 5.209418842034642e-02 2.019351333632326e-12 1.096043639113537e-06 2.412196041629272e-11 6.763253786284275e-07 5.245750726105873e-07 1.053475998463238e-01 6.357987398426967e-07 5.551439528725882e-02 1.006163411038114e-11 3.475367361325370e-04 6.444392471412494e-09 6.264120699401401e-11 8.539273290503586e-12 1.309304286981578e-01 9.689404752331809e-12 1.028753322086283e-06 2.363694330465779e-06 6.442161655399147e-08 8.019653383736624e-09 7.058149526595003e-03 1.892059496403845e-06 1.246646088463691e-06 8.930872861035144e-02 1.725893661463916e-01 1.068873917178130e-06 8.702180717934422e-07 8.967078379603717e-10 1.012630305928673e-07 2.702312443811446e-08 5.356640549552424e-08 1.284282158878347e-03 3.518926436931117e-08 1.547268410355586e-02 2.523338393232250e-06 2.050643324832198e-01 1.711628487397393e-06 3.963668743751212e-08 1.450011450143500e-01 1.374254531238855e-01 5.058351994472693e-10 9.355733726118579e-02 1.015888427556650e-01 5.539546192896705e-10 1.532400224185810e-10 3.014858518956702e-04 3.275012538881218e-07 1.886328920214816e-12 2.007938023866925e-01 1.893252140979352e-01 9.350706873033413e-08 1.111897727216512e-08 6.505892357104950e-05 8.537522413722876e-16 1.279117745211366e-12 5.242534321699387e-09 6.511779505340101e-02 3.028857499385841e-09 2.077830929887466e-09 8.935244194872301e-03 1.774037604816854e-09 1.168899182369356e-02 2.277582151452843e-01 2.161395612571435e-01 4.186876280197779e-08 6.755373441973894e-07 1.910889318920058e-06 2.359143226074786e-10 2.726453090033339e-09 3.870079220281252e-03 2.564167751188959e-06 5.425475049497786e-07 1.984892587232475e-01 1.804520081769125e-11 6.610399030132665e-09 2.082637156109344e-10 3.426847221296700e-13 2.453678323198929e-08 2.191408146449587e-06 1.214293287302181e-10 3.934027298242656e-08 1.022102664493739e-01 4.213605729200166e-08 7.671719547400719e-09 4.762446143844855e-17 7.031307512765378e-09 5.642020982997512e-10 2.400684479200237e-02 3.862353204178079e-12 2.596532334189544e-10 1.200953121523446e-06 6.448700194593315e-02 1.177985436416334e-10 1.722848607850811e-15 5.411014806796293e-09 1.955692026398749e-06 7.133024155695481e-07 3.141138178311731e-02 2.550031305908453e-02 5.435830803181365e-10 5.155123178806220e-20 4.458582144524445e-03 2.944783416723329e-07 6.531962852534393e-10 7.270632238929810e-05 2.424413755685009e-08 1.276758869707930e-07 1.919215300153842e-03 1.018844582060507e-08 1.369668678680851e-08 8.006763875274934e-09 2.766849444708590e-03 2.643164908003423e-06 3.120287369055846e-11 2.304234486261706e-12 1.716281984464422e-09 8.654003193057449e-09 4.393858912010727e-07 1.304896872836285e-01 2.997978189088095e-06 3.391899377386338e-08 6.140284193929039e-03 1.391021751920658e-06 4.872421432677719e-07 6.992460909669526e-02 6.260244386844165e-02 5.604452667162865e-08 2.311236439625102e-08 3.715361932528276e-02 7.466017774409241e-07 8.164633793412361e-09 2.690465499907022e-09 5.509508191711437e-10 9.333893351166622e-17 2.529374030708734e-11 3.480942374987498e-16 8.791714781788995e-09 4.301124825735463e-07 4.425943878107744e-02 3.762057723332327e-02 8.419719627360593e-10 1.852119397602736e-09 2.303787999891922e-09 2.473843638702067e-10 1.854807718311834e-07 1.648255483394527e-08 2.975838474779137e-11 2.845769491972041e-10 4.803189625107649e-11 5.340590661625224e-04 2.133144505827682e-06 2.971510217916256e-11 1.580526380119439e-01 1.311435717077858e-06 2.519575311777533e-01 2.503128472096883e-01 4.072222599086913e-12 2.017507409968096e-06 4.288379072783135e-05 2.202948759121739e-05 1.991703040547044e-09 1.194968264766149e-08 1.135740124910984e-08 3.244769208752547e-07 1.319109167776695e-08 3.083215068732470e-03 6.498414363854117e-13 7.549028163347506e-02 3.394985352763729e-10 2.392157341739485e-01 2.511657279385511e-01 2.515001169241453e-01 2.395623732610073e-01 2.352548336268633e-01 2.369436044504146e-01 9.065260428196461e-08 2.541177010813202e-03 4.247310139655393e-09 3.257005887841691e-09 6.437517808751462e-09 5.429354042037797e-12 9.412899081660312e-07 4.444945706056845e-09 1.445611943772519e-01 5.794965796647911e-12 3.242074259933864e-08 3.303009650453217e-07 3.596529855794138e-07 1.879500347071056e-03 7.594934124291748e-06 2.665325780482636e-06 2.431656350550151e-07 9.773189371439049e-08 1.788359202165401e-12 2.391630790313327e-10 4.677318733923263e-07 7.095702592488847e-10 1.760371519726971e-10 4.179332314820843e-08 1.353860016524147e-02 5.954055646968220e-09 8.343294315911452e-06 7.530267811154894e-07 9.242218474027865e-09 1.650010392890167e-10 5.692747748771225e-08 2.104009000097334e-06 7.846202595619413e-04 8.092759582099217e-08 2.661165309247286e-08 4.310190303629327e-08 2.119350054927294e-08 2.315654791226868e-10 1.336611885171127e-02 1.695557368325858e-08 7.905429630311308e-07 3.400624928303779e-09 2.643392575818395e-01 2.643392602210056e-01 1.206998087217391e-09 7.766844453311419e-02 6.920650243323389e-08 4.568362064596557e-07 2.925710493372755e-07 4.955229723905650e-03 1.562382111349446e-08 5.897165247382348e-07 2.314341042968903e-06 2.025208619978312e-05 2.503999878843884e-01 2.503999958068737e-01 1.693594169500494e-03 1.442506775274287e-01 1.316079553744423e-01 9.847481800998499e-02 6.444443587900256e-07 2.401085397569467e-10 1.683058586810380e-01 1.560853783385750e-01 1.064138666651663e-08 1.104045395860838e-10 5.086097868581128e-07 9.651278268933084e-11 4.706692931140032e-11 1.401050647610589e-01 9.353607614346903e-09 2.373081540664680e-01 2.375316434649680e-01 8.890164280991087e-09 3.653438075354863e-08 1.777686746690879e-02 4.815460860798074e-08 1.542496485067393e-05 3.405655355875154e-09 4.332864187922522e-07 4.214661484073191e-02 6.267473560326907e-02 2.202059385594165e-06 1.916335573264580e-06 5.230748528322793e-11 5.581002008154425e-11 8.356721334469326e-11 3.851625615017458e-09 7.793725736251597e-02 5.979882168483313e-06 2.904186982988986e-06 1.203006046088515e-02 8.569378598347055e-03 1.697868199708400e-08 1.617763686418809e-06 1.474635949701338e-05 5.163504174277911e-08 8.981106507833697e-04 1.906569344731328e-08 2.417154307922447e-09 2.084119158018629e-04 4.637155798109248e-02 2.196631636207386e-02 2.711536069202957e-05 6.007790329312040e-09 7.712084649849135e-06 1.080401499427699e-08 1.151318306915272e-03 1.779019577219352e-06 7.456231859037662e-11 1.299675400386303e-06 4.872596774342879e-07 3.416216593559012e-02 6.293017166937891e-09 1.793215323049543e-01 1.424721622584785e-04 6.207093434973349e-02 2.003967445325499e-07 1.706657275510471e-08 1.820624956559742e-03 3.435067657913841e-06 5.604080968600705e-02 6.579625442010387e-11 1.897232234842725e-11 7.925397171975603e-07 1.964406509475018e-06 4.188891129156616e-09 1.834434254583564e-10 1.957636626842438e-01 2.045557521106494e-01 6.300505124275924e-07 4.837575282538945e-04 1.050012026361109e-08 1.816063557139361e-01 1.843212913861049e-10 7.967499193218520e-07 1.004899859788192e-06 1.521241188419345e-01 1.647438696539956e-01 8.126466383858489e-09 4.140823887927630e-10 1.800244318508112e-07 1.861665633621512e-03 1.479216410373595e-07 1.285095410176473e-07 1.391394181634976e-04 2.723946887580083e-10 5.549339100712426e-12 3.100184511419029e-08 2.080720026042934e-21 1.675019901681574e-01 4.551425535276021e-12 3.969450257513355e-16 1.934178644848384e-06 2.045226918879883e-01 2.380812196931500e-01 2.507602148423356e-01 3.134587479715780e-03 1.857894978136286e-11 3.123193622570107e-14 1.011433900342734e-13 2.781953422468583e-10 3.108587469016007e-02 7.324591095220722e-05 9.462480095516534e-07 3.070694036864720e-06 9.237910211384698e-08 3.373626735083674e-08 1.255597846915652e-06 1.488225433332386e-07 6.110245629873124e-07 2.360968165248386e-10 3.517261063596806e-12 5.879482804831122e-10 2.190619605724852e-16 6.338405796221293e-08 7.708428703602709e-06 1.343551820999701e-02 6.149184160686122e-12 1.270247126795003e-11 1.978364676465179e-08 4.720830764679121e-02 1.134595853279916e-20 3.287443501843207e-03 5.754444314896928e-12 9.868471203188108e-13 1.138705978691492e-12 5.040900973709726e-04 1.956941710567461e-01 2.697120773832581e-17 9.870436359028218e-17 3.247741281038942e-06 1.362409120036958e-01 1.923350107456648e-01 2.2006874