<?xml version="1.0"?>
<VTKFile type="UnstructuredGrid" version="0.1" byte_order="LittleEndian">
<UnstructuredGrid>
<Piece NumberOfPoints="132" NumberOfCells="561">
<Points>
<DataArray type="Float64" NumberOfComponents="3" format="ascii">
3.000000000000000e-01 3.000000000000000e-01 3.000000000000000e-01 1.300000000000000e+00 3.000000000000000e-01 3.000000000000000e-01 1.300000000000000e+00 1.300000000000000e+00 3.000000000000000e-01 3.000000000000000e-01 1.300000000000000e+00 3.000000000000000e-01 3.000000000000000e-01 1.300000000000000e+00 1.300000000000000e+00 1.300000000000000e+00 1.300000000000000e+00 1.300000000000000e+00 3.000000000000000e-01 3.000000000000000e-01 1.300000000000000e+00 1.300000000000000e+00 3.000000000000000e-01 1.300000000000000e+00 8.000000000000000e-01 8.000000000000000e-01 3.000000000000000e-01 8.000000000000000e-01 8.000000000000000e-01 1.300000000000000e+00 3.000000000000000e-01 1.050000000001388e+00 3.000000000000000e-01 3.000000000000000e-01 8.000000000020817e-01 3.000000000000000e-01 3.000000000000000e-01 5.500000000013878e-01 3.000000000000000e-01 5.500000000003470e-01 5.500000000003470e-01 3.000000000000000e-01 5.500000000005205e-01 1.049999999999480e+00 3.000000000000000e-01 6.333333333328708e-01 1.300000000000000e+00 3.000000000000000e-01 9.666666666668979e-01 1.300000000000000e+00 3.000000000000000e-01 1.050000000000000e+00 1.050000000000000e+00 3.000000000000000e-01 1.049999999999480e+00 5.500000000005205e-01 3.000000000000000e-01 1.300000000000000e+00 6.333333333328708e-01 3.000000000000000e-01 1.300000000000000e+00 9.666666666668979e-01 3.000000000000000e-01 1.050000000001388e+00 3.000000000000000e-01 3.000000000000000e-01 8.000000000020817e-01 3.000000000000000e-01 3.000000000000000e-01 5.500000000013878e-01 3.000000000000000e-01 3.000000000000000e-01 3.000000000000000e-01 3.000000000000000e-01 6.333333333328708e-01 3.000000000000000e-01 3.000000000000000e-01 9.666666666668979e-01 3.000000000000000e-01 6.333333333328708e-01 1.300000000000000e+00 3.000000000000000e-01 9.666666666668979e-01 1.300000000000000e+00 3.000000000000000e-01 1.300000000000000e+00 6.333333333328708e-01 3.000000000000000e-01 1.300000000000000e+00 9.666666666668979e-01 5.500000000003470e-01 5.500000000003470e-01 1.300000000000000e+00 5.500000000005205e-01 1.049999999999480e+00 1.300000000000000e+00 6.333333333328708e-01 1.300000000000000e+00 1.300000000000000e+00 9.666666666668979e-01 1.300000000000000e+00 1.300000000000000e+00 1.050000000000000e+00 1.050000000000000e+00 1.300000000000000e+00 1.049999999999480e+00 5.500000000005205e-01 1.300000000000000e+00 1.300000000000000e+00 6.333333333328708e-01 1.300000000000000e+00 1.300000000000000e+00 9.666666666668979e-01 1.300000000000000e+00 1.050000000001388e+00 3.000000000000000e-01 1.300000000000000e+00 8.000000000020817e-01 3.000000000000000e-01 1.300000000000000e+00 5.500000000013878e-01 3.000000000000000e-01 1.300000000000000e+00 1.300000000000000e+00 1.300000000000000e+00 1.050000000001388e+00 1.300000000000000e+00 1.300000000000000e+00 8.000000000020817e-01 1.300000000000000e+00 1.300000000000000e+00 5.500000000013878e-01 1.300000000000000e+00 3.000000000000000e-01 6.333333333328708e-01 1.300000000000000e+00 3.000000000000000e-01 9.666666666668979e-01 8.000000000000000e-01 8.000000000000000e-01 1.050000000001388e+00 8.000000000000000e-01 8.000000000000000e-01 8.000000000020817e-01 8.000000000000000e-01 8.000000000000000e-01 5.500000000013878e-01 6.473914249451833e-01 6.473914249451832e-01 9.204916147620609e-01 6.473429715578847e-01 6.473429715578846e-01 6.800719333956856e-01 4.740744197726488e-01 4.740744197726488e-01 8.000000000014988e-01 4.905133471726744e-01 4.905133471726745e-01 1.064307718931256e+00 4.905079634621142e-01 4.905079634621141e-01 5.357548975316737e-01 6.633873029491517e-01 6.633873029491516e-01 1.125714346060497e+00 6.633801246694372e-01 6.633801246694372e-01 4.743691425559635e-01 9.496248238714698e-01 9.496248238714698e-01 6.904006014080731e-01 1.129667301615825e+00 1.129667301615825e+00 9.631472295017156e-01 9.499716523765506e-01 9.499716523765506e-01 9.076743234195536e-01 1.128201766785264e+00 1.128201766785264e+00 6.398712833616734e-01 9.438653936275830e-01 9.438653936275830e-01 4.826799477163620e-01 1.206712283467940e+00 1.206712283467940e+00 4.379707072862386e-01 9.441070420721083e-01 9.441070420721083e-01 1.117465843976946e+00 1.206956539272743e+00 1.206956539272743e+00 1.162532378192201e+00 1.042910924108138e+00 1.042910924108138e+00 8.001822396158573e-01 6.463008684692589e-01 9.536991315307412e-01 9.256810327514443e-01 6.462371600728062e-01 9.537628399271939e-01 6.727910462218363e-01 4.737854229675130e-01 1.126214577032487e+00 7.994383265917406e-01 4.880268952664984e-01 1.111973104733502e+00 1.067034477111369e+00 4.894174069862054e-01 1.110582593013794e+00 5.294383832329488e-01 6.630914171220872e-01 9.369085828779128e-01 1.142574710333826e+00 6.630872756080245e-01 9.369127243919756e-01 4.552972572610544e-01 9.536991315307412e-01 6.463008684692589e-01 9.256810327514443e-01 9.527318460479897e-01 6.472681539520104e-01 6.744030453689623e-01 1.125992916072648e+00 4.740070839273518e-01 8.000756703070223e-01 1.109615307529660e+00 4.903846924703403e-01 1.070645694885939e+00 1.109507831365770e+00 4.904921686342297e-01 5.293804627520026e-01 9.367752585412306e-01 6.632247414587695e-01 1.144510230352068e+00 9.366319569883452e-01 6.633680430116549e-01 4.555044677498784e-01 7.861111111115963e-01 5.083333333336096e-01 1.300000000000000e+00 9.250000000010696e-01 4.250000000000578e-01 1.300000000000000e+00 1.101851851851857e+00 8.000000000001060e-01 1.300000000000000e+00 8.000000000001061e-01 1.101851851851857e+00 1.300000000000000e+00 4.981481481480582e-01 7.999999999999077e-01 1.300000000000000e+00 8.000000000001061e-01 1.101851851851857e+00 3.000000000000000e-01 1.101851851851857e+00 8.000000000001061e-01 3.000000000000000e-01 7.666666666671061e-01 5.166666666668981e-01 3.000000000000000e-01 5.083333333335487e-01 7.861111111115963e-01 3.000000000000000e-01 4.250000000000290e-01 9.250000000010697e-01 3.000000000000000e-01 3.000000000000000e-01 7.998245504255428e-01 1.003682679215997e+00 3.000000000000000e-01 6.833412501609447e-01 5.176928395028456e-01 3.000000000000000e-01 5.594252356672688e-01 7.790137399532894e-01 3.000000000000000e-01 1.038321861918248e+00 7.788781593958928e-01 3.000000000000000e-01 9.171347802625446e-01 5.154778003864170e-01 3.000000000000000e-01 7.997396904586864e-01 7.214805241532110e-01 3.000000000000000e-01 5.278442721406917e-01 1.065720549063708e+00 3.000000000000000e-01 1.071945448277851e+00 1.065623435891145e+00 3.000000000000000e-01 1.116577522381889e+00 4.925807946375026e-01 3.000000000000000e-01 4.831855613551516e-01 4.928942105940126e-01 5.923070254838715e-01 1.300000000000000e+00 7.991572783451373e-01 1.084689955311255e+00 1.300000000000000e+00 6.834445179367812e-01 8.214451533272802e-01 1.300000000000000e+00 5.585505716850350e-01 8.214677349744531e-01 1.300000000000000e+00 1.044665420782373e+00 1.084825387300715e+00 1.300000000000000e+00 9.253455487478625e-01 8.784502058270113e-01 1.300000000000000e+00 8.014884450003718e-01 5.338059306669566e-01 1.300000000000000e+00 5.276386806657257e-01 5.338879773181524e-01 1.300000000000000e+00 1.072702286515622e+00 1.107505749636758e+00 1.300000000000000e+00 1.141001462604448e+00 1.107484681151874e+00 1.300000000000000e+00 4.830827085275429e-01 1.300000000000000e+00 5.943164787178615e-01 7.986416451182857e-01 1.300000000000000e+00 1.084651522603422e+00 6.752452236482016e-01 1.300000000000000e+00 8.210992589567790e-01 5.522070128204725e-01 1.300000000000000e+00 8.216591114729285e-01 1.038192494786708e+00 1.300000000000000e+00 1.084842381055231e+00 9.162208476354318e-01 1.300000000000000e+00 8.786946720148308e-01 7.974009632019597e-01 1.300000000000000e+00 5.340277385154217e-01 5.267241217202038e-01 1.300000000000000e+00 5.341814212824810e-01 1.071770478619287e+00 1.300000000000000e+00 1.107533532337157e+00 1.116438415747491e+00 1.300000000000000e+00 1.107433437541429e+00 4.586602981962395e-01 5.672895200918258e-01 3.000000000000000e-01 8.260254120755124e-01 9.285390072864226e-01 3.000000000000000e-01 1.082921855575766e+00 8.994626241531143e-01 3.000000000000000e-01 5.437629310650078e-01 1.066324079120699e+00 3.000000000000000e-01 8.068685887502892e-01 6.328895234140115e-01 3.000000000000000e-01 4.837346576675677e-01 6.431373354896250e-01 3.000000000000000e-01 1.081194480547395e+00 8.048655670262913e-01 3.000000000000000e-01 8.440789525871465e-01 4.418850588509258e-01 3.000000000000000e-01 1.178836910489503e+00 4.401770901716953e-01 3.000000000000000e-01 4.153179458795806e-01 1.144315078188032e+00 3.000000000000000e-01 1.105305392576877e+00 1.117954863860959e+00 3.000000000000000e-01 5.000842026419009e-01 6.580864905436751e-01 3.000000000000000e-01 6.573169581084082e-01 8.087187409400940e-01 4.708187580108643e-01 9.738437533378601e-01 
</DataArray>
</Points>
<Cells>
<DataArray type="Int32" Name="connectivity" format="ascii">
[...]
<PointData Scalars="pressure_nodes_[L]," Vectors="">
<DataArray type="Float64" Name="pressure_nodes_[L]" format="ascii">
1.053612863686381e+00 1.303209079187833e+00 1.077838179699844e+00 1.034755900233938e+00 -9.497736234457142e-02 2.317389598432966e-01 3.800466982603589e-02 1.382956967562533e+00 1.101188269517869e+00 2.571606742902079e-01 1.076169656544919e+00 1.088270888827323e+00 1.067114735322505e+00 1.077725510642555e+00 1.074074577779412e+00 1.064460980452584e+00 1.072395150972064e+00 1.093337039925844e+00 1.167578863926660e+00 1.157318914440519e+00 1.117316852986630e+00 1.127587686051834e+00 1.101353019338441e+00 1.111365136833479e+00 8.167690546489346e-01 3.186767375480560e-01 -9.213977224278004e-03 -3.134709549065775e-02 6.797784211751701e-01 -8.955055002534154e-02 1.843233265136715e-01 9.966826870068358e-02 1.652237543346750e-01 2.117202167459869e-01 3.003485654829948e-01 7.240081761551860e-01 8.735877635327051e-01 3.696854988197992e-01 1.007105402694839e+00 5.967232898842794e-01 2.260369758184082e-01 6.019672177211747e-01 9.492762012118360e-01 9.365236335866624e-01 1.693538210264675e+00 1.742701849464108e+00 5.167509581264846e-01 7.628245694970265e-01 9.650372422267457e-01 5.751900925411549e-01 7.912053139299831e-01 6.131570503286582e-01 2.680224750264307e-01 9.174310662600634e-01 3.339946428239382e-01 9.951762404406114e-01 9.139356737426916e-01 7.274436125394063e-01 7.635368340248812e-01 9.944395978708613e-01 1.054985100189426e+00 1.046420849420633e+00 4.595234095257008e-01 3.393472665567033e-01 9.168296382561780e-01 3.407834332088375e-01 6.874902943099701e-01 3.067378026307998e-01 8.749010676186752e-03 8.884183796959210e-01 1.887501704978893e-01 9.797575229357121e-01 1.072105717230915e+00 1.160031937853258e+00 1.487527685724680e+00 1.229091753201071e+00 1.330563896654290e+00 6.414149116002618e-01 1.149086217372214e+00 4.297831392471378e-01 6.293798607780694e-01 5.976580021823149e-01 1.765375065780584e-01 3.270417616813630e-02 1.050100547745630e+00 1.172492461211006e+00 1.107026876547656e+00 1.071294610921878e+00 1.059948019799500e+00 7.069331532310341e-02 9.207305330062886e-01 5.615489677655540e-01 3.908513251790370e-01 9.356668735830518e-01 5.789110927924876e-01 5.554705070149266e-02 -1.599689961128026e-01 9.813874454540793e-01 9.732625131454683e-01 3.041086304355123e-01 6.669906134983140e-01 8.625575258010912e-01 1.750915217378808e-01 4.447145108988159e-01 4.622429600703318e-01 9.060102554306803e-01 -5.625894675460300e-02 3.020809343495834e-01 9.678897300144049e-01 1.666189621811999e+00 1.258160408030721e+00 1.277342767106448e+00 1.139394245011853e+00 1.385108507781741e+00 1.442962205972447e+00 1.451230888087598e+00 1.436120474481386e+00 6.400700943654539e-01 1.060706177982632e+00 7.298183437678261e-01 1.110441984041480e+00 1.102858428122755e+00 1.474882687037049e+00 1.026128370458183e+00 5.576205207796761e-01 1.126738699112529e+00 1.544925200780528e-01 1.040842111821477e+00 1.511416680653635e+00 1.356141273430368e+00 9.137966582777094e-01 9.094672119472250e-01 
</DataArray>
</PointData>
<CellData Scalars="pressure_elements_[L],piezo_head_elements_[L]," Vectors="velocity_elements_[L/T],">
<DataArray type="Float64" Name="pressure_elements_[L]" format="ascii">
2.107509905919881e-01 1.101383222705647e+00 1.029762393147547e-01 9.616101338202439e-01 1.075489163998103e+00 1.644464850807371e-01 5.852876001458855e-01 8.314521254841677e-01 6.565905508178678e-01 6.288130904983762e-01 6.919420588289887e-01 3.200704985392548e-01 1.036784383826518e+00 4.943711655615027e-01 7.841709403037876e-01 7.907167671342883e-01 4.212336588432449e-01 4.049323346563772e-01 4.462143444079309e-01 9.038111901007901e-01 2.614648184060535e-01 1.021541857825304e+00 9.177778903962360e-01 9.264847278138265e-01 5.518059394912409e-01 1.034290542349520e+00 4.039107506817731e-01 1.023859234799142e+00 3.982386369386088e-01 2.101892241055121e-01 1.112921671998162e+00 1.106854006274651e+00 2.356309590066116e-01 8.474992869367857e-01 8.819476525205204e-01 7.398189058812404e-01 6.136544246373674e-01 8.659325226720024e-01 8.426286540061533e-01 8.514766912366789e-01 9.650122247981542e-01 5.557036697918311e-01 6.802435988947384e-01 1.041210395295465e+00 3.340115729424011e-01 9.395359191837661e-01 4.983520197976765e-01 7.523428534968106e-01 1.033693351660292e+00 3.135997724443684e-01 7.941278682222033e-01 1.914359672659878e-01 1.099873469400449e+00 -1.440827951110054e-01 9.172777636104430e-01 1.060787494256769e+00 8.981899345132133e-02 5.599360494049450e-01 8.136696260398372e-01 5.558850543880833e-01 3.110366813002876e-01 6.436545742162253e-01 3.140792014362977e-01 3.989215467586436e-01 3.493424937887757e-01 8.597929860254536e-01 1.035880901371123e+00 3.047841797891040e-01 8.981830899325026e-01 6.825874277372084e-01 6.299206221833669e-01 1.785619207199205e-01 9.998217704406264e-01 1.954152782627062e-01 2.949014618005503e-01 1.143871814537340e+00 1.551672058955922e+00 1.522350183837840e+00 1.247945979145463e+00 9.452768389391173e-01 6.849314042908846e-01 9.160063806009766e-01 1.092588841730486e+00 1.713180116921042e+00 8.958752514177020e-01 8.155374803801120e-01 6.229733938362604e-01 1.116116475752507e+00 1.160888091546432e+00 1.069010248980042e+00 3.521060750360069e-01 1.044297361057156e+00 1.249127506011936e+00 1.497972687887912e+00 1.455774326652687e+00 1.192137336889126e+00 6.803320518769429e-01 8.630439639100765e-01 1.065337154847065e+00 1.134782284776252e+00 6.169209806749809e-01 8.514755448905877e-01 1.559978468961088e+00 9.574055864772918e-01 1.735812939845850e+00 4.337265124467383e-01 1.172358773180240e+00 1.073610461095370e+00 1.174103536884542e+00 1.268468201292403e+00 8.025948872866917e-01 1.192570644943264e+00 1.295482371094620e+00 1.076028840586640e+00 9.537267453159580e-01 6.508250647725409e-01 7.782019983813282e-01 8.067603697763308e-01 9.030615261873219e-01 9.419446330813195e-01 6.505809820424997e-01 8.905087993871729e-01 1.046937179107091e+00 2.717535208290065e-01 1.113977651312176e+00 1.041407435913582e+00 1.137658312632484e+00 1.711712946401026e-01 2.465186857581846e-01 9.197578093024594e-01 9.444694942740886e-01 1.036010046842775e+00 1.324222730231882e+00 1.401325041310213e+00 9.122776932660248e-01 1.170191503429560e+00 9.030000392261175e-01 1.422629042650156e+00 6.670948344893045e-01 9.040540092717844e-01 1.002640796289890e+00 1.376034576998176e+00 3.648623572531394e-01 1.115312633752532e+00 2.787436848700524e-01 7.699231692899620e-01 1.636824463082944e+00 1.629549239162534e+00 8.102283573433735e-01 9.670171090976115e-01 2.428821307299543e-01 6.924191123757841e-01 6.118490700890392e-01 1.410372149124963e+00 8.915426223694517e-01 2.008830442301111e-02 4.418676418981431e-01 8.291365167176011e-01 1.082840861165183e+00 1.114995579243801e+00 9.981530559464430e-01 1.746970921533713e-01 1.376670279517201e+00 6.675759367308395e-01 1.119265483934841e+00 1.125986629288401e+00 1.112478786477368e+00 8.902290283424643e-01 1.084698277473112e+00 4.540484467844397e-01 1.153383015635491e+00 1.448631703549774e+00 7.453199448853965e-01 8.981455786542563e-01 3.238987577488895e-01 1.111057339041285e+00 9.549745629997192e-01 1.513957325974385e+00 7.301412526004212e-01 7.572448237451773e-01 1.182565099155160e+00 1.194290521295796e+00 5.973275566214361e-01 5.629661052915604e-01 1.112732947922916e+00 1.418444221539738e-01 4.034204620231194e-01 1.708385759696225e+00 1.706797759446694e+00 1.793267383905547e+00 7.990983185873680e-01 7.420060279842980e-01 1.039445876874484e+00 1.128282579778974e+00 1.126683611822166e+00 2.707447464844053e-01 5.305994821641314e-01 1.012172555524153e+00 1.061119515101998e+00 2.291217954094340e-01 6.377127848425918e-01 1.125364119536003e+00 6.262093123951823e-01 1.002593840388049e+00 5.607554172072222e-01 1.250404604615549e+00 9.856931735338585e-01 2.387548049088032e-01 1.091220070952220e+00 9.665551245641697e-01 1.022427362154895e+00 3.380279191404378e-01 5.985620633436306e-01 1.577638713437621e+00 1.123137293668458e+00 7.938613231549576e-01 1.078742333898074e+00 1.052484722430652e+00 9.778507137800346e-01 6.574291223123993e-01 1.127220629319127e+00 6.017776095600095e-01 5.419201805726176e-01 1.748582418443809e+00 9.025019815843025e-01 1.385908544301679e+00 1.113807859451330e+00 1.348516550172441e+00 1.684158121175124e+00 1.696907968692504e+00 1.643391621578312e+00 1.127560209722148e+00 2.931497285809156e-01 1.573351896485293e+00 1.419943777621170e+00 8.733751912494272e-01 1.276471654996131e+00 1.492835758981187e+00 1.635584834808836e+00 1.173544118366457e+00 1.508682014594899e+00 1.260856742188980e+00 1.210538545346586e+00 1.151618320703324e+00 9.734909217162111e-01 1.650460903569714e+00 1.122126905205295e+00 1.369324312305131e+00 2.985207332811854e-01 1.230655573457604e+00 1.587308213629386e+00 4.095466307444806e-01 1.710489276487293e+00 1.359750302753105e+00 1.284474377916619e+00 3.041340980586938e-01 1.539160316441493e+00 5.498794834612940e-01 1.120692285195945e+00 1.283317691405672e+00 1.222759615005445e+00 1.151564977045512e+00 1.203524018526434e+00 1.288154393158039e+00 1.024240656614153e+00 1.181184735066825e+00 1.754249785600557e+00 1.655508290497343e+00 9.774428522226022e-01 1.166973996531425e+00 1.135844472208541e+00 1.241449824322862e+00 1.221104768831387e+00 3.280361682471086e-01 1.339240637245029e+00 1.586411885357427e+00 1.392089347536036e+00 1.171542437992446e+00 9.941103706506642e-01 2.556559278920075e-01 1.322789642048687e+00 1.016988467660775e+00 1.086371530402390e+00 1.167326813703249e+00 1.295273918805462e+00 1.511304110613894e+00 1.492458639331435e+00 3.566296952797516e-01 9.251523012053774e-01 1.639864440908442e+00 8.220640074153620e-01 1.328515808408560e+00 1.328499151321396e+00 1.448123023725255e+00 1.392159388344722e+00 6.339203504145294e-01 1.896925395408399e+00 1.127927822516773e+00 1.290708041782857e+00 1.103104050364925e+00 1.181722654731346e+00 1.115608998125583e+00 1.181030051324875e+00 1.288757384921098e+00 1.093513469252688e+00 1.251277693593600e+00 4.189977101460696e-01 5.852110948800167e-01 1.143173226735112e+00 1.024373614928050e+00 1.020121347406583e+00 7.039750485372432e-01 1.082827912319486e+00 1.118954571662897e+00 6.815332119754048e-01 5.871395468279859e-01 9.539721043894362e-01 1.104272151375972e+00 9.922491088641823e-01 6.463686882812557e-01 1.107426248840615e+00 2.119038665199271e-01 1.770919441346547e+00 9.391428415282012e-01 1.184473490839360e+00 1.340758205056017e+00 6.277433296779430e-01 4.234003344883447e-01 1.275122351461832e+00 1.028205214165379e+00 1.204928310410679e+00 1.855066375821865e+00 1.257209515478978e+00 1.123996494898098e+00 1.173938722030464e+00 2.235526615863423e-01 7.532872547921472e-01 1.459135063033677e-01 1.196063505507131e-01 3.008415958964862e-01 1.819369681235821e-01 9.318625212513240e-02 1.797202178095560e-01 6.211252028214573e-01 2.143788027277188e-01 3.763797209588176e-01 4.322861544280140e-01 9.639114514865013e-01 4.370162073269450e-01 -9.787761100995078e-02 2.208716924105768e-01 2.326965777075427e-01 2.902128706818994e-01 5.013134094921503e-01 5.458746487427988e-01 2.247904725553174e-01 2.879738005340451e-01 1.056068655467525e+00 2.366677715595064e-01 7.212966334899450e-01 -2.997307677962336e-01 5.027631897321604e-01 5.242903064995770e-01 3.283932489190476e-01 3.814081349406170e-01 1.035532053481380e+00 4.148991044397114e-01 9.361875823854842e-01 4.253205379092255e-01 4.950666700836055e-01 9.584698183351038e-01 9.852273089285022e-01 5.587665168737245e-01 1.054582688671324e+00 1.086787816100564e+00 1.558608121884299e-01 2.198119017681743e-01 1.939577331674094e-02 7.981394107652018e-01 5.820979996342244e-01 8.578833182217070e-01 7.117234122564459e-01 -2.613993197831292e-01 1.103215123367095e+00 5.169964690192050e-01 6.686104024949819e-01 1.022944971931561e+00 1.091901819658658e+00 8.682978159114527e-01 6.254280573382451e-01 5.581772698876099e-01 2.395639145783842e-01 1.982459441107767e-01 7.495065306315317e-01 6.409862711705473e-01 6.403892867125636e-01 1.106817638114307e+00 1.608116466585277e-01 5.986469319709281e-01 1.201550727215179e-01 3.871954006443760e-01 2.675484575475270e-01 7.739530616387060e-01 2.212363188279729e-01 3.147189925138371e-01 -2.454146190385810e-01 4.355052674567731e-01 7.880346694905150e-01 6.957241126576961e-01 1.026014119788420e+00 9.775881325197547e-01 8.058729627864553e-01 9.446476861089200e-01 1.853815476105509e-01 1.023654295023873e+00 1.553439861113659e-01 3.883396085869231e-01 1.846202222542399e-01 1.647292762697982e-01 9.115456720778027e-03 2.825970940628791e-01 -2.438468087995077e-01 2.923053104618794e-01 6.284763088333880e-01 1.029916425184811e+00 1.101877369632952e+00 8.459010314097408e-01 8.141444845140275e-01 9.798431889976136e-01 1.084425985773083e+00 1.970313741324413e-01 1.117641622520669e+00 2.399435330916477e-01 2.789748712645531e-01 6.472930905683659e-01 6.009474730404265e-02 3.326355562265658e-01 6.866133417770531e-01 8.331323424158860e-01 8.878619730407243e-01 9.213163082031538e-01 1.022837036140738e+00 1.068256992439864e+00 1.071870590836368e+00 1.009779467874681e+00 9.832376845998333e-01 8.550341129178918e-01 1.618035926062261e-01 9.595037306187258e-02 1.682681533012546e-02 6.500637061794257e-02 -2.235032705240599e-01 -4.963805942475102e-02 3.978671587676041e-01 8.324572741365557e-01 3.469711439289552e-01 9.765090139649781e-01 7.340239686866685e-01 4.990280946647690e-02 2.837938287624862e-01 4.986589812399477e-01 8.578732212237771e-01 2.126755645295656e-02 1.108158456093100e+00 4.977683677329042e-01 8.652764334831495e-01 7.838018894697232e-01 7.469443496688334e-02 6.157597865275602e-01 3.264728823471394e-01 1.666690011168154e-01 2.604124156823944e-01 9.954120405412715e-01 4.241989746425757e-01 8.107029694646811e-01 1.036765935702189e+00 -9.836385633316914e-02 -1.070170627594577e-02 6.664238716589660e-02 -1.763184277140856e-01 1.038706696409263e+00 9.589027514445103e-01 9.766672401692003e-01 1.439346987675379e-01 1.102068754428772e+00 -4.012523840264749e-02 3.934789732170444e-01 1.038655438727739e+00 1.041505851089158e+00 -1.263587738855194e-02 7.342276318604425e-01 9.864810467540495e-01 1.103122368094815e+00 6.884661765941038e-01 8.489638545339154e-02 2.639511353313275e-05 1.031801178119017e+00 7.374955604046490e-01 4.446650742188714e-01 8.057610189633176e-01 1.088134738851570e+00 1.349193965741671e-01 3.649804258942994e-01 5.718680200164663e-01 1.047618468654011e+00 1.047084973299819e+00 6.088976684230049e-01 2.430777585849966e-01 2.342548554837662e-01 -1.261360259266156e-01 4.982295960094097e-01 1.004087386954343e-01 -4.121595987019182e-01 2.266012875130446e-01 4.282004232116186e-01 7.049381285588715e-01 1.482253452192001e-01 1.585544733357619e-01 -1.087975586831838e-01 -4.159557625875573e-02 1.096961755257253e+00 6.096701217658979e-02 9.817211819899385e-01 9.778064216541954e-01 1.103822737960513e+00 8.474897448899850e-01 1.039733876089198e+00 -2.117056090577288e-01 1.042411500249370e+00 1.107442374229165e+00 1.094711029692580e+00 8.077120202814622e-01 7.099240668578235e-01 8.818903946990094e-01 8.763201443958094e-01 1.218548319707868e-01 6.474988475069853e-01 -1.997378382948746e-01 5.597310158780157e-01 1.234810527180538e-02 1.828847966934393e-01 3.907126405267629e-01 7.521017468277529e-01 8.597907529848099e-01 -2.413562425383285e-01 8.132684744853306e-01 5.721156380018788e-01 1.058685841775781e+00 9.527092944081195e-01 8.670915840959850e-01 9.881234502181371e-01 1.038295199695903e+00 1.096020126419069e+00 6.156083831861864e-02 1.617224017623013e-01 1.038850800224974e+00 1.094901618823473e+00 5.223199298781401e-01 2.021026340255215e-01 6.210864962145491e-01 9.682496645580381e-02 
</DataArray>
<DataArray type="Float64" Name="piezo_head_elements_[L]" format="ascii">