<?xml version="1.0"?>
<VTKFile type="UnstructuredGrid" version="0.1" byte_order="LittleEndian">
<UnstructuredGrid>
<Piece NumberOfPoints="568" NumberOfCells="1054">
<Points>
<DataArray type="Float64" NumberOfComponents="3" format="ascii">
0 0 0 0.049999999999899652 0 0 0.032369857048753323 0.032369857048862027 0 0.058433525112266523 0.058433525112214509 0 0 0.050000000000207989 0 0 0.10000000000041601 0 0.040058458469319477 0.094457855579157729 0 0.098076845682915317 0.099172414730993488 0 0.094457855579284614 0.040058458469418363 0 0.099999999999814668 0 0 0.056452228708379938 0.23456580837661581 0 0 0.20000000000083221 0 0.038839999600931263 0.17949825993190149 0 0 0.15000000000062411 0 0.054872692726595548 0.13410685639845171 0 0.089689702191541126 0.13851380458662241 0 0.12294765968567151 0.14825146416195439 0 0.08287507656968085 0.1788186348829835 0 0.099694771212264055 0.22074048840547039 0 0.15899695163321451 0.22783674912227669 0 0.12587517708284679 0.1889683322666954 0 0.16901316006868169 0.16800219386663079 0 0.18922011052115781 0.12644206653611201 0 0.22626394058331961 0.15465946819838111 0 0.20596721135052939 0.19972517895396219 0 0.2115548431873881 0.2417444767741872 0 0.18035159017842109 0.039190336535090492 0 0.14999999999970359 0 0 0.1383574446607988 0.058995933918849157 0 0.1484760565886207 0.1122209074004519 0 0.18172590289758209 0.08161197406129285 0 0.21720615046484709 0.1044394548351292 0 0.23167460333446299 0.05534377469531044 0 0.19999999999955789 0 0 0.24999999999941211 0 0 0.28320804985300141 0.050843339082505573 0 0.29999999999926641 0 0 0.32361955853288599 0.032799927825624707 0 0.36246243089534252 0.044218366607477223 0 0.34999999999912063 0 0 0.35582258519414178 0.085418764257258431 0 0.32242731191769902 0.068937933438140794 0 0.33076700644279272 0.1195922550481146 0 0.29506339503703888 0.1011380892434444 0 0.25714619498771307 0.1041399906845497 0 0.26318949769601319 0.14610173397257309 0 0.29914271679297122 0.15649620970120659 0 0.26017196519013502 0.20370391303005 0 0.30107969069289831 0.20280020009141189 0 0.28840285102268098 0.24960955320708811 0 0.33179683980498331 0.2223019939720311 0 0.33080167595110582 0.18179111300269291 0 0.3603074848216346 0.15401470087110539 0 0.3972892400718947 0.16563993209502181 0 0.43240736009008851 0.18205680965402779 0 0.41732862935313042 0.12986698634362279 0 0.38103425680679859 0.2047839516297037 0 0.42421838472613971 0.22246502005787769 0 0.46229330881044273 0.19890916456654811 0 0.49999999999997108 0.21968641114982909 0 0.45952001838826873 0.15666487330524251 0 0.46567857652706018 0.1143680615275231 0 0.47574662421782782 0.077626823840590969 0 0.48492433058289169 0.037321398276272413 0 0.49999999999869432 0 0 0.44999999999882923 0 0 0.44692795014265252 0.051801877645060238 0 0.40685581827241191 0.041139877312511682 0 0.3999999999989749 0 0 0.39061628640684498 0.081525103161991672 0 0.37516171960683908 0.121918126660369 0 0.43122735573933979 0.088176999192917438 0 0.42930823106401639 0.40626685012722968 0 0.39222057657781068 0.38067796690227418 0 0.39419886675318527 0.41912225240070788 0 0.37702386074717259 0.45819417564476811 0 0.41009598069569558 0.49083935749285379 0 0.42340342337193693 0.44762131874855388 0 0.46152714345798918 0.47344359412352599 0 0.46102425708533701 0.43254199134332588 0 0.46543211128216788 0.38788423543681888 0 0.49854341599767982 0.37075914768127122 0 0.47253211736503098 0.34081710830804929 0 0.48378871228000903 0.29745177826977359 0 0.45533136021725079 0.2525687312087147 0 0.43059486795334201 0.30395973419063538 0 0.39162098771181342 0.29503699292854563 0 0.40180462628983732 0.2561903397585753 0 0.43301393728221038 0.35984320557492139 0 0.39120887188745579 0.33407577688404289 0 0.34804757266227387 0.35750068079406011 0 0.3231032570156932 0.32141443408924047 0 0.3579628846738841 0.25683522786710378 0 0.35481435458309307 0.30398436674998969 0 0.32373692627050221 0.27286413781593999 0 0.29747949118041711 0.2964111573808435 0 0.26014443552207939 0.29262390443653519 0 0.25082138072344978 0.25770010742236849 0 0.28473805236128291 0.34355768118673757 0 0.25582605936799319 0.39507969989513358 0 0.2963043386970643 0.4298320229681446 0 0.30597655500381687 0.3934681685211931 0 0.35481422397128459 0.40312981465069342 0 0.33382663527330159 0.44130125047503482 0 0.33436424489304489 0.47849603121740791 0 0.29988655052531688 0.46700727827593119 0 0.26247584734598628 0.44764943295894732 0 0.262418491288269 0.49071922292154141 0 0.19218127164496679 0.46593838964869538 0 0.23232476702437141 0.46634525369567709 0 0.21968801783855879 0.43306783640023788 0 0.197169318452384 0.38703015239362498 0 0.17845774482872559 0.43087117257049429 0 0.14869578771858949 0.40481452396082068 0 0.1444847662218138 0.45353891581271188 0 0.16001314202358469 0.49771727055909287 0 0.22001518176882229 0.28602682846307981 0 0.19152147653881049 0.32791879770215432 0 0.2360419540479583 0.32191828326940741 0 0.22269553095687891 0.35837423432538801 0 0.15401470087117619 0.36030748482174652 0 0.14392209494791439 0.30620070203545702 0 0.1685376717739448 0.27232483159280108 0 0.1104775404132264 0.2631175359816938 0 0.099492119481027347 0.30746398533281638 0 0.073296788161418117 0.34226957089850552 0 0.11603400219493119 0.33748134585014028 0 0.033457646040922301 0.36364842331228431 0 0 0.35000000000145642 0 0.032220921767546963 0.32901489214487523 0 0.053730171687646627 0.28825077189828552 0 0 0.30000000000124832 0 0 0.25000000000104028 0 0.064893331803534807 0.48669777060454478 0 0.1091992745981364 0.48758069708049778 0 0.097100979577207341 0.43590673999053198 0 0.10935320311385981 0.37839190921727089 0 0.06053051438015096 0.39514626428972788 0 0 0.40000000000166441 0 0 0.45000000000187229 0 0.043612803661092707 0.44006111182840391 0 0.029444907164209121 0.47500000000196552 0 0 0.50000000000205869 0 0 0.55000000000173355 0 0.051801877645083663 0.55307204985745195 0 0.037321398276215258 0.51507566941747263 0 0.07762682384055844 0.52425337578226128 0 0.1143680615274819 0.53432142347292733 0 0.1219181266603569 0.62483828039315903 0 0.088176999192898689 0.56877264426067353 0 0.081525103161997597 0.6093837135931508 0 0.041139877312483641 0.59314418172763017 0 0 0.60000000000138687 0 0 0.65000000000104008 0 0.032357843506722522 0.67660040198578164 0 0.04421836660747535 0.63753756910470205 0 0 0.7000000000006934 0 0.04863291748797445 0.71789175274016204 0 0.091072812796719582 0.74198804864687795 0 0.099018722548963364 0.70475631558365193 0 0.085418764257258195 0.64417741480586865 0 0.068937933438162791 0.67757268808231053 0 0.1195922550481313 0.66923299355722787 0 0.1540147008710982 0.63969251517836956 0 0.1817911130026923 0.66919832404888702 0 0.13725179499972981 0.74154628962856628 0 0.1564962097012354 0.70085728320703999 0 0.20370391303007401 0.73982803480989479 0 0.2028002000914135 0.69892030930711557 0 0.249609553207091 0.71159714897732929 0 0.22230199397202771 0.66820316019503168 0 0.2047839516296828 0.61896574319320252 0 0.2224870800581388 0.57577541371134155 0 0.2196864111498267 0.50000000000003153 0 0.1989632851005598 0.53769147668950479 0 0.1566648733051971 0.54047998161174216 0 0.12986698634359389 0.58267137064684615 0 0.1656399320949789 0.60271075992809464 0 0.18205680965398621 0.56759263990989739 0 0.10000000000041601 1 0 0.094457855579188163 0.95994154153068711 0 0.050000000000207989 1 0 0 1 0 0.030452409610489669 0.96954759038951022 0 0 0.94999999999979179 0 0.058433525112254137 0.94156647488774581 0 0 0.89999999999958358 0 0.040058458469322648 0.90554214442079806 0 0.097990957645208238 0.90045039720880915 0 0.1229476596857173 0.85174853583809695 0 0.086813039193431391 0.81709574086842884 0 0.087041706119416085 0.85382799508926188 0 0.052469033166843738 0.86696410734366991 0 0 0.84999999999965292 0 0.043889462445437968 0.82675923981951283 0 0 0.79999999999999982 0 0 0.75000000000034661 0 0.052938001421335763 0.77688977118331159 0 0.11231692802445629 0.78020430794084028 0 0.16253691950235041 0.78284912262768558 0 0.24335844191347281 0.78651189793387466 0 0.20359074765364421 0.79422489417871855 0 0.22893929024737289 0.83990878992727813 0 0.17101873536300011 0.82898126463696109 0 0.1322615032692282 0.8130603300143705 0 0.14688274318541941 0.88962265630811932 0 0.1817259028976386 0.91838802593888857 0 0.18958721034944021 0.87660297360394568 0 0.22131139331094829 0.9041449437198319 0 0.23222643817617661 0.94420751116970569 0 0.20000000000083221 1 0 0.18045991219397989 0.960710939969875 0 0.13834721989462789 0.94095916274077984 0 0.15000000000062411 1 0 0.35000000000145642 1 0 0.36363861612613613 0.96654491682121313 0 0.32894624184180998 0.96779701826738929 0 0.30000000000124832 1 0 0.25000000000104028 1 0 0.28790752038294382 0.94635952848702642 0 0.26305414557470391 0.88949062093136155 0 0.30738136326657722 0.90051880305435028 0 0.33748026778199908 0.88396545633134682 0 0.3422695708985129 0.92670321183858773 0 0.36030748482174152 0.84598529912882459 0 0.30619531169472608 0.85607519768342955 0 0.27254997832041528 0.8312019486901443 0 0.28602682846308641 0.77998481823117594 0 0.32191828326940508 0.76395804595204586 0 0.32791879770213411 0.80847852346120164 0 0.35837423432538362 0.77730446904312345 0 0.38703015239361932 0.80283068154761972 0 0.43306783640023289 0.78031198216144404 0 0.46634612187967051 0.76767585524061377 0 0.46593838964869061 0.80781872835503554 0 0.49771727055908782 0.83998685797641781 0 0.45353891581270822 0.85551523377818905 0 0.43087117257049001 0.8215422551712771 0 0.40481452396081791 0.85130421228141606 0 0.37839190921727062 0.89064679688614412 0 0.43590673999053309 0.90289902042279657 0 0.48758069708049379 0.89080072540186539 0 0.48669777060454272 0.93510666819646593 0 0.44006111182840962 0.9563871963389079 0 0.47500000000196563 0.970555092835793 0 0.45000000000187229 1 0 0.39514626428973221 0.93946948561985189 0 0.40000000000166441 1 0 0.33231497408081678 0.60779218732873663 0 0.37104651296145419 0.60545170748311072 0 0.35984320557492089 0.5669
[...]
<CellData Scalars="pressure_p0," Vectors="velocity_p0," Tensors="">
<DataArray type="Float64" Name="pressure_p0" format="ascii">
0.02745661948891516 0.010789952790500273 0.046934462542494788 0.030267795801858094 0.013352820997055932 0.013352821552607471 0.03283066399150053 0.065522949554802451 0.08365608116894889 0.064336007171876181 0.080879758261898971 0.12316686244268976 0.11029738786502949 0.11481928660258925 0.081485953310323697 0.067630463097681587 0.018817409503745358 0.059389105882549337 0.031764077735460791 0.058862597140706241 0.012946667955854016 0.031237569044202773 0.031643722074568309 0.075812500887554229 0.098504156146729027 0.10357141356189148 0.11056597991106773 0.079674029405318841 0.10281501449354262 0.12305641965546225 0.088874846728086876 0.17969648299694616 0.12818896816216535 0.1512950977634229 0.17799244040604001 0.13927867124738866 0.14681229820933012 0.16890311392656621 0.21089673446604956 0.19483240610090885 0.24886653992018287 0.23080103436805471 0.24987512741480683 0.2004147709866346 0.22589800030076931 0.24084938429385772 0.19217299871755716 0.16681164879848492 0.17678386410804753 0.12760510316118684 0.15623634707411022 0.15618647296270369 0.1283034558242884 0.17314069435718163 0.21020221942034825 0.19605072340590374 0.23353876012673613 0.23534231467031996 0.19791736643436258 0.20400873190753094 0.22722486789863527 0.2777360151946297 0.25496088245009496 0.30975163334341732 0.3022758661772158 0.32453985080715153 0.33616975712465702 0.34536065660169823 0.37082080444804288 0.37386682716415287 0.35391707231465586 0.36963374260733889 0.34690409397090249 0.33633894879119181 0.31608589104414192 0.300232911742361 0.27847254088619178 0.25734294586823087 0.27179968912455854 0.27416804673218359 0.3103413348037885 0.30832435571333783 0.28579852475354178 0.2664653808889762 0.28321814778370619 0.28679810466216726 0.30709309856610856 0.31464550767799421 0.32122603750302886 0.34787755314590213 0.35693128691486387 0.34062535515656744 0.32023710621367052 0.35738110013636704 0.35541203328005111 0.3965931468168219 0.37758610317330676 0.40357690394907869 0.37954361549605531 0.41567502642870757 0.43641861757084088 0.40235237334897866 0.38026721033276312 0.41255328461142132 0.42711806813002595 0.44728096119985156 0.43963963173846832 0.48819195464321519 0.47254149597781658 0.48755319180766787 0.44750902221692346 0.4514068429112883 0.47469863136156187 0.49346015138060584 0.47582705519132357 0.4846147897797024 0.43807813467307222 0.45755080751431776 0.45130060564176566 0.49132436156923648 0.46919960478298184 0.47830810122002765 0.46061740961239389 0.42833700838681488 0.41895193096994621 0.4345945705525649 0.38977273503404553 0.38664481922786509 0.39436882789647476 0.4130573711676232 0.40956644992259739 0.41563681261874019 0.41818087565128226 0.38041119256769468 0.40524252559711871 0.37534562888150924 0.39820869803683578 0.40350774666825839 0.38175879153085757 0.43167550579075398 0.4486515862585857 0.4415198970236851 0.47260122931435422 0.4908015588718091 0.47669630536385921 0.49111556127751377 0.47708039635054533 0.43791193914457893 0.45192149425383266 0.44258471769791907 0.48958677594620437 0.49533014610849824 0.47883583071917973 0.49041190595624246 0.44538025358187866 0.46230517204332322 0.45699267275375199 0.482149425504872 0.45657158163803768 0.42924355815812926 0.40800677187892775 0.40447485829309648 0.37921469400686647 0.3837961172717882 0.41827250859235954 0.40548108501167535 0.37715896795135162 0.31292070420423823 0.31862960161095943 0.36469022814248209 0.3419883623133978 0.34550468431375081 0.3681326988138437 0.31477319718444846 0.33388481414746574 0.33783217996738796 0.28200890258191458 0.30320639451050985 0.28078730707849592 0.2664562020094432 0.30177357729526727 0.26030813212842968 0.25441987258198984 0.27153541996592778 0.31203583368248983 0.28603564485780958 0.28218020954288447 0.33627942302662295 0.33153911913549095 0.35522155672869021 0.36502742361920215 0.35651488095677164 0.3484049097638291 0.32269248023504166 0.28841092540407565 0.31239283649835781 0.28622225398748263 0.31000584154067018 0.25240639163551681 0.2749269818295611 0.23814325200607828 0.1906269645226818 0.21473084090466438 0.19677569128919747 0.21473137077247914 0.23816289686920328 0.2459966546697101 0.22523030305012903 0.22422780690694155 0.19843836840963172 0.15721277014354929 0.17477428639779746 0.1666266002867452 0.13735455857508852 0.13009384335820459 0.13789906815168429 0.16555974028596407 0.17170793804465376 0.20003588900946348 0.2436603155423025 0.22746378839665393 0.2387338418208691 0.21585952593376306 0.19335809966342343 0.21675297891404061 0.2478251684172661 0.20379543766690006 0.18090182716197994 0.12646729483797878 0.13799025813122098 0.1631527491940476 0.16799373795226208 0.14097909513822093 0.14600404989538979 0.07355331084599806 0.11796391134194728 0.087899938465228755 0.075506353179929292 0.11981606426523395 0.09627429554794667 0.099561323101314977 0.081060159582722072 0.046325112237268984 0.055761642201091671 0.011152546779811182 0.021892852201812064 0.010740305397886073 0.053082620414180277 0.028650360158088289 0.017910054931549568 0.036727464497922371 0.06853569937475032 0.09039785935299538 0.083906473854666763 0.11692834069789154 0.11838331660633483 0.088994888897878627 0.067081424364134362 0.034714434266633377 0.031329382394570102 0.014537598876507758 0.024352566123139473 0.04598367458827271 0.04388654052481511 0.0098149674411641234 0.022255432053752321 0.012440464468994213 0.029707755842495662 0.059947180439370529 0.055583363786235747 0.072535232920968376 0.093390630686457088 0.11080402674009585 0.10039805295754017 0.1111034228849211 0.09985637373521411 0.070280662198803148 0.055627783909841765 0.060372915699464028 0.030980580748073569 0.013713290502908879 0.028452747370508947 0.025525404943418314 0.014739455727489546 0.010785948655286636 0.048504719307187236 0.01621097436392379 0.026996923496233664 0.049976237608446598 0.033856976921167542 0.064214585250753894 0.079574828576884582 0.072196534693653974 0.10911445893530683 0.070387416664435334 0.066191695094858019 0.091316331494922243 0.095849652050904566 0.096287343166216122 0.10897639978669385 0.13184172191012639 0.15262655535666503 0.15179938936085974 0.18019663564231947 0.16581732998713722 0.12503575012111881 0.13092226209990576 0.18036254154500597 0.1876668038641835 0.21870458654968788 0.22490395428076304 0.2370045511655163 0.20295906712738732 0.20229780995525315 0.24846941265033079 0.22797712923086522 0.23927324748977097 0.22782051073664494 0.20310933541322285 0.24384965616347584 0.22477396810025008 0.24499213587230884 0.22384040279731099 0.19288764279456244 0.20116910863471632 0.17922836492744665 0.17188046413452512 0.14368204058571615 0.12786016527561886 0.13363332417433058 0.15619625593925662 0.13914171363578398 0.14719095909114605 0.18416028899454528 0.17481291688811351 0.15918794994033697 0.11481928449526541 0.067630460407499995 0.081485951616017363 0.046295312214702858 0.010150803305374299 0.026817470097221484 0.029628645432100829 0.032830661649588144 0.013352819817640008 0.013352819982535626 0.063506150973210745 0.065494314329108821 0.083627446052874713 0.11026534332696245 0.12260711874439083 0.10266010895122236 0.11400740413061267 0.098934138082858461 0.072581406702873386 0.079167234545352794 0.061133404338972158 0.0321195008727845 0.030842498419456084 0.014629822086194157 0.061213506436297277 0.032275824441814233 0.017646002341360864 0.085442591305413013 0.084022664458544463 0.11046383181280911 0.11354719395797715 0.16783089704040988 0.1373685638550734 0.15527239219904368 0.13570512781633703 0.17904880872816253 0.18994387759501707 0.21688438430137486 0.23492084021470727 0.22529616405208486 0.21327928843033009 0.20118292553596273 0.24828256755529193 0.19651507316463776 0.16916289031883519 0.14207596609088086 0.14694970934136992 0.12774030396025771 0.15565194788942741 0.17273194373625667 0.19754149117142111 0.23776826425741104 0.23886397783763408 0.21175456405689547 0.19813740417655501 0.20422877346843812 0.22740880653915588 0.1768199674114446 0.15626903847988691 0.16684433484187686 0.12760168976591066 0.34752828317011286 0.37121287095008981 0.3449514699224786 0.36701814332225435 0.31970776975072063 0.32631541232468125 0.30561791594248855 0.27930250289876318 0.25671130979577028 0.28611433039346945 0.26106268752563272 0.29221026119151788 0.31701896995601331 0.32904372230054452 0.3125194736128088 0.37193590362848078 0.35271390316613527 0.35872654347914434 0.35841880484942934 0.33147385686840641 0.33466101236986878 0.25484779337964703 0.28059979927223294 0.30222135468611561 0.31195463828399989 0.29549853208041049 0.26731174976289429 0.27875939465256527 0.26236180142231286 0.30016545024047869 0.34099844746112662 0.33607043840191786 0.35777439047575599 0.38016136003305828 0.40505922428641006 0.41698971174771338 0.42526564965018177 0.44902111980620574 0.48569240744996767 0.48788521499153692 0.47742816178102354 0.45511743920710523 0.44329245489137742 0.45011614828795066 0.47239818605924533 0.47961229693187735 0.43142005360679325 0.4297415277322571 0.40757194006755104 0.38405071140264302 0.38117129645061321 0.4031482970254448 0.42370470472986477 0.4063710495379369 0.45900878556632407 0.49951062947869257 0.47006174310931292 0.45422187918242751 0.46725296823644813 0.49225782458135564 0.47500000274447007 0.49669189705834615 0.4550203748467963 0.43002037256909598 0.41173579185600839 0.38626162382941132 0.33215190907280734 0.35427033052123774 0.35440160943404353 0.37260923660012324 0.34976867476215801 0.3307968241167531 0.33181616271407555 0.31284379584931477 0.33181564606107417 0.28669886506373804 0.27273921930036704 0.27111976590078862 0.28517496803275599 0.31052282548698862 0.31054984445290251 0.2693575954914893 0.27818611885179423 0.25088133142375285 0.30010386075782874 0.29750212317364511 0.28536626463446957 0.2666203137521041 0.27952400246677911 0.27317246351026914 0.31055508014031868 0.31905744664154845 0.32057085939015895 0.37473537282831287 0.36538558439867375 0.36285861110545442 0.34158360048601377 0.33199361443380626 0.32875479580787398 0.39054391160655888 0.38384006971806695 0.42542058588871567 0.40640872711151566 0.4347603199649796 0.4224523018457701 0.40288622678121916 0.42329483336853824 0.46824221664684895 0.46858314926544126 0.44739123460589791 0.4459944867221628 0.49098102281003558 0.45894042573776661 0.46300519918470529 0.48679982121746102 0.48169560577845039 0.48626344210026479 0.47398034226036267 0.46578928672660369 0.43733732046299745 0.42050646834716027 0.4302125659078968 0.37852394741942152 0.37901036592704673 0.39408790587628351 0.38936014815222364 0.38811773501973107 0.42947263778108047 0.41338778959211003 0.42095349359631873 0.45523447350918 0.4561125817314583 0.47867476968599493 0.52946109087985205 0.50465362260890523 0.55297322583622388 0.55986454969139732 0.57475408002528283 0.5800655321012318 0.58913001632593942 0.59625387125359985 0.61981229404968985 0.6101926969166348 0.60194953713485655 0.5842814143063646 0.55864443189417057 0.5470470846439206 0.51939605032638592 0.50083730344766331 0.51301324574079521 0.50158509267619855 0.52238498451264359 0.55892140087983144 0.53932569545912423 0.5376046289976637 0.51674305889759087 0.54198068955385792 0.54333662974077945 0.57112074372527011 0.59236207804224961 0.59589400095064371 0.62078528436505165 0.61620385015577805 0.58165605083759964 0.5955970907811825 0.62435952852864662 0.68667613374645364 0.68134448284624549 0.63530976767090896 0.65800988085503309 0.65449519732378936 0.63186727967108602 0.66611331587701983 0.68522493777934934 0.66216770335273423 0.696793497358146 0.71798904487487047 0.71918647756512777 0.73354174497596547 0.69820050288482449 0.73966565479961721 0.74555599395110095 0.71264529646936126 0.71741663811721312 0.72752454651376275 0.74788211684336825 0.72455320439582338 0.71209553577609186 0.71212787621040452 0.68811510979625123 0.68089560649897174 0.66934050846183757 0.64290236131503486 0.64639063876373837 0.62867365630408578 0.63976797087678916 0.6666184690075545 0.6829261232751378 0.67379260661931517 0.61022726005877359 0.61335517083307356 0.5716629765274035 0.56540542153308637 0.58104806570791112 0.53938258578963172 0.52169189550950612 0.53080038360229209 0.50867562105166564 0.54244917324618258 0.5486993790857031 0.51538518565770042 0.56192184149301982 0.58694260077513405 0.59043353239318719 0.60563114357772485 0.62241387010379723 0.60340682471284746 0.62045635843226132 0.59642306755457097 0.58432494844056815 0.56358136149171323 0.55249095910071866 0.50653981149491156 0.52417291097672991 0.5253005121091241 0.54859230973991835 0.56035918367851933 0.5118071738558394 0.51179537409518749 0.52745308645998601 0.55271330277652875 0.57287701161326143 0.58744635058306449 0.61973276542571942 0.59764726219129471 0.64306869702401925 0.65212242767120254 0.6787739495960704 0.68535437932300813 0.69290689327623678 0.73353461888602778 0.71320189235551801 0.71678184927069732 0.6896586540952131 0.72741055446058378 0.71571998597975051 0.6916155527772756 0.67976288255777328 0.65937462418356707 0.64261887599798717 0.64458794650648166 0.64608291460479494 0.62613315406163295 0.65309591206395123 0.63036625114510536 0.66366105529244357 0.68385402377993731 0.72943024443072513 0.72154539540136731 0.74558987317339909 0.70007360886247028 0.69068830205652842 0.74826051560737095 0.72263058954195081 0.69816406213244719 0.67553347165966926 0.66390357308620951 0.65471266983327914 0.62917919691677537 0.87416874270204059 0.84918377053865357 0.84790777710525123 0.82558641159391311 0.77562992425503907 0.80691491641593882 0.80121633496064804 0.79139661483671975 0.76636072750892048 0.75457957376642915 0.80345346339866652 0.84089074480739479 0.82730152811353985 0.83256098292785619 0.8737474820531812 0.86867562415737809 0.85678413893331329 0.86506895233478465 0.83126336928196121 0.7920379318460804 0.80829691182892005 0.75474116863732887 0.76819992724354724 0.80201843791465266 0.77230070013514363 0.77352162375159539 0.75850620076034359 0.80688187346498508 0.87355223515291114 0.81920756236502912 0.8210383236807417 0.84849767469868087 0.87784812461474671 0.89971197090594091 0.92224681804324371 0.91261436147562913 0.98140250164658971 0.94110214495858469 0.96830614107025359 0.94001935658708857 0.96722335505614387 0.98690364059719637 0.96696688844077783 0.91632325847417584 0.91034404382946588 0.89487120113053642 0.88060717525243715 0.89098553127010671 0.93398611820142574 0.9158529881641404 0.93378367435543908 0.98664717431207993 0.98664717586842621 0.96716933319275267 0.96973220790819536 0.98921004924516986 0.97254338177956101 0.95306554101902241 0.91851404567888584 0.93236953757425689 0.88518071033726664 0.84278711281608343 0.82522575143643029 0.83337343294984101 0.86264547117316837 0.86990603160492019 0.86209954628942531 0.83443971941382467 0.82829189980242035 0.80322430452232396 0.78536711033099249 0.80937264797363584 0.78536763375859997 0.76214525327460703 0.76193564787867007 0.75400340601127169 0.80156169182364234 0.77577225236300107 0.77476974463874948 0.75215068421089304 0.78324705038517461 0.79620460413171745 0.77189180006460578 0.75633763511753993 0.76126411472097977 0.80655512765829607 0.78414049612236947 0.79923291138148289 0.83191858888059711 0.85353380171633098 0.85892261082522448 0.819098215626755 0.83684638251420385 0.86200869350059395 0.87353256279688951 0.90043852565193749 0.90372918952619241 0.88018652072044601 0.92452720237510155 0.9189398652997286 0.88202822965337213 0.91212299970342647 0.92668589476841579 0.96352234922907698 0.97138552295086544 0.98211984626708815 0.94423922770057755 0.95368173278756241 0.9469532682361389 0.9892656773046351 0.9888483114025175 0.97811398894453738 0.98546240408526353 0.9652855767236298 0.96867148139976744 0.91100514359535389 0.93291859820162626 0.88161671025459509 0.88307064310940808 0.93146431340784241 0.91598072029757149 0.90960126179270429 0.95610955309990175 0.9540163284265355 0.97564743583267233 0.9777406614486257 0.9901850325584256 0.987555629750418 0.97026490747460847 0.94427738500839364 0.93993699837557498 0.9715576106188526 0.96899598616712046 0.98628670830827825 0.93896750134964391 0.94452468966193881 0.92922530393414504 0.89964748442818698 0.8890599259118388 0.92669326631080828 0.88855059853087193 0.90585418368835668 0.89948202094509933 0.8721314647312649 0.85630950867678779 0.82812834198852869 0.82078081838819728 0.86635648045315339 0.84380068205814762 0.86087953670054806 0.8528324111520833 0.81583976519618839 0.82518713082367734 0.8408099770454015 0.79689493183552162 0.77218375261762584 0.76073015100247132 0.75621246140935505 0.77529826822647152 0.77622761540683038 0.75525573303851568 0.80712214820592387 0.7988452729296629 0.78129543326919837 0.81233321262864977 0.76299546301472887 0.77509607305042749 0.75174194797777594 0.77202626557358278 0.79704096591765228 0.79770221667529473 0.8198033952985595 0.86818163594607412 0.84820063013739078 0.84737346001138047 0.86542131926106092 0.87425781387530344 0.81963747446250368 0.83123270511857772 0.88287339267642628 0.92636021687481107 0.91462619453986094 0.92989096381779834 0.90330674908215336 0.89047558574931474 0.90344391271665181 0.90811231762194167 0.93324730097996045 0.92919368998268581 0.95136035775402328 0.98906876227945417 0.97433966417612727 0.98527090162627706 0.96460428917004704 0.9491416768472194 0.97212098341707331 0.98305221772596707 0.98155207057986849 0.96848862388494505 0.9412846354196106 0.98693655211309861 0.96698186688310761 0.96727124194961744 0.94006725326236884 0.90987024980364861 0.91572373429882448 0.89324169012760224 0.89583550247514565 0.87892035745224406 0.91202559176213904 0.91953493210318493 0.95306554106938712 0.98921004795773348 0.97254338184632561 0.96973220639683533 0.96716933788300619 0.98664717831099336 0.98664717797471269 0.93392439507071967 0.88011840814518105 0.89075429292266428 0.87606897819176521 0.91597873688922338 0.93411186499489474 0.9323695434485002 0.8851807139958634 0.91851404841716344 0.82350058155327055 0.84546496326786791 0.87381176351362733 0.8358587553783019 0.84952024057190556 0.87135410918500333 0.84480536914947846 0.82798718485780332 0.80382417833506903 0.76276840327470052 0.76052538686622839 0.78862502578559379 0.79531198302148054 0.80237244064553259 0.77181139865169479 0.8258710510717262 0.83184495106897305 0.81397047194989702 0.86503292839589385 0.85029875811852373 0.87148633461521574 0.86444495145029765 0.85717515113190823 0.8315926681111756 0.801478626239576 0.80506424330450344 0.7874848094057787 0.75269797057271093 0.77689786057486998 0.78494213664671664 0.76561715774065775 0.7212263342129378 0.73817618018082776 0.69982026818563159 0.70457649034349301 0.68804533335568629 0.73330127169846115 0.71945229328768212 0.74557361529081656 0.69785186668290911 0.66852431229650389 0.66533679914129973 0.64127305638719712 0.64158115182981079 0.64222556540745079 0.65883379301103262 0.6639295237647922 0.69424477673997653 0.72058307530226051 0.74239447229588718 0.71372256246589583 0.73802195749778987 0.70773924687881351 0.68295130718485286 0.67092835156431097 0.64728570159291321 0.62806406076041832 0.68733855051970572 0.68015491561540919 0.65502235773260931 0.63297855923249757 0.62878385526667147 0.65244555571481455 0.67366170102018341 0.56997962213621778 0.61373509048206554 0.58826419387087392 0.57629526917365081 0.59685166651704158 0.5936289028295737 0.54099116769677025 0.52993822378328626 0.50048934583899096 0.54577809431478963 0.53274701240926325 0.50774215741218898 0.50330809215953176 0.52499999291275334 0.54497961479192725 0.58297722100111982 0.57450324968154953 0.59490771207957238 0.61983858970315231 0.61594923388984324 0.61882865237923934 0.56857989202414316 0.59242799983373085 0.57025840957407192 0.5498798545928878 0.52038765034958234 0.52759782046215942 0.51211079096587964 0.52223430185855901 0.54451202059478598 0.55667054176108499 0.55041423719848948 0.51332716078847906 0.53057932021140952 0.52945967851565967 0.50933264508399179 0.50680375425093771 0.5509