<?xml version="1.0"?>
<VTKFile type="UnstructuredGrid" version="0.1" byte_order="LittleEndian">
<UnstructuredGrid>
<Piece NumberOfPoints="568" NumberOfCells="1054">
<Points>
<DataArray type="Float64" NumberOfComponents="3" format="ascii">
0 0 0 0 1 0 1 1 0 1 0 0 0.049999999999899652 0 0 0.099999999999814668 0 0 0.14999999999970359 0 0 0.19999999999955789 0 0 0.24999999999941211 0 0 0.29999999999926641 0 0 0.34999999999912063 0 0 0.3999999999989749 0 0 0.44999999999882923 0 0 0.49999999999869432 0 0 0.5499999999988151 0 0 0.59999999999894682 0 0 0.64999999999907843 0 0 0.69999999999921003 0 0 0.74999999999934175 0 0 0.79999999999947335 0 0 0.84999999999960507 0 0 0.89999999999973679 0 0 0.94999999999986839 0 0 1 0.049999999999899652 0 1 0.099999999999814668 0 1 0.14999999999970359 0 1 0.19999999999955789 0 1 0.24999999999941211 0 1 0.29999999999926641 0 1 0.34999999999912063 0 1 0.3999999999989749 0 1 0.44999999999882923 0 1 0.49999999999869432 0 1 0.5499999999988151 0 1 0.59999999999894682 0 1 0.64999999999907843 0 1 0.69999999999921003 0 1 0.74999999999934175 0 1 0.79999999999947335 0 1 0.84999999999960507 0 1 0.89999999999973679 0 1 0.94999999999986839 0 0.94999999999979179 1 0 0.89999999999958358 1 0 0.84999999999965292 1 0 0.79999999999999982 1 0 0.75000000000034661 1 0 0.7000000000006934 1 0 0.65000000000104008 1 0 0.60000000000138687 1 0 0.55000000000173355 1 0 0.50000000000205869 1 0 0.45000000000187229 1 0 0.40000000000166441 1 0 0.35000000000145642 1 0 0.30000000000124832 1 0 0.25000000000104028 1 0 0.20000000000083221 1 0 0.15000000000062411 1 0 0.10000000000041601 1 0 0.050000000000207989 1 0 0 0.94999999999979179 0 0 0.89999999999958358 0 0 0.84999999999965292 0 0 0.79999999999999982 0 0 0.75000000000034661 0 0 0.7000000000006934 0 0 0.65000000000104008 0 0 0.60000000000138687 0 0 0.55000000000173355 0 0 0.50000000000205869 0 0 0.45000000000187229 0 0 0.40000000000166441 0 0 0.35000000000145642 0 0 0.30000000000124832 0 0 0.25000000000104028 0 0 0.20000000000083221 0 0 0.15000000000062411 0 0 0.10000000000041601 0 0 0.050000000000207989 0 0.50333998054938722 0.50119715791968966 0 0.70252050881959183 0.70358884261915833 0 0.29641115738084339 0.70252050881958938 0 0.70358884261915744 0.29747949118041561 0 0.29747949118041711 0.2964111573808435 0 0.50000000000002642 0.7803135888501761 0 0.2196864111498267 0.50000000000003153 0 0.78031358885017377 0.49999999999997569 0 0.49999999999997108 0.21968641114982909 0 0.8289812646369813 0.82898126463698818 0 0.17101873536300011 0.82898126463696109 0 0.83199780613337848 0.1690131600686714 0 0.16901316006868169 0.16800219386663079 0 0.56566515596461675 0.63670464971409091 0 0.35984320557492089 0.56698606271778873 0 0.640156794425081 0.43301393728221721 0 0.43301393728221038 0.35984320557492139 0 0.63969251517836323 0.84598529912890386 0 0.1540147008710982 0.63969251517836956 0 0.84598529912889664 0.36030748482164038 0 0.3603074848216346 0.15401470087110539 0 0.84598529912884157 0.63969251517827153 0 0.36030748482174152 0.84598529912882459 0 0.63969251517826664 0.15401470087115929 0 0.15401470087117619 0.36030748482174652 0 0.4434591735942961 0.66641640622551224 0 0.66548584431530877 0.55616712808283064 0 0.33382663527330159 0.44130125047503482 0 0.5586987495249669 0.33382663527330653 0 0.53432142347292233 0.88563193847251998 0 0.1143680615274819 0.53432142347292733 0 0.88561059063756964 0.46572761956237563 0 0.46567857652706018 0.1143680615275231 0 0.74198804864688339 0.90892718720327403 0 0.091072812796719582 0.74198804864687795 0 0.89586000931544074 0.25714619498770419 0 0.25714619498771307 0.1041399906845497 0 0.88949062093135778 0.73694585442531257 0 0.73688246401832591 0.11047754041323141 0 0.26305414557470391 0.88949062093136155 0 0.1104775404132264 0.2631175359816938 0 0.59819537371016407 0.74380966024143391 0 0.25619033975856881 0.59819537371016862 0 0.74380966024142703 0.40180462628984132 0 0.40180462628983732 0.2561903397585753 0 0.74417394063200648 0.6049203001048884 0 0.39507969989512881 0.74417394063201048 0 0.60492030010488373 0.25582605936799729 0 0.25582605936799319 0.39507969989513358 0 0.90045039720880915 0.9020090423547924 0 0.90082758526900886 0.098076845682916511 0 0.097990957645208238 0.90045039720880915 0 0.098076845682915317 0.099172414730993488 0 0.43590673999053309 0.90289902042279657 0 0.097100979577207341 0.43590673999053198 0 0.90289902042272274 0.56409326000946114 0 0.56409326000946236 0.097100979577281268 0 0.73982803480991577 0.79629608696991705 0 0.20370391303007401 0.73982803480989479 0 0.79629608696994103 0.26017196519011448 0 0.26017196519013502 0.20370391303005 0 0.77998481823117694 0.71397317153691997 0 0.28602682846308641 0.77998481823117594 0 0.71397317153692708 0.22001518176882201 0 0.22001518176882229 0.28602682846307981 0 0.49189101320880302 0.59024331187324797 0 0.57387636360620708 0.54318431390135336 0 0.41009598069569558 0.49083935749285379 0 0.54901591374940373 0.42306523525165751 0 0.6519524273377173 0.64249931920594539 0 0.35944937237716967 0.65164789808436319 0 0.6424993192059415 0.3480475726622802 0 0.34804757266227387 0.35750068079406011 0 0.81709574086843206 0.91318696080656769 0 0.086813039193431391 0.81709574086842884 0 0.91838802593870927 0.18172590289757809 0 0.18172590289758209 0.08161197406129285 0 0.91838802593884228 0.81827409710237209 0 0.82118136511706341 0.082875076569723011 0 0.1817259028976386 0.91838802593888857 0 0.08287507656968085 0.1788186348829835 0 0.51484304721220842 0.69707233951836334 0 0.30292766048163949 0.51484304721221474 0 0.70015119067225129 0.48481914991727459 0 0.48378871228000903 0.29745177826977359 0 0.60938371359314658 0.91847489683800321 0 0.081525103161997597 0.6093837135931508 0 0.91890123454466932 0.39094742729597309 0 0.39061628640684498 0.081525103161991672 0 0.92670321183853355 0.65773042910151081 0 0.65773042910151891 0.073296788161472337 0 0.3422695708985129 0.92670321183858773 0 0.073296788161418117 0.34226957089850552 0 0.43087117257049001 0.8215422551712771 0 0.8215422551712277 0.56912882742954496 0 0.17845774482872559 0.43087117257049429 0 0.56912882742954041 0.17845774482877461 0 0.46102425708533701 0.43254199134332588 0 0.56759263990989184 0.81794319034601648 0 0.18205680965398621 0.56759263990989739 0 0.81794319034597418 0.43240736009009317 0 0.43240736009008851 0.18205680965402779 0 0.66820316019503978 0.77769800602796979 0 0.22230199397202771 0.66820316019503168 0 0.77769800602796679 0.33179683980497482 0 0.33179683980498331 0.2223019939720311 0 0.67757268808231397 0.93106206656183088 0 0.068937933438162791 0.67757268808231053 0 0.93106206656185309 0.32242731191769503 0 0.32242731191769902 0.068937933438140794 0 0.43565339604028508 0.55159384357101338 0 0.58981073711177334 0.48140931020849848 0 0.49854341599767982 0.37075914768127122 0 0.44764943295894188 0.73752415265401661 0 0.73752415265401194 0.55235056704108476 0 0.26247584734598628 0.44764943295894732 0 0.55175647814720108 0.26104505532086641 0 0.39419886675318527 0.41912225240070788 0 0.48669777060454272 0.93510666819646593 0 0.064893331803534807 0.48669777060454478 0 0.93510666819640953 0.51330222939551939 0 0.5133022293955174 0.064893331803591428 0 0.40653508887824003 0.61580573377480397 0 0.49771727055908782 0.83998685797641781 0 0.16001314202358469 0.49771727055909287 0 0.83998574657308889 0.50228528270184081 0 0.50228272944093777 0.16001314202359701 0 0.70085728320704077 0.84350379029875056 0 0.1564962097012354 0.70085728320703999 0 0.84350379029877964 0.29914271679296989 0 0.29914271679297122 0.15649620970120659 0 0.839908789927305 0.77106070975262608 0 0.22893929024737289 0.83990878992727813 0 0.77216325087772952 0.15899695163319821 0 0.15899695163321451 0.22783674912227669 0 0.76395804595204597 0.67808171673060369 0 0.32191828326940508 0.76395804595204586 0 0.67808171673060202 0.23604195404795861 0 0.2360419540479583 0.32191828326940741 0 0.64518564541690571 0.69601563325001548 0 0.30421635384321521 0.64514939193436716 0 0.69601563325001248 0.35481435458309712 0 0.35481435458309307 0.30398436674998969 0 0.61233489393901674 0.60846740003560018 0 0.60122390529523662 0.39097801071820221 0 0.93946948561981514 0.60485373571037115 0 0.6048537357103756 0.060530514380187868 0 0.39514626428973221 0.93946948561985189 0 0.06053051438015096 0.39514626428972788 0 0.64455163611866495 0.50369301794551069 0 0.94156647488778256 0.058433525112256718 0 0.058433525112266523 0.058433525112214509 0 0.94156647488775558 0.94156647488774259 0 0.058433525112254137 0.94156647488774581 0 0.77688977118331393 0.94706199857866258 0 0.052938001421335763 0.77688977118331159 0 0.94465622530468663 0.23167460333446291 0 0.23167460333446299 0.05534377469531044 0 0.9442075111696665 0.76777356182390766 0 0.76543419162344684 0.056452228708420968 0 0.23222643817617661 0.94420751116970569 0 0.056452228708379938 0.23456580837661581 0 0.78284912262770068 0.83746308049763585 0 0.16253691950235041 0.78284912262768558 0 0.84534053180161173 0.2262639405833009 0 0.22626394058331961 0.15465946819838111 0 0.55307204985744796 0.94819812235491685 0 0.051801877645083663 0.55307204985745195 0 0.94812782820415209 0.44708943904932719 0 0.44692795014265252 0.051801877645060238 0 0.85607519768343354 0.69380468830529196 0 0.69379929796456197 0.14392209494791061 0 0.30619531169472608 0.85607519768342955 0 0.14392209494791439 0.30620070203545702 0 0.51172471858873747 0.64015771271794875 0 0.35815651743779398 0.51113440447909086 0 0.57051182622447827 0.69668652018496713 0 0.30429740679959738 0.56913905146460098 0 0.69595787604187809 0.43071000156707989 0 0.43059486795334201 0.30395973419063538 0 0.54465502325161819 0.74717983044080061 0 0.25287139441262568 0.54458355434492378 0 0.74730218607442667 0.45539100053644521 0 0.45533136021725079 0.2525687312087147 0 0.86696410734367158 0.94753096683315619 0 0.052469033166843738 0.86696410734366991 0 0.94100406608115506 0.1383574446607955 0 0.1383574446607988 0.058995933918849157 0 0.94095916274074942 0.861652780
[...]
<CellData Scalars="pressure_p0," Vectors="velocity_p0," Tensors="">
<DataArray type="Float64" Name="pressure_p0" format="ascii">
0.4232949474584321 0.72752455710689135 0.2715353432303575 0.57618650945973926 0.59559717577172955 0.62435959636580607 0.63494997118760454 0.63573078305358122 0.74558992601387664 0.064214655294584519 0.92989094063685185 0.2573428711821939 0.88518072163685801 0.01335282760407939 0.013352813746050692 0.11481929074855485 0.88518072024089234 0.98664718909774685 0.98664718463008516 0.11481927752861326 0.96848862470620989 0.20400869975535302 0.80121636515400319 0.032275856177438236 0.96830616195176034 0.79531197618850058 0.20422879939349042 0.031764061516067942 0.51180728156258337 0.19288761513844313 0.80712212733784539 0.48819178495384041 0.77562994017295761 0.017646021396042686 0.98155207026873692 0.22722484737204479 0.98140250788806449 0.77181139431245716 0.2274088215502231 0.018817401340060505 0.96352234556799266 0.7423944595095453 0.25671133483777675 0.036727451495460008 0.86506902937997676 0.16916297188225771 0.42526577131081617 0.75400340443142055 0.24599657438295122 0.57450308127574534 0.87416876415353728 0.030842517417076321 0.031643702859460374 0.12760170643476099 0.87381177409472177 0.96696692229368275 0.9669818759090556 0.12760507944709304 0.12305636219030013 0.76276837989611113 0.87784815167137897 0.23776833983775908 0.72154546614158688 0.079574917018413405 0.91462616222253268 0.27847244859735532 0.62806401059372474 0.91893983094614895 0.081060146281669604 0.37193595055998296 0.5253005966871227 0.17188044569195013 0.82812830483684396 0.47469845874896227 0.85678421742417576 0.14694979102684236 0.85717516582203657 0.14681222024843238 0.12818890424398366 0.78748480213793903 0.86444494841674713 0.16890302658496065 0.34099856426416031 0.75215072088435508 0.24782508624897726 0.65883366972521096 0.26106273315725564 0.073553281996937822 0.92668588581672739 0.73802193204498445 0.21327936728258101 0.87355228432580989 0.36538569974919854 0.74555601340577349 0.25441979334626774 0.63444651083101811 0.54704716863204705 0.96528555767736812 0.58826416876704424 0.41173580644700869 0.034714433931638408 0.45422190107488103 0.068535701655584036 0.931464287759459 0.54577803719994167 0.55986461143670785 0.9821198339111108 0.72058306428464447 0.27930251177978332 0.017910050857938689 0.86990600371184335 0.43142011695084348 0.5685797918755463 0.13009381910150422 0.88161667275901434 0.59362881764743758 0.40637111059883357 0.11838329591152 0.71264531682165966 0.40288632784639566 0.59628325175653329 0.28603557007254554 0.54333675999506847 0.28669885638421555 0.71447042504352831 0.45657146557857897 0.94128462874574437 0.197917309467455 0.80691496947425589 0.061213564611357518 0.94110218265603029 0.80237243421777427 0.19813744864842323 0.05938907442233575 0.57112086330265577 0.27111977823469713 0.72902322758470106 0.42924343798005371 0.80655516105060021 0.29549864116824143 0.70457640501273189 0.19335802647188252 0.83191859282182423 0.69785178617454213 0.30222144892027819 0.16799367660763387 0.68667618171439926 0.36285870195075742 0.63711317193882522 0.31292062911488744 0.65937475762833242 0.6797630125894818 0.15179949209880303 0.15262666938259806 0.84820060604169456 0.84737343328435066 0.3406252376175587 0.32023698824961067 0.48626355824015621 0.53365230369800398 0.47006177335429766 0.090397860621605111 0.90960124180348567 0.52993814491346858 0.51301335912689439 0.53760474039227246 0.64728563978098597 0.90043848599805543 0.3527139594914559 0.099561299595946146 0.82103839639185094 0.20118302727376722 0.80147860265977888 0.17799235239686484 0.81909819835380648 0.35841890207922461 0.64158103080385842 0.18090176688231413 0.62867369476424173 0.76636079590673556 0.085442678486124399 0.79139668694307597 0.084022746537436493 0.77230078731893581 0.80201850990238643 0.18994399175780582 0.1790489142944412 0.81397043678025449 0.82587102518877087 0.2308009247643189 0.20041467046863506 0.91585302890551246 0.93411188484002872 0.91597875610188795 0.065494339649128319 0.9339861671064662 0.083656049636276736 0.065522918474733197 0.083627470735363113 0.911005103035883 0.40314834338968447 0.59685160213431931 0.088994879671586188 0.63530984185559303 0.33199368804713969 0.66732802691161375 0.3646901565357839 0.98546239345514941 0.56997960974080453 0.43002037547203886 0.01453759998747369 0.96716934670852794 0.067630447298586041 0.93236954838029118 0.96716934941319388 0.93236955106304964 0.032830673130756188 0.03283064922427862 0.067630470698507736 0.56540543283783873 0.030980602700212176 0.96899596837656521 0.43459453821677196 0.80506423542833705 0.15129502114424492 0.72741067100687484 0.16581745373203824 0.83123266576816723 0.27416792737735118 0.50653985345694652 0.12786016454890078 0.87213143697207363 0.49346001855611521 0.087899907862195537 0.28611437904904757 0.71372252305920281 0.9121229749861024 0.78414053371944603 0.31195475401534312 0.68804522830021431 0.21585944768504611 0.84849773913013271 0.19651516310820888 0.66934054442276558 0.68089564689077764 0.76126417750217457 0.30016557170417646 0.69982016513867951 0.23873375575282607 0.8909855716554449 0.063506182324292684 0.93392441573022555 0.93378374570363143 0.89075432126387644 0.11029734842734736 0.11026537430736338 0.064335970815180069 0.56579862937740188 0.51682811597973299 0.64639066962728786 0.48788531739550811 0.19062692247526958 0.8093726279214446 0.51211062219682013 0.71572009708393536 0.13092238149842012 0.86542128143694586 0.28579840746268559 0.71741666532000259 0.3747354759674949 0.62458681112465253 0.28218013167327632 0.85353382830034519 0.74557357666839463 0.25484788209958675 0.14600398383353916 0.60194959440781348 0.42947268829302332 0.42095351627396871 0.43476041297912704 0.42245239395939571 0.878920329662635 0.233538655559517 0.38175876897301025 0.74826053880876131 0.033857016863930632 0.96460427975422647 0.25496084090401927 0.9329185651898606 0.57629521737447742 0.42370473350613957 0.067081422753418898 0.42050656135094722 0.44538016508563472 0.46230506882610134 0.62917920591044163 0.014739470797959127 0.98527089236072229 0.3708207865287026 0.75850629848940865 0.23492096444542254 0.76561709282140689 0.24084927984932242 0.9697322086499649 0.046934449947957327 0.95306553980889552 0.030267783997306445 0.96973220660862436 0.95306554631296625 0.046295318127397851 0.029628652910621153 0.91034412838630341 0.12774035133004488 0.91632333305646818 0.9157237361694992 0.15565200029681736 0.15618640542527429 0.90987027034068091 0.12830339569301508 0.58913007026190811 0.58144720520196858 0.35777450266455918 0.79620460216183764 0.20379536802863601 0.64222543268975429 0.37534558537122509 0.35522150659506196 0.39054399783692584 0.52417296696097249 0.14368203951699388 0.85630947518587153 0.47582690591749888 0.37901045587253795 0.68134454258972021 0.34158369130306465 0.65930136662865091 0.31862952038262582 0.7132020181885691 0.18766693241719395 0.81233316846631121 0.28679798417309765 0.41818081885787523 0.75474126801008046 0.16783101820161342 0.83184491707899255 0.24987501181275945 0.58428149674759722 0.83684635892720594 0.66852421248392657 0.33147394443785044 0.1631526948945356 0.21688450242617413 0.77352171363341626 0.22589789445627281 0.78494209253077862 0.48169572572864927 0.58112449093543583 0.61150479583599937 0.71918654013656502 0.31055519682797333 0.73966571083371713 0.31905756765569204 0.6892628113496162 0.28078721451342781 0.68076042801402659 0.26030804344992414 0.72943034101392568 0.10911457286009024 0.88287336011270756 0.2717995790366568 0.61973288127317194 0.64306881948973582 0.23927330475271169 0.22797721014509548 0.7607301335486395 0.7720262413102259 0.38026709303583039 0.35693117334156077 0.94423920341423373 0.63297853127678105 0.36701817554762578 0.055761634253528654 0.65800995336609291 0.32875487544578064 0.6723752665245708 0.34198828315165619 0.73353472659061536 0.23700467802381942 0.76299539458762611 0.26646527220892757 0.43021265324739189 0.41895191770856943 0.98628670212306324 0.013713301886119763 0.58104807310204243 0.9866471848331424 0.081485945603460813 0.91851405424052168 0.01335282568619316 0.98664718707492105 0.91851405319702573 0.081485956578975338 0.013352814261926135 0.85892260671943244 0.71945223693576388 0.28059987930407548 0.14097903805497586 0.51674320135546414 0.27273918640027728 0.72853496042242594 0.48214929420386532 0.64290239643974267 0.56727213186768133 0.43167548876481193 0.64261901636285712 0.18019672462983233 0.81980337715759766 0.35738097708857347 0.61022728205360088 0.028452772297047853 0.97155759850020385 0.3897727059588173 0.63976801892533341 0.61322818477869701 0.58165615421850403 0.33215195549567611 0.66652798498450794 0.41827242782065766 0.61373507134955751 0.96867146281183736 0.031329380157915775 0.38626163949812586 0.51179552132575923 0.24499209987602472 0.75525575495353547 0.48755303552875617 0.40505934584918124 0.22422772874951497 0.77577224173810755 0.59490754269655788 0.75633770940616585 0.27875951692988366 0.72122623810007502 0.24366022396076459 0.51939615371602899 0.44151990532083474 0.652122566378464 0.20295916413145482 0.79704094415273663 0.34787743439903623 0.8502987362017127 0.19483230509947633 0.62018432534495427 0.61019271679173559 0.55249101162977943 0.56358143638994362 0.1336333431612774 0.15619626662699382 0.86635643900726711 0.8438006273772567 0.44750887978511544 0.43641844929642559 0.69161566801986774 0.12503586455219134 0.87425777962020967 0.30832423872319492 0.81920762446228079 0.2482826760194097 0.75269792848567008 0.17969640058364666 0.86503289926175797 0.24886642813875143 0.47239826712468691 0.16555970452940172 0.83443969059050005 0.52759766945354014 0.50158522328892152 0.33181613027963835 0.62241399899371208 0.14719103707862152 0.85283237667216527 0.37758598123704734 0.6693342069212469 0.55297326803448377 0.51957214142983255 0.60340693433919568 0.13914177237385622 0.86087949571404954 0.39659302044602407 0.37260926561164759 0.45011623723142552 0.17170789145734361 0.82829187489524159 0.54987970773770001 0.91202556806928037 0.91953491376419627 0.23534222809578659 0.21020213901370266 0.53511635776884159 0.13927859584396801 0.83159269472455932 0.75457966807791843 0.76820002427538459 0.11354731062850973 0.13736868974500849 0.78862502456303718 0.079673988223953732 0.92224685735415424 0.21175462072187956 0.76052536708228824 0.088874806099814699 0.91261437394915568 0.23886403520198105 0.71798912598663844 0.73354183150774177 0.27952411786929771 0.26662043394307383 0.72046165290704633 0.73336534353287819 0.28200880644252962 0.26645610289983462 0.88202819832598811 0.29221032338303837 0.70773918977815808 0.11796386775755094 0.57692781966638473 0.66647144044658524 0.68646959721161926 0.8082969872535346 0.15527249984307553 0.87148630809126593 0.21089662683353316 0.8760690178380125 0.080879708966040048 0.87353251950545019 0.6412729743891763 0.35872661073796064 0.12646726253317847 0.82798723477417846 0.11056591658691345 0.72263059788594464 0.016210997883768299 0.9830522058702913 0.27773599024936602 0.53938258475084611 0.029707771012850354 0.97026488371706421 0.46061737303375772 0.5202048057297719 0.89487128117267045 0.17273201336795979 0.52946112983692495 0.92922527103419594 0.93896746714225165 0.84790779737386024 0.032119528150287679 0.16684437597081203 0.94001940921711458 0.058862562405636601 0.83585876408108128 0.15626905831483467 0.9672233828236696 0.031237548994785959 0.84546496330163345 0.9672712409314812 0.15623631660835061 0.94006725004883307 0.16681159536953089 0.43733741898000456 0.50465368747008921 0.33153905708293541 0.33627936296746225 0.40524248158246862 0.54025657634450308 0.86200864681273548 0.66533671081621837 0.33466108256854804 0.13799021531102271 0.38936015566963894 0.4169898188679716 0.80156167344257301 0.19843829928398948 0.58297705790003596 0.8491838119374564 0.061133452529895563 0.8325610449974189 0.072581469553155906 0.79923297760784773 0.26731186803153112 0.73330120045831459 0.20003580655583841 0.52044606643826441 0.56332951588334135 0.82730162351339553 0.11400749331388475 0.80688194753676701 0.22529627389517537 0.77689782650882389 0.19217290586909844 0.67379263981146331 0.68292616053151634 0.57551444062973744 0.5932970692767161 0.57166300309507567 0.59043357849947087 0.060372953557638262 0.070280707125583763 0.42833694183374427 0.40956637864554341 0.53932581435046867 0.34976869264918714 0.52238511160644518 0.33079680968685937 0.87374752444092807 0.079167280630257464 0.84952026774602918 0.07581245473601636 0.70007368049689955 0.072196620826392416 0.92636017847468743 0.30023281975968735 0.57287713527988404 0.24384967355685158 0.75621245639807622 0.42711792265676318 0.5586445264721871 0.59236218243004413 0.28517499808345625 0.71491015386513113 0.40800666824649623 0.52745322717267307 0.22384038289095665 0.77622761834621812 0.47254132752605121 0.54198081747724558 0.31284379285585406 0.55892151997270578 0.33181567301294168 0.60563123444033296 0.11110348410146206 0.88905988917720591 0.39436872462421424 0.53274697209150768 0.045983682377964338 0.95401630428649109 0.46725297532446852 0.54859239695814233 0.17922835026148987 0.82078076223402108 0.45140664714083412 0.47867481822876601 0.7167819663759466 0.21870471616115911 0.78129537348639366 0.28321803359000564 0.40757203038250056 0.38405079829076527 0.17477422909139853 0.82522573248569775 0.83337341047284619 0.16662654742664151 0.59242786095264954 0.61594911368778749 0.66661851764000624 0.61683573603216724 0.38384015338483191 0.88060724837657256 0.12260717917910208 0.88011844638489123 0.12316679552045588 0.35651484210338769 0.92452717072685253 0.68733850962064724 0.31251951566260255 0.075506332963642619 0.45611264676441571 0.31203576401577959 0.97138549564139465 0.69424475242636874 0.30561792725098336 0.028650355939930237 0.58744648088435181 0.59764738620394131 0.22782055140393981 0.20310936833582427 0.77218373704956034 0.79689490318995571 0.40235223474626969 0.41255312594619309 0.62045649831292959 0.17481298712333126 0.82518710433073772 0.37954348524782638 0.56192189561543726 0.11080406070415127 0.89964744889783654 0.43807801668991997 0.58694266941004336 0.099856422295709207 0.88855056162830559 0.41305727639643675 0.58432505458758732 0.15918798285630151 0.84080993041904406 0.41567487478815512 0.77189187900968514 0.26236192632637828 0.73817609239305781 0.22746369670924263 0.80322428406112101 0.44329255905228071 0.55667037209762538 0.19677562692378658 0.94695324310088969 0.68015488573470684 0.3197077987908456 0.053082610958568262 0.48679995476652815 0.31239278431589618 0.51538520926822462 0.10039806893752867 0.8994819918341016 0.48461467606239123 0.50083740529323673 0.80345356406445023 0.11046393246664657 0.86867568657215921 0.10266016888374635 0.84480541858282687 0.098504097962406278 0.59642320106776936 0.18416033164407095 0.8158397319121824 0.40357675446552288 0.89324169094834494 0.17314060863149933 0.49080154896729278 0.47669627888111887 0.68522501100432376 0.29750222479978239 0.70311237173726204 0.31477310501844469 0.40548102036639999 0.49951064730806294 0.083906485275511186 0.91598069550168093 0.50048925791452537 0.42542066838800052 0.40640880835217802 0.57475410567613849 0.82558642180297825 0.014629836266690833 0.9869365528157481 0.17678385054587153 0.98690364954288679 0.8235005766507193 0.17681997553061934 0.012946659908257569 0.66611339511996615 0.30010394893488168 0.70058798454716242 0.33388472577161943 0.47961235053310658 0.1378990507418226 0.86209951996116829 0.52038751990664966 0.69820056452707679 0.32057096529204665 0.6796645426086857 0.30177348750049005 0.95368172039832944 0.65502234059899278 0.046325107550512501 0.34495149912742096 0.98926566612834022 0.67366169141992405 0.32631541667508207 0.010740305881291223 0.011152548270929687 0.37121287704984551 0.62878384877215543 0.98884830505086052 0.84089082445307617 0.098934212257770632 0.87135416634756946 0.10357135256651531 0.6162039549765409 0.63186737133767046 0.26935764416098223 0.28536632772209047 0.730645790561122 0.71471442167971178 0.38379601954327963 0.3681326147061148 0.83126345403399293 0.14207606151979835 0.84278709088445491 0.42974160766921382 0.57025828527394706 0.15721272830042035 0.47883574301425225 0.45699259252519719 0.38117136952949293 0.86264543780251723 0.13735452452304642 0.61882856166999578 0.61981232782836992 0.62078536339920687 0.31052288430359465 0.68814927980867036 0.37921461753637981 0.38016148196826438 0.77476973974088592 0.22523022737116571 0.61983843067635525 0.44865155965256542 0.55329196711488626 0.56393993672140419 0.35427041701697115 0.58006554342927463 0.52169189258995308 0.012440469733040218 0.98755561874904951 0.4783080863012994 0.78536710044958746 0.45511755429668926 0.54451183575065254 0.21473129985067724 0.53430254490602291 0.45523456189355338 0.47260124435346484 0.010789949683910775 0.97254338229468473 0.98921005085416858 0.027456616004762895 0.97254338579132438 0.98921004762137565 0.026817471213867711 0.010150805400036303 0.38811779745017289 0.40350771809535202 0.3982086614150504 0.61335521778459146 0.055627829438162343 0.94452466611846964 0.38664476010484117 0.68535449455481001 0.24846952395849059 0.75174189944554848 0.31464540797601148 0.53479741732092201 0.37715890997321472 0.69816408333192959 0.026996961685511505 0.69068834558182557 0.049976300764139878 0.97212095888014627 0.30227582493000688 0.94914163801384588 0.30975156382952529 0.89971203497688945 0.19754156100488734 0.78324707469209454 0.33607055329198376 0.66392940517597621 0.21675290304088846 0.80382420441535474 0.10281495864771731 0.44258465563559546 0.45900883308248031 0.11692832947900172 0.88307062304149109 0.54099107017982484 0.49098116738467745 0.46858328296386964 0.28841087201807414 0.27492691337801101 0.71209558012696206 0.72455323587402587 0.66366114804627374 0.091316423938078317 0.90811227668369821 0.3363388466411793 0.64458807205394064 0.13184182059356886 0.86818160161306202 0.35541191674623024 0.49111551853628466 0.88018647371993741 0.31701903151157879 0.68295123646411227 0.11981602549975634 0.79203802431569081 0.13570524519688804 0.66216781830466409 0.25088142425519128 0.74933335565984527 0.33783208114320451 0.4589405308946376 0.67553347818828113 0.01078596339656839 0.98906874903050945 0.32453983344053527 0.49533004758002552 0.47500000170951784 0.009814969344003513 0.99018502150940746 0.52499998159264394 0.89583548976980265 0.1960506266092677 0.49041179829774306 0.60304503718194569 0.61982704264926802 0.024352570139447822 0.45502037605767087 0.54497958999092788 0.97564741320928294 0.59589409320448017 0.31054988463067923 0.68813005002328576 0.40447477142614208 0.35440168456836807 0.41338785832002434 0.69290702155700734 0.22490407792679851 0.77509602779209308 0.30709298978950555 0.36502737624193216 0.68385412301584192 0.095849755930226072 0.90344387347819977 0.31608578170119828 0.54244919916208101 0.093390662286224765 0.4575506948534892 0.38041114869751624 0.97774064281130602 0.50330806863920619 0.95610952580806274 0.50774211305933536 0.022255437656788467 0.49669189378022083 0.49225782496494364 0.043886550103824931 0.54869939299587722 0.072535268198961722 0.45130051520986292 0.68965879547826736 0.18036267095904057 0.81963744472883271 0.31034121363663608 0.34840485576319308 0.44902124828805945 0.76193564659880753 0.23816281918406446 0.55041405306372893 0.65471268265815119 0.02552543505797248 0.97433963589925754 0.34536061845725619 0.6639036112502934 0.048504774345776075 0.95136031686801314 0.33616969097083643 0.92669322019824829 0.90585414308861212 0.4657893990815537 0.552713437144572 0.22477396859381743 0.77529825957677523 0.44728078546754668 0.59625390945756296 0.64608302642678028 0.10897649456373699 0.89047554466027012 0.3539169626296842 0.47398045015591428 0.90372914949727967 0.67092829429052914 0.32904377484081293 0.096274269315388239 0.63036632179868146 0.070387477709230054 0.92919366053152197 0.36963366243035406 0.65309597515077233 0.066191762221900707 0.93324726574313521 0.34690401233701279 0.56035930331961037 0.20116911182939851 0.7988452366480403 0.43963944002801408 0.44599