<?xml version="1.0"?>
<VTKFile type="UnstructuredGrid" version="0.1" byte_order="LittleEndian">
<UnstructuredGrid>
<Piece NumberOfPoints="568" NumberOfCells="1054">
<Points>
<DataArray type="Float64" NumberOfComponents="3" format="ascii">
0 0 0 0 1 0 1 1 0 1 0 0 0.049999999999899652 0 0 0.099999999999814668 0 0 0.14999999999970359 0 0 0.19999999999955789 0 0 0.24999999999941211 0 0 0.29999999999926641 0 0 0.34999999999912063 0 0 0.3999999999989749 0 0 0.44999999999882923 0 0 0.49999999999869432 0 0 0.5499999999988151 0 0 0.59999999999894682 0 0 0.64999999999907843 0 0 0.69999999999921003 0 0 0.74999999999934175 0 0 0.79999999999947335 0 0 0.84999999999960507 0 0 0.89999999999973679 0 0 0.94999999999986839 0 0 1 0.049999999999899652 0 1 0.099999999999814668 0 1 0.14999999999970359 0 1 0.19999999999955789 0 1 0.24999999999941211 0 1 0.29999999999926641 0 1 0.34999999999912063 0 1 0.3999999999989749 0 1 0.44999999999882923 0 1 0.49999999999869432 0 1 0.5499999999988151 0 1 0.59999999999894682 0 1 0.64999999999907843 0 1 0.69999999999921003 0 1 0.74999999999934175 0 1 0.79999999999947335 0 1 0.84999999999960507 0 1 0.89999999999973679 0 1 0.94999999999986839 0 0.94999999999979179 1 0 0.89999999999958358 1 0 0.84999999999965292 1 0 0.79999999999999982 1 0 0.75000000000034661 1 0 0.7000000000006934 1 0 0.65000000000104008 1 0 0.60000000000138687 1 0 0.55000000000173355 1 0 0.50000000000205869 1 0 0.45000000000187229 1 0 0.40000000000166441 1 0 0.35000000000145642 1 0 0.30000000000124832 1 0 0.25000000000104028 1 0 0.20000000000083221 1 0 0.15000000000062411 1 0 0.10000000000041601 1 0 0.050000000000207989 1 0 0 0.94999999999979179 0 0 0.89999999999958358 0 0 0.84999999999965292 0 0 0.79999999999999982 0 0 0.75000000000034661 0 0 0.7000000000006934 0 0 0.65000000000104008 0 0 0.60000000000138687 0 0 0.55000000000173355 0 0 0.50000000000205869 0 0 0.45000000000187229 0 0 0.40000000000166441 0 0 0.35000000000145642 0 0 0.30000000000124832 0 0 0.25000000000104028 0 0 0.20000000000083221 0 0 0.15000000000062411 0 0 0.10000000000041601 0 0 0.050000000000207989 0 0.50333998054938722 0.50119715791968966 0 0.70252050881959183 0.70358884261915833 0 0.29641115738084339 0.70252050881958938 0 0.70358884261915744 0.29747949118041561 0 0.29747949118041711 0.2964111573808435 0 0.50000000000002642 0.7803135888501761 0 0.2196864111498267 0.50000000000003153 0 0.78031358885017377 0.49999999999997569 0 0.49999999999997108 0.21968641114982909 0 0.8289812646369813 0.82898126463698818 0 0.17101873536300011 0.82898126463696109 0 0.83199780613337848 0.1690131600686714 0 0.16901316006868169 0.16800219386663079 0 0.56566515596461675 0.63670464971409091 0 0.35984320557492089 0.56698606271778873 0 0.640156794425081 0.43301393728221721 0 0.43301393728221038 0.35984320557492139 0 0.63969251517836323 0.84598529912890386 0 0.1540147008710982 0.63969251517836956 0 0.84598529912889664 0.36030748482164038 0 0.3603074848216346 0.15401470087110539 0 0.84598529912884157 0.63969251517827153 0 0.36030748482174152 0.84598529912882459 0 0.63969251517826664 0.15401470087115929 0 0.15401470087117619 0.36030748482174652 0 0.4434591735942961 0.66641640622551224 0 0.66548584431530877 0.55616712808283064 0 0.33382663527330159 0.44130125047503482 0 0.5586987495249669 0.33382663527330653 0 0.53432142347292233 0.88563193847251998 0 0.1143680615274819 0.53432142347292733 0 0.88561059063756964 0.46572761956237563 0 0.46567857652706018 0.1143680615275231 0 0.74198804864688339 0.90892718720327403 0 0.091072812796719582 0.74198804864687795 0 0.89586000931544074 0.25714619498770419 0 0.25714619498771307 0.1041399906845497 0 0.88949062093135778 0.73694585442531257 0 0.73688246401832591 0.11047754041323141 0 0.26305414557470391 0.88949062093136155 0 0.1104775404132264 0.2631175359816938 0 0.59819537371016407 0.74380966024143391 0 0.25619033975856881 0.59819537371016862 0 0.74380966024142703 0.40180462628984132 0 0.40180462628983732 0.2561903397585753 0 0.74417394063200648 0.6049203001048884 0 0.39507969989512881 0.74417394063201048 0 0.60492030010488373 0.25582605936799729 0 0.25582605936799319 0.39507969989513358 0 0.90045039720880915 0.9020090423547924 0 0.90082758526900886 0.098076845682916511 0 0.097990957645208238 0.90045039720880915 0 0.098076845682915317 0.099172414730993488 0 0.43590673999053309 0.90289902042279657 0 0.097100979577207341 0.43590673999053198 0 0.90289902042272274 0.56409326000946114 0 0.56409326000946236 0.097100979577281268 0 0.73982803480991577 0.79629608696991705 0 0.20370391303007401 0.73982803480989479 0 0.79629608696994103 0.26017196519011448 0 0.26017196519013502 0.20370391303005 0 0.77998481823117694 0.71397317153691997 0 0.28602682846308641 0.77998481823117594 0 0.71397317153692708 0.22001518176882201 0 0.22001518176882229 0.28602682846307981 0 0.49189101320880302 0.59024331187324797 0 0.57387636360620708 0.54318431390135336 0 0.41009598069569558 0.49083935749285379 0 0.54901591374940373 0.42306523525165751 0 0.6519524273377173 0.64249931920594539 0 0.35944937237716967 0.65164789808436319 0 0.6424993192059415 0.3480475726622802 0 0.34804757266227387 0.35750068079406011 0 0.81709574086843206 0.91318696080656769 0 0.086813039193431391 0.81709574086842884 0 0.91838802593870927 0.18172590289757809 0 0.18172590289758209 0.08161197406129285 0 0.91838802593884228 0.81827409710237209 0 0.82118136511706341 0.082875076569723011 0 0.1817259028976386 0.91838802593888857 0 0.08287507656968085 0.1788186348829835 0 0.51484304721220842 0.69707233951836334 0 0.30292766048163949 0.51484304721221474 0 0.70015119067225129 0.48481914991727459 0 0.48378871228000903 0.29745177826977359 0 0.60938371359314658 0.91847489683800321 0 0.081525103161997597 0.6093837135931508 0 0.91890123454466932 0.39094742729597309 0 0.39061628640684498 0.081525103161991672 0 0.92670321183853355 0.65773042910151081 0 0.65773042910151891 0.073296788161472337 0 0.3422695708985129 0.92670321183858773 0 0.073296788161418117 0.34226957089850552 0 0.43087117257049001 0.8215422551712771 0 0.8215422551712277 0.56912882742954496 0 0.17845774482872559 0.43087117257049429 0 0.56912882742954041 0.17845774482877461 0 0.46102425708533701 0.43254199134332588 0 0.56759263990989184 0.81794319034601648 0 0.18205680965398621 0.56759263990989739 0 0.81794319034597418 0.43240736009009317 0 0.43240736009008851 0.18205680965402779 0 0.66820316019503978 0.77769800602796979 0 0.22230199397202771 0.66820316019503168 0 0.77769800602796679 0.33179683980497482 0 0.33179683980498331 0.2223019939720311 0 0.67757268808231397 0.93106206656183088 0 0.068937933438162791 0.67757268808231053 0 0.93106206656185309 0.32242731191769503 0 0.32242731191769902 0.068937933438140794 0 0.43565339604028508 0.55159384357101338 0 0.58981073711177334 0.48140931020849848 0 0.49854341599767982 0.37075914768127122 0 0.44764943295894188 0.73752415265401661 0 0.73752415265401194 0.55235056704108476 0 0.26247584734598628 0.44764943295894732 0 0.55175647814720108 0.26104505532086641 0 0.39419886675318527 0.41912225240070788 0 0.48669777060454272 0.93510666819646593 0 0.064893331803534807 0.48669777060454478 0 0.93510666819640953 0.51330222939551939 0 0.5133022293955174 0.064893331803591428 0 0.40653508887824003 0.61580573377480397 0 0.49771727055908782 0.83998685797641781 0 0.16001314202358469 0.49771727055909287 0 0.83998574657308889 0.50228528270184081 0 0.50228272944093777 0.16001314202359701 0 0.70085728320704077 0.84350379029875056 0 0.1564962097012354 0.70085728320703999 0 0.84350379029877964 0.29914271679296989 0 0.29914271679297122 0.15649620970120659 0 0.839908789927305 0.77106070975262608 0 0.22893929024737289 0.83990878992727813 0 0.77216325087772952 0.15899695163319821 0 0.15899695163321451 0.22783674912227669 0 0.76395804595204597 0.67808171673060369 0 0.32191828326940508 0.76395804595204586 0 0.67808171673060202 0.23604195404795861 0 0.2360419540479583 0.32191828326940741 0 0.64518564541690571 0.69601563325001548 0 0.30421635384321521 0.64514939193436716 0 0.69601563325001248 0.35481435458309712 0 0.35481435458309307 0.30398436674998969 0 0.61233489393901674 0.60846740003560018 0 0.60122390529523662 0.39097801071820221 0 0.93946948561981514 0.60485373571037115 0 0.6048537357103756 0.060530514380187868 0 0.39514626428973221 0.93946948561985189 0 0.06053051438015096 0.39514626428972788 0 0.64455163611866495 0.50369301794551069 0 0.94156647488778256 0.058433525112256718 0 0.058433525112266523 0.058433525112214509 0 0.94156647488775558 0.94156647488774259 0 0.058433525112254137 0.94156647488774581 0 0.77688977118331393 0.94706199857866258 0 0.052938001421335763 0.77688977118331159 0 0.94465622530468663 0.23167460333446291 0 0.23167460333446299 0.05534377469531044 0 0.9442075111696665 0.76777356182390766 0 0.76543419162344684 0.056452228708420968 0 0.23222643817617661 0.94420751116970569 0 0.056452228708379938 0.23456580837661581 0 0.78284912262770068 0.83746308049763585 0 0.16253691950235041 0.78284912262768558 0 0.84534053180161173 0.2262639405833009 0 0.22626394058331961 0.15465946819838111 0 0.55307204985744796 0.94819812235491685 0 0.051801877645083663 0.55307204985745195 0 0.94812782820415209 0.44708943904932719 0 0.44692795014265252 0.051801877645060238 0 0.85607519768343354 0.69380468830529196 0 0.69379929796456197 0.14392209494791061 0 0.30619531169472608 0.85607519768342955 0 0.14392209494791439 0.30620070203545702 0 0.51172471858873747 0.64015771271794875 0 0.35815651743779398 0.51113440447909086 0 0.57051182622447827 0.69668652018496713 0 0.30429740679959738 0.56913905146460098 0 0.69595787604187809 0.43071000156707989 0 0.43059486795334201 0.30395973419063538 0 0.54465502325161819 0.74717983044080061 0 0.25287139441262568 0.54458355434492378 0 0.74730218607442667 0.45539100053644521 0 0.45533136021725079 0.2525687312087147 0 0.86696410734367158 0.94753096683315619 0 0.052469033166843738 0.86696410734366991 0 0.94100406608115506 0.1383574446607955 0 0.1383574446607988 0.058995933918849157 0 0.94095916274074942 0.861652780
[...]
<CellData Scalars="pressure_p0," Vectors="velocity_p0," Tensors="">
<DataArray type="Float64" Name="pressure_p0" format="ascii">
0.84658989491686421 1.4550491142137827 0.54307068646071499 1.1523730189194785 1.1911943515434591 1.2487191927316121 1.2698999423752091 1.2714615661071624 1.4911798520277533 0.12842931058916904 1.8597818812737037 0.5146857423643878 1.770361443273716 0.02670565520815878 0.026705627492101383 0.2296385814971097 1.7703614404817847 1.9732943781954937 1.9732943692601703 0.22963855505722652 1.9369772494124198 0.40801739951070604 1.6024327303080064 0.064551712354876473 1.9366123239035207 1.5906239523770012 0.40845759878698085 0.063528123032135883 1.0236145631251667 0.38577523027688626 1.6142442546756908 0.97638356990768083 1.5512598803459152 0.035292042792085372 1.9631041405374738 0.45444969474408958 1.962805015776129 1.5436227886249143 0.4548176431004462 0.03763480268012101 1.9270446911359853 1.4847889190190906 0.5134226696755535 0.073454902990920015 1.7301380587599535 0.33832594376451541 0.85053154262163233 1.5080068088628411 0.49199314876590244 1.1490061625514907 1.7483375283070746 0.061685034834152642 0.063287405718920747 0.25520341286952197 1.7476235481894435 1.9339338445873655 1.9339637518181112 0.25521015889418608 0.24611272438060025 1.5255367597922223 1.7556963033427579 0.47553667967551816 1.4430909322831738 0.15914983403682681 1.8292523244450654 0.55694489719471063 1.2561280211874495 1.8378796618922979 0.16212029256333921 0.74387190111996593 1.0506011933742454 0.34376089138390026 1.6562566096736879 0.94939691749792454 1.7135684348483515 0.29389958205368472 1.7143503316440731 0.29362444049686476 0.25637780848796732 1.5749696042758781 1.7288898968334943 0.33780605316992129 0.68199712852832062 1.5043014417687102 0.49565017249795451 1.3176673394504219 0.52212546631451129 0.14710656399387564 1.8533717716334548 1.4760438640899689 0.42655873456516202 1.7471045686516198 0.73077139949839709 1.491112026811547 0.50883958669253548 1.2688930216620362 1.0940943372640941 1.9305711153547362 1.1765283375340885 0.82347161289401738 0.069428867863276816 0.90844380214976206 0.13707140331116807 1.862928575518918 1.0915560743998833 1.1197292228734157 1.9642396678222216 1.4411661285692889 0.55860502355956665 0.035820101715877378 1.7398120074236867 0.86284023390168696 1.1371595837510926 0.26018763820300844 1.7632333455180287 1.1872576352948752 0.81274222119766715 0.23676659182304 1.4252906336433193 0.80577265569279133 1.1925665035130666 0.57207114014509108 1.0866735199901369 0.5733977127684311 1.4289408500870566 0.91314293115715794 1.8825692574914887 0.39583461893491001 1.6138299389485118 0.12242712922271504 1.8822043653120606 1.6047448684355485 0.39627489729684645 0.1187781488446715 1.1422417266053115 0.54223955646939426 1.4580464551694021 0.85848687596010742 1.6131103221012004 0.59099728233648285 1.4091528100254638 0.38671605294376504 1.6638371856436485 1.3957035723490843 0.60444289784055638 0.33598735321526774 1.3733523634287985 0.72571740390151485 1.2742263438776504 0.62584125822977488 1.3187495152566648 1.3595260251789636 0.30359898419760606 0.30525333876519611 1.6964012120833891 1.6947468665687013 0.68125047523511739 0.64047397649922133 0.97252711648031243 1.067304607396008 0.94012354670859533 0.18079572124321022 1.8192024836069713 1.0598762898269372 1.0260267182537888 1.0752094807845449 1.2945712795619719 1.8008769719961109 0.70542791898291179 0.19912259919189229 1.6420767927837019 0.40236605454753444 1.6029572053195578 0.35598470479372968 1.638196396707613 0.71683780415844922 1.2831620616077168 0.36180353376462826 1.2573473895284835 1.5327215918134711 0.1708853569722488 1.5827933738861519 0.16804549307487299 1.5446015746378716 1.6040370198047729 0.37988798351561165 0.35809782858888239 1.627940873560509 1.6517420503775417 0.46160184952863781 0.40082934093727013 1.8317060578110249 1.8682237696800574 1.8319575122037759 0.13098867929825664 1.8679723342129324 0.16731209927255347 0.13104583694946639 0.16725494147072623 1.822010206071766 0.80629668677936894 1.1937032042686386 0.17798975934317238 1.2706196837111861 0.66398737609427938 1.3346560538232275 0.72938031307156781 1.9709247869102988 1.1399592194816091 0.86004075094407773 0.029075199974947379 1.9343386934170559 0.13526089459717208 1.8647390967605824 1.9343386988263878 1.8647391021260993 0.065661346261512377 0.06566129844855724 0.13526094139701547 1.1308108656756775 0.061961205400424352 1.9379919367531304 0.86918907643354393 1.6101284708566741 0.30259004228848985 1.4548213420137497 0.33163490746407648 1.6624653315363345 0.54833585475470237 1.013079706913893 0.25572032909780157 1.7442628739441473 0.98692003711223042 0.17579981572439107 0.57222875809809515 1.4274450461184056 1.8242459499722048 1.5682810674388921 0.62390950803068623 1.3760904566004286 0.43171889537009223 1.6969954782602654 0.39303032621641776 1.3386810888455312 1.3617912937815553 1.5225283550043491 0.60033114340835292 1.399640330277359 0.47746751150565214 1.7819711433108898 0.12701236464858537 1.8678488314604511 1.8675674914072629 1.7815086425277529 0.22059469685469471 0.22053074861472677 0.12867194163036014 1.1315972587548038 1.033656231959466 1.2927813392545757 0.97577063479101622 0.38125384495053916 1.6187452558428892 1.0242212443936403 1.4314401941678707 0.26184476299684023 1.7308425628738917 0.57159681492537118 1.4348333306400052 0.7494709519349898 1.2491736222493051 0.56436026334655265 1.7070676566006904 1.4911471533367893 0.50969576419917351 0.29200796766707832 1.203899188815627 0.85894537658604664 0.84190703254793742 0.86952082595825408 0.84490478791879142 1.75784065932527 0.467077311119034 0.76351753794602051 1.4965210776175226 0.067714033727861264 1.9292085595084529 0.50992168180803854 1.8658371303797212 1.1525904347489548 0.84740946701227915 0.1341628455068378 0.84101312270189443 0.89076033017126943 0.92461013765220268 1.2583584118208833 0.029478941595918254 1.9705417847214446 0.74164157305740519 1.5170125969788173 0.46984192889084508 1.5312341856428138 0.48169855969864483 1.9394644172999298 0.093868899895914654 1.906131079617791 0.060535567994612891 1.9394644132172487 1.9061310926259325 0.092590636254795702 0.059257305821242306 1.8206882567726068 0.25548070266008976 1.8326466661129364 1.8314474723389984 0.31130400059363472 0.31237281085054858 1.8197405406813618 0.25660679138603015 1.1782601405238162 1.1628944104039372 0.71554900532911836 1.5924092043236753 0.40759073605727203 1.2844508653795086 0.75069117074245018 0.71044301319012393 0.78108799567385168 1.048345933921945 0.28736407903398775 1.7126189503717431 0.95165381183499775 0.75802091174507591 1.3626890851794404 0.6831673826061293 1.3186027332573018 0.63725904076525164 1.4264040363771382 0.37533386483438791 1.6246663369326224 0.57359596834619531 0.83636163771575045 1.5094825360201609 0.33566203640322684 1.6636898341579851 0.4997500236255189 1.1685629934951944 1.6736927178544119 1.3370484249678531 0.66294788887570089 0.3263053897890712 0.43376900485234826 1.5470434272668325 0.45179578891254563 1.5698841850615572 0.96339145145729854 1.1622489818708717 1.2230095916719987 1.43837308027313 0.62111039365594667 1.4793314216674343 0.63811513531138409 1.3785256226992324 0.56157442902685561 1.3615208560280532 0.52061608689984828 1.4588606820278514 0.21822914572018048 1.7657467202254151 0.5435991580733136 1.2394657625463439 1.2861376389794716 0.47854660950542338 0.45595442029019095 1.521460267097279 1.5440524826204518 0.76053418607166079 0.71386234668312154 1.8884784068284675 1.2659570625535621 0.73403635109525156 0.11152326850705731 1.3160199067321858 0.65750975089156127 1.3447505330491416 0.68397656630331238 1.4670694531812307 0.47400935604763883 1.5259907891752522 0.53293054441785515 0.86042530649478377 0.83790383541713886 1.9725734042461265 0.027426603772239527 1.1620961462040849 1.9732943696662848 0.16297189120692163 1.8370281084810434 0.02670565137238632 1.9732943741498421 1.8370281063940515 0.16297191315795068 0.026705628523852269 1.7178452134388649 1.4389044738715278 0.56119975860815097 0.28195807610995172 1.0334864027109283 0.54547837280055456 1.4570699208448519 0.96429858840773064 1.2858047928794853 1.1345442637353627 0.86335097752962386 1.2852380327257142 0.36039344925966466 1.6396067543151953 0.71476195417714694 1.2204545641072018 0.056905544594095706 1.9431151970004077 0.7795454119176346 1.2795360378506668 1.226456369557394 1.1633123084370081 0.66430391099135222 1.3330559699690159 0.83654485564131531 1.227470142699115 1.9373429256236747 0.062658760315831549 0.77252327899625173 1.0235910426515185 0.48998419975204943 1.5105115099070709 0.97510607105751235 0.81011869169836248 0.44845545749902993 1.5515444834762151 1.1898150853931158 1.5126754188123317 0.55751903385976731 1.44245247620015 0.48732044792152918 1.038792307432058 0.88303981064166948 1.304245132756928 0.40591832826290963 1.5940818883054733 0.69575486879807247 1.7005974724034254 0.38966461019895265 1.2403686506899085 1.2203854335834712 1.1049820232595589 1.1271628727798872 0.26726668632255479 0.31239253325398764 1.7327128780145342 1.6876012547545134 0.89501775957023089 0.87283689859285118 1.3832313360397355 0.25007172910438269 1.7485155592404193 0.61664847744638984 1.6384152489245616 0.49656535203881941 1.5053958569713402 0.35939280116729333 1.7300657985235159 0.49773285627750286 0.94479653424937382 0.33111940905880344 1.6688793811810001 1.0551953389070803 1.003170446577843 0.66363226055927671 1.2448279979874242 0.29438207415724305 1.7056647533443305 0.75517196247409468 1.3386684138424938 1.1059465360689675 1.0391442828596651 1.2068138686783914 0.27828354474771244 1.7217589914280991 0.79318604089204814 0.74521853122329518 0.90023247446285104 0.34341578291468722 1.6565837497904832 1.0997594154754 1.8240511361385607 1.8390698275283925 0.47068445619157318 0.42040427802740532 1.0702327155376832 0.27855719168793602 1.6631853894491186 1.5091593361558369 1.5364000485507692 0.22709462125701946 0.27473737949001698 1.5772500491260744 0.15934797644790746 1.8444937147083085 0.42350924144375912 1.5210507341645765 0.1777496121996294 1.8252287478983114 0.47772807040396209 1.4359782519732769 1.4670836630154835 0.55904823573859541 0.53324086788614766 1.4409233058140927 1.4667306870657564 0.56401761288505925 0.53291220579966925 1.7640563966519762 0.58442064676607675 1.4154783795563162 0.23592773551510188 1.1538556393327695 1.3329428808931705 1.3729391944232385 1.6165939745070692 0.31054499968615107 1.7429726161825319 0.42179325366706633 1.752138035676025 0.1617594179320801 1.7470650390109004 1.2825459487783526 0.71745322147592128 0.25293452506635694 1.6559744695483569 0.2211318331738269 1.4452611957718893 0.032421995767536599 1.9661044117405826 0.55547198049873203 1.0787651695016922 0.059415542025700707 1.9405297674341284 0.92123474606751543 1.0404096114595438 1.7897425623453409 0.34546402673591958 1.0589222596738499 1.8584505420683919 1.8779349342845033 1.6958155947477205 0.064239056300575359 0.33368875194162406 1.8800388184342292 0.1177251248112732 1.6717175281621626 0.31253811662966935 1.9344467656473392 0.062475097989571918 1.6909299266032669 1.9345424818629624 0.31247263321670121 1.8801345000976661 0.33362319073906177 0.87467483796000911 1.0093073749401784 0.66307811416587081 0.6725587259349245 0.81048496316493723 1.0805131526890062 1.724017293625471 1.3306734216324367 0.66932216513709608 0.27598043062204541 0.77872031133927788 0.83397963773594319 1.603123346885146 0.39687659856797897 1.1659541158000719 1.6983676238749128 0.12226690505979113 1.6651220899948378 0.14516293910631181 1.5984659552156955 0.53462373606306224 1.4666024009166292 0.40007161311167683 1.0408921328765288 1.1266590317666827 1.6546032470267911 0.22801498662776951 1.613763895073534 0.45059254779035074 1.5537956530176478 0.38434581173819687 1.3475852796229266 1.3658523210630327 1.1510288812594749 1.1865941385534322 1.1433260061901513 1.1808671569989417 0.12074590711527652 0.14056141425116753 0.85667388366748853 0.81913275729108681 1.0786516287009373 0.69953738529837428 1.0447702232128904 0.66159361937371874 1.7474950488818561 0.15833456126051493 1.6990405354920584 0.15162490947203272 1.4001473609937991 0.14439324165278483 1.8527203569493749 0.60046563951937471 1.1457542705597681 0.48769934711370316 1.5124249127961524 0.85423584531352637 1.1172890529443742 1.1847243648600883 0.57034999616691251 1.4298203077302623 0.81601333649299246 1.0549064543453461 0.44768076578191329 1.5524552366924362 0.94508265505210243 1.0839616349544912 0.62568758571170813 1.1178430399454116 0.66363134602588336 1.2112624688806659 0.22220696820292413 1.7781197783544118 0.78873744924842848 1.0654939441830154 0.091967364755928677 1.9080326085729822 0.93450595064893704 1.0971847939162847 0.35845670052297973 1.6415615244680422 0.90281329428166823 0.95734963645753202 1.4335639327518932 0.43740943232231821 1.5625907469727873 0.56643606718001127 0.81514406076500112 0.76810159658153054 0.34954845818279706 1.6504514649713955 1.6667468209456924 0.33325309485328303 1.1848557219052991 1.231898227375575 1.3332370352800125 1.2336714720643345 0.76768030676966381 1.7612144967531451 0.24521435835820415 1.7602368927697825 0.24633359104091176 0.71302968420677537 1.8490543414537051 1.3746770192412945 0.62503903132520511 0.15101266592728524 0.91222529352883142 0.62407152803155919 1.9427709912827893 1.3884895048527375 0.61123585450196671 0.057300711879860473 1.1748929617687036 1.1952947724078826 0.45564110280787962 0.40621873667164854 1.5443674740991207 1.5937898063799114 0.80470446949253938 0.82510625189238618 1.2409129966258592 0.34962597424666253 1.6503742086614754 0.75908697049565277 1.1238437912308745 0.22160812140830255 1.7992948977956731 0.87615603337983994 1.1738853388200867 0.19971284459141841 1.7771011232566112 0.82611455279287349 1.1686501091751746 0.31837596571260302 1.6816198608380881 0.83134974957631025 1.5437837580193703 0.52472385265275656 1.4763521847861156 0.45492739341848526 1.606448568122242 0.88658511810456142 1.1133407441952508 0.39355125384757317 1.8939064862017794 1.3603097714694137 0.6394155975816912 0.10616522191713652 0.97359990953305631 0.62478556863179235 1.0307704185364492 0.20079613787505735 1.7989639836682032 0.96922935212478245 1.0016748105864735 1.6069071281289005 0.22092786493329314 1.7373513731443184 0.2053203377674927 1.6896108371656537 0.19700819592481256 1.1928464021355387 0.36832066328814189 1.6316794638243648 0.80715350893104576 1.7864833818966899 0.34628121726299865 0.98160309793458556 0.95339255776223775 1.3704500220086475 0.59500444959956478 1.4062247434745241 0.62954621003688938 0.81096204073279998 0.99902129461612588 0.16781297055102237 1.8319613910033619 1.0009785158290507 0.85084133677600104 0.81281761670435604 1.149508211352277 1.6511728436059565 0.029259672533381666 1.9738731056314962 0.35356770109174307 1.9738072990857736 1.6470011533014386 0.35363995106123869 0.025893319816515138 1.3322267902399323 0.60020789786976336 1.4011759690943248 0.66776945154323886 0.95922470106621316 0.2757981014836452 1.7241990399223366 1.0407750398132993 1.3964011290541536 0.6411419305840933 1.3593290852173714 0.60354697500098009 1.9073634407966589 1.3100446811979856 0.092650215101025002 0.68990299825484191 1.9785313322566804 1.3473233828398481 0.65263083335016414 0.021480611762582445 0.022305096541859373 0.74242575409969103 1.2575676975443109 1.977696610101721 1.6817816489061523 0.19786842451554126 1.7427083326951389 0.20714270513303062 1.2324079099530818 1.2637347426753409 0.53871528832196447 0.57073265544418095 1.461291581122244 1.4294288433594236 0.76759203908655926 0.7362652294122296 1.6625269080679859 0.28415212303959669 1.6855741817689098 0.85948321533842764 1.1405165705478941 0.3144254566008407 0.95767148602850449 0.91398518505039439 0.76234273905898586 1.7252908756050345 0.27470904904609283 1.2376571233399916 1.2396246556567398 1.2415707267984137 0.6210457686071893 1.3762985596173407 0.75842923507275961 0.76032296393652876 1.5495394794817718 0.45046045474233143 1.2396768613527105 0.89730311930513085 1.1065839342297725 1.1278798734428084 0.7085408340339423 1.1601310868585493 1.0433837851799062 0.024880939466080436 1.975111237498099 0.95661617260259879 1.5707342008991749 0.91023510859337853 1.0890236715013051 0.42946259970135447 1.0686050898120458 0.91046912378710676 0.94520248870692969 0.021579899367821551 1.9450867645893695 1.9784201017083372 0.054913232009525789 1.9450867715826488 1.9784200952427513 0.053634942427735421 0.020301610800072607 0.77623559490034577 0.80701543619070404 0.7964173228301008 1.2267104355691829 0.11125565887632469 1.8890493322369393 0.77328952020968234 1.37070898910962 0.49693904791698118 1.503483798891097 0.62929081595202296 1.069594834641844 0.75431781994642944 1.3963281666638592 0.05399392337102301 1.3813766911636511 0.099952601528279755 1.9442419177602925 0.60455164986001375 1.8982832760276918 0.61950312765905058 1.7994240699537789 0.39508312200977469 1.5664941493841891 0.67214110658396753 1.3278588103519524 0.43350580608177691 1.6076484088307095 0.20562991729543462 0.88516931127119092 0.91801766616496061 0.23385665895800345 1.7661412460829822 1.0819821403596497 0.98196233476935491 0.93716656592773928 0.57682174403614828 0.54985382675602201 1.4241911602539241 1.4491064717480517 1.3273222960925475 0.18263284787615663 1.8162245533673964 0.6726776932823586 1.2891761441078813 0.26368364118713772 1.736363203226124 0.71082383349246048 0.98223103707256931 1.7603729474398748 0.63403806302315757 1.3659024729282245 0.23963205099951268 1.5840760486313816 0.27141049039377607 1.3243356366093282 0.50176284851038255 1.4986667113196905 0.67566416228640902 0.9178810617892752 1.3510669563765623 0.02157192679313678 1.9781374980610189 0.64907966688107055 0.99066009516005105 0.95000000341903568 0.019629938688007026 1.9803700430188149 1.0499999631852879 1.7916709795396053 0.39210125321853539 0.98082359659548612 1.2060900743638914 1.239654085298536 0.048705140278895644 0.91004075211534174 1.0899591799818558 1.9512948264185659 1.1917881864089603 0.62109976926135846 1.3762601000465715 0.80894954285228415 0.70880336913673614 0.82677571664004867 1.3858140431140147 0.44980815585359701 1.5501920555841862 0.61418597957901111 0.73005475248386431 1.3677082460316838 0.19169951186045214 1.8068877469563995 0.63217156340239655 1.084898398324162 0.18678132457244953 0.91510138970697841 0.76082229739503249 1.955481285622612 1.0066161372784124 1.9122190516161255 1.0154842261186707 0.044510875313576934 0.99338378756044166 0.98451564992988727 0.087773100207649862 1.0973987859917544 0.14507053639792344 0.90260103041972584 1.3793175909565347 0.36072534191808114 1.6392748894576654 0.62068242727327216 0.69680971152638616 0.8980424965761189 1.5238712931976151 0.47632563836812891 1.1008281061274579 1.3094253653163024 0.05105087011594496 1.9486792717985151 0.69072123691451237 1.3278072225005868 0.09700954869155215 1.9027206337360263 0.67233938194167286 1.8533864403964966 1.8117082861772242 0.9315787981631074 1.105426874289144 0.44954793718763486 1.5505965191535505 0.89456157093509336 1.1925078189151259 1.2921660528535606 0.21795298912747399 1.7809510893205402 0.70783392525936839 0.94796090031182856 1.8074582989945593 1.3418565885810583 0.65808754968162586 0.19254853863077648 1.2607326435973629 0.14077495541846011 1.8583873210630439 0.73926732486070812 1.3061919503015447 0.13238352444380141 1.8664945314862704 0.69380802467402558 1.1207186066392207 0.40233822365879701 1.5976904732960806 0.87927888005602817 0.8919891706910078 0.89478269764688334 1.3762302788267755 0.62001154492095578 1.4242557914332128 0.57244435915445391 0.95416067368084923 0.97917339517953672 1.101955708568374 1.018665058315563 0.87582381493242278 0.83127355794994884 1.8885546840978278 0.93839906812721441 1.8798739299171909 0.98264858603051652 1.0616007660187401 0.11116677355590562 1.0173512467256414 0.11989439066205818 1.3935871750517665 0.54634514580471571 1.4540776219024261 0.60641259847413165 1.013607249531973 0.97138508894900255 0.93648471043693871 1.4957642672804436 1.524