<?xml version="1.0"?>
<VTKFile type="UnstructuredGrid" version="0.1" byte_order="LittleEndian">
<UnstructuredGrid>
<Piece NumberOfPoints="2400" NumberOfCells="800">
<Points>
<DataArray type="Float64" NumberOfComponents="3" format="ascii">
1.000000000000000e+00 0.000000000000000e+00 0.000000000000000e+00 1.000000000000000e+00 4.999999999989965e-02 0.000000000000000e+00 9.500000000000000e-01 4.999999999989965e-02 0.000000000000000e+00 1.000000000000000e+00 0.000000000000000e+00 0.000000000000000e+00 9.500000000000000e-01 4.999999999989965e-02 0.000000000000000e+00 9.500000000000000e-01 0.000000000000000e+00 0.000000000000000e+00 9.500000000000000e-01 0.000000000000000e+00 0.000000000000000e+00 9.500000000000000e-01 4.999999999989965e-02 0.000000000000000e+00 9.000000000000000e-01 4.999999999989965e-02 0.000000000000000e+00 9.500000000000000e-01 0.000000000000000e+00 0.000000000000000e+00 9.000000000000000e-01 4.999999999989965e-02 0.000000000000000e+00 9.000000000000000e-01 0.000000000000000e+00 0.000000000000000e+00 9.000000000000000e-01 0.000000000000000e+00 0.000000000000000e+00 9.000000000000000e-01 4.999999999989965e-02 0.000000000000000e+00 8.500000000000000e-01 4.999999999989965e-02 0.000000000000000e+00 9.000000000000000e-01 0.000000000000000e+00 0.000000000000000e+00 8.500000000000000e-01 4.999999999989965e-02 0.000000000000000e+00 8.500000000000000e-01 0.000000000000000e+00 0.000000000000000e+00 8.500000000000000e-01 0.000000000000000e+00 0.000000000000000e+00 8.500000000000000e-01 4.999999999989965e-02 0.000000000000000e+00 8.000000000000000e-01 4.999999999989965e-02 0.000000000000000e+00 8.500000000000000e-01 0.000000000000000e+00 0.000000000000000e+00 8.000000000000000e-01 4.999999999989965e-02 0.000000000000000e+00 8.000000000000000e-01 0.000000000000000e+00 0.000000000000000e+00 8.000000000000000e-01 0.000000000000000e+00 0.000000000000000e+00 8.000000000000000e-01 4.999999999989965e-02 0.000000000000000e+00 7.500000000000000e-01 4.999999999989965e-02 0.000000000000000e+00 8.000000000000000e-01 0.000000000000000e+00 0.000000000000000e+00 7.500000000000000e-01 4.999999999989965e-02 0.000000000000000e+00 7.500000000000000e-01 0.000000000000000e+00 0.000000000000000e+00 7.500000000000000e-01 0.000000000000000e+00 0.000000000000000e+00 7.500000000000000e-01 4.999999999989965e-02 0.000000000000000e+00 7.000000000000000e-01 4.999999999989965e-02 0.000000000000000e+00 7.500000000000000e-01 0.000000000000000e+00 0.000000000000000e+00 7.000000000000000e-01 4.999999999989965e-02 0.000000000000000e+00 7.000000000000000e-01 0.000000000000000e+00 0.000000000000000e+00 7.000000000000000e-01 0.000000000000000e+00 0.000000000000000e+00 7.000000000000000e-01 4.999999999989965e-02 0.000000000000000e+00 6.500000000000000e-01 4.999999999989965e-02 0.000000000000000e+00 7.000000000000000e-01 0.000000000000000e+00 0.000000000000000e+00 6.500000000000000e-01 4.999999999989965e-02 0.000000000000000e+00 6.500000000000000e-01 0.000000000000000e+00 0.000000000000000e+00 6.500000000000000e-01 0.000000000000000e+00 0.000000000000000e+00 6.500000000000000e-01 4.999999999989965e-02 0.000000000000000e+00 6.000000000000000e-01 4.999999999989965e-02 0.000000000000000e+00 6.500000000000000e-01 0.000000000000000e+00 0.000000000000000e+00 6.000000000000000e-01 4.999999999989965e-02 0.000000000000000e+00 6.000000000000000e-01 0.000000000000000e+00 0.000000000000000e+00 6.000000000000000e-01 0.000000000000000e+00 0.000000000000000e+00 6.000000000000000e-01 4.999999999989965e-02 0.000000000000000e+00 5.500000000000000e-01 4.999999999989965e-02 0.000000000000000e+00 6.000000000000000e-01 0.000000000000000e+00 0.000000000000000e+00 5.500000000000000e-01 4.999999999989965e-02 0.000000000000000e+00 5.500000000000000e-01 0.000000000000000e+00 0.000000000000000e+00 5.500000000000000e-01 0.000000000000000e+00 0.000000000000000e+00 5.500000000000000e-01 4.999999999989965e-02 0.000000000000000e+00 5.000000000000000e-01 4.999999999989965e-02 0.000000000000000e+00 5.500000000000000e-01 0.000000000000000e+00 0.000000000000000e+00 5.000000000000000e-01 4.999999999989965e-02 0.000000000000000e+00 5.000000000000000e-01 0.000000000000000e+00 0.000000000000000e+00 5.000000000000000e-01 0.000000000000000e+00 0.000000000000000e+00 5.000000000000000e-01 4.999999999989965e-02 0.000000000000000e+00 4.500000000000000e-01 4.999999999989965e-02 0.000000000000000e+00 5.000000000000000e-01 0.000000000000000e+00 0.000000000000000e+00 4.500000000000000e-01 4.999999999989965e-02 0.000000000000000e+00 4.500000000000000e-01 0.000000000000000e+00 0.000000000000000e+00 4.500000000000000e-01 0.000000000000000e+00 0.000000000000000e+00 4.500000000000000e-01 4.999999999989965e-02 0.000000000000000e+00 4.000000000000000e-01 4.999999999989965e-02 0.000000000000000e+00 4.500000000000000e-01 0.000000000000000e+00 0.000000000000000e+00 4.000000000000000e-01 4.999999999989965e-02 0.000000000000000e+00 4.000000000000000e-01 0.000000000000000e+00 0.000000000000000e+00 4.000000000000000e-01 0.000000000000000e+00 0.000000000000000e+00 4.000000000000000e-01 4.999999999989965e-02 0.000000000000000e+00 3.500000000000000e-01 4.999999999989965e-02 0.000000000000000e+00 4.000000000000000e-01 0.000000000000000e+00 0.000000000000000e+00 3.500000000000000e-01 4.999999999989965e-02 0.000000000000000e+00 3.500000000000000e-01 0.000000000000000e+00 0.000000000000000e+00 3.500000000000000e-01 0.000000000000000e+00 0.000000000000000e+00 3.500000000000000e-01 4.999999999989965e-02 0.000000000000000e+00 3.000000000000000e-01 4.999999999989965e-02 0.000000000000000e+00 3.500000000000000e-01 0.000000000000000e+00 0.000000000000000e+00 3.000000000000000e-01 4.999999999989965e-02 0.000000000000000e+00 3.000000000000000e-01 0.000000000000000e+00 0.000000000000000e+00 3.000000000000000e-01 0.000000000000000e+00 0.000000000000000e+00 3.000000000000000e-01 4.999999999989965e-02 0.000000000000000e+00 2.500000000000000e-01 4.999999999989965e-02 0.000000000000000e+00 3.000000000000000e-01 0.000000000000000e+00 0.000000000000000e+00 2.500000000000000e-01 4.999999999989965e-02 0.000000000000000e+00 2.500000000000000e-01 0.000000000000000e+00 0.000000000000000e+00 2.500000000000000e-01 0.000000000000000e+00 0.000000000000000e+00 2.500000000000000e-01 4.999999999989965e-02 0.000000000000000e+00 2.000000000000000e-01 4.999999999989965e-02 0.000000000000000e+00 2.500000000000000e-01 0.000000000000000e+00 0.000000000000000e+00 2.000000000000000e-01 4.999999999989965e-02 0.000000000000000e+00 2.000000000000000e-01 0.000000000000000e+00 0.000000000000000e+00 2.000000000000000e-01 0.000000000000000e+00 0.000000000000000e+00 2.000000000000000e-01 4.999999999989965e-02 0.000000000000000e+00 1.500000000000000e-01 4.999999999989965e-02 0.000000000000000e+00 2.000000000000000e-01 0.000000000000000e+00 0.000000000000000e+00 1.500000000000000e-01 4.999999999989965e-02 0.000000000000000e+00 1.500000000000000e-01 0.000000000000000e+00 0.000000000000000e+00 1.500000000000000e-01 0.000000000000000e+00 0.000000000000000e+00 1.500000000000000e-01 4.999999999989965e-02 0.000000000000000e+00 9.999999999999998e-02 4.999999999989965e-02 0.000000000000000e+00 1.500000000000000e-01 0.000000000000000e+00 0.000000000000000e+00 9.999999999999998e-02 4.999999999989965e-02 0.000000000000000e+00 9.999999999999998e-02 0.000000000000000e+00 0.000000000000000e+00 9.999999999999998e-02 0.000000000000000e+00 0.000000000000000e+00 9.999999999999998e-02 4.999999999989965e-02 0.000000000000000e+00 5.000000000000004e-02 4.999999999989965e-02 0.000000000000000e+00 9.999999999999998e-02 0.000000000000000e+00 0.000000000000000e+00 5.000000000000004e-02 4.999999999989965e-02 0.000000000000000e+00 5.000000000000004e-02 0.000000000000000e+00 0.000000000000000e+00 5.000000000000004e-02 0.000000000000000e+00 0.000000000000000e+00 5.000000000000004e-02 4.999999999989965e-02 0.000000000000000e+00 0.000000000000000e+00 4.999999999989965e-02 0.000000000000000e+00 5.000000000000004e-02 0.000000000000000e+00 0.000000000000000e+00 0.000000000000000e+00 4.999999999989965e-02 0.000000000000000e+00 0.000000000000000e+00 0.000000000000000e+00 0.000000000000000e+00 1.000000000000000e+00 4.999999999989965e-02 0.000000000000000e+00 1.000000000000000e+00 9.999999999981467e-02 0.000000000000000e+00 9.500000000000000e-01 9.999999999981467e-02 0.000000000000000e+00 1.000000000000000e+00 4.999999999989965e-02 0.000000000000000e+00 9.500000000000000e-01 9.999999999981467e-02 0.000000000000000e+00 9.500000000000000e-01 4.999999999989965e-02 0.000000000000000e+00 9.500000000000000e-01 4.999999999989965e-02 0.000000000000000e+00 9.500000000000000e-01 9.999999999981467e-02 0.000000000000000e+00 9.000000000000000e-01 9.999999999981467e-02 0.000000000000000e+00 9.500000000000000e-01 4.999999999989965e-02 0.000000000000000e+00 9.000000000000000e-01 9.999999999981467e-02 0.000000000000000e+00 9.000000000000000e-01 4.999999999989965e-02 0.000000000000000e+00 9.000000000000000e-01 4.999999999989965e-02 0.000000000000000e+00 9.000000000000000e-01 9.999999999981467e-02 0.000000000000000e+00 8.500000000000000e-01 9.999999999981467e-02 0.000000000000000e+00 9.000000000000000e-01 4.999999999989965e-02 0.000000000000000e+00 8.500000000000000e-01 9.999999999981467e-02 0.000000000000000e+00 8.500000000000000e-01 4.999999999989965e-02 0.000000000000000e+00 8.500000000000000e-01 4.999999999989965e-02 0.000000000000000e+00 8.500000000000000e-01 9.999999999981467e-02 0.000000000000000e+00 8.000000000000000e-01 9.999999999981467e-02 0.000000000000000e+00 8.500000000000000e-01 4.999999999989965e-02 0.000000000000000e+00 8.000000000000000e-01 9.999999999981467e-02 0.000000000000000e+00 8.000000000000000e-01 4.999999999989965e-02 0.000000000000000e+00 8.000000000000000e-01 4.999999999989965e-02 0.000000000000000e+00 8.000000000000000e-01 9.999999999981467e-02 0.000000000000000e+00 7.500000000000000e-01 9.999999999981467e-02 0.000000000000000e+00 8.000000000000000e-01 4.999999999989965e-02 0.0000000000000
[...]
<PointData Scalars="tracer_conc," Vectors="" Tensors="">
<DataArray type="Float64" Name="tracer_conc" format="ascii">
5.740143098030754e+00 5.892297798612153e+00 5.685141350162185e+00 5.717042117142280e+00 5.705462141706495e+00 5.530311470887082e+00 5.542003849769774e+00 5.694516921261942e+00 5.511181233329184e+00 5.526883294945642e+00 5.525177083828583e+00 5.358157870063652e+00 5.367612935646930e+00 5.515507512856141e+00 5.347941538797326e+00 5.355456282609299e+00 5.359429139107425e+00 5.200070448486584e+00 5.208288496394055e+00 5.350831437344250e+00 5.195838506111173e+00 5.197950134030625e+00 5.205679674639596e+00 5.053467874191032e+00 5.060863132999763e+00 5.197858986503640e+00 5.053394640297644e+00 5.051741299072457e+00 5.062115734601051e+00 4.916635564572007e+00 4.923422497065696e+00 5.054890591372605e+00 4.919609612309692e+00 4.915155618748573e+00 4.927538143715091e+00 4.788410451440648e+00 4.794727220521914e+00 4.920782671401304e+00 4.793777193320501e+00 4.787073630514710e+00 4.801136628327028e+00 4.668008801684766e+00 4.673955484685330e+00 4.794754586058832e+00 4.675419423512423e+00 4.666734060811986e+00 4.682380482941920e+00 4.554920320510683e+00 4.560577984961633e+00 4.676290241675319e+00 4.564257581374474e+00 4.553634523840901e+00 4.570968433440601e+00 4.448858415025008e+00 4.454301251917757e+00 4.565092206351000e+00 4.460208336450933e+00 4.447485186473454e+00 4.466816304766175e+00 4.349747955330513e+00 4.355053064170600e+00 4.461070511982368e+00 4.363404294148035e+00 4.348196876273229e+00 4.370075741265165e+00 4.257743722249239e+00 4.263001258079537e+00 4.364360259740764e+00 4.274242382318739e+00 4.255897439880563e+00 4.281185519501101e+00 4.173281026978120e+00 4.178607215280735e+00 4.275369363948721e+00 4.193468560998053e+00 4.170977475913640e+00 4.200964314181727e+00 4.097167401014224e+00 4.102723966068859e+00 4.194864022207223e+00 4.122314702061182e+00 4.094172831216374e+00 4.130763350313702e+00 4.030734049592424e+00 4.036760617441076e+00 4.124107155919069e+00 4.062715728614276e+00 4.026698925534709e+00 4.072713442194289e+00 3.976082500344715e+00 3.982956243412644e+00 4.065076631206135e+00 4.017657472963029e+00 3.970463621597790e+00 4.030132170804616e+00 3.936495195464856e+00 3.944852902316119e+00 4.020809242081935e+00 3.991749889311494e+00 3.928404507292021e+00 4.008224989234654e+00 3.917153311119745e+00 3.928173038963609e+00 3.995949182855209e+00 3.992214497551216e+00 3.905024795474496e+00 4.015380760737132e+00 3.926491732584405e+00 3.942625822048757e+00 3.997646641263276e+00 4.030700228998420e+00 3.907129012632373e+00 4.065876669866995e+00 3.979038164136396e+00 4.005945326477128e+00 4.037634800988552e+00 4.127218082734789e+00 3.946403712914580e+00 4.184635924814652e+00 4.102952173813003e+00 5.897626463818992e+00 6.022975949672139e+00 5.822340392663940e+00 5.882877998995630e+00 5.836016056050203e+00 5.694091455223771e+00 5.701565912047724e+00 5.830050318982856e+00 5.645198963245577e+00 5.689076712071257e+00 5.656694954250225e+00 5.515132370858323e+00 5.522833411945226e+00 5.649918616406661e+00 5.478642990636094e+00 5.512030972354333e+00 5.488837958276529e+00 5.350548294235892e+00 5.357950065326475e+00 5.482044177380595e+00 5.322428093329199e+00 5.348443132979568e+00 5.331532368189128e+00 5.197646620833129e+00 5.204648971348148e+00 5.324954854975130e+00 5.175520956039327e+00 5.196109756340482e+00 5.183777340246755e+00 5.054722906055632e+00 5.061347930246787e+00 5.177465241010912e+00 5.037126472801807e+00 5.053533172226731e+00 5.044734102501222e+00 4.920644731252517e+00 4.926941929957049e+00 5.038676533290725e+00 4.906646085070009e+00 4.919666749076206e+00 4.913765383598365e+00 4.794637991761435e+00 4.800664246298853e+00 4.907927408826524e+00 4.783655606545824e+00 4.793778772265473e+00 4.790422419902218e+00 4.676190195809246e+00 4.682007347868925e+00 4.784754944776894e+00 4.667893522973434e+00 4.675377834244663e+00 4.674433660468462e+00 4.565006107215399e+00 4.570684501074707e+00 4.668873525459242e+00 4.559264252625677e+00 4.564177019778449e+00 4.565707655176683e+00 4.460997303706546e+00 4.466622732590841e+00 4.560172529429518e+00 4.457858798090069e+00 4.460086896685589e+00 4.464354757751480e+00 4.364300200317168e+00 4.369984500296249e+00 4.458733516268680e+00 4.363996675642917e+00 4.363234427552779e+00 4.370732344014510e+00 4.275324087365555e+00 4.281221261037429e+00 4.364869581146519e+00 4.278295685719204e+00 4.274010331600643e+00 4.285520929105426e+00 4.194836888800995e+00 4.201168624031283e+00 4.279192296273328e+00 4.201779960757170e+00 4.193153073056372e+00 4.209842952234966e+00 4.124103968195002e+00 4.131201965558692e+00 4.202715016899382e+00 4.136042019009658e+00 4.121885527460837e+00 4.145441948149053e+00 4.065106798073022e+00 4.073486447713681e+00 4.137005026546890e+00 4.083480788270872e+00 4.062133884196622e+00 4.094945777749915e+00 4.020886940104619e+00 4.031381435165803e+00 4.084399480404191e+00 4.047640462872691e+00 4.016885551899633e+00 4.062233621706423e+00 3.996089880807820e+00 4.010101601160573e+00 4.048295185559907e+00 4.033654071324886e+00 3.990808653720867e+00 4.052864387618813e+00 3.997816425377788e+00 4.017784646628651e+00 4.033479514107458e+00 4.048659014422593e+00 3.991437988328332e+00 4.074201116429097e+00 4.036846954317764e+00 4.066829557505377e+00 4.046462686425363e+00 4.101636811231150e+00 4.034791291717810e+00 4.131710533854345e+00 4.129669164916939e+00 6.027544957182497e+00 6.131577218187276e+00 5.936457530251482e+00 6.016041520962705e+00 5.947356196046706e+00 5.829679541179707e+00 5.835129464869188e+00 5.942781507550074e+00 5.759090529696909e+00 5.824601329137751e+00 5.769022733812427e+00 5.649794200325283e+00 5.655839481880226e+00 5.763633268586570e+00 5.590949085482144e+00 5.646019527573824e+00 5.600313239999053e+00 5.481936695968678e+00 5.488200840209847e+00 5.594555373159189e+00 5.432149139705937e+00 5.479172694804550e+00 5.440838328146842e+00 5.324873744046916e+00 5.331093388201614e+00 5.435004298674809e+00 5.282027592214030e+00 5.322765905073906e+00 5.290103772759821e+00 5.177407299685282e+00 5.183483638530344e+00 5.284325275401439e+00 5.140034058655520e+00 5.175736585248055e+00 5.147592369301682e+00 5.038636504171287e+00 5.044544719963343e+00 5.141919406684071e+00 5.005714832264626e+00 5.037261845428081e+00 5.012853560214000e+00 4.907901127364848e+00 4.913653574536158e+00 5.007291519717397e+00 4.878721061735101e+00 4.906727097472011e+00 4.885535653162131e+00 4.784739698847652e+00 4.790372444402661e+00 4.880060859274877e+00 4.758813981285043e+00 4.783698439770218e+00 4.765399918237890e+00 4.668867886507280e+00 4.674438091725089e+00 4.759964115138378e+00 4.645874339610025e+00 4.667908443294453e+00 4.652333835353645e+00 4.560176182953848e+00 4.565765839497741e+00 4.646861928267002e+00 4.539920454452405e+00 4.559258005691025e+00 4.546371618504192e+00 4.458747188862393e+00 4.464472194682030e+00 4.540753942423350e+00 4.441138464699922e+00 4.457836404972605e+00 4.447727045415164e+00 4.364895047423884e+00 4.370920581564712e+00 4.441805633242270e+00 4.349928457603859e+00 4.363963401336766e+00 4.356842785280318e+00 4.279232365860484e+00 4.285797244724545e+00 4.350389696429263e+00 4.266970278328071e+00 4.278260311707375e+00 4.274459782347796e+00 4.202773172631703e+00 4.210227979204466e+00 4.267144180365898e+00 4.193311551168154e+00 4.201761691806722e+00 4.201707338796123e+00 4.137083603551374e+00 4.145950069156831e+00 4.193046980511685e+00 4.130474331252551e+00 4.136086563756970e+00 4.140203736690647e+00 4.084492600092736e+00 4.095553765592789e+00 4.129497968931046e+00 4.080556963154572e+00 4.083699411206004e+00 4.092123983356277e+00 4.048363853959971e+00 4.062789387962380e+00 4.078376624149877e+00 4.046251383334655e+00 4.048305879293014e+00 4.060099236166214e+00 4.033378706083427e+00 4.052857864185235e+00 4.041977427419457e+00 4.030545410581113e+00 4.035385260638985e+00 4.046606865778797e+00 4.045602735794712e+00 4.072202468038621e+00 4.022828450807519e+00 4.035714091932917e+00 4.055572583597557e+00 4.050123395973236e+00 4.092637445791143e+00 6.135555367646357e+00 6.221339908413970e+00 6.030816911234284e+00 6.126050219437470e+00 6.039901097673802e+00 5.942501044599052e+00 5.946869126507141e+00 6.036109847161659e+00 5.854392805074334e+00 5.937833560931741e+00 5.863044285433512e+00 5.763518440782788e+00 5.768494564891654e+00 5.858531699729122e+00 5.685804434099913e+00 5.759682395718472e+00 5.694284504767228e+00 5.594461359560865e+00 5.599824761464992e+00 5.689328114071741e+00 5.525488088849696e+00 5.591421130053916e+00 5.533611516203428e+00 5.434928880851411e+00 5.440443540700367e+00 5.528439065497753e+00 5.373120086124056e+00 5.432488349772154e+00 5.380847089561260e+00 5.284266764283908e+00 5.289800402625579e+00 5.375597967619067e+00 5.228373927455333e+00 5.282269253157702e+00 5.235720258207965e+00 5.141875029279206e+00 5.147364735079868e+00 5.230469370392036e+00 5.090937715340082e+00 5.140207394616634e+00 5.097943517220599e+00 5.007258456715753e+00 5.012685982962990e+00 5.092720903875644e+00 4.960538283178380e+00 5.005842110299709e+00 4.967254791874654e+00 4.880036801878287e+00 4.885415806327772e+00 4.962057245397630e+00 4.836956002334686e+00 4.878819446868033e+00 4.843441306093562e+00 4.759947358587208e+00 4.765319083182245e+00 4.838237038039778e+00 4.720036367919998e+00 4.758897711699523e+00 4.726355853436302e+00 4.646851281924397e+00 4.652286244138510e+00 4.721083738929363e+00 4.609702436456384e+00 4.645956905077496e+00 4.615931775179532e+00 4.540748545402900e+00 4.546353380738737e+00 4.610495886720726e+00 4.505970405587806e+00 4.540017059882490e+00 4.512199912558871e+00 4.441804628236917e+00 4.447734392814366e+00 4.506459267584857e+00 4.408969085850983e+00 4.441269434065511e+00 4.415308322841399e+00 4.350391560120474e+00 4.356868659419221e+00 4.409061252632291e+00 4.318961739477389e+00 4.350124773182655e+00 4.325542174533853e+00 4.267145206993363e+00 4.274486576699611e+00 4.318504732530075e+00 4.236364072210201e+00 4.267283488023309e+00 4.243334619360787e+00 4.193037738569812e+00 4.201691249595091e+00 4.235113758744511e+00 4.161741936823738e+00 4.193832219598566e+00 4.169245390209238e+00 4.129455142166549e+00 4.140042172906778e+00 4.159312219124793e+00 4.095750740791698e+00 4.131366174539582e+00 4.103855281011143e+00 4.078245801137934e+00 4.091594163458548e+00 4.091535632933646e+00 4.038936120817180e+00 4.082113944924847e+00 4.047472940154178e+00 4.041650624654121e+00 4.058776755969468e+00 4.031997629365319e+00 3.991238368399475e+00 4.048909133613471e+00 3.999497075909586e+00 4.021913312954734e+00 4.043790980281752e+00 3.980461631119480e+00 3.951088378020577e+00 4.037573888479571e+00 3.955042039784175e+00 4.021239230028151e+00 6.224944375361185e+00 6.294496543414863e+00 6.107785572404292e+00 6.216775326002828e+00 6.115640269516955e+00 6.035901608402186e+00 6.039667861593986e+00 6.112282886180541e+00 5.932640637204066e+00 6.031733887269197e+00 5.940316701357342e+00 5.858439634638318e+00 5.862735526222216e+00 5.936351418397757e+00 5.764195599240609e+00 5.854780643995224e+00 5.771912714225506e+00 5.689248310816589e+00 5.693956574360738e+00 5.767520888756680e+00 5.603064132692948e+00 5.686166737172957e+00 5.610633343134561e+00 5.528371673093887e+00 5.533312592104788e+00 5.605981170875352e+00 5.449165944914292e+00 5.525778877404811e+00 5.456503989022378e+00 5.375542047516474e+00 5.380591950765960e+00 5.451711528266641e+00 5.302352645116713e+00 5.373347752563390e+00 5.309425965109976e+00 5.230423399525978e+00 5.235508266892180e+00 5.304570809552133e+00 5.162430999629417e+00 5.228554056312919e+00 5.169234778421500e+00 5.092682997794570e+00 5.097768007162405e+00 5.164358468276078e+00 5.029191420597383e+00 5.091086499353807e+00 5.035736953128803e+00 4.962025467845437e+00 4.967107350809592e+00 5.030850808696137e+00 4.902425029871766e+00 4.960671407090356e+00 4.908732724364083e+00 4.838209500428606e+00 4.843313166935715e+00 4.903820884446001e+00 4.781933286867432e+00 4.837089365695697e+00 4.788029044164571e+00 4.721058511299113e+00 4.726237745361145e+00 4.783048304199185e+00 4.667532659592762e+00 4.720187735313568e+00 4.673445868029804e+00 4.610470735554933e+00 4.615812711914026e+00 4.668322362051606e+00 4.559054935516642e+00 4.609893938124875e+00 4.564816548252339e+00 4.506431158495324e+00 4.512064768486168e+00 4.559439362190135e+00 4.456341618899073e+00 4.506232263043181e+00 4.461980471582089e+00 4.409025442380209e+00 4.415133472483254e+00 4.456192430554005e+00 4.359227756467941e+00 4.409345351035837e+00 4.364762168566248e+00 4.318453102801584e+00 4.325287778567281e+00 4.358348722892046e+00 4.267505333248582e+00 4.319519314957617e+00 4.272924709929939e+00 4.235031812834078e+00 4.242931367731843e+00 4.265603659159368e+00 4.180847419930399e+00 4.237206678567251e+00 4.186074581747195e+00 4.159174065997956e+00 4.168573440740371e+00 4.177493273948341e+00 4.098659578178543e+00 4.163029998865074e+00 4.103479194242527e+00 4.091297302433015e+00 4.102717240176565e+00 4.093233008524485e+00 4.019803876144846e+00 4.097720824468610e+00 4.023739481520568e+00 4.031595086587713e+00 4.045587900025062e+00 4.011438202969912e+00 3.942114820324657e+00 4.041827894831961e+00 3.944266340874373e+00 3.979556428867158e+00 3.996550065738910e+00 3.929951696931507e+00 3.861728442055033e+00 3.997809104309383e+00 3.858281095984481e+00 3.934099396458583e+00 6.297894469062968e+00 6.352614157196210e+00 6.168994104091689e+00 6.290658802853536e+00 6.175987309548268e+00 6.112122600547159e+00 6.115554578536137e+00 6.172856985948035e+00 5.995105309834343e+00 6.108430119614712e+00 6.002053887042972e+00 5.936281342232319e+00 5.940150738510796e+00 5.998422593700470e+00 5.827051379442851e+00 5.932879887619278e+00 5.834154013746242e+00 5.767455986327618e+00 5.771705894164461e+00 5.830146957874085e+00 5.665526017033596e+00 5.764452698756211e+00 5.672610473700899e+00 5.605923013862935e+00 5.610421079476742e+00 5.668349470073868e+00 5.510606090632455e+00 5.603291494506526e+00 5.517574203716803e+00 5.451660157915025e+00 5.456302474132146e+00 5.513156925524669e+00 5.362269722169978e+00 5.449360497434971e+00 5.369060301564746e+00 5.304525480747459e+00 5.309240209023123e+00 5.364558196958128e+00 5.220412123875274e+00 5.302521051964886e+00 5.226988736102788e+00 5.164317889378077e+00 5.169063001013823e+00 5.222447276142981e+00 5.084870180449426e+00 5.162584179353185e+00 5.091211556361195e+00 5.030813321702163e+00 5.035573373201753e+00 5.086652169084855e+00 4.955436631701573e+00 5.029342783495800e+00 4.961529326168677e+00 4.903784506648677e+00 4.908568721220803e+00 4.956950939752729e+00 4.831864941017188e+00 4.902590529013178e+00 4.837697489495210e+00 4.783010612861082e+00 4.787853027944531e+00 4.833076739602816e+00 4.713865386857374e+00 4.782132628180251e+00 4.719422841829134e+00 4.668280205577554e+00 4.673242043895974e+00 4.714712670591028e+00 4.601091380867268e+00 4.667791508100323e+00 4.606348866134279e+00 4.559388348783328e+00 4.564562480330984e+00 4.601475640021463e+00 4.493112968718861e+00 4.559408250898445e+00 4.498026459975096e+00 4.456126097520670e+00 4.461643076398485e+00 4.492886181443277e+00 4.389371603756171e+00 4.456838445151349e+00 4.393863339343933e+00 4.358257250460529e+00 4.364291572887121e+00 4.388318321062155e+00 4.289106109079331e+00 4.359937828917679e+00 4.293040784380363e+00 4.265472031941600e+00 4.272245537088464e+00 4.286919599249156e+00 4.191233820707413e+00 4.268527483862943e+00 4.194380266176038e+00 4.177299110015411e+00 4.185075394451878e+00 4.187486118791634e+00 4.094163424119084e+00 4.182318081075022e+00 4.096135963454590e+00 4.092945175012931e+00 4.102005018891613e+00 4.088271887400873e+00 3.995508999476221e+00 4.100752386118789e+00 3.995686313355988e+00 4.011017176687063e+00 4.021609893011253e+00 3.986712840220668e+00 3.891670702318790e+00 4.022634762538505e+00 3.889116026660290e+00 3.929079297468728e+00 3.941347269769947e+00 3.879306275387224e+00 3.777336705848363e+00 3.948102674143813e+00 3.768521268038974e+00 3.843926638060432e+00 6.355923611834924e+00 6.396797748967866e+00 6.215594113307549e+00 6.349350441717610e+00 6.221978010747350e+00 6.172730411150434e+00 6.175994226168366e+00 6.218940646496788e+00 6.042767724028230e+00 6.169457534418163e+00 6.049186236503433e+00 5.998370676659558e+00 6.001985292635994e+00 6.045742686251965e+00 5.875150881542014e+00 5.995237199363664e+00 5.881782953361235e+00 5.830095861004568e+00 5.834037084771285e+00 5.878026129168952e+00 5.713462143438074e+00 5.827219399046075e+00 5.720154144452856e+00 5.668300802669847e+00 5.672469650171161e+00 5.716176477616701e+00 5.557874205408813e+00 5.665689367492215e+00 5.564524985203255e+00 5.513111177297038e+00 5.517422569049561e+00 5.560405790527229e+00 5.408447891572679e+00 5.510758875432189e+00 5.414981507686001e+00 5.364515079158342e+00 5.368903689366341e+00 5.410784335096587e+00 5.265138235574057e+00 5.362414295204831e+00 5.271497136651458e+00 5.222405876293839e+00 5.226827249473358e+00 5.267268044375713e+00 5.127812050829045e+00 5.220555836507216e+00 5.133950220112450e+00 5.086611047912057e+00 5.091040776234188e+00 5.129717994524803e+00 4.996256883761088e+00 5.085024173454248e+00 5.002133014483563e+00 4.956908117873642e+00 4.961340799600549e+00 4.997910054666161e+00 4.870180087672302e+00 4.955615834688907e+00 4.875750689279492e+00 4.833029560583924e+00 4.837478377439779e+00 4.871533751954601e+00 4.749196865514078e+00 4.832089033720149e+00 4.754408677870461e+00 4.714657524225776e+00 4.719154704554930e+00 4.750179185817486e+00 4.632805060105782e+00 4.714160618917703e+00 4.637585765940615e+00 4.601407521428729e+00 4.606005526211243e+00 4.633309808723578e+00 4.520342849049469e+00 4.601493245965522e+00 4.524588696323868e+00 4.492798058349463e+00 4.497570841052092e+00 4.520217309743507e+00 4.410923324291716e+00 4.493669742150158e+00 4.414481831886868e+00 4.388200309430790e+00 4.393243259742616e+00 4.409952768365252e+00 4.303337174973192e+00 4.390148585456329e+00 4.305982681215050e+00 4.286758058980021e+00 4.292184085427149e+00 4.301225766233050e+00 4.195911562241510e+00 4.290189874926239e+00 4.197311354889412e+00 4.187263051994164e+00 4.193190733868472e+00 4.192260607843170e+00 4.086310658040418e+00 4.192734377599614e+00 4.085980677649634e+00 4.087965258997387e+00 4.094494149554085e+00 4.080597545987105e+00 3.971263206887081e+00 4.096206648140623e+00 3.968516357300687e+00 3.986294445869780e+00 3.993470759822234e+00 3.962834313572052e+00 3.846205107503431e+00 3.998146389679371e+00 3.840111961346110e+00 3.878479953865711e+00 3.886277577231716e+00 3.834528745259411e+00 3.704883015880442e+00 3.897034703286951e+00 3.692226281660514e+00 3.759861396542023e+00 6.400108847963201e+00 6.427819059990213e+00 6.248392410522002e+00 6.393998867751712e+00 6.254355297564410e+00 6.218839571824796e+00 6.222049534371756e+00 6.251314740297995e+00 6.076348890451090e+00 6.215924955614543e+00 6.082398957077969e+00 6.045705577720816e+00 6.049187940859497e+00 6.079036495319697e+00 5.909098046649994e+00 6.042818451518471e+00 5.915392177807911e+00 5.877987221014417e+00 5.881734086774260e+00 5.911782657735068e+00 5.747354268626458e+00 5.875244539884835e+00 5.753753753473229e+00 5.716136914411655e+00 5.720071137993953e+00 5.749970985618105e+00 5.591345699914932e+00 5.713565556134206e+00 5.597750401486694e+00 5.560366108308939e+00 5.564417211551657e+00 5.593860341374266e+00 5.441183053204646e+00 5.557982064240482e+00 5.447509338066417e+00 5.410744460232196e+00 5.414853851329537e+00 5.443568517935387e+00 5.296858019761473e+00 5.408560918011361e+00 5.303034818451645e+00 5.267227316476223e+00 5.271350096257466e+00 5.299088682463358e+00 5.158254237492424e+00 5.265261538995103e+00 5.164218000317399e+00 5.129675179670156e+00 5.133780044937832e+00 5.160300909118927e+00 5.025151050390217e+00 5.127954653998705e+00 5.030839522160464e+00 4.997863283935792e+00 5.001931575580643e+00 5.026975785006546e+00 4.897217344458609e+00 4.996431924165701e+00 4.902562241684494e+00 4.871480371692960e+00 4.875504873476880e+00 4.898767665113065e+00 4.773993143130907e+00 4.87040567086828