<?xml version="1.0"?>
<VTKFile type="UnstructuredGrid" version="0.1" byte_order="LittleEndian">
<UnstructuredGrid>
<Piece NumberOfPoints="714" NumberOfCells="1306">
<Points>
<DataArray type="Float64" NumberOfComponents="3" format="ascii">
0 0 0 0 0.10000000000041601 0 0.082799035591426873 0.082799035591510806 0 0.099999999999928008 0 0 0.19999999999983389 0 0 0.20669143849501961 0.085546078947938975 0 0.29145143692666958 0.13500804559578439 0 0.29999999999973409 0 0 0.24783073444672249 0.24783073444648379 0 0.21725788110387281 0.17316968768743621 0 0.17318221359491059 0.27409688392309489 0 0.089078158003765312 0.2493007687782936 0 0.140351188660986 0.16130415108589741 0 0 0.20000000000083221 0 0.066361468125430589 0.15903440181097661 0 0 0.30000000000124832 0 0.0632094674441709 0.3449112819864934 0 0 0.40000000000166441 0 0.083393126324559225 0.42307471369029392 0 0.13897501191807771 0.34545639364066222 0 0.070553891733833127 0.57745844360881338 0 0 0.60000000000138687 0 0 0.50000000000205869 0 0.12353277228144981 0.51086097771927308 0 0.16324260003398389 0.62262730759772122 0 0.1946526892501724 0.54636184660733622 0 0.27220668248394869 0.50912429725145214 0 0.27661118526457179 0.58730386222759956 0 0.16486701364709541 0.41592657376307979 0 0.21928696632013719 0.4676461135047027 0 0.29987747321592639 0.43430880093746571 0 0.2371857680100064 0.35865548441110112 0 0.34318159319555042 0.3314386771104964 0 0.38593969585746768 0.44843324941957241 0 0.42544665781957403 0.3726599289372452 0 0.38240158409674341 0.60644575028138747 0 0.34793494568226019 0.52426775179830853 0 0.45232393232070839 0.53082724112931345 0 0.46433624429412901 0.61260020600107856 0 0.55763912874459476 0.49619993861770217 0 0.56379254693201075 0.58472273515948836 0 0.49272830291620878 0.32528628960011152 0 0.47711113382803011 0.43513410852522788 0 0.56509579243166053 0.39588847936247551 0 0.58612580217118482 0.27813894450229909 0 0.49255105193724569 0.22337579986912359 0 0.5565830077206213 0.19095699352548859 0 0.59999999999951659 0 0 0.57505385014294308 0.072457888465917331 0 0.49999999999959438 0 0 0.50264032148191051 0.12292784096123539 0 0.43504744109702559 0.077628892606360606 0 0.39999999999966429 0 0 0.35933948296838258 0.073809900849860513 0 0.33604819894646598 0.23280286076243209 0 0.41589935411558732 0.26752529264016389 0 0.40428440976105728 0.1643886070295453 0 0 1 0 0.099999999999999645 1 0 0.14716362552681639 0.93861610753355362 0 0.19999999999999929 1 0 0.30000000000000071 1 0 0.29792158491427922 0.79537096033156995 0 0.2235202862591317 0.88873896332704583 0 0.1332109546178302 0.87498377138822103 0 0.075231054453351903 0.92314074346405706 0 0 0.89999999999958358 0 0 0.79999999999999982 0 0.074918724681641777 0.83311952320732263 0 0.1533088418661793 0.80370257472597129 0 0.089684836063650353 0.74720097194875412 0 0 0.7000000000006934 0 0.079752623936563252 0.65630726580969023 0 0.16551550920047911 0.70947866912672319 0 0.22047232289835689 0.77501739045979867 0 0.25446499951716589 0.69023946426646743 0 0.32437633398017029 0.65970549827478953 0 0.33985912385126898 0.73174041004507751 0 0.42824324229177341 0.6924957961634054 0 0.5174764925733939 0.65338828204098198 0 0.59670004617370476 0.65981579440137683 0 0.62152629835360762 0.73285157302339954 0 0.52912171753951986 0.73993242892488531 0 0.51076728641122882 0.81691863363193817 0 0.62017612851329729 0.81451802170669263 0 0.56701461556202259 0.86335846433862784 0 0.45907587517201498 0.90165918271477563 0 0.43819239467549531 0.79296936871720936 0 0.36912581253574028 0.83088590731704637 0 0.37337282601342481 0.92616598444216514 0 0.31535921456193688 0.88154045330654418 0 0.39999999999999952 1 0 0.49999999999999911 1 0 0.59999999999999964 1 0 0.5499999999999996 0.93976792513729512 0 0.70000000000000018 1 0 0.79999999999999982 1 0 0.89999999999999947 1 0 0.8793859710393791 0.93083561064221121 0 0.93540888248908083 0.88281232945237675 0 0.91372311269140116 0.80486176357476358 0 0.82192606283926717 0.87651855948129354 0 0.73937541854631073 0.9288754054780668 0 0.64588148000090029 0.91512139508160772 0 0.76404828705430583 0.78174230667165401 0 0.71722872346306721 0.85096302760907838 0 0.69085763855200755 0.76120667115691065 0 0.6754414170471299 0.67700559910555169 0 0.74547688787239819 0.70026419381674654 0 0.81910554849723838 0.69100245438023977 0 0.84477163403336131 0.77519844632340484 0 0.90192269692920224 0.70295054578552552 0 0.9749171938312049 0.68304286407835557 0 0.98491966670915287 0.745702719141624 0 1.0785590511537511 0.75365885686631617 0 1.05 0.67063679245255348 0 1.1595355377629719 0.69612720023346242 0 1.2316049928421089 0.71268197388690568 0 1.130022579458912 0.80264790230838934 0 1.2104878010462079 0.79638517641579154 0 1.246238897717278 0.90016207822659 0 1.1492841477515361 0.89495863909300122 0 1.035017143854235 0.92577305964649748 0 1.039491394416145 0.83402983011495258 0 0.99999999999999911 1 0 0.94997493298435887 0.94717135651053852 0 1.1000000000000001 1 0 1.1999999999999991 1 0 0.8520969719592798 0.19112077159544111 0 0.81051762114363357 0.25355176211442859 0 0.91043121937362004 0.26518856856736223 0 0.87151744524583186 0.1145610820769897 0 0.89999999999870417 0 0 0.8072276847200428 0.07509171132446453 0 0.79999999999899607 0 0 0.75434135135171976 0.12888799631625769 0 0.73796379772146625 0.059893436010741673 0 0.69999999999928797 0 0 0.66267222434682926 0.078497159578092612 0 0.64669101990832323 0.1799054750174742 0 0.75284581776561577 0.20455093921856349 0 0.7545004114404561 0.31098089234202853 0 0.68811979868824935 0.26566684131589419 0 0.65823561246403328 0.35502292901158627 0 0.64897033023755402 0.45530630145656431 0 0.71094001953927277 0.41472992215547572 0 0.65500944633069913 0.60601350811213128 0 0.66278242936710119 0.53985356489900171 0 0.74775703275407246 0.49059679564787018 0 0.74991769371388628 0.60451627361984739 0 0.85383906663538056 0.62014574817393608 0 0.82099888937423493 0.54529350322201742 0 0.89730215834238125 0.56352362508531118 0 0.79315209058920677 0.38802315963964318 0 0.83603391221093415 0.31708941802047369 0 0.84897848255088726 0.46000674997733482 0 0.9184189969982266 0.43608586792060411 0 0.89716106756302072 0.36571612550017968 0 0.97284972811175952 0.32057650487681749 0 0.97803218086495292 0.39957666910545891 0 1.049999999998295 0.45311778235774403 0 1.0499999999982661 0.33749999999944968 0 0.95554667482020261 0.61387123313571723 0 0.95438428234324713 0.50021891445525024 0 1.0610070115193291 0.56187728740506249 0 1.160572984923127 0.60155304747043781 0 1.1544259370261769 0.49580194535795907 0 1.11366617971111 0.39530889117858181 0 1.1787318575418491 0.43180077319900678 0 1.2482752740169289 0.44264463249545388 0 1.193211192060164 0.36417169501775798 0 1.2189485028845071 0.28846717556219142 0 1.225209211892335 0.20648826945283069 0 1.14543293599463 0.16096823716187 0 1.1317936052402791 0.27327200211975772 0 1.0273907165533489 0.25089655084417212 0 1.0673059847957449 0.1861726764986896 0 0.96758455917765662 0.17206502793490561 0 0.99999999999841238 0 0 0.95940036225003311 0.0802667348803804 0 1.0527907183502181 0.1005001786211816 0 1.1494214575391031 0.075340014825429069 0 1.09999999999812 0 0 1.199999999997829 0 0 1.2999999999975369 0 0 1.254652873386052 0.105753482544517 0 1.3681535985071449 0.13698083382674339 0 1.399999999997245 0 0 1.349999999997392 0.060567969661089648 0 1.291408388555241 0.26372433042992383 0 1.316869459340541 0.18778020585802921 0 1.3878996413210389 0.26723502210068018 0 1.473286192129879 0.27883707652097373 0 1.4156792278190771 0.19574754335211339 0 1.4905184776249101 0.20629734327603311 0 1.545236949037224 0.29434567071731399 0 1.456639397274391 0.1016053838939758 0 1.53341268746562 0.14194251306413061 0 1.542152768646126 0.073248247890105089 0 1.4999999999969531 0 0 1.599999999996661 0 0 1.6999999999963691 0 0 1.6799832100487111 0.082202015566833181 0 1.609545399082946 0.1308291592921435 0 1.567491488875842 0.20218805454405439 0 1.6351951680630969 0.23707571199064051 0 1.714493154391862 0.28897291620938281 0 1.7304700827703301 0.17386188770806579 0 1.799219293849516 0.26438879273789773 0 1.8480644103363271 0.19193194889233381 0 1.8299024103288899 0.1151394713368583 0 1.799999999996077 0 0 1.75369588639865 0.074917217572982864 0 1.7537858687071439 0.50406839622489796 0 1.742806034420483 0.6006074591026016 0 1.8544400981153091 0.62488101477716596 0 1.8316048184152021 0.54157006606434721 0 1.850967139686138 0.45738417241574703 0 1.8620515405159661 0.32644761881501039 0 1.787749129254824 0.36176402170097799 0 1.7808296409871709 0.43587276890434401 0 1.71976181471802 0.39635806210359681 0 1.645895854313963 0.45222881216869149 0 1.6419306970571019 0.3436055112169133 0 1.645263810758179 0.55814977621663464 0 1.5386621965636409 0.60828218080060537 0 1.550364457075788 0.50467902559054656 0 1.4795754400412069 0.53983964974648579 0 1.445918816848357 0.6075709531782556 0 1.551956040519719 0.40384519109247291 0 1.4491802319415681 0.4666714614197911 0 1.4507225717793131 0.3561247496431208 0 1.347125314110625 0.32447518420453242 0 1.385017785528226 0.40713366384701549 0 1.3198129865007471 0.39133224900025881 0 1.2615469736996101 0.34090999671933891 0 1.3860523322451299 0.56073196187600105 0 1.3462106466432811 0.48060664220838062 0 1.2709684905841181 0.55537862536316829 0 1.2546738886072291 0.63615646469940468 0 1.3545060270195819 0.65002758689694418 0 1.4000454837723419 0.73943313674757749 0 1.3035852436207409 0.73866974635260263 0 1.2914654457895349 0.81843301378315825 0 1.3255948392482531 0.88328132587465524 0 1.3864786876100039 0.92208751032957958 0 1.386174597084219 0.82350876346868962 0 1.482119963281066 0.782586299849238 0 1.463012078585596 0.89209645917012148 0 1.546104640467868 0.9195568013001878 0 1.535346256113697 0.70153336654872078 0 1.4534042830965781 0.68426123045930609 0 1.2999999999999989 1 0 1.399999999999999 1 0 1.5 1 0 1.599999999999999 1 0 1.6999999999999991 1 0 1.7999999999999989 1 0 1.6597641702579149 0.778
[...]
<CellData Scalars="A_conc,As-lin_conc,Bs-lang_conc,Cs-freund_conc," Vectors="" Tensors="">
<DataArray type="Float64" Name="A_conc" format="ascii">
2.4243092882016396e-16 2.3490425700745249e-12 1.6117548974469918e-34 5.1678218436105659e-30 9.3733625360666204e-26 1.220424876868102e-21 5.7880815732470995e-16 6.7563663449819497e-12 2.9969713770444801e-28 5.1873615252441005e-24 1.3034750928528797e-19 1.1652488499552875e-11 2.2226300190445842e-57 1.545301479715067e-38 3.2069586210765551e-34 1.504850473636384e-33 4.2780353921654459e-43 2.3776934985260291e-67 4.7979670432420924e-43 5.6058393092617599e-38 1.3998574673234201e-31 6.4011401692530872e-36 2.7110662233913152e-52 1.0146899394600465e-40 3.3171567806832981e-59 2.6260137498185548e-57 1.0390950719215879e-64 1.4396074177522576e-83 0 1.884155301780819e-54 1.2484790245659627e-47 6.7818356213470833e-83 7.8496582696570062e-89 0 1.7161195185475596e-107 2.928306638004023e-101 1.0343889521010655e-77 1.3786592071512833e-95 4.5955693725472259e-90 0 0 0 0 0 0 2.5232705990657482e-78 2.0545293236806682e-72 0 0 0 0 1.8361960729167891e-62 0 0 0 0 0 0 0 0 0 0 0 0 0 0 0 0 0 0 0 0 0 0 0 0 0 0 0 1.5002015882972035e-33 0 0 5.6839734236815852e-25 2.0197216306763395e-15 1.9797491899667902e-11 1.6385729522158089e-15 1.80628460339466e-19 3.8398805590365577e-29 6.262709216918276e-24 1.16741297065855e-20 1.9949693252954122e-11 2.7828676014927929e-15 1.7698814312326133e-11 1.5599723405148015e-15 6.6004181600645772e-25 8.6961613243787897e-30 1.95468934487393e-47 1.4559750587930654e-52 0 4.5618256726911409e-38 7.5575636697650616e-43 3.5618806794555172e-16 3.3782133574464187e-12 1.6225944535839862e-15 1.3179058989209797e-11 1.6850190039488082e-15 1.0745527038207367e-11 1.7934888771702337e-19 4.1531893785339604e-29 8.9213357474069014e-25 2.1434571264269421e-33 7.7758592693134257e-38 1.1111759801543674e-19 9.006023955403549e-24 3.6129250539560529e-28 1.6855383850839519e-32 4.3096911436517335e-37 8.3929039724951357e-52 2.6228140610268494e-42 4.1342795065677478e-47 1.0009112977938642e-47 9.8172956311405077e-43 8.1263918135758693e-57 1.9377833222046326e-52 1.4472861051274323e-57 3.4580932514028272e-72 2.7065196753731882e-84 3.8274348699323187e-67 1.65486709414589e-61 2.9457344669443554e-38 1.1874758584475548e-56 6.0133554520800236e-52 2.081081907014054e-73 5.9661106404408535e-79 0 2.0877602095508474e-68 3.2378408455305871e-58 3.9726181535150763e-63 0 0 0 0 0 0 0 3.0306317442624357e-33 4.3274562246020081e-53 2.0701672585292572e-48 3.6784920879644679e-42 5.7873045059358564e-20 1.6615263158615238e-37 3.2340241883421686e-24 7.5363440844415248e-29 5.9451830338856854e-20 1.1368686392647755e-37 1.2808107433134587e-42 4.1430157261817863e-47 2.3603741075846792e-28 2.2200031810615465e-15 5.8948222175060799e-24 2.2019082107047322e-11 2.7317507830299786e-15 1.8788540481791145e-11 2.4490275177537059e-15 2.908339396303397e-11 2.2083489648926209e-15 1.5234070981714565e-15 1.766578847043558e-11 1.4924658496402639e-11 9.2777168969485335e-12 0 0 0 0 0 0 7.9920345963292904e-16 8.01227393222262e-20 3.0698449285688043e-24 1.4942780866245339e-28 3.8079100399258297e-33 0 0 0 0 0 0 0 0 0 0 0 0 0 0 0 0 0 0 0 0 0 0 0 0 1.4312799495621037e-121 8.6963041417006733e-121 5.393252098696639e-106 7.6460730668245191e-100 6.998325476735096e-94 4.5674437060077919e-83 2.1701815518364515e-88 8.8976873457013731e-106 6.6734178771055587e-94 1.6703548171740296e-99 7.0521509011898254e-93 1.1825346204913054e-98 5.5148527474545259e-82 4.3731239532945321e-82 2.0994771621472712e-87 1.9796890762081162e-99 5.7989090787345008e-105 0 1.1727237975084756e-121 5.3527441465238332e-121 1.507765166981016e-105 1.004449187994257e-120 6.8691792842712402e-105 6.6464247653092056e-99 4.08290535138502e-93 1.5842834197125575e-87 9.0562014273961093e-77 0 0 0 0 0 0 0 0 2.0878692143316832e-16 2.0691701819082222e-20 8.9549857249628354e-12 1.3630673291188439e-15 0 8.1805253353537561e-25 2.3406953664203793e-24 3.3585259985288321e-20 1.5542899159855631e-11 1.6203407506128309e-11 1.8419739514793551e-15 9.9736773706650425e-21 5.0917817492134454e-29 0 0 0 0 0 0 0 0 0 0 0 0 0 0 0 0 0 0 0 0 0 0 0 0 0 0 0 0 0 0 0 0 0 0 0 0 0 0 0 0 0 0 4.8361635202221239e-122 0 0 0 0 3.2695159969059499e-122 0 0 0 0 0 0 0 0 0 0 0 0 0 0 0 0 0 0 0 0 0 0 2.2913519256268513e-12 0 0 0 0 0 0 0 0 0 0 0 0 0 0 0 0 0 0 0 0 0 0 0 0 0 0 0 0 0 0 0 0 0 0 0 0 0 0 0 0 0 1.5772340987753959e-121 9.8863050802288915e-106 1.1234532893323106e-121 0 0 0 0 0 0 7.26185396845662e-123 5.255813660168876e-101 3.9373793641528475e-107 0 3.8704990617362788e-106 6.9158226347067812e-96 1.402795837329242e-94 3.5868655019183075e-88 1.5822248212928693e-88 6.1888251753762757e-94 1.0074549339517686e-99 6.8463235058930403e-106 6.3640516218438228e-100 0 0 1.3361541207481106e-124 0 8.6268013049809081e-123 5.6105329023640295e-122 0 0 0 0 0 0 0 0 0 0 0 0 0 0 0 0 0 0 0 0 0 0 0 0 0 0 0 0 0 0 0 0 0 7.3595460667419264e-102 5.2884157101664373e-96 0 0 0 6.5083835979944485e-108 2.0965950272333027e-88 3.4481022803858956e-83 1.2157323470604963e-72 7.7468001820822055e-78 1.7587784791317674e-67 1.0842241267062149e-77 1.493526735018037e-72 1.4793402999718543e-71 1.0417058150944919e-76 1.4624341061779333e-66 1.4681754222482176e-66 1.1164442490828674e-71 2.9441744616211722e-57 1.8188636599283997e-62 9.5147774319865221e-62 3.8188235131552849e-47 1.7900852822238524e-47 1.9178642436252581e-52 2.2182070969965102e-52 1.5659979124683322e-62 1.2903800336170558e-57 1.6991084516469148e-79 8.7155575806684403e-85 3.3042623077306406e-90 2.10528189818122e-67 1.6341926617080538e-61 6.2493494869748156e-52 1.4435100191914838e-56 1.9215529730247363e-42 2.097783172530819e-33 1.5046823989521458e-24 6.5613446416518623e-29 1.7957159573124703e-20 2.4451343628008762e-16 2.0476292289473117e-12 5.6196021265633378e-59 0 2.2913612739321731e-74 8.4253935381678593e-64 9.432757009685589e-69 8.011197505222882e-43 1.2559465512493163e-47 8.110995840768828e-43 8.1271397501508277e-38 2.0394805729699569e-33 1.5368773999329587e-34 2.7008672804667547e-38 4.3987057534676176e-30 4.6120372284290552e-43 4.2526419859352473e-29 5.559212629304415e-25 7.1109098108267077e-21 1.4715999891752598e-38 3.2134390580443419e-34 1.3498742518783431e-57 1.4963556326191867e-62 3.7298596063648255e-49 6.4169523569988653e-54 0 0 2.9829985152055342e-121 0 3.9626602658735611e-106 2.9574423219383004e-106 8.3110283430000127e-100 3.3301626527646283e-94 7.5970861204464109e-53 3.774181402516178e-48 8.6473173008063501e-30 5.3120429478845675e-25 1.0032486796341479e-20 1.1901588851520162e-38 3.7741720887615023e-43 6.5954079878336258e-34 4.2021009842270921e-24 1.1043162139736317e-15 7.0945167162623604e-25 2.0323356652847577e-29 9.6674931633894511e-78 6.6090012579389244e-89 1.725125845613063e-83 2.3292060575776364e-94 4.9838695812678047e-100 2.2440337154040393e-88 4.845600389240957e-83 6.9308751327954948e-89 1.4066777775315384e-11 1.2154297939103497e-15 3.0769281151265077e-15 2.1794964013933579e-11 1.1388051958274947e-19 1.0809398630732882e-11 5.9661064959159875e-16 5.3770216100340609e-12 1.0445109072498956e-12 4.1272254280794067e-42 1.7280245783942571e-37 7.9587717317404993e-58 3.6261464261169753e-63 6.3864098029543896e-68 2.6823236669212366e-78 1.5346378114915466e-72 4.4094075756192572e-73 4.5396487329676195e-62 2.3633390942063094e-67 1.0799351436136283e-20 1.9004581074343457e-52 8.6290774186730877e-17 3.3664399694347467e-57 1.4024462075629571e-62 1.3507621288984591e-47 1.7362299386180385e-42 9.2615953114825483e-48 5.1903617724888932e-43 4.0089326670597191e-53 2.2244482567119368e-48 5.88616456950464e-53 4.2085229474926281e-69 3.0744633498295385e-64 2.3631582831165486e-59 2.4609062616345796e-100 1.4266246982250493e-123 1.2718698473439771e-107 3.1750875907742255e-108 2.5284588523744095e-124 1.9419257880969486e-75 1.2994333419890913e-74 0 7.0714618814418496e-80 1.0691020217559294e-85 1.5728747788558118e-80 7.3196733820661926e-86 3.0561867621404587e-91 2.1610063402391149e-78 2.4118919443906275e-73 7.2794169279385685e-85 1.2614209755944056e-79 6.4533157133218474e-80 8.0457859311623726e-75 3.5786660759182996e-74 4.0538099451647004e-69 1.7200856178478811e-69 1.4132033622316284e-64 5.3335107684032815e-70 4.0123097835640042e-65 8.4528265357620405e-60 2.7668736400943698e-49 1.6122788323317541e-54 8.4699265147957385e-35 5.9857703860623752e-40 1.7282683076410123e-44 2.7907564058843212e-49 3.2612795610714336e-59 4.4892728047829145e-64 4.9437146349271315e-29 1.1337225871462504e-24 2.4417056863910263e-29 2.0692187414845878e-30 9.8651322448070299e-34 1.7593230454005368e-38 4.9767128379950912e-43 1.5259565010203821e-33 4.3705931602392266e-38 1.0782211096884369e-42 1.1002394458064425e-47 2.0696767026958208e-52 2.6371247242975951e-57 2.6703735335627879e-52 2.1177715155262811e-47 6.533455999397649e-54 1.176240979096989e-57 1.5596962660346133e-62 6.2558309510919179e-64 5.4222588883503947e-59 6.690010686338558e-69 2.1164750099454761e-67 4.7395768883219136e-73 4.1863538863271914e-84 3.3738914403775264e-78 3.6404598567195712e-57 2.1204770641394582e-62 2.1343246368481902e-68 4.4042407948897228e-62 4.1133662691913289e-67 2.5332053000703436e-72 1.5462801567105444e-73 9.4960507236647114e-83 6.1801261269857454e-89 9.9009031781613592e-83 2.063466596127804e-77 5.1455241989994162e-89 1.8170951336132717e-89 1.6574706179884742e-83 6.3391690353973582e-79 2.6227468989176734e-90 3.0166983839252995e-84 2.456062246935703e-94 4.3065138572618129e-100 3.8561558414898169e-107 7.9434313928936595e-101 3.4504989696546576e-95 2.7563262070174648e-96 1.0423731187121419e-90 1.3487984614401405e-96 2.7637095304000184e-102 1.8713904091121974e-102 7.239860137044721e-109 0 0 1.6988699989492936e-106 1.2538779256067059e-121 3.0276629562100303e-107 3.5615302373215598e-101 3.8358908794685249e-95 2.0276806866758283e-100 2.3433407131291968e-94 1.1416512278303421e-83 1.4352005421228556e-89 1.3375791346629145e-90 1.5453349113507787e-74 1.0029573316527055e-79 1.7854740323011787e-85 3.8516845634828002e-96 8.7373949784148436e-29 1.8418603922715052e-33 5.7046043219593532e-24 2.5987441444284441e-14 1.1085083310008109e-09 3.4422232575872117e-19 3.6985831778124905e-05 0.017809295632034122 2.7801987557727042e-05 6.8353073739593588e-06 0.0098299751332977942 4.1016951968734366e-06 6.5704419265936901e-11 1.1510488109156446e-10 1.8602106681171273e-15 0.012175660882973702 8.3833047028788587e-06 0.0055683856272293747 1.4975785911060805e-10 4.1034727666536953e-20 3.1662082918004501e-20 2.0976901439507933e-15 7.7728641347117604e-16 9.266469631325501e-30 3.432140669188628e-25 2.1354972263295421e-29 9.1995137372307267e-25 4.0921023083547722e-20 8.0748583244907624e-25 1.8593076990990469e-20 2.3935287055241991e-29 4.3884145735910256e-34 3.0487905822482676e-34 6.1187275778988479e-44 5.7636755193634675e-39 5.3095657876001402e-39 7.2545506778020758e-49 4.5111911070165388e-34 5.6791134789051059e-39 1.6885249606199532e-34 1.5386147330127138e-39 1.9854679540461292e-44 6.9372760306173403e-49 7.5927726852963649e-44 4.6035759538652682e-59 8.993446736101929e-54 5.739370008859445e-59 1.8409634869847303e-54 4.39358095485411e-64 3.8883449195437935e-64 8.2966806865135476e-54 2.8447437603015741e-55 2.0210297607639582e-49 1.8720670473518767e-60 8.11089742850013e-60 3.168226201889998e-66 1.7055089663796741e-68 3.434284736278146e-63 4.2148534273267379e-58 2.5646578368020225e-38 3.4742617237350495e-43 4.991490120513478e-48 4.3218302727134605e-53 4.9038592867693946e-18 5.77800894153636e-14 1.9298435892829921e-24 1.3742013114300714e-19 1.1884610093649885e-19 4.5108506758406982e-10 5.514586244097492e-10 7.7523619074442335e-15 3.6985860322502704e-05 0.017809300644440584 9.2668043554480946e-06 2.8325566225664497e-05 5.4934945492818534e-15 1.3601900739884417e-10 5.7797272130951246e-11 0.0098299872194863545 4.1017192790805852e-06 0.0055683955495084009 7.2464376311271155e-06 1.9806517839728432e-15 6.6871873904400055e-16 1.3016658898147755e-20 1.3565581497755703e-25 1.7470848082178975e-25 9.1854344841760624e-25 3.0103705527246403e-29 1.3855423947543633e-25 1.0334632261027713e-24 1.7585226968740546e-16 5.2373513106308838e-21 4.3149377607255929e-20 3.9617431003702351e-20 9.9380384052925845e-11 1.3492294272707929e-10 0.011394722835020233 5.3025798201012178e-06 0.0047560773645457972 1.976867226113559e-15 1.6145070199319458e-11 9.6539155435080692e-07 0.0049636263304500168 7.6009519092271917e-06 1.3042951197673959e-10 1.8536296956924023e-15 2.0758642456067206e-16 5.9243117111158659e-21 1.6595948857365569e-25 6.8738776290139634e-25 5.3977013272856737e-35 3.9950560103642744e-30 6.5809360838357713e-35 1.2829759628612644e-39 1.5980790480650786e-44 1.1207318215924112e-44 1.0603837482514367e-39 1.9616848994731912e-54 1.9862086079557286e-49 2.7147304846801932e-59 1.8603290618055417e-64 7.4768244267052516e-65 1.8084796807210455e-49 2.0448921380601023e-54 7.8513510202678209e-50 1.4992645908547691e-54 1.7617017612819934e-59 1.1353488994358096e-64 9.8638224911910967e-60 1.2166066982907574e-64 1.0085746517299692e-54 5.9885628718930326e-45 4.7524357108768348e-40 4.2107860034409544e-40 2.8997465981607117e-30 2.5412872770680863e-35 2.9352388388233608e-35 5.3324408641769313e-34 3.3797151599288294e-30 7.2272413568372108e-35 4.0629614288319846e-30 5.9815141638398462e-40 2.2834950390047253e-35 7.1364216153008524e-45 1.232130744285646e-49 3.1175836360178154e-59 2.1133737330214742e-54 8.9049575290886668e-54 6.1965271527046874e-49 2.4095510854978795e-44 1.75827833267896e-39 1.105811623516342e-20 9.9429313895803766e-30 5.6986936850566444e-25 9.5408552029370367e-16 1.257134139026382e-11 6.7533197573212476e-16 1.4748673122363254e-30 5.6075550134887417e-12 6.0860136355586719e-35 1.6694400419833969e-30 2.9825551813191819e-26 3.2436265777252164e-26 5.8388990097370884e-22 9.6609467827954902e-29 1.4078264125327685e-24 6.0815172546361743e-29 4.2986511270181558e-16 3.156954982905327e-20 3.7963792981086415e-12 3.9182564469555144e-12 6.290221988825175e-16 1.8826360089976801e-20 1.3925777591314902e-24 1.1730928908186207e-38 1.8425666581708564e-43 1.5607966058285056e-58 3.7062216683714604e-34 1.3000640791812447e-63 1.7744602102073682e-68 1.6755707353663513e-73 6.8785601468062719e-79 2.9899878258333792e-53 5.161475361039637e-48 9.3407724195996033e-34 9.4802601047805649e-43 3.0055089130569211e-38 5.6171885022016504e-63 4.7080541238363823e-58 8.8916973260781022e-69 2.1907827882140284e-90 2.3240044704131356e-96 5.8247696226049007e-85 2.2671832867639834e-79 4.4359864003309751e-74 1.0365612825237755e-69 4.5205938731174045e-75 8.8687751495929856e-70 2.1718796300913239e-80 6.9283804705512103e-86 1.597952989678142e-80 2.6224059823305201e-75 5.7649049157024816e-70 5.8713546419837848e-75 7.4857341622356983e-70 2.5987382983538226e-80 9.0037873734721997e-86 3.1257927532431931e-97 1.6488603641961695e-91 1.0884654713837101e-91 2.3298298199877392e-97 1.75603857580357e-103 2.0829770725814011e-103 1.2798398210517868e-127 0 2.4938974420655424e-109 1.8903165457458936e-108 2.0662900738181871e-127 1.3684645608518689e-126 0 0 0 0 0 0 6.1067308673700991e-108 0 5.7074740302758091e-102 1.2793372004779679e-90 8.3844189065457994e-84 4.423550945092853e-96 4.4668194529946934e-89 1.0989364103532386e-94 4.1718733759734867e-79 1.5634930057244278e-78 1.3497305455464752e-72 9.1468135627923449e-85 4.2064567015497416e-102 1.4246250947213181e-79 6.4020375629385041e-74 6.1048712203599262e-63 1.920905702198839e-57 8.7406799453442296e-53 2.4795679492197124e-47 5.5133106588570543e-47 3.5712014017414894e-52 1.7881929497225441e-67 2.8248991350578025e-62 1.3389642460395579e-68 2.7794077002148274e-72 1.337687674054774e-73 1.6201653296469677e-66 5.5653846591761255e-67 4.5813177724422526e-57 1.671075206519928e-56 5.4179961518330891e-62 1.1369128598619959e-51 1.8931813032614339e-56 2.4337934014888078e-61 1.9631108328871159e-61 1.7579279694272099e-56 1.289482199514693e-51 6.4391632930034229e-47 3.2783581668520263e-42 4.9597660373939525e-47 1.0840471251303849e-51 3.6932407471545732e-33 1.843230049186941e-42 1.4838985727630927e-37 9.8366654954788591e-38 3.387158642936381e-33 1.4554109827266928e-12 1.7884565465024997e-16 5.9213028476237668e-13 6.8074592401678858e-74 3.1045899754723224e-70 4.2624449530989881e-77 8.9845926912489605e-72 7.6237771110594112e-65 1.4070705508799136e-75 1.5580918622481471e-75 1.2609769561003751e-74 1.9785292006748973e-69 3.0057954409092502e-70 2.3510401055703557e-69 1.1111444223538959e-85 4.1743502990925854e-81 1.3745103706483638e-85 5.8268502700531096e-80 2.9186513270899562e-91 2.001906256281794e-91 1.6350362118728366e-92 1.9866036779709963e-97 6.0614736333693275e-104 4.6477294209935104e-81 5.4558260411753997e-17 1.1525414401060435e-86 1.1880511885974997e-86 2.3182190029013747e-98 2.2903396014628943e-92 4.0509422541282296e-21 2.1337412801040521e-25 1.1443501523413795e-104 5.6419004237617171e-30 2.2411105047457774e-34 0 0 0 0 1.5800951682761342e-39 0 0 0 0 3.4386793347845475e-44 0 1.5750075707632015e-53 0 0 0 2.0445446125860749e-38 7.529348528922109e-39 1.726478656671204e-43 7.3110187161182906e-49 8.3554951853987023e-48 5.4681062284887483e-43 6.9327460024434568e-12 3.1678217267685985e-16 3.7408909247216097e-12 1.1712216993559969e-33 2.5579475492039517e-29 1.3134497821910033e-20 5.8660429713945724e-25 1.8147192657630059e-12 1.2111041048365144e-16 1.4845941135462879e-12 3.956568012569043e-16 3.0114328277664864e-12 5.9102438670463206e-16 2.0175198357133338e-57 1.6065537168990746e-52 2.3977639871127381e-67 2.171625284698886e-62 0 0 3.9930258327351388e-63 2.7646110008581875e-58 4.5624208659193479e-68 2.8499085692669818e-73 0 2.1993703154226184e-78 1.0804863659211158e-83 5.7587134020524346e-83 1.1435845840671543e-89 1.25775200037288e-20 1.6013036447255466e-72 1.4416738579486827e-77 2.4186140383613125e-29 6.9587806902140536e-25 1.2861040962593121e-21 2.0780220452003843e-16 1.0051577022707135e-33 1.01724894128089e-25 5.811491776972903e-16 6.1930957087225942e-30 9.6305586824851974e-100 3.017335462641863e-95 2.8367919922671645e-88 1.3031928575425566e-93 1.2059491585217517e-30 5.4668623765499069e-35 8.6936018757998274e-45 7.5977935772751207e-50 2.9476478757924376e-40 2.1400624210211692e-54 3.5198786052926772e-59 7.0074329941694916e-44 4.3706640650845407e-49 1.2013570638843717e-58 1.939631755645172e-53 8.134877580256697e-54 5.4461115013751914e-20 1.8868899509921548e-24 2.2728781318405448e-34 2.5924449321633072e-39 3.5214231368930576e-33 1.3164133970027918e-48 1.1920754529392896e-28 1.4482598984643385e-12 1.294324371022707e-16 3.3793040120313463e-12 5.081702455601734e-12 2.7839944874424721e-12 3.1071370959880427e-16 1.5028022543491214e-21 1.0812190926471451e-25 1.8823668166393915e-87 3.4288363037521802e-12 1.9473176062178194e-14 2.4012105712259933e-18 1.8334623616321896e-66 1.7917631624938518e-71 8.9555187624753583e-77 5.3819008240616186e-82 3.5434561752353686e-82 5.0269290421487196e-77 1.2138684984061579e-71 2.4923260377025131e-77 1.4732815162357389e-82 3.6136025411005904e-88 4.5176147115188491e-88 1.3583879766079993e-93 9.8197840217658522e-88 2.8609549225559267e-93 1.6076862149289207e-31 2.3100155918137519e-99 4.4689676548203707e-106 8.176746005682015e-107 2.3991323251209976e-100 1.4209919088116024e-94 1.0173185126145042e-88 2.1496727404781952e-84 3.2931144222010401e-83 4.7557700212181323e-97 1.8649056642370329e-91 7.7994885796277353e-103 0 4.7471701649163973e-123 0 0 0 0 1.0882402038017256e-124 3.1563954030403413e-109 0 1.9895900115594598e-101 0 0 0 1.8386304651594047e-123 0 2.3701915371269929e-107 7.4327545431914419e-60 9.5579721547759486e-65 3.2096318862452026e-64 4.1238249481838045e-69 3.5392774513709988e-70 4.0262866376850357e-75 0 4.6742571476482387e-76 4.8954131392610539e-81 4.0542931126992011e-70 1.2736164184424011e-70 1.4414156158192183e-65 7.5054710429322472e-60 0 3.8959682014018903e-122 0 1.0694250159569107e-50 1.6225617283830348e-121 4.5840899992347694e-41 1.7466718189069777e-45 7.5200920830796029e-36 5.1014910329733917e-39 4.8066501222536838e-44 4.4460566467756672e-50 5.4991046281794789e-55 8.774407996640358e-60 1.6576212824346197e-63 1.2254557170244982e-64 1.3226625778354443e-42 2.3604179856371585