<?xml version="1.0"?>
<VTKFile type="UnstructuredGrid" version="0.1" byte_order="LittleEndian">
<UnstructuredGrid>
<Piece NumberOfPoints="714" NumberOfCells="1306">
<Points>
<DataArray type="Float64" NumberOfComponents="3" format="ascii">
0 0 0 0 0.10000000000041601 0 0.082799035591426873 0.082799035591510806 0 0.099999999999928008 0 0 0.19999999999983389 0 0 0.20669143849501961 0.085546078947938975 0 0.29145143692666958 0.13500804559578439 0 0.29999999999973409 0 0 0.24783073444672249 0.24783073444648379 0 0.21725788110387281 0.17316968768743621 0 0.17318221359491059 0.27409688392309489 0 0.089078158003765312 0.2493007687782936 0 0.140351188660986 0.16130415108589741 0 0 0.20000000000083221 0 0.066361468125430589 0.15903440181097661 0 0 0.30000000000124832 0 0.0632094674441709 0.3449112819864934 0 0 0.40000000000166441 0 0.083393126324559225 0.42307471369029392 0 0.13897501191807771 0.34545639364066222 0 0.070553891733833127 0.57745844360881338 0 0 0.60000000000138687 0 0 0.50000000000205869 0 0.12353277228144981 0.51086097771927308 0 0.16324260003398389 0.62262730759772122 0 0.1946526892501724 0.54636184660733622 0 0.27220668248394869 0.50912429725145214 0 0.27661118526457179 0.58730386222759956 0 0.16486701364709541 0.41592657376307979 0 0.21928696632013719 0.4676461135047027 0 0.29987747321592639 0.43430880093746571 0 0.2371857680100064 0.35865548441110112 0 0.34318159319555042 0.3314386771104964 0 0.38593969585746768 0.44843324941957241 0 0.42544665781957403 0.3726599289372452 0 0.38240158409674341 0.60644575028138747 0 0.34793494568226019 0.52426775179830853 0 0.45232393232070839 0.53082724112931345 0 0.46433624429412901 0.61260020600107856 0 0.55763912874459476 0.49619993861770217 0 0.56379254693201075 0.58472273515948836 0 0.49272830291620878 0.32528628960011152 0 0.47711113382803011 0.43513410852522788 0 0.56509579243166053 0.39588847936247551 0 0.58612580217118482 0.27813894450229909 0 0.49255105193724569 0.22337579986912359 0 0.5565830077206213 0.19095699352548859 0 0.59999999999951659 0 0 0.57505385014294308 0.072457888465917331 0 0.49999999999959438 0 0 0.50264032148191051 0.12292784096123539 0 0.43504744109702559 0.077628892606360606 0 0.39999999999966429 0 0 0.35933948296838258 0.073809900849860513 0 0.33604819894646598 0.23280286076243209 0 0.41589935411558732 0.26752529264016389 0 0.40428440976105728 0.1643886070295453 0 0 1 0 0.099999999999999645 1 0 0.14716362552681639 0.93861610753355362 0 0.19999999999999929 1 0 0.30000000000000071 1 0 0.29792158491427922 0.79537096033156995 0 0.2235202862591317 0.88873896332704583 0 0.1332109546178302 0.87498377138822103 0 0.075231054453351903 0.92314074346405706 0 0 0.89999999999958358 0 0 0.79999999999999982 0 0.074918724681641777 0.83311952320732263 0 0.1533088418661793 0.80370257472597129 0 0.089684836063650353 0.74720097194875412 0 0 0.7000000000006934 0 0.079752623936563252 0.65630726580969023 0 0.16551550920047911 0.70947866912672319 0 0.22047232289835689 0.77501739045979867 0 0.25446499951716589 0.69023946426646743 0 0.32437633398017029 0.65970549827478953 0 0.33985912385126898 0.73174041004507751 0 0.42824324229177341 0.6924957961634054 0 0.5174764925733939 0.65338828204098198 0 0.59670004617370476 0.65981579440137683 0 0.62152629835360762 0.73285157302339954 0 0.52912171753951986 0.73993242892488531 0 0.51076728641122882 0.81691863363193817 0 0.62017612851329729 0.81451802170669263 0 0.56701461556202259 0.86335846433862784 0 0.45907587517201498 0.90165918271477563 0 0.43819239467549531 0.79296936871720936 0 0.36912581253574028 0.83088590731704637 0 0.37337282601342481 0.92616598444216514 0 0.31535921456193688 0.88154045330654418 0 0.39999999999999952 1 0 0.49999999999999911 1 0 0.59999999999999964 1 0 0.5499999999999996 0.93976792513729512 0 0.70000000000000018 1 0 0.79999999999999982 1 0 0.89999999999999947 1 0 0.8793859710393791 0.93083561064221121 0 0.93540888248908083 0.88281232945237675 0 0.91372311269140116 0.80486176357476358 0 0.82192606283926717 0.87651855948129354 0 0.73937541854631073 0.9288754054780668 0 0.64588148000090029 0.91512139508160772 0 0.76404828705430583 0.78174230667165401 0 0.71722872346306721 0.85096302760907838 0 0.69085763855200755 0.76120667115691065 0 0.6754414170471299 0.67700559910555169 0 0.74547688787239819 0.70026419381674654 0 0.81910554849723838 0.69100245438023977 0 0.84477163403336131 0.77519844632340484 0 0.90192269692920224 0.70295054578552552 0 0.9749171938312049 0.68304286407835557 0 0.98491966670915287 0.745702719141624 0 1.0785590511537511 0.75365885686631617 0 1.05 0.67063679245255348 0 1.1595355377629719 0.69612720023346242 0 1.2316049928421089 0.71268197388690568 0 1.130022579458912 0.80264790230838934 0 1.2104878010462079 0.79638517641579154 0 1.246238897717278 0.90016207822659 0 1.1492841477515361 0.89495863909300122 0 1.035017143854235 0.92577305964649748 0 1.039491394416145 0.83402983011495258 0 0.99999999999999911 1 0 0.94997493298435887 0.94717135651053852 0 1.1000000000000001 1 0 1.1999999999999991 1 0 0.8520969719592798 0.19112077159544111 0 0.81051762114363357 0.25355176211442859 0 0.91043121937362004 0.26518856856736223 0 0.87151744524583186 0.1145610820769897 0 0.89999999999870417 0 0 0.8072276847200428 0.07509171132446453 0 0.79999999999899607 0 0 0.75434135135171976 0.12888799631625769 0 0.73796379772146625 0.059893436010741673 0 0.69999999999928797 0 0 0.66267222434682926 0.078497159578092612 0 0.64669101990832323 0.1799054750174742 0 0.75284581776561577 0.20455093921856349 0 0.7545004114404561 0.31098089234202853 0 0.68811979868824935 0.26566684131589419 0 0.65823561246403328 0.35502292901158627 0 0.64897033023755402 0.45530630145656431 0 0.71094001953927277 0.41472992215547572 0 0.65500944633069913 0.60601350811213128 0 0.66278242936710119 0.53985356489900171 0 0.74775703275407246 0.49059679564787018 0 0.74991769371388628 0.60451627361984739 0 0.85383906663538056 0.62014574817393608 0 0.82099888937423493 0.54529350322201742 0 0.89730215834238125 0.56352362508531118 0 0.79315209058920677 0.38802315963964318 0 0.83603391221093415 0.31708941802047369 0 0.84897848255088726 0.46000674997733482 0 0.9184189969982266 0.43608586792060411 0 0.89716106756302072 0.36571612550017968 0 0.97284972811175952 0.32057650487681749 0 0.97803218086495292 0.39957666910545891 0 1.049999999998295 0.45311778235774403 0 1.0499999999982661 0.33749999999944968 0 0.95554667482020261 0.61387123313571723 0 0.95438428234324713 0.50021891445525024 0 1.0610070115193291 0.56187728740506249 0 1.160572984923127 0.60155304747043781 0 1.1544259370261769 0.49580194535795907 0 1.11366617971111 0.39530889117858181 0 1.1787318575418491 0.43180077319900678 0 1.2482752740169289 0.44264463249545388 0 1.193211192060164 0.36417169501775798 0 1.2189485028845071 0.28846717556219142 0 1.225209211892335 0.20648826945283069 0 1.14543293599463 0.16096823716187 0 1.1317936052402791 0.27327200211975772 0 1.0273907165533489 0.25089655084417212 0 1.0673059847957449 0.1861726764986896 0 0.96758455917765662 0.17206502793490561 0 0.99999999999841238 0 0 0.95940036225003311 0.0802667348803804 0 1.0527907183502181 0.1005001786211816 0 1.1494214575391031 0.075340014825429069 0 1.09999999999812 0 0 1.199999999997829 0 0 1.2999999999975369 0 0 1.254652873386052 0.105753482544517 0 1.3681535985071449 0.13698083382674339 0 1.399999999997245 0 0 1.349999999997392 0.060567969661089648 0 1.291408388555241 0.26372433042992383 0 1.316869459340541 0.18778020585802921 0 1.3878996413210389 0.26723502210068018 0 1.473286192129879 0.27883707652097373 0 1.4156792278190771 0.19574754335211339 0 1.4905184776249101 0.20629734327603311 0 1.545236949037224 0.29434567071731399 0 1.456639397274391 0.1016053838939758 0 1.53341268746562 0.14194251306413061 0 1.542152768646126 0.073248247890105089 0 1.4999999999969531 0 0 1.599999999996661 0 0 1.6999999999963691 0 0 1.6799832100487111 0.082202015566833181 0 1.609545399082946 0.1308291592921435 0 1.567491488875842 0.20218805454405439 0 1.6351951680630969 0.23707571199064051 0 1.714493154391862 0.28897291620938281 0 1.7304700827703301 0.17386188770806579 0 1.799219293849516 0.26438879273789773 0 1.8480644103363271 0.19193194889233381 0 1.8299024103288899 0.1151394713368583 0 1.799999999996077 0 0 1.75369588639865 0.074917217572982864 0 1.7537858687071439 0.50406839622489796 0 1.742806034420483 0.6006074591026016 0 1.8544400981153091 0.62488101477716596 0 1.8316048184152021 0.54157006606434721 0 1.850967139686138 0.45738417241574703 0 1.8620515405159661 0.32644761881501039 0 1.787749129254824 0.36176402170097799 0 1.7808296409871709 0.43587276890434401 0 1.71976181471802 0.39635806210359681 0 1.645895854313963 0.45222881216869149 0 1.6419306970571019 0.3436055112169133 0 1.645263810758179 0.55814977621663464 0 1.5386621965636409 0.60828218080060537 0 1.550364457075788 0.50467902559054656 0 1.4795754400412069 0.53983964974648579 0 1.445918816848357 0.6075709531782556 0 1.551956040519719 0.40384519109247291 0 1.4491802319415681 0.4666714614197911 0 1.4507225717793131 0.3561247496431208 0 1.347125314110625 0.32447518420453242 0 1.385017785528226 0.40713366384701549 0 1.3198129865007471 0.39133224900025881 0 1.2615469736996101 0.34090999671933891 0 1.3860523322451299 0.56073196187600105 0 1.3462106466432811 0.48060664220838062 0 1.2709684905841181 0.55537862536316829 0 1.2546738886072291 0.63615646469940468 0 1.3545060270195819 0.65002758689694418 0 1.4000454837723419 0.73943313674757749 0 1.3035852436207409 0.73866974635260263 0 1.2914654457895349 0.81843301378315825 0 1.3255948392482531 0.88328132587465524 0 1.3864786876100039 0.92208751032957958 0 1.386174597084219 0.82350876346868962 0 1.482119963281066 0.782586299849238 0 1.463012078585596 0.89209645917012148 0 1.546104640467868 0.9195568013001878 0 1.535346256113697 0.70153336654872078 0 1.4534042830965781 0.68426123045930609 0 1.2999999999999989 1 0 1.399999999999999 1 0 1.5 1 0 1.599999999999999 1 0 1.6999999999999991 1 0 1.7999999999999989 1 0 1.6597641702579149 0.778
[...]
<CellData Scalars="A_conc,As-lin_conc,Bs-lang_conc,Cs-freund_conc," Vectors="" Tensors="">
<DataArray type="Float64" Name="A_conc" format="ascii">
1.156597407334177e-13 1.374854034494514e-10 5.6073818430663885e-28 1.7918865356394482e-24 3.4316777976804661e-21 4.9781119058610066e-18 2.7646105927960495e-13 3.9594137955315758e-10 1.0382724117248851e-22 1.8972776072982851e-19 5.3103440164011309e-16 6.8199917383728853e-10 2.2571831274063604e-45 5.7387305201887315e-31 1.115135334259516e-27 5.2316831375444879e-27 1.8155739681199832e-34 7.001857942173697e-53 2.0361604770027559e-34 2.0816493593092453e-30 4.8537048329787284e-26 2.2270407240658649e-29 1.8879476117656089e-41 3.7705642855719068e-33 3.3684076709922086e-47 2.6664567127588434e-45 1.6991647003067024e-51 5.8199835234790837e-65 2.5546934388625868e-176 1.3120998381625746e-43 6.5184338516001992e-38 2.7415540377162107e-64 1.115464818636586e-68 8.9636718009962531e-181 1.089556192195974e-81 1.3466156342613243e-77 1.4779380159360506e-60 9.1282686224879254e-74 6.5318192579989583e-70 1.6801733405816583e-163 9.3347338455466099e-168 2.8091281731988397e-155 4.0752840526488468e-155 2.9103868363763773e-159 1.7192164475486008e-159 3.6054769052006378e-61 1.237589119805419e-56 7.0895734851780018e-168 4.666372150831588e-172 9.7631402958315022e-164 9.5687381090683899e-160 3.0029859430425283e-49 2.9786754401121326e-151 1.8556372261687143e-155 5.9280475891250798e-147 7.4034369288302431e-143 2.5149455520103995e-147 1.6698071974199217e-151 5.176073043960592e-151 4.4739722715421638e-147 5.4693705639504098e-151 1.7944176617969351e-142 9.7712364875722399e-147 9.7062171377897573e-147 1.9866738838012308e-142 2.8800732714948631e-138 9.6340474852835571e-135 2.8162199002889323e-138 7.3117742253422481e-134 1.5683572813428145e-125 1.3105070744229986e-129 1.5850724721428038e-126 8.0194888191213656e-139 3.1923785567438586e-134 4.5677843563753191e-130 4.5185091694265082e-130 7.5679061876583684e-139 1.1099554359765019e-134 2.0935735849557085e-143 5.2154128177389178e-27 3.1271398737546357e-148 4.3470823378727566e-144 2.0792463024724773e-20 9.6357500014668699e-13 1.1587121529074777e-09 7.8166924409285304e-13 7.3582565931370596e-16 1.3303784459933563e-23 2.2905114203184126e-19 4.7560252932328003e-17 1.1676196297800559e-09 1.3275528071115233e-12 1.0358805578129104e-09 7.4409045814676268e-13 2.4143253135346739e-20 3.0132448506103396e-24 1.020635133829579e-37 1.0139923628716044e-41 1.4724595026205397e-147 1.6940381702269384e-30 3.2075217065060199e-34 1.6992005539376869e-13 1.9772122444753806e-10 7.7398980636485462e-13 7.7134709261203029e-10 8.0375503978626558e-13 6.2891635235968243e-10 7.3067598425902394e-16 1.4389092775423958e-23 3.2631506863493699e-20 7.4519447767305621e-27 2.8875196158472253e-30 4.526988061562396e-16 3.2937641626925954e-19 1.2514455569617765e-22 5.8590090528928943e-26 1.6001245726330969e-29 5.8446890539784206e-41 1.1130859152723759e-33 2.1585075119040004e-37 5.2256979004021302e-38 4.166053618509851e-34 8.2521773264140097e-45 1.3494425109807059e-41 1.4696532777013711e-45 2.0829413642534498e-56 1.09429297093048e-65 1.127050027201693e-52 2.7061709892774983e-48 1.0937976940551386e-30 1.2058648519600129e-44 4.1878985405982619e-41 1.253753819996564e-57 8.5254406327476177e-62 1.0499559411293916e-142 6.1491079500228486e-54 3.2886897918515776e-46 6.4977950625905614e-50 1.6229130358562307e-138 5.7728078507381889e-130 2.3729767382630506e-134 8.7429542499404379e-126 1.2935820129871377e-130 1.6554514249950167e-116 1.1415388294608162e-121 1.053811465046956e-26 3.0142578819367968e-42 1.0811099542270014e-38 1.5613419717596959e-33 2.3581411018442171e-16 6.1702916958672073e-30 1.1831264475557979e-19 2.6115469047921725e-23 2.422210444566208e-16 4.2222978729157511e-30 5.4365004856158133e-34 2.163330451671877e-37 8.1757025818972172e-23 1.0589150830169009e-12 2.1557311764825014e-19 1.2887380379952593e-09 1.303127038356404e-12 1.0996601700468544e-09 1.1683089608713396e-12 1.7021993377615394e-09 1.0535637914144416e-12 7.2680255304092066e-13 1.0339472433445992e-09 8.7351339192364555e-10 5.4300806652213902e-10 4.9480147282875676e-87 2.6165818765274104e-91 3.3919855329379399e-87 3.8127264788147815e-92 4.4505456037787873e-88 4.2019590621705766e-96 3.812266872835619e-13 3.2639662972933606e-16 1.1228318607913227e-19 5.1772698826267789e-23 1.3240276553415407e-26 3.1818461614346798e-108 3.6000446899460169e-104 3.9326738704301482e-100 3.8890540479959639e-105 3.4844095458852854e-113 4.3305970793093146e-109 3.8118865269176443e-117 2.1766301156968317e-112 3.0612480846033136e-118 2.695072308999263e-121 2.795093153508083e-122 4.0750635446340446e-114 3.9648772051003726e-110 4.8937959962675181e-108 7.1552761737420999e-104 2.8084516116472135e-99 3.3190946109139556e-101 2.331288814309442e-91 3.1077511294605596e-95 6.810744021844373e-100 7.9988977532561456e-96 3.9308442802875567e-92 9.4314323430326024e-88 1.1344856933264021e-91 6.3011450520631142e-84 3.827749017069379e-83 3.4238547345823942e-80 3.5158285841771134e-76 4.6331244986786812e-72 1.8471148391594329e-64 3.0850028348522566e-68 5.6504383286343623e-80 4.4197803850180389e-72 7.6831668740142897e-76 4.6693784365277135e-71 5.4382520970455459e-75 2.2296845053238461e-63 1.7682620366360502e-63 2.9839514586515491e-67 9.1089114624332368e-76 3.6818072341943688e-79 3.4207256122931479e-87 5.1643882956134435e-84 2.3565306522083114e-83 9.5777327230591246e-80 4.421588825931106e-83 4.3617280749395379e-79 3.0569632278900745e-75 2.7037391861748551e-71 2.2519515105373514e-67 1.2942326896330567e-59 1.1812751465341835e-163 5.675571395898624e-163 9.8573667275168899e-164 5.6946915527463366e-168 1.0863476845974078e-158 2.0222760154727117e-154 7.0177378723792609e-155 2.0513065421999366e-150 9.9605784193254027e-14 8.4301126348014196e-17 5.241191924812163e-10 6.5019994581807186e-13 3.0130817567553993e-159 2.9924571743227458e-20 8.5601959616544272e-20 1.3680790132474076e-16 9.0969830678229967e-10 9.4835681208853414e-10 8.7862990385514169e-13 4.0637982438483615e-17 1.7640204366103442e-23 6.8341464309428821e-173 5.0606328847699405e-168 2.0976620361860935e-167 1.4136492609567982e-171 6.4777532592736538e-140 1.3516293187141468e-130 8.3043465392378867e-135 6.542170326995051e-126 1.4520240249031802e-121 1.7586180626394991e-117 4.2989969484140843e-122 3.5835735417860331e-126 3.9107173993959697e-121 2.7052984557685491e-125 2.3710389297018035e-121 5.6147328821006174e-117 6.872068666715535e-113 6.5012469972880703e-109 8.2686924451149633e-105 8.4704734211963925e-105 7.0892196428535898e-109 7.2034760569760705e-101 1.2238418236765658e-96 9.3658330405406592e-101 5.3009659836238887e-128 3.8808200941109402e-132 2.3536713510578428e-123 1.7637083320362493e-113 3.2328485696408466e-119 3.7232510273702209e-115 2.2656219986971298e-115 2.7092299923109776e-163 3.8787650106191139e-159 2.3217358585879956e-159 3.7458228506735794e-155 4.2173873590189198e-111 2.8204639995186699e-107 1.9755464129800239e-147 1.4310697541870421e-151 8.089595586916333e-93 7.6947268487196689e-99 6.3917113353199119e-103 2.1284730132315001e-84 2.0454459882091649e-88 1.4516450804027486e-94 1.6583004780233148e-131 1.5408551034759074e-90 4.1442618818680037e-86 5.3413643363654278e-139 4.1320125663197943e-143 8.2538160271842284e-140 5.295986817862348e-144 9.0580486648725522e-139 1.1239019302680783e-135 1.1393887433442428e-134 1.1741843691936837e-130 1.4239212885102267e-130 4.0298750083268862e-129 2.742429696502434e-133 9.2728802697793651e-135 1.4012352896928423e-128 4.0016381003830412e-133 3.0885867886009328e-137 2.113307349296602e-150 2.9482539404067343e-146 1.9654969287938498e-141 1.0209086766239312e-145 4.1646886846078021e-150 1.0069622966648008e-154 1.3658619182691711e-141 1.3410870294318106e-10 3.5781650103664755e-146 3.9279342305006807e-142 6.8396335019796548e-138 2.0223446526519871e-137 6.5705404774233211e-129 3.490469796709616e-133 1.3780328709681157e-133 2.1887571151164554e-129 1.0530674556216353e-124 1.4540186810295568e-120 2.1565245131685923e-116 1.4948544795548226e-116 3.413041120095359e-120 2.2592428127171246e-112 5.5715625125988614e-108 4.0754671290810702e-112 1.9312473526266192e-122 1.9907996355464088e-126 2.0903971742664941e-124 6.4424175981411758e-125 6.4223972954915123e-116 1.1748577638523645e-116 8.4853708871401105e-121 2.8830786835753113e-118 4.515707175570751e-110 1.7056531934565863e-112 1.8035136477010066e-108 8.4455371403409977e-108 1.4287770785755728e-100 3.572790007097184e-100 5.2531641185554758e-106 1.8277909950646152e-104 6.1153783860515489e-104 8.4515055590780319e-112 1.0698958465455647e-99 7.9045385419613476e-104 1.0509540394918574e-95 9.3684083163668243e-96 7.6712080031232557e-100 7.3978023229162422e-88 1.0726276634431462e-91 6.3652278396990352e-84 6.2791396647471214e-80 4.5338333903607927e-84 3.3978187498252714e-96 2.7071051523032955e-92 1.7709206178468357e-93 1.3019716707944668e-96 1.8086649942040635e-89 1.7515490719176995e-88 2.9311657390177745e-85 2.418493591659889e-77 2.5012626496580818e-81 2.6634592204651979e-88 2.4576057152269289e-80 4.5855933180811305e-74 9.2925055637646003e-73 5.0992938641304787e-68 2.249827784875206e-68 4.0994521797833135e-72 4.63493984172733e-76 4.3482766456298889e-80 2.9278535993582244e-76 2.4575795093441644e-91 5.5508528498083522e-93 5.393398972327831e-87 5.9936509697410437e-89 3.4808126496315482e-85 2.2635630869985416e-84 2.3739189921490537e-92 5.4761610295803292e-95 4.5409212991748169e-91 8.4803494859768414e-93 5.2228062602493858e-99 1.4729823877377896e-100 2.7555527490553551e-96 7.4282077450780733e-98 3.969340628528836e-108 1.2739464156502326e-104 7.9405158505972139e-104 9.0678237763078649e-100 2.1996483128900062e-95 7.3355154689810011e-100 5.4668983822660402e-108 5.8361867361043787e-104 6.2437006971751963e-112 4.9571842839597534e-116 3.8809811486502726e-116 2.6612925195604845e-120 4.1848953877905989e-120 6.3005762319096549e-102 2.9607571194263325e-112 2.4983311001577666e-110 2.1277655054851817e-106 1.2659685839169201e-114 4.0662439004807276e-114 1.5329910174561139e-118 1.5488551152820915e-114 1.4780494521181973e-118 1.1492842856620606e-122 1.2289309204755021e-126 1.3105803832105448e-122 3.3846314895048706e-78 3.5016496915520568e-74 1.9138992208682709e-124 1.102192671572797e-128 2.7787008999307037e-127 4.1323345923119854e-82 2.9794361183475123e-68 1.3939876104066502e-64 7.3229692852723576e-57 1.1069013926280635e-60 5.1813601283858163e-53 1.5497700285341071e-60 9.0000027640594086e-57 8.9124995311867552e-56 1.4885982753692928e-59 4.3071226511583743e-52 4.3243342484897158e-52 6.7259693943624819e-56 2.9912396648328889e-45 2.9757639085208602e-49 1.556352866220348e-48 1.9944680188673471e-37 9.3503348313986164e-38 1.3362962743190208e-41 1.5449419624646033e-41 2.5610529630065888e-49 1.310492706607894e-45 2.4280173781926687e-62 3.5238327560938763e-66 4.6964034253301284e-70 6.1995170299549208e-53 2.6729952553053876e-48 4.3534659098604505e-41 1.4661796408326424e-44 8.1572465597802566e-34 7.2951935694621791e-27 5.5039968801636477e-20 2.2735694974629535e-23 7.3174947654960543e-17 1.1665666602078494e-13 1.1984441085824814e-10 5.7076379355480474e-47 1.1843685456296432e-100 1.3803841229981242e-58 1.3779941983777684e-50 2.7779830028898004e-54 3.4000664721776894e-34 6.5580870283874919e-38 3.4436580295492365e-34 3.0186518181286398e-30 7.0907708109148284e-27 5.3436357087597079e-28 1.002982445209847e-30 1.5239851806098922e-24 1.9574733950642481e-34 1.4733906897556068e-23 2.033524052433062e-20 2.8975685858619794e-17 5.465149215043736e-31 1.1173907323427888e-27 1.3711443733364638e-45 2.4476310291189343e-49 1.9476058036409958e-39 4.4693408759219277e-43 1.6527876595183736e-96 2.5070681929972838e-92 2.0591431641483322e-84 2.6962542108130082e-88 2.5158490393539856e-80 1.8782085116846951e-80 3.8227734695601544e-76 2.2055122848871725e-72 5.2922492916576451e-42 1.9712410561716398e-38 2.9963460555765081e-24 1.9430810623410597e-20 4.0871611870526387e-17 4.421436164941105e-31 1.6023407531065124e-34 2.2939057509373082e-27 1.536998907864842e-19 5.2680605747858515e-13 2.5955291082449584e-20 7.0433047713260044e-24 1.3818086428596639e-60 9.3932343483621881e-69 6.975497462112472e-65 1.5423501932957532e-72 2.2919220084953983e-76 3.19007253300507e-68 1.9595885413201061e-64 9.8516341233129211e-69 8.2330408545238729e-10 5.7980811896563772e-13 1.4678196298633566e-12 1.2756200054552783e-09 4.6393473667071704e-16 6.3265481690961544e-10 2.8465367333793253e-13 3.1470741965104779e-10 6.1133342923110871e-11 1.7521453943658265e-33 6.419210857731886e-30 8.0850034065528308e-46 5.9319655027319483e-50 1.8810190573019743e-53 3.8334784500842233e-61 9.2472164456334086e-57 2.6566370368378298e-57 7.4272179358032691e-49 6.9617428337939851e-53 4.4009186408434477e-17 1.3242478619889155e-41 4.1175957213528008e-14 3.4203438466777405e-45 2.2942986140647056e-49 7.0564246957220538e-38 7.371526827146551e-34 4.8368939222209935e-38 2.203143579527098e-34 2.7923905123483101e-42 1.1616383413212381e-38 4.100610785376463e-42 1.2393908670346591e-54 5.0284217647832625e-51 2.4002330715047549e-47 1.1318392711576418e-76 1.0561710359737092e-85 8.0764358483384937e-82 2.0161296238881927e-82 1.8718990977364882e-86 1.1696231535145385e-59 7.8270444819006424e-59 7.9572680161751951e-90 1.0104138786529883e-62 4.3219892722302855e-67 2.2471438202343891e-63 2.9598222352955714e-67 4.34426566080298e-71 3.088037469094337e-61 1.4530315320688962e-57 2.9432136623019016e-66 1.8026156993811391e-62 9.2213258153071756e-63 4.8468472939741037e-59 2.1558791907383204e-58 1.1938893716160983e-54 5.0656989505251867e-55 2.3113585256364487e-51 1.5704134715246703e-55 6.56100901394074e-52 8.5836144541493769e-48 1.4450916797172325e-39 1.1231094098400359e-43 2.9455125331299542e-28 2.2234877825346007e-32 7.336966554557596e-36 1.4576119210529396e-39 3.3124859172218953e-47 7.3426827774828739e-51 1.7132614294552485e-23 4.1476689161456477e-20 8.4615294750562421e-24 7.1706840468941645e-25 3.4307351482092494e-27 6.5347127430558668e-31 2.1125872978438126e-34 5.30702012172021e-27 1.6236119033267865e-30 4.5777787802288994e-34 5.7463570797935163e-38 1.4417769653507647e-41 2.6788603256748293e-45 1.860547255167981e-41 1.1062274251866412e-37 4.5512354726374185e-43 1.1948272702076866e-45 2.5513006888361639e-49 1.0240660054372999e-50 5.5076577497963389e-47 1.9718841599712485e-54 6.2344549228229244e-53 2.8559148222162462e-57 1.6930428176575476e-65 4.8223423878080283e-61 3.6986080819303177e-45 3.4688291180015195e-49 6.2968998511357269e-54 7.2055608973022919e-49 1.2118013138922362e-52 1.5265106142158989e-56 9.3308680241815647e-58 3.8403662407601861e-64 8.7875489473738908e-69 4.0040752783835525e-64 2.9494240141263379e-60 7.3147795802973231e-69 2.5832525572561054e-69 6.7028554521311369e-65 9.0732901070010172e-62 3.7331734547244267e-70 1.2215739257135323e-65 1.6264351048232394e-72 1.980665119402042e-76 2.4487637601859867e-81 3.6538567503278282e-77 2.2852868622588951e-73 1.8261776642337636e-74 1.4824462434132645e-70 8.9361078965313062e-75 1.2717850349397097e-78 8.6113145878429175e-79 4.5993458407288582e-83 6.3597700267644187e-89 7.1381448325923597e-89 1.0786118215537627e-80 8.7068737052665454e-85 1.9223819625470541e-81 1.6379673451505712e-77 2.5399641199557316e-73 9.3247893277365405e-77 1.5515586293826175e-72 4.6158155182276073e-65 2.0398804150989718e-69 1.9011406396441012e-70 9.3167830442655461e-59 1.4342967987241938e-62 7.2240956556246697e-67 2.5504139115970734e-74 0.30708428965442031 0.29698056716469673 0.32051421328802265 0.34283554977070352 0.35019021991787835 0.33022285815787056 0.35670294051466822 0.36859016973135317 0.35508683181657535 0.35414305965045811 0.36611663384560245 0.35422024924427031 0.34243850155411859 0.34296496791664066 0.33537658460337194 0.36704792063200703 0.3551753846831896 0.36331952467213069 0.34446865478305988 0.32096015204784983 0.3183394332676166 0.33135736955628292 0.32668975953550311 0.2942399451432135 0.30417384340061021 0.29880125005696512 0.31028584063528042 0.32580007092534646 0.31265796913599486 0.31668917106071637 0.30415222731073399 0.29075425855318476 0.28977560400001479 0.24261484591234037 0.2784081345332714 0.27012162709140963 0.21075275920123493 0.28757637877736358 0.26941716844367536 0.28051394678753605 0.25706220292878323 0.20798170050589049 0.14209395140256123 0.24244186763699638 3.0602746053552069e-06 0.025919352399487058 5.8717027370464633e-06 0.00063445102445467208 3.6646090742350374e-11 2.1637971118448477e-11 0.094588782739853619 0.0007968482363495729 0.069389194202403567 7.3536535623286957e-09 4.3080021999015972e-09 3.1423771561970117e-10 4.3633446525075176e-10 8.1887125083164418e-05 0.041513723708499137 0.28190467981792178 0.26939781421070125 0.25257495189501794 0.16966826457006301 0.29842232014679193 0.30890607177947788 0.3122900221826268 0.32667269832404516 0.32226991260788074 0.34290471980588455 0.3433669739559263 0.33076324145849512 0.35670294147011061 0.36859017083688417 0.35557944261439489 0.35536453316796401 0.3337736967012338 0.34276126088015113 0.3409153887767119 0.36611663937011873 0.35422026485266583 0.36331953434129594 0.35488544454375825 0.33207162637439863 0.32540241701493522 0.31297788022259088 0.29582565437221403 0.30034388720005939 0.31104463246237801 0.30409347728360636 0.30060036304918536 0.31326703297483061 0.32350963139361905 0.3125419754664166 0.32401698264840795 0.32160710934260694 0.34382387884184001 0.34477959153041515 0.36676523511160752 0.35398962081590846 0.36244011706366042 0.33424199784740249 0.3374883279092562 0.34978948808001631 0.36268333021366433 0.35452762356170964 0.34345239984674936 0.33030363939983109 0.3204010313802842 0.30877893374576565 0.2973860500478579 0.30666744656039979 0.27451293325019605 0.28555731628370562 0.27128911477566925 0.25595979246522482 0.20829138290354421 0.20683047690630879 0.26056175987493901 0.0043030803952215542 0.12721825882273052 6.1563090359453799e-08 6.1375598669323123e-13 4.8779179881425084e-14 0.068951984963156951 0.0021056206689571283 0.07118340223868462 0.00065793883458182753 9.6839943360775278e-09 6.6889262956206172e-14 3.2694134953697925e-09 2.4817453354738442e-14 0.00034910610519753391 0.19560022181436787 0.25396122549830347 0.25058590005480408 0.28710169641917549 0.27195494763930195 0.27431867026354922 0.29083854078438215 0.28580528382380888 0.27208118126901204 0.2864157506473215 0.17565741164222504 0.25601653410015246 0.13470543925199113 0.019031132243489974 9.1471173906596123e-11 1.1829788357935883e-05 1.0088872482197425e-10 1.4702783335466922e-05 0.01989123099155261 0.10670161702145689 0.0023536239310997607 6.3663268569227818e-11 3.2123657898173227e-08 2.0634381556466292e-10 4.0661743811321992e-05 0.035616255170260028 0.24732471378698462 0.16874968968455684 0.22765865018388992 0.26605124100104682 0.27973127017549293 0.27317932909301024 0.28961899227096888 3.3470264923730152e-23 5.1497473358734862e-20 2.1070729205426681e-23 2.0506858746358189e-13 1.2863564314253909e-16 2.2219543112977076e-10 2.2933001011886825e-10 3.000381860948267e-13 7.6699139512896536e-17 5.0932770459186975e-20 3.5414339639010569e-21 2.4427464219229652e-26 7.9709380689360283e-16 4.1307678715840132e-16 5.2943551437321234e-16 6.5360808044231287e-21 8.9816021097599197e-26 6.5815243361746826e-31 8.6159874765825833e-36 3.6405521706077043e-31 3.2479725757955295e-27 4.024000277095363e-34 1.1162711169881544e-30 8.0393202876600103e-46 8.804057876228119e-41 1.2056064936092381e-45 2.0577711713893007e-40 6.5286561510023852e-46 2.3528234162489986e-35 5.2867675390675399e-30 9.2695044531876707e-25 1.569241220134399e-19 3.2003336571285555e-24 5.6811935911467912e-19 2.5594261807841274e-29 1.8309371794100136e-34 1.2109776836718166e-28 2.6502405811756802e-24 4.4486187128651179e-19 3.7686925858081204e-23 3.4347211431668124e-18 2.5819484193624711e-28 1.6820354816153036e-33 1.0500852838341982e-41 1.1595215082235132e-38 8.513179743637683e-40 6.3465216731922096e-45 2.2511606218114616e-50 1.1665501766471557e-46 3.7826019835753627e-57 4.3080160868056505e-62 2.8213721580243432e-55 2.1561406068099845e-56 2.3257195764430329e-60 1.7248926001334548e-61 9.8603362620