<?xml version="1.0"?>
<VTKFile type="UnstructuredGrid" version="0.1" byte_order="LittleEndian">
<UnstructuredGrid>
<Piece NumberOfPoints="714" NumberOfCells="1306">
<Points>
<DataArray type="Float64" NumberOfComponents="3" format="ascii">
0 0 0 0 0.10000000000041601 0 0.082799035591426873 0.082799035591510806 0 0.099999999999928008 0 0 0.19999999999983389 0 0 0.20669143849501961 0.085546078947938975 0 0.29145143692666958 0.13500804559578439 0 0.29999999999973409 0 0 0.24783073444672249 0.24783073444648379 0 0.21725788110387281 0.17316968768743621 0 0.17318221359491059 0.27409688392309489 0 0.089078158003765312 0.2493007687782936 0 0.140351188660986 0.16130415108589741 0 0 0.20000000000083221 0 0.066361468125430589 0.15903440181097661 0 0 0.30000000000124832 0 0.0632094674441709 0.3449112819864934 0 0 0.40000000000166441 0 0.083393126324559225 0.42307471369029392 0 0.13897501191807771 0.34545639364066222 0 0.070553891733833127 0.57745844360881338 0 0 0.60000000000138687 0 0 0.50000000000205869 0 0.12353277228144981 0.51086097771927308 0 0.16324260003398389 0.62262730759772122 0 0.1946526892501724 0.54636184660733622 0 0.27220668248394869 0.50912429725145214 0 0.27661118526457179 0.58730386222759956 0 0.16486701364709541 0.41592657376307979 0 0.21928696632013719 0.4676461135047027 0 0.29987747321592639 0.43430880093746571 0 0.2371857680100064 0.35865548441110112 0 0.34318159319555042 0.3314386771104964 0 0.38593969585746768 0.44843324941957241 0 0.42544665781957403 0.3726599289372452 0 0.38240158409674341 0.60644575028138747 0 0.34793494568226019 0.52426775179830853 0 0.45232393232070839 0.53082724112931345 0 0.46433624429412901 0.61260020600107856 0 0.55763912874459476 0.49619993861770217 0 0.56379254693201075 0.58472273515948836 0 0.49272830291620878 0.32528628960011152 0 0.47711113382803011 0.43513410852522788 0 0.56509579243166053 0.39588847936247551 0 0.58612580217118482 0.27813894450229909 0 0.49255105193724569 0.22337579986912359 0 0.5565830077206213 0.19095699352548859 0 0.59999999999951659 0 0 0.57505385014294308 0.072457888465917331 0 0.49999999999959438 0 0 0.50264032148191051 0.12292784096123539 0 0.43504744109702559 0.077628892606360606 0 0.39999999999966429 0 0 0.35933948296838258 0.073809900849860513 0 0.33604819894646598 0.23280286076243209 0 0.41589935411558732 0.26752529264016389 0 0.40428440976105728 0.1643886070295453 0 0 1 0 0.099999999999999645 1 0 0.14716362552681639 0.93861610753355362 0 0.19999999999999929 1 0 0.30000000000000071 1 0 0.29792158491427922 0.79537096033156995 0 0.2235202862591317 0.88873896332704583 0 0.1332109546178302 0.87498377138822103 0 0.075231054453351903 0.92314074346405706 0 0 0.89999999999958358 0 0 0.79999999999999982 0 0.074918724681641777 0.83311952320732263 0 0.1533088418661793 0.80370257472597129 0 0.089684836063650353 0.74720097194875412 0 0 0.7000000000006934 0 0.079752623936563252 0.65630726580969023 0 0.16551550920047911 0.70947866912672319 0 0.22047232289835689 0.77501739045979867 0 0.25446499951716589 0.69023946426646743 0 0.32437633398017029 0.65970549827478953 0 0.33985912385126898 0.73174041004507751 0 0.42824324229177341 0.6924957961634054 0 0.5174764925733939 0.65338828204098198 0 0.59670004617370476 0.65981579440137683 0 0.62152629835360762 0.73285157302339954 0 0.52912171753951986 0.73993242892488531 0 0.51076728641122882 0.81691863363193817 0 0.62017612851329729 0.81451802170669263 0 0.56701461556202259 0.86335846433862784 0 0.45907587517201498 0.90165918271477563 0 0.43819239467549531 0.79296936871720936 0 0.36912581253574028 0.83088590731704637 0 0.37337282601342481 0.92616598444216514 0 0.31535921456193688 0.88154045330654418 0 0.39999999999999952 1 0 0.49999999999999911 1 0 0.59999999999999964 1 0 0.5499999999999996 0.93976792513729512 0 0.70000000000000018 1 0 0.79999999999999982 1 0 0.89999999999999947 1 0 0.8793859710393791 0.93083561064221121 0 0.93540888248908083 0.88281232945237675 0 0.91372311269140116 0.80486176357476358 0 0.82192606283926717 0.87651855948129354 0 0.73937541854631073 0.9288754054780668 0 0.64588148000090029 0.91512139508160772 0 0.76404828705430583 0.78174230667165401 0 0.71722872346306721 0.85096302760907838 0 0.69085763855200755 0.76120667115691065 0 0.6754414170471299 0.67700559910555169 0 0.74547688787239819 0.70026419381674654 0 0.81910554849723838 0.69100245438023977 0 0.84477163403336131 0.77519844632340484 0 0.90192269692920224 0.70295054578552552 0 0.9749171938312049 0.68304286407835557 0 0.98491966670915287 0.745702719141624 0 1.0785590511537511 0.75365885686631617 0 1.05 0.67063679245255348 0 1.1595355377629719 0.69612720023346242 0 1.2316049928421089 0.71268197388690568 0 1.130022579458912 0.80264790230838934 0 1.2104878010462079 0.79638517641579154 0 1.246238897717278 0.90016207822659 0 1.1492841477515361 0.89495863909300122 0 1.035017143854235 0.92577305964649748 0 1.039491394416145 0.83402983011495258 0 0.99999999999999911 1 0 0.94997493298435887 0.94717135651053852 0 1.1000000000000001 1 0 1.1999999999999991 1 0 0.8520969719592798 0.19112077159544111 0 0.81051762114363357 0.25355176211442859 0 0.91043121937362004 0.26518856856736223 0 0.87151744524583186 0.1145610820769897 0 0.89999999999870417 0 0 0.8072276847200428 0.07509171132446453 0 0.79999999999899607 0 0 0.75434135135171976 0.12888799631625769 0 0.73796379772146625 0.059893436010741673 0 0.69999999999928797 0 0 0.66267222434682926 0.078497159578092612 0 0.64669101990832323 0.1799054750174742 0 0.75284581776561577 0.20455093921856349 0 0.7545004114404561 0.31098089234202853 0 0.68811979868824935 0.26566684131589419 0 0.65823561246403328 0.35502292901158627 0 0.64897033023755402 0.45530630145656431 0 0.71094001953927277 0.41472992215547572 0 0.65500944633069913 0.60601350811213128 0 0.66278242936710119 0.53985356489900171 0 0.74775703275407246 0.49059679564787018 0 0.74991769371388628 0.60451627361984739 0 0.85383906663538056 0.62014574817393608 0 0.82099888937423493 0.54529350322201742 0 0.89730215834238125 0.56352362508531118 0 0.79315209058920677 0.38802315963964318 0 0.83603391221093415 0.31708941802047369 0 0.84897848255088726 0.46000674997733482 0 0.9184189969982266 0.43608586792060411 0 0.89716106756302072 0.36571612550017968 0 0.97284972811175952 0.32057650487681749 0 0.97803218086495292 0.39957666910545891 0 1.049999999998295 0.45311778235774403 0 1.0499999999982661 0.33749999999944968 0 0.95554667482020261 0.61387123313571723 0 0.95438428234324713 0.50021891445525024 0 1.0610070115193291 0.56187728740506249 0 1.160572984923127 0.60155304747043781 0 1.1544259370261769 0.49580194535795907 0 1.11366617971111 0.39530889117858181 0 1.1787318575418491 0.43180077319900678 0 1.2482752740169289 0.44264463249545388 0 1.193211192060164 0.36417169501775798 0 1.2189485028845071 0.28846717556219142 0 1.225209211892335 0.20648826945283069 0 1.14543293599463 0.16096823716187 0 1.1317936052402791 0.27327200211975772 0 1.0273907165533489 0.25089655084417212 0 1.0673059847957449 0.1861726764986896 0 0.96758455917765662 0.17206502793490561 0 0.99999999999841238 0 0 0.95940036225003311 0.0802667348803804 0 1.0527907183502181 0.1005001786211816 0 1.1494214575391031 0.075340014825429069 0 1.09999999999812 0 0 1.199999999997829 0 0 1.2999999999975369 0 0 1.254652873386052 0.105753482544517 0 1.3681535985071449 0.13698083382674339 0 1.399999999997245 0 0 1.349999999997392 0.060567969661089648 0 1.291408388555241 0.26372433042992383 0 1.316869459340541 0.18778020585802921 0 1.3878996413210389 0.26723502210068018 0 1.473286192129879 0.27883707652097373 0 1.4156792278190771 0.19574754335211339 0 1.4905184776249101 0.20629734327603311 0 1.545236949037224 0.29434567071731399 0 1.456639397274391 0.1016053838939758 0 1.53341268746562 0.14194251306413061 0 1.542152768646126 0.073248247890105089 0 1.4999999999969531 0 0 1.599999999996661 0 0 1.6999999999963691 0 0 1.6799832100487111 0.082202015566833181 0 1.609545399082946 0.1308291592921435 0 1.567491488875842 0.20218805454405439 0 1.6351951680630969 0.23707571199064051 0 1.714493154391862 0.28897291620938281 0 1.7304700827703301 0.17386188770806579 0 1.799219293849516 0.26438879273789773 0 1.8480644103363271 0.19193194889233381 0 1.8299024103288899 0.1151394713368583 0 1.799999999996077 0 0 1.75369588639865 0.074917217572982864 0 1.7537858687071439 0.50406839622489796 0 1.742806034420483 0.6006074591026016 0 1.8544400981153091 0.62488101477716596 0 1.8316048184152021 0.54157006606434721 0 1.850967139686138 0.45738417241574703 0 1.8620515405159661 0.32644761881501039 0 1.787749129254824 0.36176402170097799 0 1.7808296409871709 0.43587276890434401 0 1.71976181471802 0.39635806210359681 0 1.645895854313963 0.45222881216869149 0 1.6419306970571019 0.3436055112169133 0 1.645263810758179 0.55814977621663464 0 1.5386621965636409 0.60828218080060537 0 1.550364457075788 0.50467902559054656 0 1.4795754400412069 0.53983964974648579 0 1.445918816848357 0.6075709531782556 0 1.551956040519719 0.40384519109247291 0 1.4491802319415681 0.4666714614197911 0 1.4507225717793131 0.3561247496431208 0 1.347125314110625 0.32447518420453242 0 1.385017785528226 0.40713366384701549 0 1.3198129865007471 0.39133224900025881 0 1.2615469736996101 0.34090999671933891 0 1.3860523322451299 0.56073196187600105 0 1.3462106466432811 0.48060664220838062 0 1.2709684905841181 0.55537862536316829 0 1.2546738886072291 0.63615646469940468 0 1.3545060270195819 0.65002758689694418 0 1.4000454837723419 0.73943313674757749 0 1.3035852436207409 0.73866974635260263 0 1.2914654457895349 0.81843301378315825 0 1.3255948392482531 0.88328132587465524 0 1.3864786876100039 0.92208751032957958 0 1.386174597084219 0.82350876346868962 0 1.482119963281066 0.782586299849238 0 1.463012078585596 0.89209645917012148 0 1.546104640467868 0.9195568013001878 0 1.535346256113697 0.70153336654872078 0 1.4534042830965781 0.68426123045930609 0 1.2999999999999989 1 0 1.399999999999999 1 0 1.5 1 0 1.599999999999999 1 0 1.6999999999999991 1 0 1.7999999999999989 1 0 1.6597641702579149 0.778
[...]
<CellData Scalars="A_conc,As-lin_conc,Bs-lang_conc,Cs-freund_conc," Vectors="" Tensors="">
<DataArray type="Float64" Name="A_conc" format="ascii">
2.0857104029977815e-15 9.6187960270042072e-12 3.695177563399523e-32 4.9452047035627047e-28 3.8873683795523302e-24 2.2699202619969276e-20 4.9805636095938936e-15 2.7671206700248718e-11 2.8674872841304409e-26 2.1510025668999576e-22 2.4239294985343659e-18 4.7714291911955107e-11 8.313890577886001e-53 8.8475435953879277e-36 7.3518140919076814e-32 3.4496991972783451e-31 6.4057239669026084e-40 1.0881715126599856e-61 7.1842069772672586e-40 3.209553680745107e-35 1.3395486245810432e-29 1.4675575779329852e-33 3.2587692890653913e-48 5.8101155162116427e-38 1.2407856098442143e-54 9.8225547755737306e-53 1.3025807826281061e-59 6.3714952683515804e-76 2.9282742333216872e-227 2.2648020174138794e-50 5.1464372527574418e-44 3.0015124320312681e-75 2.2042863747744001e-80 0 1.0352900234535574e-95 7.8519795310200956e-91 8.6910666208379135e-71 3.1515128002159152e-86 1.2905375436721501e-81 4.0999135217270342e-199 3.7663846527385544e-205 8.5525805305086203e-188 1.2417781912478921e-187 2.8868879925789368e-193 1.7039380144645673e-193 2.1201040860201466e-71 3.7947450321126476e-66 2.8612677199313475e-205 1.5692531674441541e-211 2.3829846326480367e-199 9.4911815314733727e-194 2.3018491614041478e-57 2.2479371460841951e-182 5.6542319080295124e-188 9.305181403981833e-177 2.0877395402319536e-171 3.9476182122966934e-177 1.2601508513255221e-182 3.9030418684275219e-182 7.0203579442603544e-177 4.1276131081218671e-182 5.0602366325020207e-171 1.5337749725641908e-176 1.5222967972402693e-176 5.597623110410158e-171 1.2853120396472924e-165 6.0178443906898875e-161 1.2579233367011063e-165 4.6331661788757949e-160 1.5060972087356901e-149 1.0682050338819869e-154 1.4991604704930386e-150 3.5819389854960383e-166 2.0228485171342167e-160 3.7235324397258928e-155 3.6829698176589709e-155 3.3806012239353609e-166 7.0337381342631899e-161 5.9042364283227812e-172 3.4390311236654653e-31 4.9092193900132788e-178 1.2260055088386787e-172 2.3569869847199265e-23 1.7376307298897491e-14 8.106623168975625e-11 1.4096980265818028e-14 3.3589120064435717e-18 3.6740162039838325e-27 2.5968955346690057e-22 2.1709089881723203e-19 8.168945949824509e-11 2.3941600480970904e-14 7.2472624798706702e-11 1.3420532368335527e-14 2.7369821074986457e-23 8.3206740038864408e-28 8.0576417499952253e-44 1.7501377596719163e-48 2.3114755536362794e-177 2.6118330144472748e-35 1.1316405890833542e-39 3.0643676095474362e-15 1.3833017592555713e-11 1.3959355448562461e-14 5.3965252883526496e-11 1.4496368533493263e-14 4.4000490870307084e-11 3.3351617191809936e-18 3.9737830812775362e-27 3.6993701332174438e-23 4.9136441179831065e-31 4.4519867347709475e-35 2.0663368521005719e-18 3.7344243648891784e-22 3.4567356481133647e-26 3.8638197112479186e-30 2.467407999696635e-34 1.0088477493736642e-47 3.9272636854221097e-39 1.7042133652591841e-43 4.1259023377601818e-44 1.4699753575667755e-39 3.0396976565961165e-52 2.3292633413231602e-48 5.4135907320058682e-53 6.3870930137937954e-66 1.1978859764489716e-76 1.7516440262958989e-61 2.074504402654147e-56 1.6865294618238751e-35 4.4417888118803737e-52 7.2282796578758116e-48 3.8438695536848161e-67 5.012897507127243e-72 2.9598305433600159e-171 9.5550652779884147e-63 1.2111646368923564e-53 4.9801588437459024e-58 7.246474082720373e-166 4.703535212849764e-155 1.503072375851805e-160 8.3922909141613434e-150 1.0389610117659323e-155 1.749083390782325e-138 1.1920817950191852e-144 6.9475820103002036e-31 5.2018928054097152e-49 8.5338847847996701e-45 5.5081124647988331e-39 1.0762295789509134e-18 9.512969687738318e-35 1.3410768260902958e-22 7.2110145851022421e-27 1.1055709004540969e-18 6.5091665724767832e-35 1.9178688427000125e-39 1.7078467186672495e-43 2.2583263241957722e-26 1.9098807296411856e-14 2.4443072326109897e-22 9.0163139400822991e-11 2.3501717483256128e-14 7.6934805421719283e-11 2.1069538645041894e-14 1.1908989023809399e-10 1.899912250493905e-14 1.3106386089715688e-14 7.2337390141662058e-11 6.1113084309374085e-11 3.7990141955237826e-11 1.113116028241155e-102 8.515428524320347e-108 7.6301539033489792e-103 1.2405204594240233e-108 1.0008503562660875e-103 1.8923017492709841e-113 6.8756356843789178e-15 1.4899387621004969e-18 1.2729548760209173e-22 1.4297385332729783e-26 8.7293960959666394e-31 2.8295275738726803e-128 2.688976478017316e-123 2.3386551283829035e-118 2.8848939767667847e-124 3.4611923098594985e-134 3.8256019694437374e-129 4.0026597663304925e-139 2.1760452191000094e-133 3.184559673917853e-140 2.7980256466761688e-144 2.8757017305407958e-145 4.00917120807394e-135 3.4679039201714595e-130 4.3531576244397983e-128 5.3460907889900191e-123 1.6707233461758867e-117 1.9597277201823669e-119 7.5879270225313741e-108 1.4000573584397609e-112 4.0514793004858808e-118 3.6034467269877972e-113 1.2794254352702914e-108 2.1215847638034588e-103 3.6922305167475018e-108 9.3954212929070486e-99 5.7083867948929787e-98 3.2535638349900373e-94 2.0501947180130345e-89 1.5997355152817149e-84 2.0215890272470193e-75 6.0944919784729061e-80 5.3679416740939928e-94 1.5255604346676646e-84 4.4790686608142075e-89 1.6120729187089967e-83 3.1708766642061771e-88 2.4408224310319246e-74 1.9355355300930347e-74 5.895766005270075e-79 5.3088153225589625e-89 3.4983461561551399e-93 7.6957291774667837e-103 7.6985114721313891e-99 3.5137302298282147e-98 9.0966989245570648e-94 6.5934531942245477e-98 4.1440735163823375e-93 1.7822247253806358e-88 9.3334346332363136e-84 4.4490685437785555e-79 7.6093921141489607e-70 2.8819807560784917e-199 1.3850384347163812e-198 2.4052821528224632e-199 2.2976227739242581e-205 1.0773710924610666e-192 6.1609716971706297e-187 2.1375303689694521e-187 1.5475423337848841e-181 1.7962522098926837e-15 3.8478322617717465e-19 3.6668631163783912e-11 1.1726634176204596e-14 2.9875254110699058e-193 3.3922296319964169e-23 9.7058211564719166e-23 6.2453547707780254e-19 6.3644640758082897e-11 6.6349272815803598e-11 1.5846685673787847e-14 1.854732744191653e-19 4.8718003281820713e-27 2.295968903570551e-212 2.0414724527380518e-205 8.4643683353496322e-205 4.7538023398834e-211 2.8937379636086323e-167 1.1018367554579541e-155 5.2626671924564918e-161 6.2829170283890846e-150 1.5171066823213331e-144 1.8587985037372757e-139 4.4917353254827522e-145 3.4416249536166422e-150 4.0857141626834732e-144 2.5979008653395926e-149 2.477148567268982e-144 5.9343233219468954e-139 6.8726070729065637e-134 5.7832093273430542e-129 6.1782013730272592e-124 6.3295341109040114e-124 6.3068145141723755e-129 4.2856090476318326e-119 5.5139445900777684e-114 5.5717031080508162e-119 5.0905191855309249e-152 3.1633360542055542e-157 2.4589860527182068e-146 1.7638964872133111e-134 3.4167788001984104e-141 3.723281095720176e-136 2.2656699707754365e-136 6.6114543284372176e-199 3.8466383237028947e-193 2.3022465232773588e-193 1.1410210583533574e-187 3.7515345835407993e-131 2.1072284784099694e-126 3.0980590657689427e-177 1.0790104154570731e-182 2.6332139773223957e-109 3.4662979665813809e-116 3.8020756366519628e-121 3.1744857293361963e-99 4.6020969223768346e-104 4.7247274996574733e-111 1.3512595261266132e-156 3.4664253877251216e-106 6.1802594304499311e-101 2.3832776039090328e-166 1.1640231880428432e-171 3.6839270717837409e-167 1.4923541257849697e-172 4.045106187649047e-166 7.1187424454751548e-162 7.2180783313940223e-161 9.5681175924743112e-156 1.1597349069408832e-155 3.2840496884047453e-154 1.7374048477722635e-159 5.8694211983683729e-161 1.1419743830404171e-153 2.5352423274064936e-159 1.3793843511263773e-164 1.5945871238745277e-181 4.6269711768582202e-176 5.5419062120458394e-170 1.6022719878093218e-175 3.1425027217696168e-181 3.0677098436210484e-187 3.850881016834373e-170 9.3825653332474667e-12 5.6146496716513431e-176 1.1071211794925411e-170 3.0535194533390947e-165 9.0311830637151945e-165 5.3543580783129211e-154 2.2112420667982314e-159 8.7280982946039744e-160 1.7832375370467962e-154 1.0109998118280078e-148 1.5186729268726686e-143 2.2786011318086641e-138 1.5793083591165555e-138 3.5651341939255874e-143 2.2585156955799104e-133 4.9550676220970267e-128 4.0746044400685176e-133 2.0158860591983866e-145 1.9101874788740158e-150 2.0070676108584641e-148 6.185131157364928e-149 6.7867448959848847e-138 1.241370401510276e-138 8.8627608797725929e-144 3.0443429973970066e-140 4.013210529626807e-130 1.7053474260014066e-133 1.6039776511095648e-128 7.5117128242069209e-128 8.497740833558282e-119 2.1249857484794112e-118 3.9211908256726722e-125 1.365424286974109e-123 4.5681522737988059e-123 8.450647786622552e-133 6.3634697822254187e-118 5.9051135035348058e-123 4.7336514497237525e-113 4.2195868419738742e-113 4.5624313701514388e-118 1.66390922354302e-103 3.4905509751774073e-108 9.4898177479320295e-99 5.9645028785289742e-94 6.7595166020806628e-99 1.5304028709377156e-113 8.8092175077505816e-109 5.7619005857105675e-110 5.8640424071273975e-114 4.0674381534928095e-105 3.939420584815391e-104 4.3693873721010926e-100 1.4094385721859174e-90 2.3755325560093822e-95 5.9920032826223019e-104 2.3350072585091471e-94 1.5812597953712483e-86 3.2069267877048274e-85 1.0073075496841739e-79 4.4435357923653206e-80 1.4148146216833582e-84 2.7015826183441252e-89 4.1304432432698748e-94 1.7065769601663668e-89 5.5265713837844524e-107 1.8062481389080432e-109 8.0395469788178134e-102 1.3483487446937791e-104 5.1903708890548357e-100 3.3755637904453994e-99 7.7267313233380587e-109 1.7591168472944796e-111 1.0169266620079207e-106 2.7601839908510265e-109 2.3232573065710856e-116 8.7623967285359495e-119 1.2413803438424421e-113 3.3451450634222775e-115 2.6399953245657822e-127 9.5183211911619594e-124 4.7208309390577955e-122 4.0825467017070399e-117 7.156536817245793e-112 3.3032386010942275e-117 4.0825422302123392e-127 3.470358416357214e-122 5.5513691887829372e-132 4.9548988745167825e-137 3.7439990763607778e-137 2.7162665623265623e-142 4.4208017071045384e-142 3.7466917068810276e-120 2.3528774144466277e-132 2.2216279096327034e-130 1.5891974735365956e-125 1.2654562620531561e-135 4.0626698106335439e-135 1.6195465710231252e-140 1.5483550503907089e-135 1.5615908954228016e-140 1.2003037195510332e-145 1.1797570620096572e-150 1.3686946460314513e-145 1.9734169108026499e-91 1.2088994457649645e-86 1.9330108940492927e-147 1.0242226838508284e-152 2.6675100376700546e-151 3.9263662570584157e-96 5.8875426900870792e-80 1.5260810396025461e-75 2.2454629687513909e-66 6.5089926444138125e-71 8.0497049436598751e-62 9.1103647407613535e-71 2.7587294286771942e-66 2.732428789361857e-65 8.7527330582639369e-70 6.6930818114262152e-61 6.7194312610605781e-61 2.0621283030192465e-65 1.1013616324730488e-52 2.280255565040627e-57 1.192801441594477e-56 1.5742585109362648e-43 7.3795329411269573e-44 2.3055147300457429e-48 2.6663977996897987e-48 1.9631248015581627e-57 4.8267794807656581e-53 1.427642340467734e-72 3.8574392815311477e-77 9.2790861412468433e-82 9.6349663020800329e-62 2.0486629633682572e-56 7.5122788313887183e-48 5.3996731716286534e-52 2.8773659148703878e-39 4.80914954828803e-31 6.239456803126503e-23 6.2780551107585092e-27 3.3394197810582397e-19 2.1036360838310875e-15 8.3845775814790452e-12 2.1020868636870194e-54 7.0441156430799024e-119 4.2322412493632255e-68 1.0562131425997492e-58 4.3170327939966452e-63 1.1995668807049999e-39 5.1773009927516871e-44 1.2145779280731757e-39 4.6532726392622019e-35 4.6753208951434416e-31 3.5231793253584583e-32 1.5463607441815713e-35 4.2087001428717031e-28 6.9059249117124064e-40 4.0689504437551343e-27 2.3052373218631937e-23 1.3223793013213335e-19 8.4255986396352869e-36 7.3666724154098859e-32 5.0494548642242591e-53 1.8758781056525659e-57 1.537535420497604e-45 7.7135157719456696e-50 7.4443642288088926e-114 8.1587289222599922e-109 3.0701846816604001e-99 6.0648337743261125e-104 2.3905655307799997e-94 1.7842284874100463e-94 2.2286021172149023e-89 7.6128143392777113e-85 9.132356209210396e-49 1.5558662785241566e-44 8.2739502373014562e-28 2.2027381536470242e-23 1.8656265983163729e-19 6.8145723235704033e-36 5.6515939477085511e-40 1.5120226390354763e-31 1.7424663839623017e-22 9.5006599858660029e-15 2.9419518384895402e-23 1.9446340430857405e-27 8.1232227141488363e-71 1.8559433750695146e-80 7.6353698504821669e-76 5.3244762485539319e-85 1.3363807988319349e-89 6.3019166208620493e-80 2.144700906582274e-75 1.9463608686127198e-80 5.7600261024443551e-11 1.0456581739632947e-14 2.6471428676669191e-14 8.9245423855667656e-11 2.1177016466403899e-18 4.4262031155110324e-11 5.1328891122126269e-15 2.2017681439270585e-11 4.2770347581477285e-12 6.1802230448357701e-39 9.8941716680072317e-35 2.977173357457292e-53 4.5459190570064687e-58 2.9228773420293909e-62 2.2538110732904294e-71 2.8346417261084962e-66 8.144496148885151e-67 5.6912348174942209e-57 1.0816543761632598e-61 2.0083265034281851e-19 2.2846117264868911e-48 7.4240945836119853e-16 1.2593284906901027e-52 1.7581835119389425e-57 5.5685506645728992e-44 2.5999149089781407e-39 3.8179450620132532e-44 7.7720078674006353e-40 4.8190055288540573e-49 9.1698280592838287e-45 7.0757381800386653e-49 1.9260807242978909e-63 3.8541757331979074e-59 8.8397388485244952e-55 6.5988384582811976e-90 1.5749265448343884e-100 7.6730660950640266e-96 1.9154892900033144e-96 2.7913015770685528e-101 3.5866991430356799e-69 2.4000544001818782e-68 1.7900023010991415e-105 5.941569558354165e-73 4.7316692878895539e-78 1.3215323032955848e-73 3.2396944765674415e-78 8.5825774583955833e-83 1.8157402345546668e-71 4.4548839118526387e-67 3.2218203478950958e-77 1.0598888339129035e-72 5.4222317491101539e-73 1.4860824456721721e-68 6.6099403719717122e-68 1.8552892096840728e-63 7.8722072942385357e-64 1.7716049954993787e-59 2.4408766225728983e-64 5.0297130962031868e-60 3.16179858480147e-55 1.140609884259419e-45 1.9380910751895739e-50 1.9417266806885955e-32 3.4272589846256943e-37 2.5879512451565907e-41 1.1504609528994895e-45 1.2199316342011156e-54 5.6278270685414499e-59 4.7303596823046359e-27 4.7013072659140536e-23 2.3363172521637386e-27 1.979906438639302e-28 2.2615794945472545e-31 1.0073195032642136e-35 7.4521631506841025e-40 3.4982823526157456e-31 2.5024849417486629e-35 1.6145786996183351e-39 4.5356016940211931e-44 2.4879328990929345e-48 9.8647582249031596e-53 3.2101072099943471e-48 8.7304394908200906e-44 7.8537609520290891e-50 4.3999772754840513e-53 1.955291246347728e-57 7.8434390005723721e-59 2.0282940941275735e-54 3.0621768925861579e-63 9.6866718348705626e-62 8.7545119183447631e-67 1.8529230256158731e-76 2.8349439750255036e-71 1.3618264929614067e-52 2.6583326352206133e-57 9.7707577883904049e-63 5.5214632903489396e-57 1.882636275984629e-61 4.6791445879589685e-66 2.8567927502127806e-67 4.2030455120995957e-75 1.73562603822928e-80 4.3822337233167588e-75 1.7338552005958916e-70 1.4450170374613266e-80 5.1029787768745663e-81 7.3360868392745269e-76 5.3277083253904193e-72 7.3669193745974444e-82 1.3354891683745587e-76 5.6145098139579959e-85 1.1547755201276754e-89 2.3263938090441484e-95 2.1300460474719886e-90 7.8879474808520594e-86 6.3013964308638315e-87 2.9274898056950262e-82 3.0835536915947733e-87 7.411415404131896e-92 5.0184616386947171e-92 4.3680347080906662e-97 1.4304126262378585e-104 1.6059111124756674e-104 1.0248849230099887e-94 1.2984933174890568e-99 1.8265297159176527e-95 9.5500523521094889e-91 8.7686568077178687e-86 5.437059809633105e-90 5.3567056926386989e-85 5.0528519953105685e-76 4.0303566693443436e-81 3.756218007417288e-82 2.8546450621247584e-68 8.4281400835688698e-73 7.9032544203806793e-78 8.8047559950286573e-87 3.774368148546133e-22 7.4380045224678364e-27 2.4234342214541618e-17 5.9972904721284368e-08 0.0015177347189050325 1.2073616913226173e-12 0.031311454772890338 0.087129026249721409 0.025518984236510726 0.018886089440805352 0.07826744818908947 0.01754057527337689 4.072864878283157e-05 6.7881642441106928e-05 1.364537708494886e-09 0.081964836450833675 0.02210451989564376 0.065790490710906147 0.00011541542446630998 4.3374257453816665e-14 2.536895471397561e-14 2.0965335346145546e-09 5.29210577874158e-10 3.6401804223968098e-24 1.4895429426176602e-19 1.4189719495932121e-23 8.2964666622502308e-19 3.0120074196915385e-14 4.7895401399343684e-19 1.0724339104359064e-14 1.2616097469461907e-23 2.6095278478555084e-28 1.8661899348276584e-28 9.969635351207115e-38 5.3256044068854847e-33 4.7876809910133589e-33 2.3477218590411909e-42 3.2642309025612106e-28 5.7365833311532882e-33 8.2344056568681232e-29 1.1770661362288884e-33 2.7198670179489341e-38 2.3920029136820792e-42 1.3442948963501017e-37 7.9100337326803583e-52 6.8065008989165375e-47 1.0584356085572506e-51 1.0929997121273729e-47 2.3090774484645668e-56 1.926906631876711e-56 5.9005175171250245e-47 1.6894964631619841e-48 5.468018179155878e-43 2.7755404337134067e-53 1.2021321609465879e-52 1.403356591912275e-58 5.0197618943530112e-60 3.1551867050184437e-55 1.4094457513201998e-50 1.0424501785779675e-31 1.6285491154780748e-36 3.7255989217375767e-41 6.4281009504196569e-46 4.2189545361123251e-17 2.3659894737652582e-13 2.0856897410729615e-18 1.3230279940815404e-13 1.4673657889110433e-13 0.00018002523078629405 0.00026535729629949267 6.2281955588638026e-09 0.031311460281583381 0.087129029479865214 0.02366516597205201 0.025856686545499455 3.9210584455317312e-09 9.2228677977115175e-05 2.954715188227628e-05 0.078267471128476623 0.017540629716580044 0.065790534773551165 0.020836978798703769 2.0082497213348499e-09 3.7808921187667292e-10 6.3568114338483654e-15 5.1874682274366984e-20 6.6801844287799103e-20 7.7185017417523496e-19 1.6725253312763762e-23 1.423792122923515e-20 5.7637191438808532e-19 2.4003372204049872e-11 5.3131147237445011e-16 3.0832988570711278e-14 4.0399280782437672e-14 6.5864890367700255e-05 0.00010953102468188539 0.08088265336446987 0.017691316423340715 0.061805506951792571 1.5372010234675345e-09 2.9100249600861466e-06 0.0072149286138038296 0.062900474902572071 0.019995056057671885 7.9958191798387701e-05 1.4383288164048858e-09 2.8327788340075906e-11 6.0087747726267009e-16 1.705179753738345e-20 4.7031538998179798e-19 1.1627901889763117e-29 5.576454990703421e-25 1.4173960816172676e-29 4.6162093434190268e-34 1.0503923202382228e-38 7.3679606681514029e-39 3.8160139071684323e-34 6.2052463158566564e-48 2.6699864645303232e-43 2.3851183786930622e-52 5.4414972466567303e-57 2.2665163589459122e-57 2.4306139572013753e-43 6.4678640420917722e-48 1.4218510240811761e-43 5.0543388536957031e-48 1.6278492465227035e-52 3.1375945066375714e-57 6.3106479096478016e-53 1.4118312926088891e-57 3.0991144086531811e-48 5.3954979420913541e-39 3.6101737299718556e-34 1.5157593678569317e-34 4.0479648542274255e-25 5.4761369392222153e-30 1.391632835478737e-29 3.2847803849444681e-28 1.233773178546839e-24 3.4261674712370747e-29 1.4833376747979979e-24 3.5940063435647269e-37 6.0872349397659116e-33 5.2568030309713116e-39 1.2635409790701015e-43 6.9325219540311076e-53 3.0837159427718095e-48 1.071496346922161e-49 2.5602058805570749e-45 3.631467117306686e-41 1.0066804630902966e-36 2.0564182974970902e-19 9.5138253381556431e-28 2.3631379796543749e-23 8.2082388409811588e-15 5.1476786370814424e-11 5.8101158347475564e-15 1.4111755620434329e-28 2.2961663236529066e-11 1.3951335345595302e-32 1.5972710454334465e-28 1.2367342796923771e-24 1.3450207588377431e-24 1.0857872340195251e-20 9.2435810083712381e-27 5.8378322427939782e-23 5.8188458849736604e-27 3.6982306629397241e-15 5.8707946726547615e-19 1.5545311016987551e-11 1.6044370584649298e-11 5.4115175239789297e-15 3.5009366279860423e-19 5.7744796517562958e-23 6.7166879787527931e-36 2.759090792989671e-40 5.8407316577073314e-54 8.4964344147470222e-32 1.2670906641341067e-57 3.6781720562318536e-62 9.3036713686531565e-67 1.2885826253473201e-71 3.5941562749830873e-49 2.1277334600777577e-44 2.1413283637403479e-31 1.4195630927820646e-39 1.7208187958578223e-35 7.0417959802420434e-58 1.7611109140356337e-53 4.0694612442767048e-63 2.0518404157175081e-81 1.3972308105884763e-86 1.1371349407738708e-76 1.1677435915066922e-71 7.419076255189662e-67 2.8332292350790633e-62 1.8089095975295122e-66 8.8716211886085569e-62 4.6059392799272279e-71 7.7602846138832713e-76 5.3259807816815401e-71 1.5022983947270591e-66 6.9096808007757839e-6