<?xml version="1.0"?>
<VTKFile type="UnstructuredGrid" version="0.1" byte_order="LittleEndian">
<UnstructuredGrid>
<Piece NumberOfPoints="714" NumberOfCells="1306">
<Points>
<DataArray type="Float64" NumberOfComponents="3" format="ascii">
0 0 0 0 0.10000000000041601 0 0.082799035591426873 0.082799035591510806 0 0.099999999999928008 0 0 0.19999999999983389 0 0 0.20669143849501961 0.085546078947938975 0 0.29145143692666958 0.13500804559578439 0 0.29999999999973409 0 0 0.24783073444672249 0.24783073444648379 0 0.21725788110387281 0.17316968768743621 0 0.17318221359491059 0.27409688392309489 0 0.089078158003765312 0.2493007687782936 0 0.140351188660986 0.16130415108589741 0 0 0.20000000000083221 0 0.066361468125430589 0.15903440181097661 0 0 0.30000000000124832 0 0.0632094674441709 0.3449112819864934 0 0 0.40000000000166441 0 0.083393126324559225 0.42307471369029392 0 0.13897501191807771 0.34545639364066222 0 0.070553891733833127 0.57745844360881338 0 0 0.60000000000138687 0 0 0.50000000000205869 0 0.12353277228144981 0.51086097771927308 0 0.16324260003398389 0.62262730759772122 0 0.1946526892501724 0.54636184660733622 0 0.27220668248394869 0.50912429725145214 0 0.27661118526457179 0.58730386222759956 0 0.16486701364709541 0.41592657376307979 0 0.21928696632013719 0.4676461135047027 0 0.29987747321592639 0.43430880093746571 0 0.2371857680100064 0.35865548441110112 0 0.34318159319555042 0.3314386771104964 0 0.38593969585746768 0.44843324941957241 0 0.42544665781957403 0.3726599289372452 0 0.38240158409674341 0.60644575028138747 0 0.34793494568226019 0.52426775179830853 0 0.45232393232070839 0.53082724112931345 0 0.46433624429412901 0.61260020600107856 0 0.55763912874459476 0.49619993861770217 0 0.56379254693201075 0.58472273515948836 0 0.49272830291620878 0.32528628960011152 0 0.47711113382803011 0.43513410852522788 0 0.56509579243166053 0.39588847936247551 0 0.58612580217118482 0.27813894450229909 0 0.49255105193724569 0.22337579986912359 0 0.5565830077206213 0.19095699352548859 0 0.59999999999951659 0 0 0.57505385014294308 0.072457888465917331 0 0.49999999999959438 0 0 0.50264032148191051 0.12292784096123539 0 0.43504744109702559 0.077628892606360606 0 0.39999999999966429 0 0 0.35933948296838258 0.073809900849860513 0 0.33604819894646598 0.23280286076243209 0 0.41589935411558732 0.26752529264016389 0 0.40428440976105728 0.1643886070295453 0 0 1 0 0.099999999999999645 1 0 0.14716362552681639 0.93861610753355362 0 0.19999999999999929 1 0 0.30000000000000071 1 0 0.29792158491427922 0.79537096033156995 0 0.2235202862591317 0.88873896332704583 0 0.1332109546178302 0.87498377138822103 0 0.075231054453351903 0.92314074346405706 0 0 0.89999999999958358 0 0 0.79999999999999982 0 0.074918724681641777 0.83311952320732263 0 0.1533088418661793 0.80370257472597129 0 0.089684836063650353 0.74720097194875412 0 0 0.7000000000006934 0 0.079752623936563252 0.65630726580969023 0 0.16551550920047911 0.70947866912672319 0 0.22047232289835689 0.77501739045979867 0 0.25446499951716589 0.69023946426646743 0 0.32437633398017029 0.65970549827478953 0 0.33985912385126898 0.73174041004507751 0 0.42824324229177341 0.6924957961634054 0 0.5174764925733939 0.65338828204098198 0 0.59670004617370476 0.65981579440137683 0 0.62152629835360762 0.73285157302339954 0 0.52912171753951986 0.73993242892488531 0 0.51076728641122882 0.81691863363193817 0 0.62017612851329729 0.81451802170669263 0 0.56701461556202259 0.86335846433862784 0 0.45907587517201498 0.90165918271477563 0 0.43819239467549531 0.79296936871720936 0 0.36912581253574028 0.83088590731704637 0 0.37337282601342481 0.92616598444216514 0 0.31535921456193688 0.88154045330654418 0 0.39999999999999952 1 0 0.49999999999999911 1 0 0.59999999999999964 1 0 0.5499999999999996 0.93976792513729512 0 0.70000000000000018 1 0 0.79999999999999982 1 0 0.89999999999999947 1 0 0.8793859710393791 0.93083561064221121 0 0.93540888248908083 0.88281232945237675 0 0.91372311269140116 0.80486176357476358 0 0.82192606283926717 0.87651855948129354 0 0.73937541854631073 0.9288754054780668 0 0.64588148000090029 0.91512139508160772 0 0.76404828705430583 0.78174230667165401 0 0.71722872346306721 0.85096302760907838 0 0.69085763855200755 0.76120667115691065 0 0.6754414170471299 0.67700559910555169 0 0.74547688787239819 0.70026419381674654 0 0.81910554849723838 0.69100245438023977 0 0.84477163403336131 0.77519844632340484 0 0.90192269692920224 0.70295054578552552 0 0.9749171938312049 0.68304286407835557 0 0.98491966670915287 0.745702719141624 0 1.0785590511537511 0.75365885686631617 0 1.05 0.67063679245255348 0 1.1595355377629719 0.69612720023346242 0 1.2316049928421089 0.71268197388690568 0 1.130022579458912 0.80264790230838934 0 1.2104878010462079 0.79638517641579154 0 1.246238897717278 0.90016207822659 0 1.1492841477515361 0.89495863909300122 0 1.035017143854235 0.92577305964649748 0 1.039491394416145 0.83402983011495258 0 0.99999999999999911 1 0 0.94997493298435887 0.94717135651053852 0 1.1000000000000001 1 0 1.1999999999999991 1 0 0.8520969719592798 0.19112077159544111 0 0.81051762114363357 0.25355176211442859 0 0.91043121937362004 0.26518856856736223 0 0.87151744524583186 0.1145610820769897 0 0.89999999999870417 0 0 0.8072276847200428 0.07509171132446453 0 0.79999999999899607 0 0 0.75434135135171976 0.12888799631625769 0 0.73796379772146625 0.059893436010741673 0 0.69999999999928797 0 0 0.66267222434682926 0.078497159578092612 0 0.64669101990832323 0.1799054750174742 0 0.75284581776561577 0.20455093921856349 0 0.7545004114404561 0.31098089234202853 0 0.68811979868824935 0.26566684131589419 0 0.65823561246403328 0.35502292901158627 0 0.64897033023755402 0.45530630145656431 0 0.71094001953927277 0.41472992215547572 0 0.65500944633069913 0.60601350811213128 0 0.66278242936710119 0.53985356489900171 0 0.74775703275407246 0.49059679564787018 0 0.74991769371388628 0.60451627361984739 0 0.85383906663538056 0.62014574817393608 0 0.82099888937423493 0.54529350322201742 0 0.89730215834238125 0.56352362508531118 0 0.79315209058920677 0.38802315963964318 0 0.83603391221093415 0.31708941802047369 0 0.84897848255088726 0.46000674997733482 0 0.9184189969982266 0.43608586792060411 0 0.89716106756302072 0.36571612550017968 0 0.97284972811175952 0.32057650487681749 0 0.97803218086495292 0.39957666910545891 0 1.049999999998295 0.45311778235774403 0 1.0499999999982661 0.33749999999944968 0 0.95554667482020261 0.61387123313571723 0 0.95438428234324713 0.50021891445525024 0 1.0610070115193291 0.56187728740506249 0 1.160572984923127 0.60155304747043781 0 1.1544259370261769 0.49580194535795907 0 1.11366617971111 0.39530889117858181 0 1.1787318575418491 0.43180077319900678 0 1.2482752740169289 0.44264463249545388 0 1.193211192060164 0.36417169501775798 0 1.2189485028845071 0.28846717556219142 0 1.225209211892335 0.20648826945283069 0 1.14543293599463 0.16096823716187 0 1.1317936052402791 0.27327200211975772 0 1.0273907165533489 0.25089655084417212 0 1.0673059847957449 0.1861726764986896 0 0.96758455917765662 0.17206502793490561 0 0.99999999999841238 0 0 0.95940036225003311 0.0802667348803804 0 1.0527907183502181 0.1005001786211816 0 1.1494214575391031 0.075340014825429069 0 1.09999999999812 0 0 1.199999999997829 0 0 1.2999999999975369 0 0 1.254652873386052 0.105753482544517 0 1.3681535985071449 0.13698083382674339 0 1.399999999997245 0 0 1.349999999997392 0.060567969661089648 0 1.291408388555241 0.26372433042992383 0 1.316869459340541 0.18778020585802921 0 1.3878996413210389 0.26723502210068018 0 1.473286192129879 0.27883707652097373 0 1.4156792278190771 0.19574754335211339 0 1.4905184776249101 0.20629734327603311 0 1.545236949037224 0.29434567071731399 0 1.456639397274391 0.1016053838939758 0 1.53341268746562 0.14194251306413061 0 1.542152768646126 0.073248247890105089 0 1.4999999999969531 0 0 1.599999999996661 0 0 1.6999999999963691 0 0 1.6799832100487111 0.082202015566833181 0 1.609545399082946 0.1308291592921435 0 1.567491488875842 0.20218805454405439 0 1.6351951680630969 0.23707571199064051 0 1.714493154391862 0.28897291620938281 0 1.7304700827703301 0.17386188770806579 0 1.799219293849516 0.26438879273789773 0 1.8480644103363271 0.19193194889233381 0 1.8299024103288899 0.1151394713368583 0 1.799999999996077 0 0 1.75369588639865 0.074917217572982864 0 1.7537858687071439 0.50406839622489796 0 1.742806034420483 0.6006074591026016 0 1.8544400981153091 0.62488101477716596 0 1.8316048184152021 0.54157006606434721 0 1.850967139686138 0.45738417241574703 0 1.8620515405159661 0.32644761881501039 0 1.787749129254824 0.36176402170097799 0 1.7808296409871709 0.43587276890434401 0 1.71976181471802 0.39635806210359681 0 1.645895854313963 0.45222881216869149 0 1.6419306970571019 0.3436055112169133 0 1.645263810758179 0.55814977621663464 0 1.5386621965636409 0.60828218080060537 0 1.550364457075788 0.50467902559054656 0 1.4795754400412069 0.53983964974648579 0 1.445918816848357 0.6075709531782556 0 1.551956040519719 0.40384519109247291 0 1.4491802319415681 0.4666714614197911 0 1.4507225717793131 0.3561247496431208 0 1.347125314110625 0.32447518420453242 0 1.385017785528226 0.40713366384701549 0 1.3198129865007471 0.39133224900025881 0 1.2615469736996101 0.34090999671933891 0 1.3860523322451299 0.56073196187600105 0 1.3462106466432811 0.48060664220838062 0 1.2709684905841181 0.55537862536316829 0 1.2546738886072291 0.63615646469940468 0 1.3545060270195819 0.65002758689694418 0 1.4000454837723419 0.73943313674757749 0 1.3035852436207409 0.73866974635260263 0 1.2914654457895349 0.81843301378315825 0 1.3255948392482531 0.88328132587465524 0 1.3864786876100039 0.92208751032957958 0 1.386174597084219 0.82350876346868962 0 1.482119963281066 0.782586299849238 0 1.463012078585596 0.89209645917012148 0 1.546104640467868 0.9195568013001878 0 1.535346256113697 0.70153336654872078 0 1.4534042830965781 0.68426123045930609 0 1.2999999999999989 1 0 1.399999999999999 1 0 1.5 1 0 1.599999999999999 1 0 1.6999999999999991 1 0 1.7999999999999989 1 0 1.6597641702579149 0.778
[...]
<CellData Scalars="A_conc,As-lin_conc,Bs-lang_conc,Cs-freund_conc," Vectors="" Tensors="">
<DataArray type="Float64" Name="A_conc" format="ascii">
1.7276249496550696e-14 3.891373870633371e-11 6.1331956549651074e-30 3.800213887045316e-26 1.4028605965189233e-22 3.8997442080431814e-19 4.1269521194131514e-14 1.1199027129473815e-10 2.2029778791356615e-24 7.7601203664171686e-21 4.1627591487335201e-17 1.9303257782950911e-10 8.2100167449260324e-49 3.2186119101937837e-33 1.22004594400445e-29 5.724485272906711e-29 5.1879425235110391e-37 6.2352289463705906e-57 5.8183686734725736e-37 1.1675610680945131e-32 1.0293856688172438e-27 2.4358449226646998e-31 1.3740312616444615e-44 2.1140432154245045e-35 1.2252476813787657e-50 9.6994053812431541e-49 3.0685824417969257e-55 5.9584363840592799e-70 2.3850594887819341e-191 9.5493400052058347e-47 9.4303388193847368e-41 2.8068709125919702e-69 5.4729922613252699e-74 3.0171851519983943e-196 5.6189662930020282e-88 1.4830726129147237e-83 3.1342575601826298e-65 2.1300380985772693e-79 3.2044614065365217e-75 3.0691271733646298e-177 6.4168854261374696e-182 3.4803221254915077e-168 5.0516632379786074e-168 1.3940873529742819e-172 8.2308388742025991e-173 7.6458706621918797e-66 5.3971520782055313e-61 4.8743396821135457e-182 1.190657803279816e-186 1.7836957587087238e-177 4.5833741420338385e-173 5.4228377379533302e-53 9.4347862629585458e-164 2.3002022800155302e-168 4.7392221399916807e-159 1.4760867338486181e-154 2.0105727017367871e-159 5.2889831637982782e-164 1.6386346865804095e-163 3.5759812220910565e-159 1.7323938980656146e-163 3.5777071896821317e-154 7.8116764777333961e-159 7.7555865313869153e-159 3.9588863804809762e-154 1.4147037480068546e-149 1.1436055258408933e-145 1.3841118371960864e-149 8.7584605648633291e-145 1.0799046558273735e-135 3.7839756830184553e-140 1.0809552596657863e-136 3.9413144408339139e-150 3.8239790446089494e-145 1.3189742631937981e-140 1.3046570269638171e-140 3.719630220796249e-150 1.3296176066136724e-145 4.174335861576827e-155 5.7067460887437502e-29 2.5002052124574107e-160 8.6678044764419838e-156 8.5036642962165561e-22 1.4393052473788601e-13 3.2796096873656201e-10 1.1676433252765465e-13 5.7683332308094176e-17 2.8226598960573347e-25 9.3686638971190695e-21 3.7282303629131783e-18 3.3048225832583692e-10 1.9830694405864928e-13 2.9319475155952638e-10 1.111575463465673e-13 9.8744227852079574e-22 6.3928000530001738e-26 1.4765155557640459e-40 7.3794627769515518e-45 1.1772251650986707e-159 9.5013600147243545e-33 9.1651817054291911e-37 2.5382091047106403e-14 5.5962780248824881e-11 1.1562177409197428e-13 2.1832144834405035e-10 1.2006918051935036e-13 1.7800805247291609e-10 5.7276980566259906e-17 3.0529509455175824e-25 1.3346344061721212e-21 8.153817102487868e-29 1.6195403165952147e-32 3.548660561447209e-17 1.3472355272499447e-20 2.6555318954425353e-24 6.4113993945523633e-28 8.9754803710814275e-32 4.2537152744367891e-44 3.1806393582462454e-36 3.1227845551599685e-40 7.560237789708722e-41 1.1904899952787828e-36 3.0016583231671872e-48 9.8211282889947232e-45 5.3458050885255465e-49 9.084017866749073e-61 1.1202634851226536e-70 1.0036773615003163e-56 4.8870992163349167e-52 6.1350999329616471e-33 4.3862130312200222e-48 3.0478037975582808e-44 5.4672486167466498e-62 1.8078682651062939e-66 2.0929369182599593e-154 5.4753449730781211e-58 1.1960897427334009e-49 1.1733020703635672e-53 7.9744501248401355e-150 1.6664147118600063e-140 2.8417860303094258e-145 6.0183954993619079e-136 3.7003861890844086e-141 6.2818088428573904e-126 1.8543142923194282e-131 1.1529594076307177e-28 2.193484169274472e-45 1.5638636498125586e-41 4.4611599462503983e-36 1.848369756705947e-17 3.4606746978856579e-32 4.8385255788355048e-21 5.540364703537018e-25 1.8986990074200738e-17 2.3680037376992895e-32 1.5533374846852779e-36 3.1295588148113957e-40 1.7348796326812733e-24 1.5818855494719168e-13 8.817890865814581e-21 3.6476336239923899e-10 1.946615374500537e-13 3.1124690967934615e-10 1.7451840332095753e-13 4.8178919695394669e-10 1.5737244715929655e-13 1.0856263601322484e-13 2.9264762467740647e-10 2.4723863075913008e-10 1.5369263039136401e-10 5.4604209498372829e-94 1.3190578063652634e-98 3.7430875798235769e-94 1.9217601298792698e-99 4.9103323052424952e-95 9.5925366242337704e-104 5.6949163151514992e-14 2.5587065967963317e-17 4.5924541675008807e-21 1.0984436197529937e-24 1.4486336839546882e-28 6.3949447089687834e-117 1.641464689004721e-112 4.0304193589965665e-108 1.7655101290083703e-113 3.0453673562595826e-122 8.6671857281002456e-118 1.440808378191431e-126 1.9101236773758827e-121 1.150270771367864e-127 4.3617135819319376e-131 4.4977639192069911e-132 3.5400178906986061e-123 7.8855745479567049e-119 9.8374387582553103e-117 3.2631203629078706e-112 2.8789253699374932e-107 3.3862216994577425e-109 1.1753316471296216e-98 7.0962697171492184e-103 6.9814600394893507e-108 1.8264451726284254e-103 1.98176205141936e-99 1.0407725482023283e-94 5.7192581866238908e-99 1.5092759145585012e-90 9.1693611720587975e-90 1.7658027776395677e-86 3.872279730696876e-82 1.0811864531366324e-77 1.8907224679200191e-69 1.5133584069647732e-73 2.9136261842911595e-86 1.0311809570215879e-77 8.4606375579790509e-82 1.0895691983426582e-76 5.9891922395048491e-81 2.2826372873583095e-68 1.8101551931708911e-68 1.4639298311956233e-72 1.0028948962596189e-81 1.8987206093055471e-85 3.7750908212396676e-94 1.2367983208316388e-90 5.6444460904359581e-90 4.9379650076370095e-86 1.0591354846133985e-89 2.2492499863879759e-85 3.3664238072978764e-81 6.3085487423204342e-77 1.1047477547963054e-72 2.7443560027725199e-64 2.1575494087160795e-177 1.0367891408914182e-176 1.8005777612770172e-177 3.9145652586916456e-182 5.2030217342023484e-172 2.5065009539507264e-167 8.6969145815052114e-168 6.4959839118750127e-163 1.4878489058155403e-14 6.6081934912473642e-18 1.4834633638234673e-10 9.7129018326207716e-14 1.4429024472083137e-172 1.2238606549428237e-21 3.5014328841826279e-21 1.0725085079153688e-17 2.5748030078112931e-10 2.684221483003631e-10 1.3125379308081234e-13 3.1853719409662288e-18 3.7428264764181378e-25 1.7426815404249793e-187 3.4783548504932868e-182 1.4420518699877168e-181 3.6069511564952899e-186 3.1838966142614021e-151 3.9029657672967606e-141 9.9480791835131357e-146 4.5048696558445149e-136 2.3594487978142995e-131 6.6749128480120003e-127 6.985650850317393e-132 2.4676389520920029e-136 6.3543870020598754e-131 1.8627527233161555e-135 3.852627934455323e-131 2.1310385942851501e-126 6.0319816836628873e-122 1.3068975702195948e-117 3.7709713881470777e-113 3.8632137468728113e-113 1.4251753838067585e-117 7.3845906292412711e-109 2.7946857968370732e-104 9.600909715711718e-109 3.6500165175823966e-138 1.1205639454483387e-142 3.8243904146064302e-133 1.5481288350343349e-122 1.2269895024173144e-128 3.2679505174110967e-124 1.9885852649372056e-124 4.9490976350072817e-177 1.8576967361834746e-172 1.1118934405337964e-172 4.6423206174080676e-168 8.4778176082898449e-120 1.2862200547572492e-115 1.5784184468297008e-159 4.5302113027138124e-164 4.0786050726353009e-100 1.7569524191097147e-106 6.5517758293235291e-111 5.0990138049393728e-91 2.2574605752361453e-95 7.3184307966682863e-102 4.7872218014175268e-142 1.7004492396868689e-97 9.927415365051419e-93 2.6233834017725096e-150 8.2330205693815443e-155 4.0546110935363924e-151 1.0554161212246696e-155 4.4512367521577152e-150 1.3459194611561151e-146 1.364614676485857e-145 3.3897364002924362e-141 4.109392874166858e-141 1.1634264533538007e-139 3.2846090167771963e-144 1.1099890208133279e-145 4.0455320973949472e-139 4.7928763758910272e-144 1.517836594776485e-148 6.6930447553043234e-163 2.3567240429513425e-158 3.9184585678286722e-153 8.1609703654293526e-158 1.3190109000479078e-162 1.2480608541322786e-167 2.722879591225107e-153 3.7958035212188552e-11 2.8599606609236802e-158 7.8290351262862187e-154 3.3604547661387381e-149 9.9379666889633521e-149 1.8968847686186393e-139 4.1804567672571418e-144 1.6502161891158298e-144 6.3179669784901125e-140 7.2497800186217155e-135 2.3621789405080847e-130 8.1834279323050528e-126 5.6721885374084755e-126 5.5451049627848181e-130 1.9825544267900939e-121 1.1198468504499425e-116 3.576596727817949e-121 3.1362582549209374e-132 1.3700607920238439e-136 1.4392020036900388e-134 4.4352773521889837e-135 2.4373059326468145e-125 4.4582820611402121e-126 1.3785297271335692e-130 1.0936080602401425e-127 9.072206706662421e-119 1.4968981346226492e-121 3.6249753522692953e-117 1.6975936143916699e-116 1.4644189807221784e-108 3.6619668785739966e-108 2.3942283983405193e-114 8.3346914958110956e-113 2.7885034725571664e-112 7.417491150733761e-121 1.0966067955593473e-107 3.6045102978221517e-112 2.3994535288858281e-103 2.1388930795354228e-103 7.86249817406272e-108 8.1629182301520061e-95 5.4070605322367482e-99 1.5245074308646088e-90 3.2375695000150081e-86 1.0858880737789559e-90 7.7575465424186953e-104 1.364612188721884e-99 8.9260968988769721e-101 2.9724829321690059e-104 1.9955387294867391e-96 1.9326549435570112e-95 7.0196503656567694e-92 2.6626547999776292e-83 1.2895323846377114e-87 2.939352669206247e-95 1.2673480459870916e-86 1.0692081471723427e-79 2.1678087133915686e-78 2.5013661875403979e-73 1.103494964441763e-73 9.5636807646214501e-78 5.1034088642817906e-82 2.2420203107365717e-86 3.2237928214578965e-82 2.7114413646553574e-98 2.7980445547773536e-100 1.2916075662440355e-93 6.6143540556786009e-96 8.3376397537263568e-92 5.4222299002257931e-91 1.1968288707963706e-99 2.737943759961738e-102 4.9968125504332671e-98 4.2753958869240478e-100 1.1830414988436001e-106 1.5099176025314058e-108 6.2920246409733834e-104 1.6957460994981405e-105 1.683992818163269e-116 5.8097492483459491e-113 8.136578871393806e-112 2.0697327059255737e-107 1.1086765386324252e-102 1.6745302515756258e-107 2.4923410928989251e-116 5.9809450609423536e-112 1.2547309621003254e-120 4.3496922774522894e-125 3.3300652820696916e-125 9.8808320514709405e-130 1.5878273226895238e-129 6.4570755591909354e-110 5.5489034888341831e-121 5.0211025227265589e-119 9.7013358745494242e-115 1.1108675670672163e-123 3.5669908934881859e-123 5.8167760230476459e-128 1.3591666821231734e-123 5.60850654300459e-128 1.8670281634617989e-132 8.4601335244924286e-137 2.1289912424340696e-132 3.7274542862435257e-84 8.1707754107729805e-80 3.0441627865006755e-134 7.4335577500264018e-139 1.9128944312074197e-137 2.1310391368220532e-88 1.4618247532928137e-73 1.4271475351671217e-69 3.1936209384201889e-61 2.3473603038436709e-65 4.6130576395218167e-57 3.2858779742906956e-65 3.924117881215512e-61 3.8864366497466464e-60 3.1566305426492517e-64 3.8352849188417222e-56 3.8504665335256528e-56 2.9330147468377531e-60 1.0877460069905995e-48 5.3725902249483509e-53 2.8102245091092379e-52 2.8849501602291605e-40 1.3524099208548191e-40 9.7226170369138443e-45 1.1243110130116205e-44 4.6248275396367392e-53 4.7665321416542519e-49 5.1487161991967021e-67 3.6074729323943323e-71 2.3040313638660123e-75 5.5208027049407088e-57 4.8265734317256439e-52 3.1678234817840918e-44 5.3324653349229831e-48 2.3305555394508343e-36 7.9811026171879874e-29 2.2510718214386163e-21 4.8234790637207236e-25 5.7354109513607382e-18 1.7424884952770545e-14 3.3920605326444274e-11 2.0758985963206961e-50 1.2139145761541596e-108 6.0195697558716866e-63 2.4883322067676091e-54 2.4737208765531132e-58 9.7153329751967756e-37 9.4871889909820871e-41 9.8379937732868781e-37 1.6928823420024091e-32 7.758442703237454e-29 5.8466242591168162e-30 5.6253932392280919e-33 3.233441002561384e-26 5.5931838124134781e-37 3.1260819704608227e-25 8.3168532639263664e-22 2.2711435081556844e-18 3.065135237501675e-33 1.2225124045134569e-29 4.9866855563278312e-49 4.4195494983418262e-53 2.8174748323067746e-42 3.2524849629193283e-46 3.7735005086151028e-104 1.2638211070461499e-99 4.932007814481597e-91 2.9752492186107841e-95 1.2974591956531793e-86 9.6846391319410587e-87 4.2096455884181783e-82 5.145743630838467e-78 3.8509683164749447e-45 2.8512843604829706e-41 6.356919037312879e-26 7.9470178506904074e-22 3.2039363299183289e-18 2.479319284642921e-33 4.5777094725657311e-37 2.5094044584404678e-29 6.2863553870212641e-21 7.8693327899722675e-14 1.0614501887415596e-21 1.4941471818551491e-25 2.9298114804916274e-65 4.6083383103755975e-74 7.140762881590283e-70 3.5988073263583093e-78 2.5241510964636936e-82 1.5648781665358862e-73 2.0058599489134822e-69 4.8329863289772102e-74 2.3302723468643088e-10 8.6610981760756293e-14 2.1926076131039761e-13 3.6105061049495524e-10 3.6368236859389882e-17 1.7906614851790234e-10 4.2517438692219536e-14 8.9074566726000392e-11 1.730313940840814e-11 5.0058161405176454e-36 3.599689860363469e-32 2.9402565711151974e-49 1.071045808155903e-53 1.6749040339130252e-57 8.1285443289952631e-66 4.0320283743239886e-61 1.1584393050088228e-61 1.3409371476564576e-52 6.1984759657505543e-57 3.4493266077330475e-18 9.6346447459479432e-45 6.1498593871984388e-15 1.2437698895981056e-48 4.1424165065933061e-53 1.0205581766740476e-40 2.1059189188504106e-36 6.9965961284461065e-41 6.2948218206559731e-37 2.0320314616736497e-45 1.6803836315144999e-41 2.9837738231831019e-45 1.1036618878575033e-58 9.0800849372671416e-55 8.7296719640624955e-51 1.2464360511695262e-82 2.5298921613508914e-92 4.1647256454303819e-88 1.0396634509679244e-88 4.4838295637273311e-93 5.1010711504451155e-64 3.4134762523549498e-63 8.7810515398672599e-97 2.1427339300430925e-67 4.4248778109600658e-72 4.7657190061242187e-68 3.0298741660017632e-72 2.1311545320907373e-76 6.5483513989692349e-66 6.3362857980745607e-62 3.0130537038732106e-71 3.8224663781223804e-67 1.9554710673754776e-67 2.1136504902612864e-63 9.4013802695794546e-63 1.0631143412151763e-58 4.5108810705590311e-59 4.1737398749273004e-55 1.398567659775321e-59 1.184882016032421e-55 3.1222256895002462e-51 2.0902683479301088e-42 8.1725539974046367e-47 3.2224356067526825e-30 1.2468876208421799e-34 2.096161789910083e-38 2.1083420096376986e-42 1.204746420889692e-50 1.3258798831023767e-54 3.6345138834344309e-25 1.6962150109347268e-21 1.7950620530413801e-25 1.521219464347002e-26 3.7532626928275275e-29 3.6646900966919734e-33 6.0358833322522707e-37 5.8057647928925199e-29 9.1045864980670273e-33 1.3077981897082513e-36 8.3118866554548211e-41 1.0491231696760646e-44 9.7423339231782045e-49 1.3537230859405438e-44 1.5999972499411386e-40 3.3117889029051072e-46 4.3453398258004646e-49 4.6066802131858554e-53 1.8483403218495531e-54 2.0030760124995508e-50 1.7551225414511146e-58 5.55097112403725e-57 1.2452527500037008e-61 1.7329888594611696e-70 1.0224771571337625e-65 1.3449855331912609e-48 6.2631736572506075e-53 5.6018574996571417e-58 1.3009299038405115e-52 1.0788865400711542e-56 6.6557858919951436e-61 4.0653458894787362e-62 3.9309883055301622e-69 4.3101714916311477e-74 4.0985715406930072e-69 6.2535396017419962e-65 3.5882358412949539e-74 1.2671767070853852e-74 6.8611564961029486e-70 1.9223647778005085e-66 1.8300506903905646e-75 1.2495387228634239e-70 3.7949005590457272e-78 2.1812160911976023e-82 1.2627151034891046e-87 4.0235370393271531e-83 5.3317706818701747e-79 4.2598223713484374e-80 7.2704288321713876e-76 2.0845043126076887e-80 1.4001510673872544e-84 9.4806769546516227e-85 2.3711641020581965e-89 7.0174560980396392e-96 7.8776639656329646e-96 5.5625048400498289e-87 2.0857519534034671e-91 9.9135769690880445e-88 1.8038556118099337e-83 5.9266672955522766e-79 1.0269544204016142e-82 3.6204826557942926e-78 4.7254045282064561e-70 1.0007533397118502e-74 9.3268538078381278e-76 4.0611663088868486e-63 3.0402653492620795e-67 7.3927364669919492e-72 5.9510606316100492e-80 5.3033628403533709e-06 5.8982524755229518e-11 0.015106328250761063 0.15293609704027825 0.16548851606813653 0.096407579444363303 0.17529365927175422 0.19175590771747569 0.17254823724312207 0.17138240583783981 0.18844439056200676 0.17166667198524665 0.14929197026576307 0.15061011794489962 0.13028459818577862 0.18970269607369911 0.17311649997876627 0.18453540774755989 0.15463258377726377 0.025031843588150093 0.014042466441870283 0.10334601080433531 0.072875169883846388 1.120244657264835e-11 7.8044611628749587e-07 5.0344751522911967e-10 7.0272277644248867e-05 0.057035624546298881 0.00048060320249472196 0.0076740060531731748 1.0729107260414755e-08 1.1765195974971163e-13 9.5155290772241156e-14 8.8255806806601765e-24 1.2334900429901436e-18 9.7594394472953422e-19 8.8922922184547864e-29 6.3427281281738319e-15 5.1520500935814062e-20 1.8284399052561457e-16 2.2272062832122509e-21 3.9951977281428352e-26 8.5836061214889156e-30 6.9934527673190692e-25 1.6418913681542777e-39 1.9221930286544186e-34 2.2947957477079992e-39 9.0850392633762982e-36 3.9791015202490673e-44 3.1415323145339511e-44 1.1506076222036148e-33 1.4134577660286827e-36 6.044417629839631e-31 1.8037203804298045e-41 7.7718917240839771e-41 2.8756694695132313e-45 3.8900021817383865e-45 3.6805052287896717e-40 2.490691112589033e-35 5.1375189205176467e-16 6.5047893960505636e-21 1.2977046757196165e-25 1.7314309730672195e-30 4.7388368703602223e-09 3.5937360185752526e-05 0.00078219467745832202 0.066886107279796658 0.026395633630621536 0.14943112049110865 0.15016407146027821 0.099679331505919982 0.17529366065162794 0.1917559091780337 0.17378980844438127 0.17318098660904752 0.11954233560751469 0.14933087707308246 0.14408682391173613 0.188444398083675 0.17166669741573548 0.18453542172194728 0.17266832134559101 0.10786927272774804 0.063934527216352788 0.002808200370120157 4.245129490250063e-08 5.0400692969690885e-08 0.00010921786803817085 6.135133149600525e-09 1.5682413498768744e-08 0.00039509947467641915 0.046443908826586958 0.00076545065211526021 0.043499394080632664 0.028441498993779658 0.15330531926492982 0.15556261067791854 0.18932225967938399 0.17117696601396296 0.18324497561807079 0.1226216228164165 0.13279618116348668 0.16358429748039857 0.18360586625222106 0.17202963293614487 0.15203050055602699 0.096876196975621248 0.033859581667646195 0.00032942970004135475 7.480246641389498e-09 1.0699784982800414e-05 1.8117813839298449e-18 1.4989118564979544e-13 3.0081287402013272e-18 5.3790132012297312e-23 7.6969456068260873e-28 4.4679885786904322e-28 3.4787706659980914e-23 2.8016279209565696e-37 1.295692378972222e-32 1.0439037450818913e-41 2.2706972172909931e-46 1.4138568185175812e-46 1.287749350090314e-32 2.952847333861997e-37 2.9778379018294225e-32 3.8800874433461669e-37 1.0989584668716387e-41 2.1874791416550371e-46 9.7898794731337701e-42 2.1655041899273345e-46 5.6245242389344163e-37 1.5902650059846586e-27 2.3644766582961449e-22 2.8989483342091132e-23 2.5601316576802868e-13 2.1185646650555613e-18 1.2120019838799315e-17 7.1878346278010108e-14 1.1442185303925004e-12 2.9155954097056203e-17 1.4404816398421531e-12 7.9348470767847374e-27 5.5195718043665793e-22 2.4787961117890585e-27 4.3666631503940179e-32 1.6481274895216366e-41 8.3594306951425194e-37 2.6040060541887255e-41 1.5938325399895506e-36 8.0938875744741019e-32 1.3375840324517682e-31 3.5318220292988733e-18 7.3098296452144003e-26 8.5261934177107784e-22 6.7989026266475959e-14 2.082541089912159e-10 4.8126380737386975e-14 8.8867358766158547e-24 9.2893530784575729e-11 8.9128486444161343e-27 5.5559319181801169e-22 2.5690640609146275e-17 9.3813848792079554e-19 9.2313851364924992e-14 7.1015342869384067e-25 2.1061789644473285e-21 4.4705139349484004e-25 3.0632403961912824e-14 1.0082788432814855e-17 6.2890003741705155e-11 6.4909001163487463e-11 4.4821748135561158e-14 6.0123857646135274e-18 2.0832355291458238e-21 2.4435847274692438e-33 2.2347576873689209e-37 5.9375457901136065e-46 1.410024289694564e-29 2.6534438441985781e-46 7.3075935186831311e-51 1.7061556330556885e-55 2.1118433738927017e-60 1.5155411446633132e-45 3.899180524724361e-41 3.5535590891816798e-29 1.1497478955930482e-36 6.2603146084894626e-33 1.6589995532597798e-53 1.7391718901171098e-49 2.3319174716836907e-58 3.5716957191996486e-70 2.7653709994575598e-75 1.8635277370516624e-65 1.8892650341848861e-60 1.2097176880523452e-55 4.3266137230334425e-51 1.1935188691944384e-55 5.8910999215809179e-51 3.0377698241772937e-60 5.7588826844580364e-65 2.4696363822860413e-60 8.737679002652745e-56 4.0909698014613008e-51 1.278592961740572e-55 3.461939819024156e-51 3.5029479334026616e-60 1.1154809464953889e-64 8.3959300860647098e