<?xml version="1.0"?>
<VTKFile type="UnstructuredGrid" version="0.1" byte_order="LittleEndian">
<UnstructuredGrid>
<Piece NumberOfPoints="714" NumberOfCells="1306">
<Points>
<DataArray type="Float64" NumberOfComponents="3" format="ascii">
0 0 0 0.099999999999928008 0 0 0.082799035591426873 0.082799035591510806 0 0 0.10000000000041601 0 0.066361468125430589 0.15903440181097661 0 0 0.20000000000083221 0 0 0.30000000000124832 0 0.089078158003765312 0.2493007687782936 0 0.140351188660986 0.16130415108589741 0 0.21725788110387281 0.17316968768743621 0 0.17318221359491059 0.27409688392309489 0 0.24783073444672249 0.24783073444648379 0 0.29145143692666958 0.13500804559578439 0 0.20669143849501961 0.085546078947938975 0 0.19999999999983389 0 0 0.29999999999973409 0 0 0.35933948296838258 0.073809900849860513 0 0.43504744109702559 0.077628892606360606 0 0.39999999999966429 0 0 0.49999999999959438 0 0 0.59999999999951659 0 0 0.57505385014294308 0.072457888465917331 0 0.50264032148191051 0.12292784096123539 0 0.49255105193724569 0.22337579986912359 0 0.5565830077206213 0.19095699352548859 0 0.58612580217118482 0.27813894450229909 0 0.41589935411558732 0.26752529264016389 0 0.40428440976105728 0.1643886070295453 0 0.33604819894646598 0.23280286076243209 0 0.34318159319555042 0.3314386771104964 0 0.38593969585746768 0.44843324941957241 0 0.42544665781957403 0.3726599289372452 0 0.49272830291620878 0.32528628960011152 0 0.56509579243166053 0.39588847936247551 0 0.47711113382803011 0.43513410852522788 0 0.55763912874459476 0.49619993861770217 0 0.56379254693201075 0.58472273515948836 0 0.46433624429412901 0.61260020600107856 0 0.45232393232070839 0.53082724112931345 0 0.34793494568226019 0.52426775179830853 0 0.38240158409674341 0.60644575028138747 0 0.27661118526457179 0.58730386222759956 0 0.16324260003398389 0.62262730759772122 0 0.1946526892501724 0.54636184660733622 0 0.27220668248394869 0.50912429725145214 0 0.29987747321592639 0.43430880093746571 0 0.2371857680100064 0.35865548441110112 0 0.16486701364709541 0.41592657376307979 0 0.21928696632013719 0.4676461135047027 0 0.083393126324559225 0.42307471369029392 0 0.13897501191807771 0.34545639364066222 0 0.0632094674441709 0.3449112819864934 0 0 0.40000000000166441 0 0 0.50000000000205869 0 0.12353277228144981 0.51086097771927308 0 0.070553891733833127 0.57745844360881338 0 0 0.60000000000138687 0 0 0.7000000000006934 0 0.089684836063650353 0.74720097194875412 0 0.079752623936563252 0.65630726580969023 0 0.25446499951716589 0.69023946426646743 0 0.22047232289835689 0.77501739045979867 0 0.16551550920047911 0.70947866912672319 0 0.29792158491427922 0.79537096033156995 0 0.2235202862591317 0.88873896332704583 0 0.1332109546178302 0.87498377138822103 0 0.1533088418661793 0.80370257472597129 0 0.074918724681641777 0.83311952320732263 0 0 0.79999999999999982 0 0 0.89999999999958358 0 0.075231054453351903 0.92314074346405706 0 0 1 0 0.14716362552681639 0.93861610753355362 0 0.099999999999999645 1 0 0.19999999999999929 1 0 0.30000000000000071 1 0 0.39999999999999952 1 0 0.49999999999999911 1 0 0.59999999999999964 1 0 0.5499999999999996 0.93976792513729512 0 0.56701461556202259 0.86335846433862784 0 0.62017612851329729 0.81451802170669263 0 0.51076728641122882 0.81691863363193817 0 0.45907587517201498 0.90165918271477563 0 0.37337282601342481 0.92616598444216514 0 0.31535921456193688 0.88154045330654418 0 0.36912581253574028 0.83088590731704637 0 0.43819239467549531 0.79296936871720936 0 0.33985912385126898 0.73174041004507751 0 0.32437633398017029 0.65970549827478953 0 0.42824324229177341 0.6924957961634054 0 0.5174764925733939 0.65338828204098198 0 0.52912171753951986 0.73993242892488531 0 0.62152629835360762 0.73285157302339954 0 0.59670004617370476 0.65981579440137683 0 0.6754414170471299 0.67700559910555169 0 0.69085763855200755 0.76120667115691065 0 0.74547688787239819 0.70026419381674654 0 0.81910554849723838 0.69100245438023977 0 0.90192269692920224 0.70295054578552552 0 0.84477163403336131 0.77519844632340484 0 0.91372311269140116 0.80486176357476358 0 0.93540888248908083 0.88281232945237675 0 0.8793859710393791 0.93083561064221121 0 0.82192606283926717 0.87651855948129354 0 0.73937541854631073 0.9288754054780668 0 0.76404828705430583 0.78174230667165401 0 0.71722872346306721 0.85096302760907838 0 0.64588148000090029 0.91512139508160772 0 0.70000000000000018 1 0 0.79999999999999982 1 0 0.89999999999999947 1 0 0.94997493298435887 0.94717135651053852 0 0.99999999999999911 1 0 1.1000000000000001 1 0 1.1999999999999991 1 0 1.246238897717278 0.90016207822659 0 1.2104878010462079 0.79638517641579154 0 1.130022579458912 0.80264790230838934 0 1.1492841477515361 0.89495863909300122 0 1.035017143854235 0.92577305964649748 0 1.039491394416145 0.83402983011495258 0 1.0785590511537511 0.75365885686631617 0 0.98491966670915287 0.745702719141624 0 0.9749171938312049 0.68304286407835557 0 1.05 0.67063679245255348 0 1.1595355377629719 0.69612720023346242 0 1.2316049928421089 0.71268197388690568 0 1.160572984923127 0.60155304747043781 0 1.1544259370261769 0.49580194535795907 0 1.2482752740169289 0.44264463249545388 0 1.1787318575418491 0.43180077319900678 0 1.193211192060164 0.36417169501775798 0 1.11366617971111 0.39530889117858181 0 1.049999999998295 0.45311778235774403 0 1.0499999999982661 0.33749999999944968 0 0.97284972811175952 0.32057650487681749 0 0.97803218086495292 0.39957666910545891 0 0.95438428234324713 0.50021891445525024 0 1.0610070115193291 0.56187728740506249 0 0.95554667482020261 0.61387123313571723 0 0.89730215834238125 0.56352362508531118 0 0.82099888937423493 0.54529350322201742 0 0.85383906663538056 0.62014574817393608 0 0.74991769371388628 0.60451627361984739 0 0.65500944633069913 0.60601350811213128 0 0.66278242936710119 0.53985356489900171 0 0.74775703275407246 0.49059679564787018 0 0.71094001953927277 0.41472992215547572 0 0.64897033023755402 0.45530630145656431 0 0.65823561246403328 0.35502292901158627 0 0.83603391221093415 0.31708941802047369 0 0.79315209058920677 0.38802315963964318 0 0.84897848255088726 0.46000674997733482 0 0.9184189969982266 0.43608586792060411 0 0.89716106756302072 0.36571612550017968 0 0.91043121937362004 0.26518856856736223 0 0.8520969719592798 0.19112077159544111 0 0.81051762114363357 0.25355176211442859 0 0.7545004114404561 0.31098089234202853 0 0.68811979868824935 0.26566684131589419 0 0.64669101990832323 0.1799054750174742 0 0.75284581776561577 0.20455093921856349 0 0.75434135135171976 0.12888799631625769 0 0.66267222434682926 0.078497159578092612 0 0.69999999999928797 0 0 0.73796379772146625 0.059893436010741673 0 0.79999999999899607 0 0 0.8072276847200428 0.07509171132446453 0 0.87151744524583186 0.1145610820769897 0 0.89999999999870417 0 0 0.99999999999841238 0 0 1.0527907183502181 0.1005001786211816 0 0.95940036225003311 0.0802667348803804 0 0.96758455917765662 0.17206502793490561 0 1.0273907165533489 0.25089655084417212 0 1.0673059847957449 0.1861726764986896 0 1.14543293599463 0.16096823716187 0 1.1317936052402791 0.27327200211975772 0 1.2189485028845071 0.28846717556219142 0 1.225209211892335 0.20648826945283069 0 1.09999999999812 0 0 1.1494214575391031 0.075340014825429069 0 1.199999999997829 0 0 1.2999999999975369 0 0 1.254652873386052 0.105753482544517 0 1.3681535985071449 0.13698083382674339 0 1.349999999997392 0.060567969661089648 0 1.399999999997245 0 0 1.4999999999969531 0 0 1.542152768646126 0.073248247890105089 0 1.53341268746562 0.14194251306413061 0 1.456639397274391 0.1016053838939758 0 1.4156792278190771 0.19574754335211339 0 1.4905184776249101 0.20629734327603311 0 1.545236949037224 0.29434567071731399 0 1.473286192129879 0.27883707652097373 0 1.3878996413210389 0.26723502210068018 0 1.316869459340541 0.18778020585802921 0 1.291408388555241 0.26372433042992383 0 1.2615469736996101 0.34090999671933891 0 1.347125314110625 0.32447518420453242 0 1.385017785528226 0.40713366384701549 0 1.3198129865007471 0.39133224900025881 0 1.2709684905841181 0.55537862536316829 0 1.3860523322451299 0.56073196187600105 0 1.3462106466432811 0.48060664220838062 0 1.4795754400412069 0.53983964974648579 0 1.445918816848357 0.6075709531782556 0 1.5386621965636409 0.60828218080060537 0 1.550364457075788 0.50467902559054656 0 1.551956040519719 0.40384519109247291 0 1.4491802319415681 0.4666714614197911 0 1.4507225717793131 0.3561247496431208 0 1.6419306970571019 0.3436055112169133 0 1.645895854313963 0.45222881216869149 0 1.645263810758179 0.55814977621663464 0 1.7537858687071439 0.50406839622489796 0 1.742806034420483 0.6006074591026016 0 1.8544400981153091 0.62488101477716596 0 1.8316048184152021 0.54157006606434721 0 1.850967139686138 0.45738417241574703 0 1.7808296409871709 0.43587276890434401 0 1.71976181471802 0.39635806210359681 0 1.787749129254824 0.36176402170097799 0 1.8620515405159661 0.32644761881501039 0 1.799219293849516 0.26438879273789773 0 1.8480644103363271 0.19193194889233381 0 1.7304700827703301 0.17386188770806579 0 1.714493154391862 0.28897291620938281 0 1.6351951680630969 0.23707571199064051 0 1.567491488875842 0.20218805454405439 0 1.6799832100487111 0.082202015566833181 0 1.609545399082946 0.1308291592921435 0 1.599999999996661 0 0 1.6999999999963691 0 0 1.75369588639865 0.074917217572982864 0 1.8299024103288899 0.1151394713368583 0 1.799999999996077 0 0 1.8999999999957851 0 0 1.894432874635162 0.07551835003504323 0 1.9999999999955109 0 0 1.9480526939991849 0.12898730409406539 0 1.949071218763063 0.20551835056699769 0 1.889482378851052 0.25355176211435237 0 1.9370762551310139 0.30659376302738528 0 2.0131266155023031 0.26735551396116869 0 2.0579369465445829 0.18492358211896681 0 2.109175777466048 0.28747319291998968 0 2.1529249143000921 0.20760117016104621 0 2.145863811971962 0.09449602309195497 0 2.0499999999955518 0.089783354580979427 0 2.0999999999955929 0 0 2.1999999999957449 0 0 2.2631085279260659 0.078835433122263737 0 2.2171573042311432 0.14903409558359759 0 2.2999999999958969 0 0 2.3999999999960488 0 0 2.
[...]
<CellData Scalars="A_conc,As-lin_conc,Bs-lang_conc,Cs-freund_conc," Vectors="" Tensors="">
<DataArray type="Float64" Name="A_conc" format="ascii">
3.1277012853722033e-10 4.5825129812211859e-13 1.104745171344952e-12 3.4740347971069655e-17 4.1931477795413424e-20 3.8444427895986616e-23 2.1181293448680594e-26 8.41250419404293e-28 2.5148713277238508e-31 6.3649746256579536e-39 2.1711337474056792e-32 1.2535933852258785e-28 1.0413133727477329e-24 1.9272647577717214e-32 1.784285793755597e-25 1.6969706476237992e-49 1.7005661330293325e-42 3.4406123181635543e-29 3.7867280332212587e-26 2.0926690572089749e-18 2.0110099855112052e-21 9.0854083549924108e-10 1.5580891902563303e-09 3.3445545629722783e-15 2.68317868722501e-12 2.1451253674764037e-09 2.6511838251919905e-19 2.9819514281551644e-16 2.8570992270061845e-18 2.4070612315172515e-09 4.7660817208161778e-12 5.2408226997659719e-15 3.1880361230390266e-12 2.7136510844445906e-09 4.3485270840007334e-12 2.8700808298891376e-19 3.2244977783289619e-22 9.8057107241129944e-102 2.2256887246019608e-25 5.1344057905591665e-98 7.7724702221482012e-106 1.344051302680782e-109 4.2798804616600327e-32 1.2765778984153092e-28 2.4181408486344584e-35 5.8108992690113579e-23 4.2778662589635225e-39 2.4359696196882413e-120 3.4705722034721625e-124 2.0071127277668116e-116 1.6613243148691546e-112 1.3206597742527119e-113 2.0757742725063361e-117 7.8639321590459019e-109 4.6851791856121202e-101 7.5980663920773909e-105 6.1625021907676224e-109 6.9220121571679632e-105 9.2667014988975217e-113 7.576356272070489e-117 1.3615016462215172e-117 1.1881519828228289e-113 1.4981193093253389e-109 9.5711222110688729e-111 1.1291705554967781e-121 2.4474640023833686e-118 2.6704280312542474e-129 1.6060492503787025e-125 1.1975568473762708e-124 1.0296655333148152e-120 2.2078946531010972e-128 9.8526957969894099e-130 2.9498870151402356e-133 1.6396935527844575e-140 1.6337680120779269e-65 4.1630189423892981e-69 5.2535044885587846e-144 4.3860275864415795e-140 5.404581395646367e-136 1.2868386517420742e-136 3.525139156642864e-132 4.0857369730732922e-132 4.0941706974472384e-128 4.0520619473189318e-46 5.4034368483038078e-53 2.8443588957349597e-57 6.7963429827554804e-136 4.8842546880104935e-140 6.1390234883115526e-144 8.3208550920416148e-61 1.2341528866841873e-35 4.4235484779489137e-41 2.0279344545445442e-44 1.6052740922476101e-42 1.8321022484694521e-48 4.9522707462444755e-148 1.6676837534637744e-76 1.1427080992059131e-56 1.1232986621255059e-72 3.8414850453077178e-60 2.8411959950097988e-64 8.8748422569049519e-43 4.5632287188543929e-39 4.9833685384408732e-42 4.4554640614698721e-32 9.9236255771886237e-36 8.9131155043001825e-53 2.677099306665402e-49 1.5056783714440683e-61 6.4725533921531682e-58 5.2682921671421564e-54 8.9039607785260893e-42 1.7316772670358257e-38 3.5786732212267061e-45 6.6066041020233706e-29 1.7441934239216651e-28 2.5492407500859628e-25 3.6102552641800774e-19 2.7955506385012361e-22 4.6159292418513534e-15 3.3105915084948815e-15 4.2180951866999524e-18 2.8140143968723345e-21 4.0990603367862043e-35 1.1904771390370067e-31 1.976421283323413e-38 1.1187400620987784e-27 2.3199077562740225e-24 5.181965285148644e-10 7.7555681612199909e-13 3.3199429643461575e-12 1.8999858528039769e-09 3.365359259168533e-12 1.5122050253119085e-09 2.6768312237144382e-09 4.5108279339094118e-12 2.1858281164691498e-09 4.3472137879256226e-12 4.660104402018536e-12 3.6369401920918412e-09 1.8217403870351036e-15 4.474612905805577e-28 2.4652265229096349e-36 2.0049719552728695e-31 1.2238958050720032e-39 4.4085339511485926e-25 1.6007639139670337e-18 6.204843817356615e-22 1.4644130862448705e-15 3.8299869536047838e-12 2.2820593333140591e-18 7.1105043658069332e-32 1.5197440306459456e-21 5.0237165507186069e-35 3.1188725690191518e-28 8.4382004028826068e-47 2.3846340105671185e-43 1.4343333424363671e-50 1.1188700411640697e-125 8.3871462790371386e-122 5.9597416281710095e-118 7.0594365937632769e-114 2.3599856850827707e-101 3.3267179080221917e-106 1.6007100286045174e-114 5.2150629274748546e-110 8.2507718810861483e-107 4.4232873463775115e-103 7.9066571949880846e-106 5.4729020276996114e-102 1.5200449683915881e-97 2.4514229827922841e-98 1.4945375241060701e-94 6.5892877941728401e-91 1.3776745768685874e-95 2.8858680529090176e-99 1.3358016393401924e-93 9.5851844015748621e-90 4.4802566808515116e-86 4.6405927306429596e-78 1.2593401890199642e-81 2.3168529645564477e-85 2.7625608856668422e-87 1.7036148145258775e-82 4.3527204134180316e-75 7.5933958049448385e-79 5.2096648459454796e-78 3.3162844691910412e-74 1.6553696105547081e-12 2.4751928764246301e-15 1.4913156372699527e-18 3.2459198869453459e-86 6.0507460752615317e-90 1.0896638800648043e-93 5.4380967162834631e-25 1.207568001667242e-21 2.6259163263568972e-09 2.7955971470651041e-12 1.929162882168346e-09 1.3540112202986982e-09 5.0940390632430152e-13 2.9925686102452578e-10 1.0256779741384362e-66 3.5182667668018868e-63 1.5197041312960441e-59 6.1648629703638028e-56 8.3108615209732179e-49 8.1672977589822352e-56 2.349525117837652e-52 2.9620806592187771e-52 2.6240052618941983e-59 6.2576767839747666e-63 1.0487717173004927e-63 2.2531885288256879e-67 1.1306343614282485e-70 3.3436393732293282e-74 2.4785609807539538e-71 8.65637666904927e-67 1.8359732080059104e-70 3.0224964885683333e-71 2.2581952444499513e-78 9.2188125123521351e-75 2.5846102050198851e-82 4.9227213737576219e-79 2.0563123549730562e-68 1.3285607482098131e-67 2.4839917002632548e-60 8.8411853150880069e-64 8.4439174941971338e-57 2.4540308370904214e-53 1.0333880320376661e-64 6.6506315645739741e-61 1.4262176956267524e-80 7.0901564947644505e-77 1.3602756320071464e-80 7.2525394536187853e-73 8.123673271569252e-76 1.4444810326030272e-71 4.3263623694409519e-68 5.0025762388655726e-64 2.7049613126133342e-71 9.450984537555526e-68 1.461856797124015e-82 3.8889789799472558e-75 7.1620020178717796e-79 4.1680126684106996e-75 1.0806228499812939e-78 6.9147369333830149e-79 2.914619927100345e-75 1.209002464046013e-82 4.0209160946991529e-86 1.4776241796520272e-84 2.4980665587410198e-88 5.1072768092889916e-76 2.607924409578344e-72 4.1134540818928236e-80 1.9743963353585906e-87 1.2668234129305797e-83 1.5179989848668985e-87 3.6349398136409119e-91 6.1988366978859974e-95 5.6868102980087917e-95 3.5496962437534094e-91 4.1358538451673842e-110 2.9209284331328009e-106 1.1064902958689347e-105 1.2255842387694739e-98 2.0441244598956013e-102 8.5715226264543714e-98 1.5039978774722668e-101 4.4886089475230369e-101 1.5972460869511413e-93 3.0634365086165642e-97 9.8210995138363705e-90 4.8802024852790234e-86 3.2501506650091779e-90 4.0450624916902768e-94 1.8540520062742725e-86 7.8784015014935961e-90 8.3743673865750597e-83 1.4422203106567016e-78 3.7962685805646653e-82 1.0393649068013427e-74 2.1212020405319645e-74 2.5238611713278638e-82 8.58762527067135e-82 4.3615619751377028e-78 1.4919046174254002e-82 3.2023669012115085e-86 2.914809437057955e-89 1.1792704972353673e-85 2.8673390407524311e-94 4.2987615484838058e-97 2.819045246009422e-93 1.991984101050662e-90 4.0174465718361291e-86 1.097708852171826e-15 1.2028846092901832e-18 4.3533130494927738e-22 3.2029903733979879e-16 2.4573981228809966e-09 4.5779803194642828e-12 2.721903203012127e-09 1.3828721302239227e-09 2.9874308737696319e-12 1.7081021175900251e-78 3.8062557425435688e-19 7.8029076440393513e-71 4.1420651905579542e-13 6.1222480269703363e-16 3.2341250812427586e-63 3.202187522491024e-10 1.1562292729082574e-59 9.3057417280014421e-64 3.9125679734454472e-60 3.4313637322736859e-67 1.1220038914470511e-70 9.7818321458833583e-75 5.2727308170912902e-71 1.8544719569858526e-67 3.2375476683312062e-63 6.9335259756702765e-67 1.2283630921979229e-59 3.7479194418369067e-56 4.3506941039482397e-64 8.6418041444527397e-60 3.1019544616884283e-56 3.0062549781406486e-52 6.753361180204425e-53 1.8561610647898166e-56 2.0263372040856817e-52 4.6994054961363282e-56 7.2135004069962597e-49 6.5468695713705885e-42 2.137612329610813e-45 4.5392767219521506e-42 3.4905432269216319e-45 1.3564200357430264e-38 6.2933410175407933e-35 2.4461686236369013e-38 1.2285821789491254e-31 2.5675580337176495e-28 4.8392109366340321e-25 3.57989217557637e-28 5.4277915140695184e-25 1.0355694080474782e-31 3.3077457979584064e-38 4.5459901347869435e-39 6.2207986118140212e-35 1.3893351280823881e-38 5.017414763074991e-39 2.8579650808780298e-42 2.4481645862783427e-46 1.1528272393922295e-46 2.0865629282583546e-42 3.632576944531035e-49 1.8487136141110939e-53 1.1225557881192966e-45 1.2713606525345862e-41 9.9613483822218274e-49 1.1950371416473062e-52 4.8190945319076492e-57 1.8851740260427034e-60 7.3078127124401261e-61 5.1756117480585203e-54 4.2869596370245741e-50 2.3425415659684795e-57 1.6852081786417765e-61 5.3195590376961391e-62 4.4992484596564751e-65 1.2930601093469857e-64 3.6663978420271875e-69 7.7258772382249775e-77 3.4487540308202021e-73 1.9506421241596879e-69 2.2457903739956362e-111 1.9025752196560467e-107 1.2924558784633656e-103 2.7312043065433408e-103 9.7880862803387968e-96 1.5848003759968608e-99 9.2182029254502828e-100 1.1043751493671652e-96 2.5510197699481285e-58 6.3198306352824649e-55 5.3107255599646224e-51 1.7282778067988742e-47 5.8796028009411332e-111 1.1547252857198371e-106 1.2365753791440827e-102 7.2286315100317328e-93 1.662426653966264e-110 8.1067820051827049e-89 4.2061127016194198e-92 4.539860963116195e-88 5.4193447149578709e-81 2.8027995901908054e-84 4.5472687663492182e-85 2.9731388188277763e-77 2.0338541820169322e-73 3.0030546324086623e-91 1.5965744578750795e-99 4.0635112847555429e-95 7.8977922930641112e-99 3.5324757706559727e-103 3.3339267144871768e-107 5.9853541733570041e-96 4.6162680121472e-100 1.4459846580420067e-105 6.1057054271415258e-34 4.8958372567870154e-26 5.0826181688061384e-30 8.0830256519918906e-104 2.3518120045330682e-33 2.9054406535536484e-40 1.1021899199621821e-43 9.8091559106656832e-36 2.8347404625350934e-35 4.5976458871296227e-32 5.69797572896237e-29 1.1665536739894763e-36 2.8784281417458606e-25 7.8097418810646774e-22 6.8053928905069025e-19 9.1760627801184906e-16 8.3749658481175193e-13 1.0819383244015392e-15 4.5128880054941463e-10 4.5167926857937548e-22 4.4846736932116512e-19 6.4986199541998189e-13 5.0629142398476521e-10 9.3838601884796388e-16 6.5016672857911107e-10 6.4387988372200746e-13 3.216726882612536e-20 8.9537558457258154e-23 7.8622499519075709e-19 9.6028152220335687e-27 1.2448837986090798e-30 8.697446781415481e-102 5.6116303972049901e-128 4.0472751921703247e-120 2.6238275398508535e-124 9.5789737006701357e-125 1.5627066707753223e-23 5.4669985445599584e-117 2.7366767736368416e-116 7.8470457665185698e-121 4.590488823600822e-113 1.5364275912588576e-151 1.5031348238020101e-147 3.8746100921036917e-17 5.4394300543063243e-10 6.8166464418858526e-13 4.3530363962642582e-10 1.4730366496641335e-10 1.663474984004647e-13 1.3260681391703245e-148 1.2346714335108822e-140 1.4404714891765449e-144 2.7881754066376717e-143 2.7118794493060544e-139 2.6708024345904889e-135 2.8591709697153296e-131 2.6474774928805234e-127 6.748202152273802e-133 6.7861407665032374e-125 5.2515651882360821e-129 8.2640594023079218e-133 1.2452978392662066e-136 1.540605483922778e-131 2.9023787520666489e-132 9.1320841681687798e-129 2.131199824187029e-128 2.3719632320156986e-124 2.1157524565487463e-119 3.7426615463634041e-123 5.2452849036312778e-127 2.3801547765137152e-135 1.6831291886942161e-139 2.0008890438477781e-143 3.0211237569559635e-109 2.1512239988058662e-105 1.8040751696998523e-104 1.0468753766117455e-100 9.382043715965233e-97 4.6050722177447878e-93 1.2566373726159146e-93 2.3050197686463284e-101 1.334330667683717e-97 5.9397456170440195e-90 1.7651323775683559e-115 3.2799925972768939e-86 1.296134378685298e-82 2.2058074009663405e-85 2.0059008549120832e-81 1.1736781749725077e-77 4.7017870272328061e-77 1.1317753528915519e-80 1.5746335458248248e-84 1.7001615436112572e-55 3.9657896800518392e-59 4.9539928144440128e-89 1.4398696025962156e-63 3.7256601219716359e-67 9.382373876990524e-71 3.1566352395786245e-54 1.2121020272653405e-57 3.2835044972073891e-61 3.6583407886439994e-68 4.0215633225984741e-72 5.9891696337994989e-69 6.4443844117725828e-73 2.6378666224554557e-65 1.402846612991017e-74 1.7874819018288099e-108 2.5147830184018114e-112 3.0816069602460695e-78 3.8637670152425705e-82 1.9517003893596162e-80 1.1070281135539648e-85 6.5768832800051267e-94 1.9319116146554606e-89 1.4462581231173893e-97 2.7450015502324828e-92 2.9578899348272726e-84 1.7492357693467279e-88 1.5990873898468969e-87 1.387774464393558e-76 1.2571204892183557e-79 8.5354320944543479e-76 1.9032077778652419e-83 1.0324170970270694e-69 1.4730896278295141e-65 4.3771019696737126e-69 5.8834623006038825e-62 1.990851336472997e-75 5.2057123859452473e-58 1.2942686524947728e-54 3.4048859451593648e-39 7.1224791803220887e-36 8.5370997551232698e-23 3.1524235713831747e-19 3.7859796618061855e-16 5.0817056606960623e-29 3.2607305945236414e-32 1.4931080681708301e-25 3.1076761185572246e-18 5.4629871863533893e-19 3.4824768234597264e-12 2.603412272338652e-22 6.0649396462752096e-44 2.0685506071935811e-47 7.987228232845577e-51 1.2740390772821267e-64 3.6369412363020808e-68 9.8844251238511096e-72 4.962472239573696e-61 1.2146578381227929e-64 1.5048621923165518e-57 5.7718041361380018e-54 1.6602029375808094e-40 3.0313212031975719e-43 3.9832110115520963e-47 2.2684664765933887e-50 1.4945263906108703e-51 3.3759399480815729e-48 3.5908608234333318e-72 8.9980453299593732e-45 5.8618825386250855e-40 1.3694361701415252e-36 8.6092827243424134e-40 1.7812958573171133e-23 5.7024832485090344e-36 1.4627345745703739e-32 6.1991556023014508e-20 3.3308800877986244e-13 9.4897792078902417e-27 3.7254685074645535e-34 6.6603530746914488e-30 3.7958348882684988e-33 5.0140185355234376e-37 5.2893125467529486e-16 1.9587161510801648e-12 1.2433151131057763e-09 2.8390155261283391e-10 1.4737283386983975e-19 1.6705204237002358e-16 2.4014962800177587e-09 5.3559260364463616e-15 3.8851176705411247e-09 7.785317055159128e-12 2.4690474991146197e-09 3.0281181838162315e-12 4.1557651016920847e-19 5.2180287968885846e-16 4.7623606319474381e-13 2.1555921314199264e-10 7.857985435169015e-10 1.3321903370401894e-12 5.7792897190258863e-16 1.0191882611769767e-16 7.1025328262803593e-19 9.3467131193158601e-23 3.0701408873496386e-32 5.6059416192388669e-26 4.8410157739466247e-29 1.575290661578678e-42 5.0362620273243945e-46 9.1861760740524655e-73 1.3605716717437236e-76 2.2164315599074805e-40 5.4239481607609036e-37 5.0549380207216528e-44 2.1818619701940146e-80 7.0846360950945709e-55 7.9142186249308e-51 2.185641026873305e-47 2.6893189469010062e-26 1.1596207828156666e-29 3.4599817007984439e-23 5.771057437277873e-26 1.2175863583547675e-19 4.0769895484738314e-22 1.0662637733857672e-25 6.4723636490456983e-29 1.3807966657202088e-28 1.0868308665362759e-38 9.7972532345771572e-36 2.0780085288425828e-39 2.0276651296042522e-32 5.9886562429587372e-33 1.0964756623007279e-36 4.5683916610311835e-40 2.251588696912388e-58 5.9222296229448749e-62 1.4347980735644141e-65 2.334262952247344e-43 7.6378083914270359e-43 1.815429110205055e-50 5.773474777522864e-47 4.7307663359038706e-54 2.083067849292009e-57 2.7779947924208373e-46 9.9509495716346988e-50 2.0759206604914587e-45 6.3485296475622232e-42 6.3750989350480412e-42 2.7511489323230132e-45 9.557486054860435e-49 1.8667486195801298e-38 4.8025405985975131e-35 6.6072051103457509e-32 2.5262227088022079e-25 2.8727449775430159e-13 3.1473771045822847e-16 2.4804097202144938e-10 1.2878626155274148e-10 2.4019728996787415e-13 1.2667052117348971e-20 2.0145789394784445e-18 4.8728579307233267e-26 3.2269353286356361e-31 4.06926979613486e-15 1.1795262870571729e-18 6.493514661218926e-24 6.3133236791582112e-19 1.0185028393733619e-24 2.7787217180535738e-30 2.5826867315506094e-29 8.5995256414585815e-35 5.4242098091003887e-40 6.3942440113132034e-47 2.6434912690931259e-45 3.7685388841925912e-47 5.7290272981486487e-23 1.0919979035298538e-41 1.5844067807463668e-36 1.1390756102100922e-16 9.9098662582138384e-20 1.864514445710657e-23 3.0501248971138986e-19 1.5188156103773661e-25 1.2401460042849439e-29 1.6445008618028591e-26 4.2065780560218641e-26 2.1330989394928401e-52 2.4147336471462915e-30 1.83147146092119e-57 2.0716255637378532e-52 5.0925510811019906e-58 1.2065889995301361e-37 9.2404473372472585e-45 5.8498514163753317e-41 1.4938241987042709e-33 4.7160082814848133e-40 5.3160742232486338e-44 5.1920766291194377e-48 1.8922109197490423e-51 1.9740838483806109e-47 6.4598358220001342e-51 4.7075866384205046e-47 6.3591121186106915e-39 1.6013454941374007e-43 1.0613380157820515e-36 6.2115906088505808e-33 3.1237900454674055e-32 1.0468737518769558e-28 1.9417136955944999e-35 1.0200335021336058e-13 8.0395608304852089e-11 5.0092469983989805e-32 2.2125614620206411e-22 4.1099532502279222e-11 5.0983819899804669e-10 1.0381197214416264e-16 5.9828302677392797e-10 9.733253755963217e-13 8.4910268339939948e-11 1.5247371934580024e-13 6.8212687930420065e-13 4.8131862650816256e-10 8.7418977766674488e-13 5.3135106573986417e-10 9.5347383772888646e-13 1.2663000303387024e-32 2.611105172958969e-29 3.6757860323238244e-46 1.2702491963357038e-49 2.9638446908756472e-23 2.7583979646806204e-53 1.2874704324891428e-16 1.7045980993942342e-19 6.5174299449000777e-26 1.3052269652543292e-22 4.9547094211292785e-29 5.5241477010425642e-17 2.1896056174133571e-26 7.554600135189588e-30 1.7199564317511653e-61 3.9894052396307115e-33 4.2476206372075283e-65 1.4370677562897042e-68 1.0404385061198114e-55 3.0122342902847442e-59 6.7855308425233171e-58 4.0584320897045727e-54 1.4455378563547087e-50 4.1395631747848434e-52 4.1473264692576006e-45 1.4809108181220324e-48 7.004309118989549e-38 2.7800339021081912e-41 1.582719449044557e-43 6.1177652667253413e-47 2.1513826766592885e-39 9.58439347987987e-43 4.0404366268494986e-26 5.896050346941494e-23 5.7416466888127236e-20 1.4174797483828169e-32 4.4468015144758544e-36 3.9774326336441482e-33 2.1874719196368299e-29 2.2509783030748866e-26 6.4918993038138093e-14 1.4948668547237444e-16 3.3221119471866766e-20 2.963911200930717e-23 8.058072939409269e-28 4.1951560254732772e-31 2.3581907342218788e-34 3.7736143093217725e-65 1.2155361504749885e-61 1.5989244540449943e-54 5.2846811491878207e-58 6.6579035874352802e-62 5.4223522832015295e-69 2.330793090259949e-65 5.4340727935769776e-69 1.2693992308002941e-72 1.2290961077351166e-76 5.7623746137548756e-66 1.4600240877478049e-66 2.1257871765041822e-70 6.8970468014217149e-87 6.0851508577227264e-87 3.6817712151709852e-83 3.6186678132451432e-78 9.6157361103965845e-91 4.3386139611471802e-74 6.4389109641809516e-82 1.1315299770368249e-89 5.5771971351239512e-86 2.0563490822126116e-84 4.768433241959352e-88 1.3841282584647628e-76 2.3779650856260104e-80 2.3787299359492745e-80 1.3444959333371094e-72 1.0415312867683865e-52 1.6856390073695733e-84 5.5862680082225361e-92 8.9057299974730124e-60 3.8040617746125216e-56 7.3041721069168522e-63 2.393685476385953e-66 5.614197296214363e-70 1.5622811850159321e-73 2.1254014220305305e-70 3.8309356385313429e-74 6.8388862984965797e-67 3.7091706425362594e-63 8.9858303734373022e-96 4.8265690646320779e-100 7.427368520673943e-104 7.1815168060600234e-79 6.4592519379747786e-108 9.9282322005513282e-112 1.4380088436356121e-99 2.6306492825871608e-103 1.6621737836825809e-107 1.4096689911137201e-95 2.7654126963588327e-88 7.8695862646546865e-92 2.1420135389928079e-93 4.9870817221213281e-97 2.0205770524427776e-97 7.2771340001638139e-94 2.4458648845452803e-101 4.2893706672121283e-105 6.1396000539004142e-101 1.4079420036212868e-104 2.6464412130890157e-111 6.0586423168935412e-115 1.7371009049128277e-120 9.2491365953596588e-119 1.4925407777812567e-116 1.0722739518774181e-112 6.4693067283040691e-109 2.6186633586954053e-119 2.7609728867484465e-123 4.032512960783803e-121 1.774617302090678e-123 1.5396404974825415e-119 1.3922540338504941e-115 1.1279180865494649e-111 1.9420793474884095e-115 1.5383981444908202e-111 1.1208938449728856e-107 6.2748759926144115e-104 8.3267305065587985e-108 4.7943876292655785e-100 3.3460142578750752e-96 2.1997467551118157e-92 5.4101852164279933e-100 7.8909487021260095e-104 7.0113874560625723e-104 4.9037331831355861e-97 3.8873592558501169e-96 4.24