<?xml version="1.0"?>
<VTKFile type="UnstructuredGrid" version="0.1" byte_order="LittleEndian">
<UnstructuredGrid>
<Piece NumberOfPoints="568" NumberOfCells="1054">
<Points>
<DataArray type="Float64" NumberOfComponents="3" format="ascii">
0 0 0 0.049999999999899652 0 0 0.032369857048753323 0.032369857048862027 0 0.058433525112266523 0.058433525112214509 0 0 0.050000000000207989 0 0 0.10000000000041601 0 0.040058458469319477 0.094457855579157729 0 0.098076845682915317 0.099172414730993488 0 0.094457855579284614 0.040058458469418363 0 0.099999999999814668 0 0 0.056452228708379938 0.23456580837661581 0 0 0.20000000000083221 0 0.038839999600931263 0.17949825993190149 0 0 0.15000000000062411 0 0.054872692726595548 0.13410685639845171 0 0.089689702191541126 0.13851380458662241 0 0.12294765968567151 0.14825146416195439 0 0.08287507656968085 0.1788186348829835 0 0.099694771212264055 0.22074048840547039 0 0.15899695163321451 0.22783674912227669 0 0.12587517708284679 0.1889683322666954 0 0.16901316006868169 0.16800219386663079 0 0.18922011052115781 0.12644206653611201 0 0.22626394058331961 0.15465946819838111 0 0.20596721135052939 0.19972517895396219 0 0.2115548431873881 0.2417444767741872 0 0.18035159017842109 0.039190336535090492 0 0.14999999999970359 0 0 0.1383574446607988 0.058995933918849157 0 0.1484760565886207 0.1122209074004519 0 0.18172590289758209 0.08161197406129285 0 0.21720615046484709 0.1044394548351292 0 0.23167460333446299 0.05534377469531044 0 0.19999999999955789 0 0 0.24999999999941211 0 0 0.28320804985300141 0.050843339082505573 0 0.29999999999926641 0 0 0.32361955853288599 0.032799927825624707 0 0.36246243089534252 0.044218366607477223 0 0.34999999999912063 0 0 0.35582258519414178 0.085418764257258431 0 0.32242731191769902 0.068937933438140794 0 0.33076700644279272 0.1195922550481146 0 0.29506339503703888 0.1011380892434444 0 0.25714619498771307 0.1041399906845497 0 0.26318949769601319 0.14610173397257309 0 0.29914271679297122 0.15649620970120659 0 0.26017196519013502 0.20370391303005 0 0.30107969069289831 0.20280020009141189 0 0.28840285102268098 0.24960955320708811 0 0.33179683980498331 0.2223019939720311 0 0.33080167595110582 0.18179111300269291 0 0.3603074848216346 0.15401470087110539 0 0.3972892400718947 0.16563993209502181 0 0.43240736009008851 0.18205680965402779 0 0.41732862935313042 0.12986698634362279 0 0.38103425680679859 0.2047839516297037 0 0.42421838472613971 0.22246502005787769 0 0.46229330881044273 0.19890916456654811 0 0.49999999999997108 0.21968641114982909 0 0.45952001838826873 0.15666487330524251 0 0.46567857652706018 0.1143680615275231 0 0.47574662421782782 0.077626823840590969 0 0.48492433058289169 0.037321398276272413 0 0.49999999999869432 0 0 0.44999999999882923 0 0 0.44692795014265252 0.051801877645060238 0 0.40685581827241191 0.041139877312511682 0 0.3999999999989749 0 0 0.39061628640684498 0.081525103161991672 0 0.37516171960683908 0.121918126660369 0 0.43122735573933979 0.088176999192917438 0 0.42930823106401639 0.40626685012722968 0 0.39222057657781068 0.38067796690227418 0 0.39419886675318527 0.41912225240070788 0 0.37702386074717259 0.45819417564476811 0 0.41009598069569558 0.49083935749285379 0 0.42340342337193693 0.44762131874855388 0 0.46152714345798918 0.47344359412352599 0 0.46102425708533701 0.43254199134332588 0 0.46543211128216788 0.38788423543681888 0 0.49854341599767982 0.37075914768127122 0 0.47253211736503098 0.34081710830804929 0 0.48378871228000903 0.29745177826977359 0 0.45533136021725079 0.2525687312087147 0 0.43059486795334201 0.30395973419063538 0 0.39162098771181342 0.29503699292854563 0 0.40180462628983732 0.2561903397585753 0 0.43301393728221038 0.35984320557492139 0 0.39120887188745579 0.33407577688404289 0 0.34804757266227387 0.35750068079406011 0 0.3231032570156932 0.32141443408924047 0 0.3579628846738841 0.25683522786710378 0 0.35481435458309307 0.30398436674998969 0 0.32373692627050221 0.27286413781593999 0 0.29747949118041711 0.2964111573808435 0 0.26014443552207939 0.29262390443653519 0 0.25082138072344978 0.25770010742236849 0 0.28473805236128291 0.34355768118673757 0 0.25582605936799319 0.39507969989513358 0 0.2963043386970643 0.4298320229681446 0 0.30597655500381687 0.3934681685211931 0 0.35481422397128459 0.40312981465069342 0 0.33382663527330159 0.44130125047503482 0 0.33436424489304489 0.47849603121740791 0 0.29988655052531688 0.46700727827593119 0 0.26247584734598628 0.44764943295894732 0 0.262418491288269 0.49071922292154141 0 0.19218127164496679 0.46593838964869538 0 0.23232476702437141 0.46634525369567709 0 0.21968801783855879 0.43306783640023788 0 0.197169318452384 0.38703015239362498 0 0.17845774482872559 0.43087117257049429 0 0.14869578771858949 0.40481452396082068 0 0.1444847662218138 0.45353891581271188 0 0.16001314202358469 0.49771727055909287 0 0.22001518176882229 0.28602682846307981 0 0.19152147653881049 0.32791879770215432 0 0.2360419540479583 0.32191828326940741 0 0.22269553095687891 0.35837423432538801 0 0.15401470087117619 0.36030748482174652 0 0.14392209494791439 0.30620070203545702 0 0.1685376717739448 0.27232483159280108 0 0.1104775404132264 0.2631175359816938 0 0.099492119481027347 0.30746398533281638 0 0.073296788161418117 0.34226957089850552 0 0.11603400219493119 0.33748134585014028 0 0.033457646040922301 0.36364842331228431 0 0 0.35000000000145642 0 0.032220921767546963 0.32901489214487523 0 0.053730171687646627 0.28825077189828552 0 0 0.30000000000124832 0 0 0.25000000000104028 0 0.064893331803534807 0.48669777060454478 0 0.1091992745981364 0.48758069708049778 0 0.097100979577207341 0.43590673999053198 0 0.10935320311385981 0.37839190921727089 0 0.06053051438015096 0.39514626428972788 0 0 0.40000000000166441 0 0 0.45000000000187229 0 0.043612803661092707 0.44006111182840391 0 0.029444907164209121 0.47500000000196552 0 0 0.50000000000205869 0 0 0.55000000000173355 0 0.051801877645083663 0.55307204985745195 0 0.037321398276215258 0.51507566941747263 0 0.07762682384055844 0.52425337578226128 0 0.1143680615274819 0.53432142347292733 0 0.1219181266603569 0.62483828039315903 0 0.088176999192898689 0.56877264426067353 0 0.081525103161997597 0.6093837135931508 0 0.041139877312483641 0.59314418172763017 0 0 0.60000000000138687 0 0 0.65000000000104008 0 0.032357843506722522 0.67660040198578164 0 0.04421836660747535 0.63753756910470205 0 0 0.7000000000006934 0 0.04863291748797445 0.71789175274016204 0 0.091072812796719582 0.74198804864687795 0 0.099018722548963364 0.70475631558365193 0 0.085418764257258195 0.64417741480586865 0 0.068937933438162791 0.67757268808231053 0 0.1195922550481313 0.66923299355722787 0 0.1540147008710982 0.63969251517836956 0 0.1817911130026923 0.66919832404888702 0 0.13725179499972981 0.74154628962856628 0 0.1564962097012354 0.70085728320703999 0 0.20370391303007401 0.73982803480989479 0 0.2028002000914135 0.69892030930711557 0 0.249609553207091 0.71159714897732929 0 0.22230199397202771 0.66820316019503168 0 0.2047839516296828 0.61896574319320252 0 0.2224870800581388 0.57577541371134155 0 0.2196864111498267 0.50000000000003153 0 0.1989632851005598 0.53769147668950479 0 0.1566648733051971 0.54047998161174216 0 0.12986698634359389 0.58267137064684615 0 0.1656399320949789 0.60271075992809464 0 0.18205680965398621 0.56759263990989739 0 0.10000000000041601 1 0 0.094457855579188163 0.95994154153068711 0 0.050000000000207989 1 0 0 1 0 0.030452409610489669 0.96954759038951022 0 0 0.94999999999979179 0 0.058433525112254137 0.94156647488774581 0 0 0.89999999999958358 0 0.040058458469322648 0.90554214442079806 0 0.097990957645208238 0.90045039720880915 0 0.1229476596857173 0.85174853583809695 0 0.086813039193431391 0.81709574086842884 0 0.087041706119416085 0.85382799508926188 0 0.052469033166843738 0.86696410734366991 0 0 0.84999999999965292 0 0.043889462445437968 0.82675923981951283 0 0 0.79999999999999982 0 0 0.75000000000034661 0 0.052938001421335763 0.77688977118331159 0 0.11231692802445629 0.78020430794084028 0 0.16253691950235041 0.78284912262768558 0 0.24335844191347281 0.78651189793387466 0 0.20359074765364421 0.79422489417871855 0 0.22893929024737289 0.83990878992727813 0 0.17101873536300011 0.82898126463696109 0 0.1322615032692282 0.8130603300143705 0 0.14688274318541941 0.88962265630811932 0 0.1817259028976386 0.91838802593888857 0 0.18958721034944021 0.87660297360394568 0 0.22131139331094829 0.9041449437198319 0 0.23222643817617661 0.94420751116970569 0 0.20000000000083221 1 0 0.18045991219397989 0.960710939969875 0 0.13834721989462789 0.94095916274077984 0 0.15000000000062411 1 0 0.35000000000145642 1 0 0.36363861612613613 0.96654491682121313 0 0.32894624184180998 0.96779701826738929 0 0.30000000000124832 1 0 0.25000000000104028 1 0 0.28790752038294382 0.94635952848702642 0 0.26305414557470391 0.88949062093136155 0 0.30738136326657722 0.90051880305435028 0 0.33748026778199908 0.88396545633134682 0 0.3422695708985129 0.92670321183858773 0 0.36030748482174152 0.84598529912882459 0 0.30619531169472608 0.85607519768342955 0 0.27254997832041528 0.8312019486901443 0 0.28602682846308641 0.77998481823117594 0 0.32191828326940508 0.76395804595204586 0 0.32791879770213411 0.80847852346120164 0 0.35837423432538362 0.77730446904312345 0 0.38703015239361932 0.80283068154761972 0 0.43306783640023289 0.78031198216144404 0 0.46634612187967051 0.76767585524061377 0 0.46593838964869061 0.80781872835503554 0 0.49771727055908782 0.83998685797641781 0 0.45353891581270822 0.85551523377818905 0 0.43087117257049001 0.8215422551712771 0 0.40481452396081791 0.85130421228141606 0 0.37839190921727062 0.89064679688614412 0 0.43590673999053309 0.90289902042279657 0 0.48758069708049379 0.89080072540186539 0 0.48669777060454272 0.93510666819646593 0 0.44006111182840962 0.9563871963389079 0 0.47500000000196563 0.970555092835793 0 0.45000000000187229 1 0 0.39514626428973221 0.93946948561985189 0 0.40000000000166441 1 0 0.33231497408081678 0.60779218732873663 0 0.37104651296145419 0.60545170748311072 0 0.35984320557492089 0.5669
[...]
<CellData Scalars="pressure_p0," Vectors="velocity_p0," Tensors="">
<DataArray type="Float64" Name="pressure_p0" format="ascii">
0.00055349529756484005 0.00037048402883517722 0.0016115767773406905 0.0011710208758749763 0.001374377235284227 0.0017874292864035104 0.0020057237008282748 0.0052161260940335585 0.0061742432793969459 0.0068010442441068554 0.0098828184064634807 0.014652893734157426 0.0072757841321711347 0.0015271862571976454 0.0010487411126683221 0.0029109431258145528 0.0044621158748300842 0.011668636292043183 0.006706744543209419 0.0096219465546554216 0.0024296359471208282 0.0048834617687141344 0.0042115452402850476 0.011239963970164524 0.01499641538017134 0.013112182360098767 0.018721147173798452 0.016908077777763087 0.01955491865551983 0.028895990173876888 0.021439598122041006 0.044286175524170301 0.026642704809229624 0.029485167701494806 0.035202857692912565 0.023372384757145301 0.020812503463434006 0.022689408959145587 0.027933311385074232 0.029345761061757642 0.034503184968472184 0.042487695857318507 0.042256150944022124 0.03450494040119674 0.048709345663724202 0.056110836306266461 0.043154158864795143 0.010185421981250657 0.0021025058710537029 0.0037229532456236484 0.0052073304962285448 0.013597564830359538 0.011783664907720183 0.018807850501273937 0.016996554265077197 0.021046533077850184 0.028914070915440404 0.021004443267601831 0.011634129087087934 0.0060839622481009287 0.0040976797337896106 0.0046864512878458569 0.0091686407940464922 0.015716467285445075 0.0085113863380002312 0.0034422424540085919 0.016188570303632223 0.0086041535330730057 0.0053896754960238531 0.036157788070676405 0.038605003143632854 0.025930668278437891 0.022522664901436083 0.03033333854507856 0.030120163922914125 0.02222192532931086 0.024242674973329013 0.018386690804425031 0.032609781125711126 0.04566224586211845 0.055767883335257909 0.038892874077041423 0.038423021439967155 0.063423614097705971 0.061829363142912319 0.053645622155112586 0.068794258269203573 0.077759864323925579 0.064842538851253684 0.070512473782247398 0.080974789921192114 0.05235851907149721 0.049217426948243166 0.064920021820272913 0.046692864623065905 0.054969567980438172 0.055371703044080851 0.074698684309124727 0.066525287111959111 0.066289441255631673 0.068469288484282936 0.091070005713005497 0.090540416360214634 0.083841797904713342 0.10363929521313536 0.10035428757859968 0.088562136751221515 0.093838340090508898 0.10521222064755373 0.11915422305952164 0.05965309643418916 0.081425101252522669 0.082000448632958217 0.063096988077721572 0.06825973851694328 0.0485242149732205 0.048560698657689153 0.04259827534118342 0.03272818143937363 0.02979248253735204 0.026426203061307708 0.0059070066452438195 0.013984840723254101 0.025389196061478377 0.0057939609822915423 0.01312569663599086 0.011109816176315334 0.021383437710219978 0.043514125664462673 0.040916625193554143 0.028316854283752003 0.17678677164912879 0.16021416854619555 0.15240339823044186 0.16304567526870903 0.16010933883907585 0.17634944271876984 0.18802231138332504 0.18596707761175299 0.20322427311011276 0.20277049649513423 0.21768666694627797 0.23474879029173629 0.23329193205928611 0.21578794941434892 0.21154039656028539 0.1956350788374128 0.1881897932633313 0.18536455563333523 0.17066490839476173 0.19075690580413904 0.17241690811881699 0.17587232702083022 0.15858876402670166 0.14947584609123399 0.14501472291038181 0.16621987297580323 0.1300732096279954 0.12987746934027394 0.11608063618684414 0.11598344624643164 0.12583406671316463 0.11833510709686496 0.1032176696454664 0.13914280642862525 0.14549518091181959 0.13507811934706049 0.11409499466605982 0.10850914589930541 0.12158382248047153 0.11279149107542505 0.096241607803069812 0.10529489625873381 0.09369251690686832 0.10047623966713652 0.08464837388245873 0.078723381829131384 0.082912887376001984 0.086883783215466207 0.071422308867625101 0.096349765265764525 0.082788303404605579 0.093127188435461722 0.11566402588016747 0.13152047529113026 0.1163544875384796 0.10659270254235143 0.12918041819797579 0.13677495054300512 0.15419128801061333 0.13885284819047919 0.17220434195003323 0.16003516440995308 0.14903384891012333 0.14135465909377867 0.1516616359857077 0.12854883315966636 0.13831090520230876 0.11850057559878122 0.12899679594359675 0.11593420430442777 0.093184400967064512 0.10273889439077485 0.087492973692581411 0.098008973236092256 0.10721767299145184 0.10479110327425535 0.085854572439038462 0.090997337422817903 0.082911324691034058 0.067776280482508625 0.07131711962527551 0.063557878851857666 0.051878410922603438 0.05614596418922127 0.066120708229598368 0.078282477234097259 0.077612562289774631 0.052812393481510823 0.067857290495910882 0.059038115936195082 0.071676554162962008 0.067404696923482332 0.056659654992221337 0.072376175595047165 0.08403511827102482 0.072828224596561908 0.064705193349833004 0.044953562086833029 0.046074599354723848 0.053903506853664573 0.050370323133678896 0.039687765815693374 0.036959745178940753 0.01941122462005191 0.034846458745470446 0.025203751916647588 0.023580935377614558 0.038628337250294791 0.032232081084123142 0.035014675238887807 0.030540604564511024 0.016151324234853683 0.020715195121162246 0.0039846571279638461 0.0077558157396914558 0.0036205044915752931 0.016897433894672721 0.0089223183488580694 0.0052198293796120359 0.0097716979292105221 0.031019417881771722 0.042355936800030483 0.042017772099498571 0.053420099606479948 0.048045269683890536 0.036244105475158328 0.028270937940551667 0.014215654066759356 0.01213960212597761 0.0064096247130081682 0.011069267607146448 0.021073385622885132 0.021389519403667848 0.004685368165109058 0.010929742203435809 0.0062895445122569315 0.016269819065025184 0.030600490524396132 0.029775305843755123 0.039849269565967009 0.050610849452467424 0.062245788097059149 0.051516049279322733 0.067275345514711787 0.058419092197314365 0.041312049366847438 0.033891571961459949 0.034342701763452284 0.017500706637290961 0.0081825928149595138 0.017475968534250711 0.016592083988060852 0.0094226372105275635 0.0073102908351581038 0.031960895478381046 0.011637571232895322 0.018834449403684748 0.034423964889938291 0.025258134260146135 0.047782694490615646 0.057142083409918713 0.050554006836201718 0.07948006414205265 0.044295027631873984 0.042918495063741471 0.060384781244025333 0.065493398486848917 0.060340052718282348 0.070338438380970619 0.084710291151208122 0.10378444898279773 0.10007168256479188 0.11596232425622421 0.12065625711492069 0.086488325078320119 0.09364852911212658 0.12452102550342042 0.13389480040676593 0.15657886426022191 0.15576370216656291 0.17375294919031659 0.13253227920377564 0.13754621592390859 0.17030940075887874 0.14675046171042611 0.14838084730949225 0.13599043718439061 0.11905338510959457 0.13937014840246842 0.12419413642777496 0.12562745737129632 0.11791689483689899 0.098779302890635176 0.11258155135332308 0.098488668216100014 0.090449175252045683 0.075184031781726252 0.064596359537973796 0.07381680215629563 0.088348669509159219 0.084050195407929809 0.09149892909435095 0.10963075828478469 0.10835160204846725 0.093252406643977062 0.1132970288858558 0.064717947444634938 0.080441049709173998 0.04471348184634398 0.0098055297142345243 0.026308106913815587 0.02846626473501062 0.030819450335329131 0.011984794128427002 0.011578883592827428 0.056747172882719729 0.060256580435814243 0.077438042168365334 0.10298270941016724 0.10799023673447761 0.089237364728369573 0.094685339610352151 0.083479366633604987 0.060769968248057908 0.06941907270167913 0.052235509235194155 0.027300405795989725 0.026812128042774365 0.012104357552973838 0.049727957739200981 0.02598920806499011 0.013706195641457905 0.065821223629356246 0.066590116408242306 0.088981749669264532 0.085959135522270191 0.12692740147300335 0.10576863279850041 0.1252865662584306 0.10759112035238699 0.14319933373264773 0.14642299547518534 0.16810744370543701 0.17803349778834668 0.1819858749491654 0.18588138708737678 0.16486471382870774 0.20352586896345592 0.16671688179217481 0.14652412261905454 0.1183194273428966 0.1260951602758863 0.11596698517490592 0.1420656223231721 0.1539357529821864 0.17691258078537148 0.2089738874234251 0.21844907725210144 0.19497973229059082 0.18648143359386787 0.19809524340180715 0.22327201261011492 0.17470935435474697 0.15107318463613476 0.15664776329712776 0.12389179744262169 0.33985171352449028 0.36683353836009902 0.32912529042361666 0.34668385391596757 0.30285849904503848 0.32284819446777047 0.29673735631133125 0.27427318239375542 0.24731858012471511 0.26084065867004957 0.24193937065597684 0.25763386292222523 0.27933027003579747 0.29772941030921196 0.28918202753232158 0.3417480232609631 0.31757473908502643 0.31302854078019277 0.29305917678782495 0.27700897686103332 0.28832050006279869 0.21739863280599714 0.24038750500619088 0.25077757652955202 0.2441252413095375 0.23795118367890911 0.21351584221774189 0.21100833432262928 0.20259125404780617 0.22856013764073013 0.2563059746014647 0.26230674436056178 0.28435473643046616 0.2949516868328364 0.31486214575148486 0.33456909114306227 0.32097306082809618 0.34255824094418946 0.36993247594126899 0.39488935460815017 0.3752931863955028 0.35804952704952264 0.35658688406535644 0.37282877157397992 0.39406612067543512 0.41350936636654723 0.37481177295787743 0.36153868426882374 0.33577703989044871 0.31938080685780745 0.32838501780570445 0.36711068410209191 0.39484883020923212 0.35781234230981218 0.40515284500236148 0.45759811587346377 0.42746876439166825 0.42302929411638845 0.44582205839247946 0.47082515485867615 0.47043689031801561 0.48578323352448144 0.44395234688677587 0.42389352136090719 0.39701143635281994 0.37420736557682877 0.19338911300877429 0.22056010983491525 0.21068647428146328 0.20027730731320248 0.1887660847738486 0.17278022828043513 0.16631190489758724 0.16943675055649354 0.18559104298158741 0.15559043898645294 0.14085320408018351 0.15442376063975988 0.16887999010028099 0.19296702752299025 0.18514106808854053 0.16594900046947234 0.1824850314259967 0.16648314189556032 0.20033764890440564 0.20380167627680296 0.18058545246455401 0.19582382776963278 0.20094837008304725 0.19048529347090015 0.22356677535949426 0.23645030441462675 0.2235199751600026 0.26904442302399267 0.27270314603568124 0.24957168125772933 0.23305325953103403 0.21105084111725994 0.21696264436839119 0.25032665249665831 0.25536825544408126 0.28622894741722049 0.27690389123850034 0.28233310498208475 0.26748945880279668 0.28666942000541712 0.30810960818744232 0.35009196843169038 0.33967718607277941 0.3187335990506176 0.30686307920782707 0.34921213566729192 0.29956972598930476 0.31301460405709053 0.33400800539922898 0.31028149304088115 0.30108670207651705 0.27266576310060769 0.27996060540386203 0.26655797516110269 0.24932606986623193 0.24612654172735757 0.22091281422684361 0.23659676515806419 0.23629992820027074 0.19937840175748295 0.2174442172939185 0.22934994610565457 0.22949313149878187 0.21611552341982931 0.25626154103149096 0.24587871276779519 0.25006806396037307 0.27604377167840272 0.26986995062381391 0.29640400478321283 0.31411204596664177 0.30103950809590263 0.29205674702959472 0.33056525262666725 0.32121604264890424 0.32617219727532676 0.30628677883808864 0.35060548632366179 0.35671708310420658 0.34003979599016015 0.31774739977297445 0.3021910701895818 0.28288846573828674 0.3131053108820438 0.33454416686918653 0.34908754354761606 0.37276470973101039 0.3497750704068775 0.33669522443850258 0.3754668330142833 0.37226792393096036 0.38747711864440315 0.41623479835978888 0.42329324496056664 0.4107373890057372 0.42812280007005377 0.45004455078977545 0.3873299481909267 0.37958666455960899 0.39935202943270431 0.43751489971110669 0.44932290630587624 0.42532228611098399 0.44339569843416793 0.47282840019750855 0.45186872298364278 0.46726494259363704 0.48208830552805104 0.49612095508537157 0.50673921431727753 0.51717132157014911 0.49538618518583455 0.538292553156831 0.474314218686543 0.50327142593309415 0.47311960098691819 0.42470560190662565 0.44822485112341776 0.41959865466946833 0.39729707505480139 0.3838371845603461 0.36086157606640812 0.39285219321030707 0.38027522923480034 0.34431736577450134 0.35471494745045884 0.34610155484783006 0.36725586866888488 0.36863219716752238 0.39358492847642468 0.41052353408486397 0.40429473433800234 0.38651997529780657 0.59283794907523535 0.57897153984257677 0.5365603275367502 0.54749792344273596 0.57311371884380335 0.52362191842017591 0.51514434566812761 0.50156292580413719 0.47844397511562653 0.49153797575730862 0.50877490141257509 0.46340702903581887 0.49955774127179853 0.52786630716093907 0.54833068332620094 0.53791903032447519 0.53061690743750267 0.51922510211610795 0.51223631725893914 0.48701870313127515 0.49144304894432522 0.4758516740159866 0.47844521988066024 0.44169573502738074 0.4486959691883885 0.43541860842064345 0.45080876658840097 0.44779099665863509 0.4127535720386632 0.38629885021013793 0.40888199081162369 0.42836845423651537 0.43270253271879744 0.4682196323846492 0.47100557773913942 0.4609060338188995 0.49609645638616717 0.51978361337193935 0.5414571631323073 0.51482495833387942 0.53678313345774442 0.55990198535335278 0.57948687458361692 0.55994836772533585 0.56537097223412636 0.60617373461400603 0.62184942904946261 0.60506665089162825 0.57646697284135862 0.56000172355144928 0.52743877659697624 0.55941949788843526 0.57552887765681104 0.56580976529022564 0.60920570882292002 0.58572023226903525 0.60240647223732202 0.61765657707022237 0.6502922128219919 0.66393365523291747 0.69767340836767089 0.64942415104445939 0.6559589233266041 0.72298785749953065 0.71092100616530807 0.67940603478446671 0.66818468997236535 0.63134732436936836 0.63769582005747993 0.61981406597542799 0.8467359859771989 0.79810053711726459 0.82095999957204346 0.8133993778115558 0.76190300324446369 0.75809578015498147 0.77522548030985461 0.72512749838363288 0.70154027984607448 0.66974253887140867 0.71498233803583344 0.7580394024240924 0.73285430314706879 0.77281688323147191 0.80533054573864349 0.77989172916477101 0.7309016549839884 0.7186961988521664 0.71290438459053063 0.68527919487540734 0.68276205084917796 0.62812957713163764 0.66335711059888747 0.65758138125584431 0.6246933850491545 0.60573437744655378 0.57989034933255268 0.62528854093348185 0.686542997172507 0.61560086722589169 0.65552136255886295 0.68157535569821348 0.66869485115931238 0.72132753178949127 0.7268971906160584 0.69463178612128718 0.75837425773235512 0.75439387561610349 0.77063879840464233 0.78299406978651998 0.8160708669392932 0.81254406995701922 0.84377317600193824 0.77346545343496031 0.79394807096432873 0.73994928576128394 0.77287623733992161 0.8343714486302729 0.8556703017246825 0.85656683973951164 0.83074433088532684 0.87361218062417656 0.90653602081818718 0.90154917821433622 0.92394301713501426 0.96211573308279341 0.96229463722797304 0.92437368612136739 0.90614793188542142 0.90240595724697892 0.87326930767121758 0.48075462479239106 0.48888112285929064 0.51284771152092146 0.53333239682583178 0.49457770986360733 0.44858471377884779 0.44028411912439169 0.45574051832568296 0.44736060955984347 0.42801419671414043 0.41463843178580106 0.41042366020340959 0.3914663808191598 0.41989151888353438 0.4333515141637323 0.46738106770953869 0.46159243050225862 0.48043136101610573 0.4950656588972519 0.51961451904485434 0.51127951532623173 0.56883145812509173 0.54539508617510113 0.53280242660857802 0.56781412760916328 0.53964340534363642 0.58504876299968989 0.58015999922908157 0.63575296021779393 0.61807016184013064 0.52540141948475116 0.55931567405056781 0.57345442163060523 0.55976539560906513 0.58275004727128732 0.60694311622618813 0.6018271624380338 0.63559386421882125 0.57753685001836641 0.624696628776787 0.65124037861694561 0.68492468063516176 0.71648090719392132 0.67469704177464673 0.70801986777692349 0.5979331070410171 0.62487782523137225 0.64414088475040399 0.66656830170223802 0.62161864161887315 0.63833611089727793 0.56184694066866081 0.56775543248398819 0.59454481058555175 0.54407376768440296 0.53746422346934686 0.52325470786102191 0.47744766213001455 0.50824146310747476 0.45857278606537411 0.4818795495971922 0.48525348641803251 0.50782327810921735 0.5316860744232903 0.49199293482048873 0.51986906564646085 0.47216490583444287 0.4472351247500439 0.44341136284363847 0.46195978393670345 0.37880878968137954 0.42116219537291444 0.41342177660765211 0.40209536315603706 0.36507759429191955 0.38050181941630029 0.37155220586842364 0.35076017112825758 0.41836819269389913 0.38930728560131106 0.4144882774077131 0.43572156507457582 0.43022524080544533 0.40738656508964577 0.39333310918274661 0.37071101137978779 0.38776069812456637 0.36861947616999235 0.34156033383567103 0.32191942638561044 0.32903858536244379 0.31307439303333062 0.349766894367045 0.3284958632531183 0.31050456570576684 0.28935645206456884 0.32267825797326605 0.34679931387710711 0.36678273926501981 0.36843779024521411 0.39415089570883971 0.35108654582346993 0.22112344559310232 0.23306961645430635 0.2031861050977502 0.23797438930588538 0.23659312106086533 0.27569681595550533 0.27745077495464532 0.25649128446474084 0.29314432254125389 0.30831120849479454 0.28890661585965305 0.27142212575072705 0.24734611895819886 0.26960659171524626 0.25452886319116863 0.22791103198157969 0.2400557636356096 0.27821847926494209 0.25467150272787425 0.23939895677704701 0.33807481283710816 0.31528010204271317 0.28556667878292463 0.30539068647917661 0.32363456029388488 0.34368499544346587 0.31960110954492027 0.32101366328322778 0.33639562050619642 0.3655161211501009 0.24582076069042197 0.29396077542512111 0.29389465911835289 0.27292767553530212 0.2229236614771683 0.19742152387972217 0.18642492764332674 0.17431120145694248 0.12318865541697827 0.15108696062440788 0.15692339728829385 0.11687013088757903 0.14316721906399743 0.15473206106146886 0.17602071494775867 0.20570111690153403 0.21475078156327165 0.1932893150708142 0.028710094914535116 0.027098592986538647 0.010254690278802483 0.045803415001608679 0.06567548702490443 0.080120908210935968 0.1130310476116749 0.10312952347095487 0.10821653745271688 0.057530518735697832 0.07034548500560403 0.059526168919747421 0.078487161560011287 0.030022288247947469 0.011862234682154933 0.012328413715251384 0.010761138184937583 0.026249326338121503 0.028125120181596248 0.048759462682147689 0.063970700935557873 0.089968821603443022 0.082845495526015764 0.091372717005517912 0.082286748441908503 0.094111566160795163 0.067958904673367182 0.062722912867078984 0.025466893650461828 0.047561076934181705 0.014540841878480608 0.16517059256712319 0.20802164673570456 0.18739466583878683 0.21560106383478173 0.1654347808508155 0.18428898111168579 0.14577505422853634 0.12581849841353038 0.1159123998276838 0.14271630660350054 0.1218696735229654 0.10066347374016303 0.13558722210196458 0.14958474502080166 0.17739606837231331 0.18410743076577052 0.17578759131967309 0.16790922874591377 0.16700913570212761 0.13597070995108698 0.1480435878879871 0.14666750244534452 0.10106645985034901 0.10902084641781412 0.11679494134383778 0.10886914075064495 0.091818055144905375 0.080894478027718764 0.11567236829813451 0.13043690976802974 0.16290425503171133 0.14300477409566137 0.019716839882443063 0.012834494985477327 0.027135340300473827 0.062597308695766463 0.054218734217149442 0.083537944621290217 0.082285180300446958 0.065020931492358922 0.064487820538267251 0.050910558635422445 0.052121806421193219 0.036180267609831125 0.030475138943767709 0.035421798669740948 0.0067696958140041749 0.01419891825687363 0.0072566180417607366 0.0084149325800832279 0.019272407878470996 0.020002023923122628 0.038273369300530352 0.053014520803383841 0.069920558554657453 0.063164391902911593 0.047892707354725436 0.042087046814111934 0.037403833467918771 0.02459729934520467 0.022503674102613211 0.011368199599367782 0.005257499807697805 0.013300592857351787 0.11606203801243692 0.14129108503622331 0.13403715625469559 0.1400820732194808 0.10208620355604298 0.084696372645432949 0.073582161572425114 0.10309749484816166