<?xml version="1.0"?>
<VTKFile type="UnstructuredGrid" version="0.1" byte_order="LittleEndian">
<UnstructuredGrid>
<Piece NumberOfPoints="69" NumberOfCells="124">
<Points>
<DataArray type="Float64" NumberOfComponents="3" format="ascii">
0 0 0 0.084352422163911631 0.086451712656266194 0 0.1249999999997554 0 0 0 0.12500000000034689 0 0.1008171452988615 0.18885703697250469 0 0.2403886547178353 0.24188814792673841 0 0.18402761812864499 0.1117324051466445 0 0.25 -0 0 0.31250000000020822 0.12500000000041631 0 0.4287911518546233 0.15455445427966699 0 0.43749999999913258 0 0 0.43750000000006939 0.37500000000013878 0 0.49457493289300231 0.26251703776555491 0 0.37500000000027761 0.25000000000055511 0 0.33819444444448321 0.33819444444456342 0 0.37499999999973488 0.43749999999986738 0 0.14929124186975251 0.44582793568106382 0 0.24999999999960859 0.37499999999980432 0 0.1249999999997599 0.31249999999987998 0 0 0.25 0 0 0.43750000000034689 0 0 0.62500000000069389 0 0.13900789599611679 0.72618316107059999 0 0.13928587515912139 0.57339806105677438 0 0 1 0 0 0.81250000000104083 0 0.12710107136012311 0.87094806618203435 0 0.1875000000005205 1 0 0.27987960212930818 0.83442741470570525 0 0.44927105396715372 0.85565124085155886 0 0.37500000000069389 1 0 0.26452443700674649 0.51563531581639865 0 0.27589467050686478 0.66058853156435704 0 0.38136204680495073 0.74038592213831234 0 0.4139414069912184 0.60563252640100373 0 0.5 0.5 -0 0.50145856933078625 0.73674663046504862 0 0.5625 0.625 0 0.71259747807844409 0.63846691315701831 0 0.63236534182377013 0.50296756406332266 0 0.56250000000086742 1 0 0.56777512057187585 0.8470224641095303 0 0.625 0.75 0 0.73857795170433571 0.77736788564284653 0 0.6875 0.875 0 0.75 1 0 0.80552984491000901 0.88711122872127413 0 0.85787927391517405 0.753532520882502 0 1 0.83333333333356463 0 0.90637953422180084 0.90208583328057301 0 1 1 0 0.875 1 0 0.86127466977819722 0.57948076978797636 0 1 0.66666666666736052 0 1 0.50000000000138767 0 0.75338430262320943 0.49294443423175599 0 0.86569408477091048 0.40983673916766611 0 0.86087286690217635 0.25206523597959418 0 1 0.33333333333448978 0 1 0.16666666666736049 0 1 0 0 0.87698901648812122 0.1160638338657984 0 0.81249999999947953 0 0 0.71508993406183785 0.15715956854777599 0 0.62499999999895905 0 0 0.54475767668582953 0.1431838882066932 0 0.61108462585082757 0.25750599582343231 0 0.56986707178436635 0.37762093650871992 0 0.71826039492840632 0.34564020717216182 0 
</DataArray>
</Points>
<Cells>
<DataArray type="UInt32" Name="connectivity" format="ascii">
0 1 3 0 2 1 3 4 19 3 1 4 4 1 6 18 4 5 6 5 4 8 5 6 7 6 2 7 8 6 2 6 1 8 7 7 10 8 8 13 5 13 8 8 9 13 13 9 12 65 12 9 8 10 9 10 65 9 15 35 11 35 15 11 15 14 35 11 13 12 11 11 13 13 11 14 17 5 14 13 14 5 15 17 14 17 15 15 31 17 17 31 16 17 16 18 17 18 5 18 17 19 18 20 18 19 4 19 18 20 16 23 20 18 16 20 23 21 21 23 22 25 21 22 32 22 23 28 22 32 31 32 23 31 23 16 27 24 26 24 25 26 25 22 26 28 26 22 27 26 28 30 28 29 30 27 28 29 28 33 29 33 36 30 29 40 34 32 31 15 34 31 28 32 33 34 33 32 34 36 33 37 36 34 15 35 34 37 34 35 37 35 39 37 35 37 42 36 42 37 42 38 43 37 38 42 55 38 39 37 39 38 44 40 41 40 29 41 29 36 41 42 41 36 44 42 43 44 43 46 44 42 44 41 42 44 45 40 44 46 45 45 44 51 45 46 51 46 49 46 47 49 46 43 47 48 47 53 48 49 47 50 49 48 50 51 49 52 38 55 47 38 52 47 43 38 53 47 52 53 52 54 58 54 56 52 56 54 52 55 56 55 68 56 63 57 68 56 68 57 59 58 57 58 56 57 59 57 61 62 60 61 59 61 60 62 61 63 63 61 57 64 63 65 62 63 64 10 64 65 63 66 65 65 66 12 67 12 66 11 12 67 11 67 35 35 67 39 55 39 68 67 68 39 63 68 66 67 66 68 
</DataArray>
<DataArray type="UInt32" Name="offsets" format="ascii">
3 6 9 12 15 18 21 24 27 30 33 35 38 41 43 46 49 52 55 58 60 63 66 68 71 73 76 79 82 85 87 90 93 96 99 101 104 107 109 112 115 118 121 124 127 130 133 136 139 142 145 148 151 154 157 160 163 166 169 172 175 178 181 184 187 190 193 195 198 200 203 206 209 212 215 218 221 224 227 230 232 235 238 241 243 246 249 252 255 258 261 264 267 270 273 276 279 282 285 288 291 294 297 300 303 306 309 312 315 318 321 324 327 330 333 336 339 342 345 348 351 354 357 360 
</DataArray>
<DataArray type="UInt32" Name="types" format="ascii">
5 5 5 5 5 5 5 5 5 5 5 3 5 5 3 5 5 5 5 5 3 5 5 3 5 3 5 5 5 5 3 5 5 5 5 3 5 5 3 5 5 5 5 5 5 5 5 5 5 5 5 5 5 5 5 5 5 5 5 5 5 5 5 5 5 5 5 3 5 3 5 5 5 5 5 5 5 5 5 5 3 5 5 5 3 5 5 5 5 5 5 5 5 5 5 5 5 5 5 5 5 5 5 5 5 5 5 5 5 5 5 5 5 5 5 5 5 5 5 5 5 5 5 5 
</DataArray>
</Cells>
<CellData Scalars="age_conc,U235_conc," Vectors="" Tensors="">
<DataArray type="Float64" Name="age_conc" format="ascii">
498418.82873548561 498244.21178059472 482092.56080475263 495817.25491083367 495566.83716710855 478963.27147032879 490946.35741894471 479493.86089325638 483810.20793019474 470558.21531793132 495440.32377760514 405470.19975314738 499973.25761352625 460999.37787696288 381493.01940857386 499962.6434673646 499855.4507489035 499090.7608165241 499890.36135813763 499541.55389660894 297959.30716770241 376151.85204546864 421007.09899232246 307939.88680255204 499825.93992718926 350910.93844223878 425898.19433584902 461416.99193458288 462049.11051100201 424346.21561202599 343179.43134162604 497273.46614143351 499225.65776734095 499759.14936687285 459522.49096586974 375759.3272205572 499974.06337185571 467659.89367193746 401236.76072675787 499562.8336760666 499890.32567370939 497008.70196572901 489878.88160812308 452271.69283509947 482573.08535141475 460351.37070096488 495909.74642015807 498499.18318467727 176715.30611640512 273933.72950804693 399471.25399163645 370262.73773686949 280375.24047544337 280000.23577398411 193749.84933165426 375998.00850559311 435035.83922045003 158729.01153292242 492726.73845083418 493280.08710956568 429111.51776405773 481034.82964410243 470538.62965997891 417443.06262148957 470035.5427740271 441849.74905828084 494590.65955995116 224932.54982448922 356756.0362534505 160504.8581824977 454171.84500333876 477587.47618463822 464429.98735459673 487814.77504824125 198301.44637807051 316785.25961875438 385343.91136401409 333321.73061205051 401730.8759739697 344095.29663609766 100110.17178460151 256665.46695588535 115679.5996507774 236724.38542524571 43386.872138714818 146324.73113680526 211556.09398592787 300422.09173487889 368505.78543771477 172702.8516625069 232188.14689890787 112176.77791291097 118298.38418597019 433822.98246076237 384888.99451149435 436628.44994618453 279793.49677583284 169225.92551372619 161808.61329304599 275780.22759818588 360926.40670402913 421558.6037083203 442590.78940737911 385190.89986113278 174761.36282941184 268131.64971559471 258281.25343347067 269489.88810863125 172906.74069848511 408972.70464258362 376605.20281896886 491042.07891616214 457218.42921820929 497113.53920247505 487971.6466382792 497529.11804339057 497583.92903889634 499387.17508934345 498310.93319746811 495595.76413596881 466932.7077026128 483767.68168230698 472554.10861832026 493689.94970391819 
</DataArray>
<DataArray type="Float64" Name="U235_conc" format="ascii">
0.023441549620830025 0.025440613988403311 0.13758637754969397 0.048794880212712999 0.055526323322599325 0.16103021624725836 0.0910083328893318 0.15579260112124735 0.12514536265614859 0.17275678023700985 0.051704235916338694 0.32812043146423797 0.00064762363804004241 0.22707146978980161 0.38340369945252384 0.00094109178414436285 0.0031271124476288793 0.015710721067457148 0.0022818632695825064 0.0081386183149229439 0.60112921886010739 0.4964883080521974 0.42005368774548224 0.54715591603709746 0.0040489782455543008 0.45187434776826391 0.36401215208137039 0.26254928096160673 0.25548921266535973 0.37820663381824149 0.4976669992223402 0.033947028434393976 0.012202133828114928 0.0044563461571261887 0.23791606862668305 0.41925705876347652 0.00065286045527017324 0.18885342230087979 0.35589378549473699 0.0080404511886791145 0.0023585699016393149 0.040617185616666773 0.1105551892512564 0.35830789064923663 0.17490372268172472 0.31566367849884186 0.055271696222245099 0.024130491343146397 0.91566216582234805 0.83561705165721156 0.57070501382359717 0.65960342393224847 0.82659914561912851 0.8443081007068749 0.90371102290262539 0.64579794570517945 0.49610627047386369 0.95177794941095561 0.092701124639697985 0.07101790735826681 0.47481016582132429 0.19658459292063224 0.28674632240539694 0.50016805281802479 0.22962292138267815 0.36631178443875256 0.076570013251022639 0.73094757946251387 0.68256687784483794 0.8579190970970183 0.38741545729245164 0.23626241994026073 0.30260949065587095 0.14370936066822276 0.96739375229449942 0.83061279286308076 0.67868591713153115 0.79454419544576715 0.60335732235178996 0.75401432493550946 0.94643519988515545 0.90049147728178291 0.98927965148238095 0.91554031520155554 0.99096331581919062 0.96713754626650505 0.95656468110017745 0.86818831044043643 0.73902554875300708 0.94148453221408546 0.9325592588880337 0.99174478966424373 0.9892079362790045 0.44972792436066472 0.61380856141208451 0.48507936451876438 0.8433084170980506 0.92987891465606665 0.94012209467451791 0.83982843172169841 0.68934718212242063 0.50976645456494529 0.40027724244905316 0.6044130023423353 0.92608873988950413 0.85778605517953588 0.86678046296183431 0.84743130308641668 0.92507063438269577 0.52985789791948856 0.62248595751527647 0.098190189788734589 0.32848086011335631 0.038960108250470221 0.13304938459165494 0.036091315569363319 0.038657419589612996 0.012033541477915773 0.028312182369923077 0.061911326161605051 0.28744532551585605 0.17399451974152699 0.24367873338586751 0.083617249352469031 
</DataArray>
</CellData>
</Piece>
</UnstructuredGrid>
</VTKFile>
