<?xml version="1.0"?>
<VTKFile type="UnstructuredGrid" version="0.1" byte_order="LittleEndian">
<UnstructuredGrid>
<Piece NumberOfPoints="69" NumberOfCells="124">
<Points>
<DataArray type="Float64" NumberOfComponents="3" format="ascii">
0 0 0 0.084352422163911631 0.086451712656266194 0 0.1249999999997554 0 0 0 0.12500000000034689 0 0.1008171452988615 0.18885703697250469 0 0.2403886547178353 0.24188814792673841 0 0.18402761812864499 0.1117324051466445 0 0.25 -0 0 0.31250000000020822 0.12500000000041631 0 0.4287911518546233 0.15455445427966699 0 0.43749999999913258 0 0 0.43750000000006939 0.37500000000013878 0 0.49457493289300231 0.26251703776555491 0 0.37500000000027761 0.25000000000055511 0 0.33819444444448321 0.33819444444456342 0 0.37499999999973488 0.43749999999986738 0 0.14929124186975251 0.44582793568106382 0 0.24999999999960859 0.37499999999980432 0 0.1249999999997599 0.31249999999987998 0 0 0.25 0 0 0.43750000000034689 0 0 0.62500000000069389 0 0.13900789599611679 0.72618316107059999 0 0.13928587515912139 0.57339806105677438 0 0 1 0 0 0.81250000000104083 0 0.12710107136012311 0.87094806618203435 0 0.1875000000005205 1 0 0.27987960212930818 0.83442741470570525 0 0.44927105396715372 0.85565124085155886 0 0.37500000000069389 1 0 0.26452443700674649 0.51563531581639865 0 0.27589467050686478 0.66058853156435704 0 0.38136204680495073 0.74038592213831234 0 0.4139414069912184 0.60563252640100373 0 0.5 0.5 -0 0.50145856933078625 0.73674663046504862 0 0.5625 0.625 0 0.71259747807844409 0.63846691315701831 0 0.63236534182377013 0.50296756406332266 0 0.56250000000086742 1 0 0.56777512057187585 0.8470224641095303 0 0.625 0.75 0 0.73857795170433571 0.77736788564284653 0 0.6875 0.875 0 0.75 1 0 0.80552984491000901 0.88711122872127413 0 0.85787927391517405 0.753532520882502 0 1 0.83333333333356463 0 0.90637953422180084 0.90208583328057301 0 1 1 0 0.875 1 0 0.86127466977819722 0.57948076978797636 0 1 0.66666666666736052 0 1 0.50000000000138767 0 0.75338430262320943 0.49294443423175599 0 0.86569408477091048 0.40983673916766611 0 0.86087286690217635 0.25206523597959418 0 1 0.33333333333448978 0 1 0.16666666666736049 0 1 0 0 0.87698901648812122 0.1160638338657984 0 0.81249999999947953 0 0 0.71508993406183785 0.15715956854777599 0 0.62499999999895905 0 0 0.54475767668582953 0.1431838882066932 0 0.61108462585082757 0.25750599582343231 0 0.56986707178436635 0.37762093650871992 0 0.71826039492840632 0.34564020717216182 0 
</DataArray>
</Points>
<Cells>
<DataArray type="UInt32" Name="connectivity" format="ascii">
0 1 3 0 1 2 3 4 19 1 3 4 1 4 6 4 5 18 4 5 6 5 6 8 2 6 7 6 7 8 1 2 6 7 8 7 8 10 5 8 13 8 13 8 9 13 9 12 13 9 12 65 8 9 10 9 10 65 15 35 11 15 35 11 14 15 11 35 11 12 13 11 13 11 13 14 5 14 17 5 13 14 14 15 17 15 17 15 17 31 16 17 31 16 17 18 5 17 18 17 18 18 19 20 4 18 19 18 19 16 20 23 16 18 20 20 21 23 21 22 23 21 22 25 22 23 32 22 28 32 23 31 32 16 23 31 24 26 27 24 25 26 22 25 26 22 26 28 26 27 28 28 29 30 27 28 30 28 29 33 29 33 36 29 30 40 31 32 34 15 31 34 28 32 33 32 33 34 33 34 36 34 36 37 15 34 35 34 35 37 35 37 39 35 37 36 37 42 37 42 38 42 43 37 38 42 38 39 55 37 38 39 40 41 44 29 40 41 29 36 41 36 41 42 42 43 44 43 44 46 42 44 41 42 44 40 44 45 44 45 46 44 45 45 46 51 46 49 51 46 47 49 43 46 47 47 48 53 47 48 49 48 49 50 49 50 51 38 52 55 38 47 52 38 43 47 47 52 53 52 53 54 54 56 58 52 54 56 52 55 56 55 56 68 57 63 68 56 57 68 57 58 59 56 57 58 57 59 61 60 61 62 59 60 61 61 62 63 57 61 63 63 64 65 62 63 64 10 64 65 63 65 66 12 65 66 12 66 67 11 12 67 11 35 67 35 39 67 39 55 68 39 67 68 63 66 68 66 67 68 
</DataArray>
<DataArray type="UInt32" Name="offsets" format="ascii">
3 6 9 12 15 18 21 24 27 30 33 35 38 41 43 46 49 52 55 58 60 63 66 68 71 73 76 79 82 85 87 90 93 96 99 101 104 107 109 112 115 118 121 124 127 130 133 136 139 142 145 148 151 154 157 160 163 166 169 172 175 178 181 184 187 190 193 195 198 200 203 206 209 212 215 218 221 224 227 230 232 235 238 241 243 246 249 252 255 258 261 264 267 270 273 276 279 282 285 288 291 294 297 300 303 306 309 312 315 318 321 324 327 330 333 336 339 342 345 348 351 354 357 360 
</DataArray>
<DataArray type="UInt32" Name="types" format="ascii">
5 5 5 5 5 5 5 5 5 5 5 3 5 5 3 5 5 5 5 5 3 5 5 3 5 3 5 5 5 5 3 5 5 5 5 3 5 5 3 5 5 5 5 5 5 5 5 5 5 5 5 5 5 5 5 5 5 5 5 5 5 5 5 5 5 5 5 3 5 3 5 5 5 5 5 5 5 5 5 5 3 5 5 5 3 5 5 5 5 5 5 5 5 5 5 5 5 5 5 5 5 5 5 5 5 5 5 5 5 5 5 5 5 5 5 5 5 5 5 5 5 5 5 5 
</DataArray>
</Cells>
<CellData Scalars="age_conc,U235_conc," Vectors="" Tensors="">
<DataArray type="Float64" Name="age_conc" format="ascii">
498418.82866096415 498244.21179888374 482092.56020996842 495817.25477820396 495566.83716436545 478963.2712160786 490946.35741518135 479493.86118240689 483810.20810429973 470558.2155895906 495440.32381498901 405470.20021848625 499973.25761360454 460999.37833133125 381493.02011141012 499962.64346750197 499855.45074924792 499090.76081649988 499890.36135836353 499541.55389694555 297959.3060394919 376151.8518214759 421007.09882609866 307939.88735995191 499825.93992665352 350910.93946945231 425898.19493757159 461416.9915454383 462049.11095762393 424346.21501609089 343179.43033333315 497273.46611639537 499225.65776112385 499759.14936456137 459522.49057124334 375759.326309325 499974.06337183068 467659.89284303406 401236.75862444175 499562.83367643837 499890.3256735187 497008.70196313114 489878.88160077744 452271.69279712788 482573.08533669007 460351.37064891611 495909.74642469099 498499.18318641599 176715.305992701 273933.72942256299 399471.25390142843 370262.73763856397 280375.24026019673 280000.23519754549 193749.84909174053 375998.00805165566 435035.83913582319 158729.01071456095 492726.73846452701 493280.08705929719 429111.51754983061 481034.82966287364 470538.62970194075 417443.06213140482 470035.54244806984 441849.7483667091 494590.65953876992 224932.55003918469 356756.03560161818 160504.85807237428 454171.84497581184 477587.47616871272 464429.98730796599 487814.77501133655 198301.44616603409 316785.25935229351 385343.91118952155 333321.73008213233 401730.87590396049 344095.29652487498 100110.17153002659 256665.46648645477 115679.5995223092 236724.38536011701 43386.872056762179 146324.73101016306 211556.09387894714 300422.09154586482 368505.78536843869 172702.85152824584 232188.14676211483 112176.77780403443 118298.38407850792 433822.98249891965 384888.9944402054 436628.44994070375 279793.49669866206 169225.92543646484 161808.6133369045 275780.22760359338 360926.40687712457 421558.6038098312 442590.78945872153 385190.89996796404 174761.36236809549 268131.64968944341 258281.25328826249 269489.8879787511 172906.74048938885 408972.70462773665 376605.20287359052 491042.07891951886 457218.42920184287 497113.53920526907 487971.64663725108 497529.11804189481 497583.92903191055 499387.175087518 498310.93319369806 495595.76412749314 466932.70774254418 483767.68168887263 472554.10865412327 493689.94969910569 
</DataArray>
<DataArray type="Float64" Name="U235_conc" format="ascii">
0.02344154951425639 0.025440614031316863 0.13758637675695864 0.04879487997944764 0.055526323155016093 0.16103021557480421 0.09100833262261171 0.155792600939163 0.12514536272341878 0.17275678032839339 0.051704235956544234 0.32812043231174431 0.00064762363621038879 0.22707146962768954 0.38340370054294631 0.00094109178106368608 0.0031271124414291689 0.015710721068910222 0.0022818632649786699 0.0081386183091699624 0.60112921573851619 0.49648830705007407 0.42005368686530165 0.54715591641672001 0.0040489782574409262 0.45187434911670515 0.36401215200907089 0.26254928011977441 0.25548921225508125 0.37820663249268172 0.49766699657525348 0.033947028614856656 0.01220213389026676 0.0044563461891123689 0.23791606762310116 0.41925705664554203 0.00065286045581264816 0.18885342116186801 0.35589378262388138 0.0080404511826960429 0.0023585699049589052 0.040617185653202062 0.11055518934066011 0.35830789088248349 0.1749037228801899 0.31566367898113357 0.05527169616919031 0.024130491317951148 0.91566216608059792 0.83561705192614344 0.57070501421933317 0.65960342438890329 0.82659914624539899 0.84430810231090092 0.90371102344917686 0.64579794753963982 0.49610627076440256 0.95177795061929904 0.092701124460490947 0.071017907590468554 0.47481016710851742 0.19658459270831907 0.28674632208639206 0.50016805387439778 0.22962292261382647 0.36631178643198858 0.076570013497396242 0.73094757867894167 0.68256687836458751 0.85791909537825972 0.3874154574591761 0.23626242007296003 0.30260949101972512 0.14370936100437792 0.96739375228313063 0.83061279333649574 0.67868591754865959 0.79454419572120227 0.60335732266837905 0.75401432525910139 0.94643519763778916 0.90049147688192277 0.98927965134469042 0.91554031532893665 0.99096331484318823 0.96713754637453087 0.95656468121382721 0.86818831082314374 0.73902554899593809 0.94148453237830265 0.93255925906706205 0.99174478970797053 0.98920793632723836 0.4497279242616119 0.61380856175797438 0.48507936454296741 0.84330841729054584 0.92987891479563944 0.94012209459140417 0.83982843178295785 0.6893471815123513 0.50976645403226806 0.40027724210567972 0.60441300185057378 0.92608874033346045 0.85778605516907558 0.86678046329354763 0.84743130341382455 0.92507063467487582 0.52985789792414495 0.62248595728308009 0.098190189750649706 0.32848086018417627 0.038960108214106517 0.13304938458187354 0.036091315592682721 0.038657419688869432 0.012033541511879811 0.028312182433163243 0.061911326279830939 0.28744532528778294 0.17399451970485116 0.24367873308700197 0.083617249408353356 
</DataArray>
</CellData>
</Piece>
</UnstructuredGrid>
</VTKFile>
