<?xml version="1.0"?>
<VTKFile type="UnstructuredGrid" version="0.1" byte_order="LittleEndian">
<UnstructuredGrid>
<Piece NumberOfPoints="198" NumberOfCells="67">
<Points>
<DataArray type="Float64" NumberOfComponents="3" format="ascii">
0.187499999999956 0.108253175473416 0 0.0625000000002344 0.108253175473461 0 0.124999999999774 0 0 0.124999999999774 0 0 0.0625000000002344 0.108253175473461 0 0 0 0 0.187499999999956 0.108253175473416 0 0.125000000000464 0.216506350946914 0 0.0625000000002344 0.108253175473461 0 0.250000000000195 0.216506350946787 0 0.125000000000464 0.216506350946914 0 0.187499999999956 0.108253175473416 0 0.250000000000195 0.216506350946787 0 0.187499999999956 0.108253175473416 0 0.312499999999658 0.10825317547333 0 0.249999999999408 0 0 0.187499999999956 0.108253175473416 0 0.124999999999774 0 0 0.312499999999658 0.10825317547333 0 0.187499999999956 0.108253175473416 0 0.249999999999408 0 0 0.37499999999904 0 0 0.312499999999658 0.10825317547333 0 0.249999999999408 0 0 0.437499999999414 0.108253175473212 0 0.312499999999658 0.10825317547333 0 0.37499999999904 0 0 0.374999999999942 0.216506350946552 0 0.250000000000195 0.216506350946787 0 0.312499999999658 0.10825317547333 0 0.437499999999414 0.108253175473212 0 0.374999999999942 0.216506350946552 0 0.312499999999658 0.10825317547333 0 0.4999999999998 0.216506350946292 0 0.374999999999942 0.216506350946552 0 0.437499999999414 0.108253175473212 0 0.4999999999998 0.216506350946292 0 0.437499999999414 0.108253175473212 0 0.562499999999377 0.108253175473091 0 0.562499999999377 0.108253175473091 0 0.437499999999414 0.108253175473212 0 0.499999999998672 0 0 0.499999999998672 0 0 0.437499999999414 0.108253175473212 0 0.37499999999904 0 0 0.500000000000267 0.433012701892496 0 0.437500000000369 0.541265877365784 0 0.37500000000048 0.433012701893056 0 0.500000000000267 0.433012701892496 0 0.437500000000166 0.324759526419616 0 0.500000000000267 0.433012701892496 0 0.37500000000048 0.433012701893056 0 0.437500000000166 0.324759526419616 0 0.437500000000166 0.324759526419616 0 0.312500000000419 0.324759526420067 0 0.374999999999942 0.216506350946552 0 0.437500000000166 0.324759526419616 0 0.374999999999942 0.216506350946552 0 0.4999999999998 0.216506350946292 0 0.37500000000048 0.433012701893056 0 0.312500000000419 0.324759526420067 0 0.437500000000166 0.324759526419616 0 0.374999999999942 0.216506350946552 0 0.312500000000419 0.324759526420067 0 0.250000000000195 0.216506350946787 0 0.312500000000419 0.324759526420067 0 0.187500000000729 0.324759526420427 0 0.250000000000195 0.216506350946787 0 0.312500000000419 0.324759526420067 0 0.250000000000997 0.433012701893947 0 0.187500000000729 0.324759526420427 0 0.37500000000048 0.433012701893056 0 0.250000000000997 0.433012701893947 0 0.312500000000419 0.324759526420067 0 0.37500000000048 0.433012701893056 0 0.312500000000652 0.541265877366403 0 0.250000000000997 0.433012701893947 0 0.250000000000195 0.216506350946787 0 0.187500000000729 0.324759526420427 0 0.125000000000464 0.216506350946914 0 0.500000000000209 0.649519052838509 0 0.437500000000124 0.757772228311599 0 0.375000000000355 0.649519052838944 0 0.500000000000209 0.649519052838509 0 0.375000000000355 0.649519052838944 0 0.437500000000369 0.541265877365784 0 0.437500000000369 0.541265877365784 0 0.375000000000355 0.649519052838944 0 0.312500000000652 0.541265877366403 0 0.437500000000369 0.541265877365784 0 0.312500000000652 0.541265877366403 0 0.37500000000048 0.433012701893056 0 0.562500000000249 0.541265877365288 0 0.437500000000369 0.541265877365784 0 0.500000000000267 0.433012701892496 0 0.625000000000109 0.649519052838139 0 0.500000000000209 0.649519052838509 0 0.562500000000249 0.541265877365288 0 0.500000000000209 0.649519052838509 0 0.437500000000369 0.541265877365784 0 0.562500000000249 0.541265877365288 0 0.562500000000048 0.7577722283113 0 0.437500000000124 0.757772228311599 0 0.500000000000209 0.649519052838509 0 0.625000000000109 0.649519052838139 0 0.562500000000048 0.7577722283113 0 0.500000000000209 0.649519052838509 0 0.687500000000283 0.541265877364785 0 0.562500000000249 0.541265877365288 0 0.625000000000253 0.433012701892007 0 0.687500000000283 0.541265877364785 0 0.625000000000109 0.649519052838139 0 0.562500000000249 0.541265877365288 0 0.562500000000048 0.7577722283113 0 0.5 0.866025403784439 0 0.437500000000124 0.757772228311599 0 0.8750000000002 0.216506350945763 0 0.81250000000031 0.324759526418628 0 0.749999999999974 0.216506350945868 0 0.81250000000031 0.324759526418628 0 0.750000000000479 0.433012701891389 0 0.687500000000155 0.32475952641886 0 0.81250000000031 0.324759526418628 0 0.687500000000155 0.32475952641886 0 0.749999999999974 0.216506350945868 0 0.937500000000086 0.108253175472906 0 0.8750000000002 0.216506350945763 0 0.812499999999803 0.108253175472921 0 1 0 0 0.937500000000086 0.108253175472906 0 0.874999999999668 0 0 0.874999999999668 0 0 0.812499999999803 0.108253175472921 0 0.749999999999336 0 0 0.937500000000086 0.108253175472906 0 0.812499999999803 0.108253175472921 0 0.874999999999668 0 0 0.8750000000002 0.216506350945763 0 0.749999999999974 0.216506350945868 0 0.812499999999803 0.108253175472921 0 0.749999999999974 0.216506350945868 0 0.624999999999823 0.216506350946053 0 0.687499999999553 0.108253175472988 0 0.749999999999974 0.216506350945868 0 0.687499999999553 0.108253175472988 0 0.812499999999803 0.108253175472921 0 0.749999999999336 0 0 0.687499999999553 0.108253175472988 0 0.624999999999004 0 0 0.812499999999803 0.108253175472921 0 0.687499999999553 0.108253175472988 0 0.749999999999336 0 0 0.687499999999553 0.108253175472988 0 0.562499999999377 0.108253175473091 0 0.624999999999004 0 0 0.624999999999004 0 0 0.562499999999377 0.108253175473091 0 0.499999999998672 0 0 0.624999999999823 0.216506350946053 0 0.4999999999998 0.216506350946292 0 0.562499999999377 0.108253175473091 0 0.687499999999553 0.108253175472988 0 0.624999999999823 0.216506350946053 0 0.562499999999377 0.108253175473091 0 0.437500000000166 0.324759526419616 0 0.4999999999998 0.216506350946292 0 0.562500000000079 0.324759526419222 0 0.562500000000079 0.324759526419222 0 0.4999999999998 0.216506350946292 0 0.624999999999823 0.216506350946053 0 0.437500000000166 0.324759526419616 0 0.562500000000079 0.324759526419222 0 0.500000000000267 0.433012701892496 0 0.437500000000166 0.324759526419616 0 0.562500000000079 0.324759526419222 0 0.562500000000079 0.324759526419222 0 0.500000000000267 0.433012701892496 0 0.625000000000253 0.433012701892007 0 0.562500000000249 0.541265877365288 0 0.500000000000267 0.433012701892496 0 0.625000000000253 0.433012701892007 0 0.500000000000267 0.433012701892496 0 0.562500000000079 0.324759526419222 0 0.750000000000479 0.433012701891389 0 0.625000000000253 0.433012701892007 0 0.687500000000155 0.32475952641886 0 0.750000000000479 0.433012701891389 0 0.687500000000283 0.541265877364785 0 0.625000000000253 0.433012701892007 0 0.625000000000253 0.433012701892007 0 0.562500000000079 0.324759526419222 0 0.687500000000155 0.32475952641886 0 0.749999999999974 0.216506350945868 0 0.687500000000155 0.32475952641886 0 0.624999999999823 0.216506350946053 0 0.687500000000155 0.32475952641886 0 0.562500000000079 0.324759526419222 0 0.624999999999823 0.216506350946053 0 
</DataArray>
</Points>
<Cells>
<DataArray type="UInt32" Name="connectivity" format="ascii">
0 1 2 3 4 5 6 7 8 9 10 11 12 13 14 15 16 17 18 19 20 21 22 23 24 25 26 27 28 29 30 31 32 33 34 35 36 37 38 39 40 41 42 43 44 45 46 47 48 49 50 51 52 53 54 55 56 57 58 59 60 61 62 63 64 65 66 67 68 69 70 71 72 73 74 75 76 77 78 79 80 81 82 83 84 85 86 87 88 89 90 91 92 93 94 95 96 97 98 99 100 101 102 103 104 105 106 107 108 109 110 111 112 113 114 115 116 117 118 119 120 121 122 123 124 125 126 127 128 129 130 131 132 133 134 135 136 137 138 139 140 141 142 143 144 145 146 147 148 149 150 151 152 153 154 155 156 157 158 159 160 161 162 163 164 165 166 167 168 169 170 171 172 173 174 175 176 177 178 179 180 181 182 183 184 185 186 187 188 189 190 191 192 193 194 195 196 197 
</DataArray>
<DataArray type="UInt32" Name="offsets" format="ascii">
3 6 9 12 15 18 21 24 27 30 33 36 39 42 45 48 50 53 56 59 62 65 68 71 74 77 80 83 86 89 92 95 98 101 104 107 110 113 116 119 122 125 128 131 134 137 140 143 146 149 152 155 158 161 164 167 170 172 175 177 180 183 186 189 192 195 198 
</DataArray>
<DataArray type="UInt32" Name="types" format="ascii">
5 5 5 5 5 5 5 5 5 5 5 5 5 5 5 5 3 5 5 5 5 5 5 5 5 5 5 5 5 5 5 5 5 5 5 5 5 5 5 5 5 5 5 5 5 5 5 5 5 5 5 5 5 5 5 5 5 3 5 3 5 5 5 5 5 5 5 
</DataArray>
</Cells>
<PointData Scalars="A_conc," Vectors="" Tensors="">
<DataArray type="Float64" Name="A_conc" format="ascii">
-0.000235370374021145 0.000130308167884897 2.93089465627614e-05 2.6484164027728e-05 0.000104804238350373 -5.44973799124252e-05 -0.000272583005188457 -0.000540049175589332 0.000192656911594899 0.00221973093578164 -0.000666547946482216 -0.000346949089632273 0.00250257407460838 -0.000559495688905321 0.00059230267400191 4.54885644025524e-05 -0.000278185935111785 6.33628668726595e-05 0.000508084646416749 -0.000382288200272002 7.12993839077482e-05 -0.000942272698207276 0.000620436878551343 2.99429170853074e-05 0.00444068180241808 0.000886889361357814 -0.00123888399544579 -0.0110266562442841 0.00331306871123721 0.000665045540720722 0.00520334999253409 -0.0123177702847686 0.00118756219028933 -0.0333742192774427 -0.0163174783340376 0.00827629664419104 -0.030700786439089 0.00597398052994951 0.00597398373789399 0.00489950350787028 0.00489950145741712 -0.00241707859907945 -0.00195213804092144 0.0043136248662108 -0.00111176830412063 0.162182494844558 -0.0221650621807172 -0.0395588869933929 0.266547539730662 0.26643974926671 0.203413682162176 -0.065664991377297 0.203315964871637 0.148053116455816 -0.0166175136935936 -0.0161903141484975 0.161926267807244 -0.0216837634465481 -0.0387220585290683 -0.0395410149782111 -0.0221990821258367 0.162065610271121 -0.0123856883565742 -0.0128535443272193 0.00466196571652271 -0.0115729549386952 0.00121555075146951 0.00331755753895992 -0.0131616467533608 0.00937404194790043 0.00201129394782403 -0.0344130378830727 0.0122416777245757 -0.0169527705113829 -0.032288079163453 0.0105826406440019 0.0105893928970439 0.00253721828825842 0.00105681577605911 -0.000969442849357398 0.00256029894896004 -0.000932319704137577 0.00103458581147896 0.00333623400856309 0.00119617488995068 -0.0115349379862638 -0.0131330390637505 0.00199726325101671 0.00936831399272756 -0.0169266002977199 0.0122372801889116 -0.0344204942122029 -0.016577911434269 -0.0165778979467666 0.148211925757165 0.00119617309277688 0.00333623148445396 -0.0115349302926872 0.00467315386257869 -0.012793107346238 -0.0127931074323326 -0.000619873689195872 -0.000619873967620242 0.00224786457873625 0.00103458405979631 -0.000932318738121254 0.0025602978331383 0.0122372781995621 -0.0169265634206889 -0.0344205279466193 0.00936831754077892 0.00199725488912758 -0.0131330197159889 -0.000516808939087476 0.000422564127615728 -0.000516809134479111 -0.000969445259597877 0.0010568191695573 0.00253722305178244 0.00201130227108359 0.00937404723213734 -0.0131616761826416 0.00121555473303018 -0.0115729773257618 0.00331756492477644 0.000192657301206851 -0.000540050155385226 -0.000272583475919923 -5.44974720057361e-05 0.000104804399948516 2.64842147506736e-05 6.33629936502817e-05 -0.000278186345489842 4.54884865873461e-05 0.000130308386330215 -0.000235370721362654 2.9309004024036e-05 -0.000666549253036173 0.00221973446526279 -0.000346949769397248 0.00331307421094222 -0.0110266739981599 0.000665047987791351 0.00250257803880339 0.000592304320896376 -0.000559496858403908 2.99428428460568e-05 0.000620437951200666 -0.000942273452018999 -0.000382288805031282 0.000508085745385721 7.12993149640564e-05 0.000886890772738831 0.0044406839391643 -0.00123888507751679 -0.00111176917253689 0.00431362667273976 -0.00195213804933699 -0.0163174983764758 -0.033374221341794 0.0082763021480306 0.00118756413363887 -0.0123177863092531 0.0052033531199129 0.203222628940327 -0.0649187031939072 0.2032228275659 0.161926449746386 -0.0387220625889009 -0.0216837934841156 0.266393271440912 0.266393634476253 0.317374764566147 0.317238855790737 0.317239533368069 0.266441558947042 0.266545855309003 -0.0395589656583622 -0.022164978099744 0.162182287195862 -0.065665010043207 0.203413212477327 0.203316538437827 0.0122416901861023 -0.0344130319414742 -0.0169528166207415 0.0105894108889325 0.0105826304042454 -0.032288090959488 -0.0395409794300477 0.162065953503195 -0.0221991743115614 0.00466197751600407 -0.0128535697622828 -0.0123857152316074 -0.0166175454616972 0.148053337010116 -0.0161903583840331 
</DataArray>
</PointData>
</Piece>
</UnstructuredGrid>
</VTKFile>
