<?xml version="1.0"?>
<VTKFile type="UnstructuredGrid" version="0.1" byte_order="LittleEndian">
<UnstructuredGrid>
<Piece NumberOfPoints="2160" NumberOfCells="540">
<Points>
<DataArray type="Float64" NumberOfComponents="3" format="ascii">
-4.3301270160527148 -2.500000004970083 -12 -2.9547160992544761 -1.820741508163664 -15 -2.9547160992544761 -1.820741508163664 -12 -5 -1.397247784140632e-08 -12 -4.3301270160527148 -2.500000004970083 -12 -2.9547160992544761 -1.820741508163664 -15 -2.9547160992544761 -1.820741508163664 -12 -2.5000000000000022 -4.3301270189221919 -12 -4.3301270160527148 -2.500000004970083 -12 -4.3301270160527148 -2.500000004970083 -15 -2.9547160992544761 -1.820741508163664 -15 -2.5000000000000022 -4.3301270189221919 -12 -4.3301270160527148 -2.500000004970083 -12 -4.3301270160527148 -2.500000004970083 -15 -2.9547160992544761 -1.820741508163664 -15 -5 -1.397247784140632e-08 -15 -2.9547160992544761 -1.820741508163664 -15 -0.66987297914647026 -2.499999999706382 -15 -0.66987297914647026 -2.499999999706382 -12 -2.2735805010731909 0.22641949675281539 -12 -2.9547160992544761 -1.820741508163664 -15 -2.5000000000000022 -4.3301270189221919 -12 -0.66987297914647026 -2.499999999706382 -15 -0.66987297914647026 -2.499999999706382 -12 -2.9547160992544761 -1.820741508163664 -15 -2.9547160992544761 -1.820741508163664 -12 -0.66987297914647026 -2.499999999706382 -12 -2.2735805010731909 0.22641949675281539 -12 -2.9547160992544761 -1.820741508163664 -15 -2.9547160992544761 -1.820741508163664 -12 -2.5000000000000022 -4.3301270189221919 -12 -0.66987297914647026 -2.499999999706382 -12 -2.5000000000000022 -4.3301270189221919 -12 -2.5000000000000022 -4.3301270189221919 -15 -0.66987297914647026 -2.499999999706382 -15 6.9142305214597846e-09 -5 -12 -2.9547160992544761 -1.820741508163664 -15 -2.5000000000000022 -4.3301270189221919 -12 -2.5000000000000022 -4.3301270189221919 -15 -0.66987297914647026 -2.499999999706382 -15 -4.3301270160527148 -2.500000004970083 -15 -2.9547160992544761 -1.820741508163664 -15 -2.5000000000000022 -4.3301270189221919 -12 -2.5000000000000022 -4.3301270189221919 -15 -2.5000000000000022 -4.3301270189221919 -15 6.9142305214597846e-09 -5 -15 -0.66987297914647026 -2.499999999706382 -15 6.9142305214597846e-09 -5 -12 6.9142305214597846e-09 -5 -15 -0.66987297914647026 -2.499999999706382 -15 0.91506351643986317 -3.4150635091400758 -15 6.9142305214597846e-09 -5 -12 -0.66987297914647026 -2.499999999706382 -15 0.91506351643986317 -3.4150635091400758 -15 -0.66987297914647026 -2.499999999706382 -12 6.9142305214597846e-09 -5 -12 -0.66987297914647026 -2.499999999706382 -15 0.95458002071209891 -1.657898275923388 -15 -0.66987297914647026 -2.499999999706382 -12 0.20080558631870429 0.033909897404034287 -15 -0.66987297914647026 -2.499999999706382 -15 0.95458002071209891 -1.657898275923388 -15 0.91506351643986317 -3.4150635091400758 -15 -0.66987297914647026 -2.499999999706382 -12 0.95458002071209891 -1.657898275923388 -15 0.91506351643986317 -3.4150635091400758 -15 0.91506351643986317 -3.4150635091400758 -12 -0.66987297914647026 -2.499999999706382 -12 0.95458002071209891 -1.657898275923388 -15 2.217625015551433 -2.5696135239339939 -15 0.95458002071209891 -1.657898275923388 -12 2.3883545080289421 -0.94497882694672608 -12 0.95458002071209891 -1.657898275923388 -15 2.217625015551433 -2.5696135239339939 -15 2.3883545080289421 -0.94497882694672608 -12 2.3883545080289421 -0.94497882694672608 -15 0.95458002071209891 -1.657898275923388 -15 2.217625015551433 -2.5696135239339939 -15 0.91506351643986317 -3.4150635091400758 -12 0.95458002071209891 -1.657898275923388 -12 0.95458002071209891 -1.657898275923388 -15 2.217625015551433 -2.5696135239339939 -15 0.91506351643986317 -3.4150635091400758 -15 0.91506351643986317 -3.4150635091400758 -12 2.217625015551433 -2.5696135239339939 -15 0.91506351643986317 -3.4150635091400758 -15 2.500000010727558 -4.3301270127286351 -15 2.500000010727558 -4.3301270127286351 -12 6.9142305214597846e-09 -5 -15 0.91506351643986317 -3.4150635091400758 -15 6.9142305214597846e-09 -5 -12 2.500000010727558 -4.3301270127286351 -12 6.9142305214597846e-09 -5 -15 0.91506351643986317 -3.4150635091400758 -15 2.500000010727558 -4.3301270127286351 -15 2.500000010727558 -4.3301270127286351 -12 2.217625015551433 -2.5696135239339939 -15 0.91506351643986317 -3.4150635091400758 -15 0.91506351643986317 -3.4150635091400758 -12 2.500000010727558 -4.3301270127286351 -12 0.91506351643986317 -3.4150635091400758 -15 0.91506351643986317 -3.4150635091400758 -12 6.9142305214597846e-09 -5 -12 2.500000010727558 -4.3301270127286351 -12 2.217625015551433 -2.5696135239339939 -15 0.91506351643986317 -3.4150635091400758 -12 2.217625015551433 -2.5696135239339939 -12 2.500000010727558 -4.3301270127286351 -12 2.217625015551433 -2.5696135239339939 -15 2.217625015551433 -2.5696135239339939 -12 0.95458002071209891 -1.657898275923388 -12 2.3883545080289421 -0.94497882694672608 -12 2.217625015551433 -2.5696135239339939 -15 0.91506351643986317 -3.4150635091400758 -12 2.217625015551433 -2.5696135239339939 -12 0.95458002071209891 -1.657898275923388 -12 0.95458002071209891 -1.657898275923388 -15 0.91506351643986317 -3.4150635091400758 -12 0.95458002071209891 -1.657898275923388 -12 -0.66987297914647026 -2.499999999706382 -12 0.95458002071209891 -1.657898275923388 -15 0.95458002071209891 -1.657898275923388 -12 -0.66987297914647026 -2.499999999706382 -12 0.20080558631870429 0.033909897404034287 -12 0.91506351643986317 -3.4150635091400758 -15 0.91506351643986317 -3.4150635091400758 -12 -0.66987297914647026 -2.499999999706382 -12 6.9142305214597846e-09 -5 -12 -2.5000000000000022 -4.3301270189221919 -12 -0.66987297914647026 -2.499999999706382 -15 -0.66987297914647026 -2.499999999706382 -12 6.9142305214597846e-09 -5 -12 0.91506351643986317 -3.4150635091400758 -12 -0.66987297914647026 -2.499999999706382 -12 6.9142305214597846e-09 -5 -12 6.9142305214597846e-09 -5 -9 0.91506351643986317 -3.4150635091400758 -12 0.91506351643986317 -3.4150635091400758 -9 -0.66987297914647026 -2.499999999706382 -9 6.9142305214597846e-09 -5 -9 0.91506351643986317 -3.4150635091400758 -12 -0.66987297914647026 -2.499999999706382 -12 -0.66987297914647026 -2.499999999706382 -9 6.9142305214597846e-09 -5 -9 -0.66987297914647026 -2.499999999706382 -12 -0.66987297914647026 -2.499999999706382 -9 6.9142305214597846e-09 -5 -9 -2.5000000000000022 -4.3301270189221919 -9 -2.5000000000000022 -4.3301270189221919 -12 -0.66987297914647026 -2.499999999706382 -12 6.9142305214597846e-09 -5 -12 6.9142305214597846e-09 -5 -9 0.95458002071209891 -1.657898275923388 -12 -0.66987297914647026 -2.499999999706382 -12 -0.66987297914647026 -2.499999999706382 -9 0.20080558631870429 0.033909897404034287 -12 0.91506351643986317 -3.4150635091400758 -12 0.95458002071209891 -1.657898275923388 -12 0.91506351643986317 -3.4150635091400758 -9 -0.66987297914647026 -2.499999999706382 -9 0.95458002071209891 -1.657898275923388 -12 0.95458002071209891 -1.657898275923388 -9 -0.66987297914647026 -2.499999999706382 -9 0.20080558631870429 0.033909897404034287 -9 0.91506351643986317 -3.4150635091400758 -12 0.95458002071209891 -1.657898275923388 -12 -0.66987297914647026 -2.499999999706382 -12 -0.66987297914647026 -2.499999999706382 -9 0.95458002071209891 -1.657898275923388 -12 0.91506351643986317 -3.4150635091400758 -9 0.95458002071209891 -1.657898275923388 -9 -0.66987297914647026 -2.499999999706382 -9 2.217625015551433 -2.5696135239339939 -12 0.95458002071209891 -1.657898275923388 -9 2.217625015551433 -2.5696135239339939 -9 2.3883545080289421 -0.94497882694672608 -9 2.217625015551433 -2.5696135239339939 -12 0.95458002071209891 -1.657898275923388 -12 2.3883545080289421 -0.94497882694672608 -9 2.3883545080289421 -0.94497882694672608 -12 2.217625015551433 -2.5696135239339939 -12 0.95458002071209891 -1.657898275923388 -12 0.95458002071209891 -1.657898275923388 -9 2.3883545080289421 -0.94497882694672608 -9 2.217625015551433 -2.5696135239339939 -12 0.95458002071209891 -1.657898275923388 -12 0.91506351643986317 -3.4150635091400758 -9 0.95458002071209891 -1.657898275923388 -9 0.91506351643986317 -3.4150635091400758 -12 2.217625015551433 -2.5696135239339939 -12 0.95458002071209891 -1.657898275923388 -12 0.91506351643986317 -3.4150635091400758 -9 2.217625015551433 -2.5696135239339939 -12 0.91506351643986317 -3.4150635091400758 -9 0.95458002071209891 -1.657898275923388 -9 2.217625015551433 -2.5696135239339939 -9 0.91506351643986317 -3.4150635091400758 -12 6.9142305214597846e-09 -5 -12 2.500000010727558 -4.3301270127286351 -12 2.500000010727558 -4.3301270127286351 -9 0.91506351643986317 -3.4150635091400758 -12 0.91506351643986317 -3.4150635091400758 -9 6.9142305214597846e-09 -5 -9 2.500000010727558 -4.3301270127286351 -9 0.91506351643986317 -3.4150635091400758 -12 6.9142305214597846e-09 -5 -12 6.9142305214597846e-09 -5 -9 2.500000010727558 -4.3301270127286351 -9 0.91506351643986317 -3.4150635091400758 -12 2.217625015551433 -2.5696135239339939 -12 0.91506351643986317 -3.4150635091400758 -9 2.500000010727558 -4.3301270127286351 -9 0.91506351643986317 -3.4150635091400758 -12 2.217625015551433 -2.5696135239339939 -12 2.500000010727558 -4.3301270127286351 -12 2.500000010727558 -4.3301270127286351 -9 2.217625015551433 -2.5696135239339939 -12 0.91506351643986317 -3.4150635091400758 -9 2.217625015551433 -2.5696135239339939 -9 2.500000010727558 -4.3301270127286351 -9 0.91506351643986317 -3.4150635091400758 -9 6.9142305214597846e-09 -5 -9 2.500000010727558 -4.3301270127286351 -9 2.500000010727558 -4.3301270127286351 -6 0.91506351643986317 -3.4150635091400758 -9 2.217625015551433 -2.5696135239339939 -9 2.500000010727558 -4.3301270127286351 -9 2.500000010727558 -4.3301270127286351 -6 0.91506351643986317 -3.4150635091400758 -9 0.95458002071209891 -1.657898275923388 -9 2.217625015551433 -2.5696135239339939 -9 0.91506351643986317 -3.4150635091400758 -6 0.95458002071209891 -1.657898275923388 -9 2.217625015551433 -2.5696135239339939 -9 2.3883545080289421 -0.94497882
[...]
<PointData Scalars="" Vectors="displacement," Tensors="">
<DataArray type="Float64" Name="displacement" NumberOfComponents="3" format="ascii">
-1.3343361732137125e-07 -1.9517228944802359e-08 -0.00025021886095123714 2.451532548038507e-08 1.615269327480775e-08 -1.8749940775724279e-07 -8.4334850803997776e-08 -2.3212616966027875e-08 -0.00025021819016785252 -1.2759872420801931e-07 4.9916602955164639e-08 -0.00025023837548376714 -1.3343361732137125e-07 -1.9517228944802359e-08 -0.00025021886095123714 2.451532548038507e-08 1.615269327480775e-08 -1.8749940775724279e-07 -8.4334850803997776e-08 -2.3212616966027875e-08 -0.00025021819016785252 -1.0075478888589691e-07 -8.6367730963087826e-08 -0.00025023334340976285 -1.3343361732137125e-07 -1.9517228944802359e-08 -0.00025021886095123714 -5.463024700871179e-08 -3.5568358125779919e-08 -1.055848433596129e-07 2.451532548038507e-08 1.6152693274807753e-08 -1.8749940775724279e-07 -1.0075478888589691e-07 -8.6367730963087826e-08 -0.00025023334340976285 -1.3343361732137125e-07 -1.9517228944802359e-08 -0.00025021886095123714 -5.463024700871179e-08 -3.5568358125779919e-08 -1.055848433596129e-07 2.4515325480385074e-08 1.6152693274807757e-08 -1.8749940775722943e-07 -5.2296049020693981e-08 -4.3714243651566871e-09 -2.4535999092586565e-07 2.451532548038507e-08 1.615269327480775e-08 -1.8749940775724279e-07 -2.6317440650677755e-09 1.1332136717148322e-08 -2.1468366431767207e-07 -4.015708419190084e-08 -5.0912315914635498e-08 -0.00025020398668888831 -5.4681293732441403e-08 1.3878495900528862e-08 -0.00025020481899141816 2.451532548038507e-08 1.615269327480775e-08 -1.8749940775724279e-07 -1.0075478888589694e-07 -8.6367730963087839e-08 -0.00025023334340976285 -2.6317440650677697e-09 1.133213671714832e-08 -2.1468366431768433e-07 -4.0157084191900794e-08 -5.0912315914635485e-08 -0.00025020398668888837 2.451532548038507e-08 1.615269327480775e-08 -1.8749940775724279e-07 -8.4334850803997776e-08 -2.3212616966027875e-08 -0.00025021819016785252 -4.0157084191900847e-08 -5.0912315914635524e-08 -0.00025020398668888831 -5.4681293732441416e-08 1.3878495900528871e-08 -0.00025020481899141816 2.451532548038507e-08 1.615269327480775e-08 -1.8749940775724279e-07 -8.4334850803997776e-08 -2.3212616966027875e-08 -0.00025021819016785252 -1.0075478888589693e-07 -8.6367730963087826e-08 -0.00025023334340976285 -4.0157084191900814e-08 -5.0912315914635485e-08 -0.00025020398668888831 -1.0075478888589691e-07 -8.6367730963087826e-08 -0.00025023334340976285 -2.4656536901531621e-08 -4.6470928894291109e-08 -2.3441202925225445e-07 -2.631744065067771e-09 1.1332136717148318e-08 -2.1468366431767207e-07 -5.1940914361680356e-08 -1.2724769330035405e-07 -0.00025020776109035747 2.451532548038507e-08 1.615269327480775e-08 -1.8749940775724279e-07 -1.0075478888589691e-07 -8.6367730963087826e-08 -0.00025023334340976285 -2.4656536901531621e-08 -4.6470928894291109e-08 -2.3441202925225445e-07 -2.6317440650677755e-09 1.1332136717148322e-08 -2.1468366431767207e-07 -5.463024700871179e-08 -3.5568358125779919e-08 -1.055848433596129e-07 2.4515325480385067e-08 1.6152693274807753e-08 -1.8749940775724279e-07 -1.0075478888589691e-07 -8.6367730963087826e-08 -0.00025023334340976285 -2.4656536901531621e-08 -4.6470928894291109e-08 -2.3441202925225445e-07 -2.4656536901531621e-08 -4.6470928894291109e-08 -2.3441202925225445e-07 5.0248037134977246e-09 -5.2720990687590254e-08 -1.8098150367160691e-07 -2.6317440650677755e-09 1.1332136717148322e-08 -2.1468366431767207e-07 -5.1940914361680369e-08 -1.2724769330035405e-07 -0.00025020776109035752 5.0248037134977287e-09 -5.2720990687590254e-08 -1.8098150367158224e-07 -2.6317440650677755e-09 1.1332136717148322e-08 -2.1468366431767207e-07 -4.8807952531479782e-09 1.6546708482201995e-08 -9.7709441583693451e-08 -5.1940914361680356e-08 -1.2724769330035405e-07 -0.00025020776109035747 -2.6317440650677755e-09 1.1332136717148322e-08 -2.1468366431767207e-07 -4.8807952531479782e-09 1.6546708482201995e-08 -9.7709441583693451e-08 -4.015708419190084e-08 -5.0912315914635498e-08 -0.00025020398668888831 -5.1940914361680356e-08 -1.2724769330035407e-07 -0.00025020776109035747 -2.6317440650677755e-09 1.1332136717148322e-08 -2.1468366431767207e-07 5.7103991761961269e-09 -9.189754864444923e-09 -7.2571557769607589e-08 -4.015708419190084e-08 -5.0912315914635498e-08 -0.00025020398668888831 3.7897891307165084e-09 2.5030884340247901e-09 -1.8649049483760925e-07 -2.6317440650677755e-09 1.1332136717148322e-08 -2.1468366431767207e-07 5.7103991761961269e-09 -9.189754864444923e-09 -7.2571557769607589e-08 -4.8807952531479782e-09 1.6546708482201995e-08 -9.7709441583693451e-08 -4.015708419190084e-08 -5.0912315914635498e-08 -0.00025020398668888831 5.7103991761961269e-09 -9.189754864444923e-09 -7.2571557769607589e-08 -4.8807952531479782e-09 1.6546708482201995e-08 -9.7709441583693451e-08 -5.109022312343975e-09 -8.4147681616585962e-08 -0.00025018507413545645 -4.015708419190084e-08 -5.0912315914635498e-08 -0.00025020398668888831 5.7103991761961269e-09 -9.189754864444923e-09 -7.2571557769607589e-08 -1.2701597023736491e-08 1.1314999334895e-08 -9.8543763430537728e-08 1.2402946992840323e-08 -4.2728827729082729e-08 -0.00025018016420011842 5.3191271019807429e-08 -2.6642587288946523e-08 -0.00025019539493019536 5.7103991761961269e-09 -9.189754864444923e-09 -7.2571557769607589e-08 -1.2701597023736491e-08 1.1314999334895e-08 -9.8543763430537728e-08 5.3191271019807429e-08 -2.6642587288946523e-08 -0.00025019539493019536 -1.2601065194094973e-08 4.7781306176367704e-09 -1.7697879196413051e-07 5.7103991761961269e-09 -9.189754864444923e-09 -7.2571557769607589e-08 -1.2701597023736491e-08 1.1314999334895e-08 -9.8543763430537728e-08 -5.109022312343975e-09 -8.4147681616585962e-08 -0.00025018507413545645 1.2402946992840323e-08 -4.2728827729082729e-08 -0.00025018016420011842 5.7103991761961269e-09 -9.189754864444923e-09 -7.2571557769607589e-08 -1.2701597023736491e-08 1.1314999334895e-08 -9.8543763430537728e-08 -4.8807952531479782e-09 1.6546708482201995e-08 -9.7709441583693451e-08 -5.109022312343975e-09 -8.4147681616585962e-08 -0.00025018507413545645 -1.2701597023736491e-08 1.1314999334895e-08 -9.8543763430537728e-08 -4.8807952531479782e-09 1.6546708482201995e-08 -9.7709441583693451e-08 2.9118623099835465e-08 -4.4973803751486886e-08 -1.3795280499343213e-07 1.9424314648130444e-08 -1.3542569447103803e-07 -0.00025019745934988589 5.0248037134977287e-09 -5.2720990687590254e-08 -1.8098150367158224e-07 -4.8807952531479889e-09 1.6546708482202012e-08 -9.7709441583693438e-08 -5.1940914361680356e-08 -1.2724769330035405e-07 -0.00025020776109035747 1.942431464813048e-08 -1.3542569447103805e-07 -0.00025019745934988589 5.0248037134977287e-09 -5.2720990687590254e-08 -1.8098150367158224e-07 -4.880795253147984e-09 1.6546708482202002e-08 -9.7709441583705786e-08 2.9118623099835465e-08 -4.4973803751486886e-08 -1.3795280499343213e-07 1.9424314648130444e-08 -1.3542569447103803e-07 -0.00025019745934988589 -1.2701597023736491e-08 1.1314999334895e-08 -9.8543763430537728e-08 -4.8807952531479782e-09 1.6546708482201995e-08 -9.7709441583693451e-08 -5.109022312343975e-09 -8.4147681616585962e-08 -0.00025018507413545645 1.9424314648130444e-08 -1.3542569447103803e-07 -0.00025019745934988589 -4.8807952531479782e-09 1.6546708482201995e-08 -9.7709441583693451e-08 -5.109022312343975e-09 -8.4147681616585962e-08 -0.00025018507413545645 -5.1940914361680356e-08 -1.2724769330035405e-07 -0.00025020776109035747 1.9424314648130444e-08 -1.3542569447103803e-07 -0.00025019745934988589 -1.2701597023736491e-08 1.1314999334895e-08 -9.8543763430537728e-08 -5.109022312343975e-09 -8.4147681616585962e-08 -0.00025018507413545645 3.6405689356574334e-08 -7.0375167481855368e-08 -0.00025018848982403743 1.9424314648130444e-08 -1.3542569447103803e-07 -0.00025019745934988589 -1.2701597023736491e-08 1.1314999334895e-08 -9.8543763430537728e-08 3.6405689356574334e-08 -7.0375167481855368e-08 -0.00025018848982403743 1.2402946992840355e-08 -4.2728827729082702e-08 -0.00025018016420011842 5.3191271019807389e-08 -2.6642587288946509e-08 -0.00025019539493019536 -1.2701597023736491e-08 1.1314999334895e-08 -9.8543763430537728e-08 -5.109022312343975e-09 -8.4147681616585962e-08 -0.00025018507413545645 3.6405689356574334e-08 -7.0375167481855368e-08 -0.00025018848982403743 1.2402946992840323e-08 -4.2728827729082729e-08 -0.00025018016420011842 5.7103991761961269e-09 -9.189754864444923e-09 -7.2571557769607589e-08 -5.109022312343975e-09 -8.4147681616585962e-08 -0.00025018507413545645 1.2402946992840323e-08 -4.2728827729082729e-08 -0.00025018016420011842 -4.015708419190084e-08 -5.0912315914635498e-08 -0.00025020398668888831 5.7103991761961269e-09 -9.189754864444923e-09 -7.2571557769607589e-08 1.2402946992840323e-08 -4.2728827729082729e-08 -0.00025018016420011842 -4.0157084191900847e-08 -5.0912315914635471e-08 -0.00025020398668888826 4.6049871309982251e-09 -1.6664807229212885e-10 -0.00025019722130685735 -4.8807952531479782e-09 1.6546708482201995e-08 -9.7709441583693451e-08 -5.109022312343975e-09 -8.4147681616585962e-08 -0.00025018507413545645 -4.015708419190084e-08 -5.0912315914635498e-08 -0.00025020398668888831 -5.1940914361680356e-08 -1.2724769330035405e-07 -0.00025020776109035747 -1.0075478888589691e-07 -8.6367730963087826e-08 -0.00025023334340976285 -2.6317440650677739e-09 1.1332136717148315e-08 -2.1468366431767207e-07 -4.015708419190084e-08 -5.0912315914635498e-08 -0.00025020398668888831 -5.1940914361680356e-08 -1.2724769330035405e-07 -0.00025020776109035747 -5.109022312343975e-09 -8.4147681616585962e-08 -0.00025018507413545645 -4.015708419190084e-08 -5.0912315914635498e-08 -0.00025020398668888831 -5.1940914361680356e-08 -1.2724769330035405e-07 -0.00025020776109035747 1.3426881953530946e-08 -1.0928213917655399e-07 -0.00050024183603021978 -5.109022312343975e-09 -8.4147681616585962e-08 -0.00025018507413545645 2.1585568608155909e-08 -7.384229229133834e-08 -0.00050023705327713439 -1.7763088572694871e-08 -5.5698635139338912e-08 -0.00050024072692774217 1.3426881953530946e-08 -1.0928213917655399e-07 -0.00050024183603021978 -5.109022312343975e-09 -8.4147681616585962e-08 -0.00025018507413545645 -4.015708419190084e-08 -5.0912315914635498e-08 -0.00025020398668888831 -1.7763088572694871e-08 -5.5698635139338912e-08 -0.00050024072692774217 1.3426881953530946e-08 -1.0928213917655399e-07 -0.00050024183603021978 -4.015708419190084e-08 -5.0912315914635498e-08 -0.00025020398668888831 -1.7763088572694871e-08 -5.5698635139338912e-08 -0.00050024072692774217 1.3426881953530946e-08 -1.0928213917655401e-07 -0.00050024183603021978 -4.4958311441776917e-08 -1.0091920827682727e-07 -0.000500251450020365 -1.0075478888589691e-07 -8.6367730963087826e-08 -0.00025023334340976285 -4.015708419190084e-08 -5.0912315914635504e-08 -0.00025020398668888831 -5.1940914361680356e-08 -1.2724769330035405e-07 -0.00025020776109035747 1.3426881953530946e-08 -1.0928213917655399e-07 -0.00050024183603021978 1.2402946992840323e-08 -4.2728827729082729e-08 -0.00025018016420011842 -4.015708419190084e-08 -5.0912315914635498e-08 -0.00025020398668888831 -1.7763088572694871e-08 -5.5698635139338912e-08 -0.00050024072692774217 4.6049871309982557e-09 -1.6664807229213278e-10 -0.00025019722130685735 -5.109022312343975e-09 -8.4147681616585962e-08 -0.00025018507413545645 1.2402946992840323e-08 -4.2728827729082729e-08 -0.00025018016420011842 2.1585568608155909e-08 -7.384229229133834e-08 -0.00050023705327713439 -1.7763088572694871e-08 -5.5698635139338912e-08 -0.00050024072692774217 1.2402946992840323e-08 -4.2728827729082729e-08 -0.00025018016420011842 2.1896962331894854e-08 -3.3945748210187888e-08 -0.00050023617907913015 -1.7763088572694877e-08 -5.5698635139338899e-08 -0.00050024072692774217 5.2855182073321137e-09 3.3977405201627268e-09 -0.00050024015126507978 -5.109022312343975e-09 -8.4147681616585962e-08 -0.00025018507413545645 1.2402946992840323e-08 -4.2728827729082729e-08 -0.00025018016420011842 -4.015708419190084e-08 -5.0912315914635498e-08 -0.00025020398668888831 -1.7763088572694871e-08 -5.5698635139338912e-08 -0.00050024072692774217 1.2402946992840323e-08 -4.2728827729082729e-08 -0.00025018016420011842 2.1585568608155909e-08 -7.384229229133834e-08 -0.00050023705327713439 2.1896962331894854e-08 -3.3945748210187888e-08 -0.00050023617907913015 -1.7763088572694871e-08 -5.5698635139338912e-08 -0.00050024072692774217 3.6405689356574334e-08 -7.0375167481855368e-08 -0.00025018848982403743 2.189696233189487e-08 -3.3945748210187868e-08 -0.00050023617907913015 5.1804561570856699e-08 -5.3006081235865543e-08 -0.00050023741580114064 5.473728295445395e-08 -1.5672700462394308e-08 -0.0005002419475431208 3.6405689356574334e-08 -7.0375167481855368e-08 -0.00025018848982403743 1.2402946992840323e-08 -4.2728827729082729e-08 -0.00025018016420011842 5.4737282954453963e-08 -1.5672700462394327e-08 -0.0005002419475431208 5.3191271019807429e-08 -2.6642587288946523e-08 -0.00025019539493019536 3.6405689356574334e-08 -7.0375167481855368e-08 -0.00025018848982403743 1.2402946992840323e-08 -4.2728827729082729e-08 -0.00025018016420011842 2.1896962331894877e-08 -3.3945748210187862e-08 -0.00050023617907913015 5.4737282954453943e-08 -1.5672700462394347e-08 -0.0005002419475431208 3.6405689356574334e-08 -7.0375167481855368e-08 -0.00025018848982403743 1.2402946992840323e-08 -4.2728827729082729e-08 -0.00025018016420011842 2.1585568608155909e-08 -7.384229229133834e-08 -0.00050023705327713439 2.1896962331894854e-08 -3.3945748210187888e-08 -0.00050023617907913015 -5.109022312343975e-09 -8.4147681616585962e-08 -0.00025018507413545645 3.6405689356574334e-08 -7.0375167481855368e-08 -0.00025018848982403743 1.2402946992840323e-08 -4.2728827729082729e-08 -0.00025018016420011842 2.1585568608155909e-08 -7.384229229133834e-08 -0.00050023705327713439 3.6405689356574334e-08 -7.0375167481855368e-08 -0.00025018848982403743 2.1585568608155909e-08 -7.384229229133834e-08 -0.00050023705327713439 2.1896962331894854e-08 -3.3945748210187888e-08 -0.00050023617907913015 5.1804561570856699e-08 -5.3006081235865537e-08 -0.00050023741580114064 -5.109022312343975e-09 -8.4147681616585962e-08 -0.00025018507413545645 -5.1940914361680356e-08 -1.2724769330035405e-07 -0.00025020776109035747 1.9424314648130444e-08 -1.3542569447103803e-07 -0.00025019745934988589 6.6421010714766906e-08 -8.791066770644301e-08 -0.00050023805665007652 -5.109022312343975e-09 -8.4147681616585962e-08 -0.00025018507413545645 2.1585568608155909e-08 -7.384229229133834e-08 -0.00050023705327713439 1.3426881953530946e-08 -1.0928213917655399e-07 -0.00050024183603021978 6.6421010714766906e-08 -8.791066770644301e-08 -0.00050023805665007652 -5.109022312343975e-09 -8.4147681616585962e-08 -0.00025018507413545645 -5.1940914361680356e-08 -1.2724769330035405e-07 -0.00025020776109035747 1.3426881953530946e-08 -1.0928213917655399e-07 -0.00050024183603021978 6.6421010714766906e-08 -8.791066770644301e-08 -0.00050023805665007652 -5.109022312343975e-09 -8.4147681616585962e-08 -0.00025018507413545645 3.6405689356574334e-08 -7.0375167481855368e-08 -0.00025018848982403743 2.1585568608155909e-08 -7.384229229133834e-08 -0.00050023705327713439 6.6421010714766906e-08 -8.791066770644301e-08 -0.00050023805665007652 -5.109022312343975e-09 -8.4147681616585962e-08 -0.00025018507413545645 3.6405689356574334e-08 -7.0375167481855368e-08 -0.00025018848982403743 1.9424314648130444e-08 -1.3542569447103803e-07 -0.00025019745934988589 6.6421010714766906e-08 -8.791066770644301e-08 -0.00050023805665007652 3.6405689356574334e-08 -7.0375167481855368e-08 -0.00025018848982403743 2.1585568608155909e-08 -7.384229229133834e-08 -0.00050023705327713439 5.1804561570856699e-08 -5.3006081235865537e-08 -0.00050023741580114064 6.6421010714766906e-08 -8.791066770644301e-08 -0.00050023805665007652 2.1585568608155909e-08 -7.384229229133834e-08 -0.00050023705327713439 1.3426881953530946e-08 -1.0928213917655399e-07 -0.00050024183603021978 6.6421010714766906e-08 -8.791066770644301e-08 -0.00050023805665007652 5.4070236637140555e-08 -9.7714493793847059e-08 -0.00075027449352672892 2.1585568608155909e-08 -7.384229229133834e-08 -0.00050023705327713439 5.1804561570856699e-08 -5.3006081235865537e-08 -0.00050023741580114064 6.6421010714766906e-08 -8.791066770644301e-08 -0.00050023805665007652 5.4070236637140555e-08 -9.7714493793847059e-08 -0.00075027449352672892 2.1585568608155909e-08 -7.384229229133834e-08 -0.00050023705327713439 2.1896962331894854e-08 -3.3945748210187888e-08 -0.00050023617907913015 5.1804561570856699e-08 -5.3006081235865537e-08 -0.00050023741580114064 1.9446258870483048e-08 -7.5921511202779287e-08 -0.00075027448187290138 2.1896962331894854e-08 -3.3945748210187888e-08 -0.00050023617907913015 5.1804561570856699e-08 -5.3006081235865537e-08 -0.00050023741580114064 5.4737282954453963e-08 -1.5672700462394327e-08 -0.0005002419475431208 5.3659635485249457e-08 -1.9712139887736218e-08 -0.00075027713252304618 2.1585568608155909e-08 -7.384229229133834e-08 -0.00050023705327713439 2.1896962331894854e-08 -3.3945748210187888e-08 -0.00050023617907913015 -1.7763088572694871e-08 -5.5698635139338912e-08 -0.00050024072692774217 -1.651461934703233e-08 -5.5258126422613687e-08 -0.00075027529645470433 2.1896962331894854e-08 -3.3945748210187888e-08 -0.00050023617907913015 -1.7763088572694871e-08 -5.5698635139338912e-08 -0.00050024072692774217 5.2855182073321385e-09 3.3977405201627314e-09 -0.00050024015126507978 -1.651461934703233e-08 -5.5258126422613687e-08 -0.00075027529645470433 -1.7763088572694871e-08 -5.5698635139338912e-08 -0.00050024072692774217 1.3426881953530946e-08 -1.0928213917655399e-07 -0.00050024183603021978 -4.4958311441776937e-08 -1.0091920827682727e-07 -0.000500251450020365 -1.9358064731067456e-09 -1.1165195407944778e-07 -0.0007502748600276487 2.1585568608155909e-08 -7.384229229133834e-08 -0.00050023705327713439 -1.7763088572694871e-08 -5.5698635139338912e-08 -0.00050024072692774217 1.3426881953530946e-08 -1.0928213917655399e-07 -0.00050024183603021978 -1.9358064731067414e-09 -1.1165195407944778e-07 -0.00075027486002764859 -1.7763088572694871e-08 -5.5698635139338912e-08 -0.00050024072692774217 -4.4958311441776943e-08 -1.0091920827682727e-07 -0.000500251450020365 -6.5683348630353143e-08 -4.3493399705118859e-08 -0.0005002454410581457 -5.7170960326111917e-08 -9.5808094098703218e-08 -0.00075027803755020768 -4.4958311441776937e-08 -1.0091920827682727e-07 -0.000500251450020365 -8.7987115773929424e-08 -6.6310499983682112e-08 -0.00050024670705173821 -6.5683348630353143e-08 -4.3493399705118859e-08 -0.0005002454410581457 -5.7170960326111917e-08 -9.5808094098703218e-08 -0.00075027803755020768 -1.0075478888589691e-07 -8.6367730963087826e-08 -0.00025023334340976285 -4.0157084191900834e-08 -5.0912315914635498e-08 -0.00025020398668888831 1.3426881953530952e-08 -1.09282139176554e-07 -0.00050024183603021967 -4.4958311441776937e-08 -1.0091920827682727e-07 -0.000500251450020365 -8.4334850803997776e-08 -2.3212616966027875e-08 -0.00025021819016785252 -1.0075478888589691e-07 -8.6367730963087826e-08 -0.00025023334340976285 -4.015708419190084e-08 -5.0912315914635498e-08 -0.00025020398668888831 -4.4958311441776937e-08 -1.0091920827682727e-07 -0.000500251450020365 -1.3343361732137125e-07 -1.9517228944802359e-08 -0.00025021886095123714 -8.4334850803997776e-08 -2.3212616966027872e-08 -0.00025021819016785252 -1.0075478888589691e-07 -8.6367730963087826e-08 -0.00025023334340976285 -4.4958311441776937e-08 -1.0091920827682727e-07 -0.000500251450020365 -8.4334850803997776e-08 -2.3212616966027875e-08 -0.00025021819016785252 -1.7763088572694851e-08 -5.5698635139338919e-08 -0.00050024072692774217 -6.5683348630353156e-08 -4.3493399705118859e-08 -0.00050024544105814581 -5.0932247060171055e-08 3.0316840469202586e-09 -0.00050024263792330774 -8.4334850803997776e-08 -2.3212616966027875e-08 -0.00025021819016785252 -1.7763088572694851e-08 -5.5698635139338886e-08 -0.00050024072692774217 -4.495831144177695e-08 -1.0091920827682726e-07 -0.00050025145002036489 -6.5683348630353143e-08 -4.3493399705118859e-08 -0.0005002454410581457 -8.433485080399777