<?xml version="1.0"?>
<VTKFile type="UnstructuredGrid" version="0.1" byte_order="LittleEndian">
<UnstructuredGrid>
<Piece NumberOfPoints="2160" NumberOfCells="540">
<Points>
<DataArray type="Float64" NumberOfComponents="3" format="ascii">
-4.3301270160527148 -2.500000004970083 -12 -5 -1.397247784140632e-08 -12 -2.9547160992544761 -1.820741508163664 -12 -2.9547160992544761 -1.820741508163664 -15 -2.5000000000000022 -4.3301270189221919 -12 -4.3301270160527148 -2.500000004970083 -12 -2.9547160992544761 -1.820741508163664 -12 -2.9547160992544761 -1.820741508163664 -15 -4.3301270160527148 -2.500000004970083 -15 -2.5000000000000022 -4.3301270189221919 -12 -2.9547160992544761 -1.820741508163664 -15 -4.3301270160527148 -2.500000004970083 -12 -5 -1.397247784140632e-08 -15 -4.3301270160527148 -2.500000004970083 -15 -2.9547160992544761 -1.820741508163664 -15 -4.3301270160527148 -2.500000004970083 -12 -0.66987297914647026 -2.499999999706382 -15 -2.2735805010731909 0.22641949675281539 -12 -2.9547160992544761 -1.820741508163664 -15 -0.66987297914647026 -2.499999999706382 -12 -2.5000000000000022 -4.3301270189221919 -12 -0.66987297914647026 -2.499999999706382 -12 -0.66987297914647026 -2.499999999706382 -15 -2.9547160992544761 -1.820741508163664 -15 -2.2735805010731909 0.22641949675281539 -12 -0.66987297914647026 -2.499999999706382 -12 -2.9547160992544761 -1.820741508163664 -12 -2.9547160992544761 -1.820741508163664 -15 -0.66987297914647026 -2.499999999706382 -12 -2.5000000000000022 -4.3301270189221919 -12 -2.9547160992544761 -1.820741508163664 -12 -2.9547160992544761 -1.820741508163664 -15 -2.5000000000000022 -4.3301270189221919 -15 6.9142305214597846e-09 -5 -12 -0.66987297914647026 -2.499999999706382 -15 -2.5000000000000022 -4.3301270189221919 -12 -2.5000000000000022 -4.3301270189221919 -15 -0.66987297914647026 -2.499999999706382 -15 -2.9547160992544761 -1.820741508163664 -15 -2.5000000000000022 -4.3301270189221919 -12 -4.3301270160527148 -2.500000004970083 -15 -2.5000000000000022 -4.3301270189221919 -15 -2.9547160992544761 -1.820741508163664 -15 -2.5000000000000022 -4.3301270189221919 -12 -2.5000000000000022 -4.3301270189221919 -15 6.9142305214597846e-09 -5 -15 -0.66987297914647026 -2.499999999706382 -15 6.9142305214597846e-09 -5 -12 -0.66987297914647026 -2.499999999706382 -15 6.9142305214597846e-09 -5 -15 0.91506351643986317 -3.4150635091400758 -15 6.9142305214597846e-09 -5 -12 -0.66987297914647026 -2.499999999706382 -15 6.9142305214597846e-09 -5 -12 0.91506351643986317 -3.4150635091400758 -15 -0.66987297914647026 -2.499999999706382 -12 0.20080558631870429 0.033909897404034287 -15 -0.66987297914647026 -2.499999999706382 -15 0.95458002071209891 -1.657898275923388 -15 -0.66987297914647026 -2.499999999706382 -12 0.95458002071209891 -1.657898275923388 -15 -0.66987297914647026 -2.499999999706382 -15 0.91506351643986317 -3.4150635091400758 -15 -0.66987297914647026 -2.499999999706382 -12 0.95458002071209891 -1.657898275923388 -15 -0.66987297914647026 -2.499999999706382 -12 0.91506351643986317 -3.4150635091400758 -15 0.91506351643986317 -3.4150635091400758 -12 2.3883545080289421 -0.94497882694672608 -12 0.95458002071209891 -1.657898275923388 -12 0.95458002071209891 -1.657898275923388 -15 2.217625015551433 -2.5696135239339939 -15 2.3883545080289421 -0.94497882694672608 -15 0.95458002071209891 -1.657898275923388 -15 2.217625015551433 -2.5696135239339939 -15 2.3883545080289421 -0.94497882694672608 -12 0.95458002071209891 -1.657898275923388 -15 0.91506351643986317 -3.4150635091400758 -12 2.217625015551433 -2.5696135239339939 -15 0.95458002071209891 -1.657898275923388 -12 0.95458002071209891 -1.657898275923388 -15 0.91506351643986317 -3.4150635091400758 -15 2.217625015551433 -2.5696135239339939 -15 0.91506351643986317 -3.4150635091400758 -12 0.91506351643986317 -3.4150635091400758 -15 2.500000010727558 -4.3301270127286351 -15 2.217625015551433 -2.5696135239339939 -15 2.500000010727558 -4.3301270127286351 -12 6.9142305214597846e-09 -5 -15 2.500000010727558 -4.3301270127286351 -12 0.91506351643986317 -3.4150635091400758 -15 6.9142305214597846e-09 -5 -12 6.9142305214597846e-09 -5 -15 2.500000010727558 -4.3301270127286351 -15 0.91506351643986317 -3.4150635091400758 -15 2.500000010727558 -4.3301270127286351 -12 0.91506351643986317 -3.4150635091400758 -15 2.500000010727558 -4.3301270127286351 -12 2.217625015551433 -2.5696135239339939 -15 0.91506351643986317 -3.4150635091400758 -12 2.500000010727558 -4.3301270127286351 -12 6.9142305214597846e-09 -5 -12 0.91506351643986317 -3.4150635091400758 -12 0.91506351643986317 -3.4150635091400758 -15 2.500000010727558 -4.3301270127286351 -12 0.91506351643986317 -3.4150635091400758 -12 2.217625015551433 -2.5696135239339939 -12 2.217625015551433 -2.5696135239339939 -15 0.95458002071209891 -1.657898275923388 -12 2.3883545080289421 -0.94497882694672608 -12 2.217625015551433 -2.5696135239339939 -12 2.217625015551433 -2.5696135239339939 -15 0.91506351643986317 -3.4150635091400758 -12 0.95458002071209891 -1.657898275923388 -12 2.217625015551433 -2.5696135239339939 -12 2.217625015551433 -2.5696135239339939 -15 -0.66987297914647026 -2.499999999706382 -12 0.95458002071209891 -1.657898275923388 -12 0.91506351643986317 -3.4150635091400758 -12 0.95458002071209891 -1.657898275923388 -15 -0.66987297914647026 -2.499999999706382 -12 0.20080558631870429 0.033909897404034287 -12 0.95458002071209891 -1.657898275923388 -12 0.95458002071209891 -1.657898275923388 -15 6.9142305214597846e-09 -5 -12 -0.66987297914647026 -2.499999999706382 -12 0.91506351643986317 -3.4150635091400758 -12 0.91506351643986317 -3.4150635091400758 -15 6.9142305214597846e-09 -5 -12 -2.5000000000000022 -4.3301270189221919 -12 -0.66987297914647026 -2.499999999706382 -12 -0.66987297914647026 -2.499999999706382 -15 -0.66987297914647026 -2.499999999706382 -12 6.9142305214597846e-09 -5 -12 0.91506351643986317 -3.4150635091400758 -12 6.9142305214597846e-09 -5 -9 6.9142305214597846e-09 -5 -9 -0.66987297914647026 -2.499999999706382 -9 0.91506351643986317 -3.4150635091400758 -9 0.91506351643986317 -3.4150635091400758 -12 -0.66987297914647026 -2.499999999706382 -12 6.9142305214597846e-09 -5 -9 0.91506351643986317 -3.4150635091400758 -12 -0.66987297914647026 -2.499999999706382 -9 6.9142305214597846e-09 -5 -9 -2.5000000000000022 -4.3301270189221919 -9 -0.66987297914647026 -2.499999999706382 -9 -0.66987297914647026 -2.499999999706382 -12 -2.5000000000000022 -4.3301270189221919 -12 6.9142305214597846e-09 -5 -12 -0.66987297914647026 -2.499999999706382 -12 6.9142305214597846e-09 -5 -9 0.20080558631870429 0.033909897404034287 -12 -0.66987297914647026 -2.499999999706382 -12 0.95458002071209891 -1.657898275923388 -12 -0.66987297914647026 -2.499999999706382 -9 0.95458002071209891 -1.657898275923388 -12 -0.66987297914647026 -2.499999999706382 -9 0.91506351643986317 -3.4150635091400758 -12 0.91506351643986317 -3.4150635091400758 -9 -0.66987297914647026 -2.499999999706382 -9 0.20080558631870429 0.033909897404034287 -9 0.95458002071209891 -1.657898275923388 -9 0.95458002071209891 -1.657898275923388 -12 0.95458002071209891 -1.657898275923388 -12 -0.66987297914647026 -2.499999999706382 -12 0.91506351643986317 -3.4150635091400758 -12 -0.66987297914647026 -2.499999999706382 -9 -0.66987297914647026 -2.499999999706382 -9 0.95458002071209891 -1.657898275923388 -9 0.91506351643986317 -3.4150635091400758 -9 0.95458002071209891 -1.657898275923388 -12 0.95458002071209891 -1.657898275923388 -9 2.3883545080289421 -0.94497882694672608 -9 2.217625015551433 -2.5696135239339939 -9 2.217625015551433 -2.5696135239339939 -12 2.3883545080289421 -0.94497882694672608 -12 0.95458002071209891 -1.657898275923388 -12 2.217625015551433 -2.5696135239339939 -12 2.3883545080289421 -0.94497882694672608 -9 2.3883545080289421 -0.94497882694672608 -9 0.95458002071209891 -1.657898275923388 -9 0.95458002071209891 -1.657898275923388 -12 2.217625015551433 -2.5696135239339939 -12 0.95458002071209891 -1.657898275923388 -12 0.91506351643986317 -3.4150635091400758 -9 2.217625015551433 -2.5696135239339939 -12 0.95458002071209891 -1.657898275923388 -9 0.95458002071209891 -1.657898275923388 -12 0.91506351643986317 -3.4150635091400758 -12 2.217625015551433 -2.5696135239339939 -12 0.91506351643986317 -3.4150635091400758 -9 0.91506351643986317 -3.4150635091400758 -9 0.95458002071209891 -1.657898275923388 -9 2.217625015551433 -2.5696135239339939 -9 2.217625015551433 -2.5696135239339939 -12 6.9142305214597846e-09 -5 -12 2.500000010727558 -4.3301270127286351 -12 0.91506351643986317 -3.4150635091400758 -12 2.500000010727558 -4.3301270127286351 -9 2.500000010727558 -4.3301270127286351 -9 6.9142305214597846e-09 -5 -9 0.91506351643986317 -3.4150635091400758 -9 0.91506351643986317 -3.4150635091400758 -12 6.9142305214597846e-09 -5 -12 2.500000010727558 -4.3301270127286351 -9 0.91506351643986317 -3.4150635091400758 -12 6.9142305214597846e-09 -5 -9 0.91506351643986317 -3.4150635091400758 -12 2.500000010727558 -4.3301270127286351 -9 2.217625015551433 -2.5696135239339939 -12 0.91506351643986317 -3.4150635091400758 -9 0.91506351643986317 -3.4150635091400758 -12 2.500000010727558 -4.3301270127286351 -12 2.217625015551433 -2.5696135239339939 -12 2.500000010727558 -4.3301270127286351 -9 2.500000010727558 -4.3301270127286351 -9 0.91506351643986317 -3.4150635091400758 -9 2.217625015551433 -2.5696135239339939 -9 2.217625015551433 -2.5696135239339939 -12 6.9142305214597846e-09 -5 -9 2.500000010727558 -4.3301270127286351 -9 0.91506351643986317 -3.4150635091400758 -9 2.500000010727558 -4.3301270127286351 -6 0.91506351643986317 -3.4150635091400758 -9 2.500000010727558 -4.3301270127286351 -9 2.217625015551433 -2.5696135239339939 -9 2.500000010727558 -4.3301270127286351 -6 0.95458002071209891 -1.657898275923388 -9 0.91506351643986317 -3.4150635091400758 -9 2.217625015551433 -2.5696135239339939 -9 0.91506351643986317 -3.4150635091400758 -6 2.3883545080289421 -0.94497882694672608 -9 0.95458002071209891 -1.657898275923388 -9 2.217625015551433 -2.5696135
[...]
<PointData Scalars="" Vectors="displacement," Tensors="">
<DataArray type="Float64" Name="displacement" NumberOfComponents="3" format="ascii">
-1.3343361732194599e-07 -1.951722894377731e-08 -0.00025021886095124614 -1.2759872420798053e-07 4.9916602955362209e-08 -0.0002502383754837724 -8.4334850803019559e-08 -2.3212616966489892e-08 -0.00025021819016786336 2.4515325480314466e-08 1.6152693274787213e-08 -1.8749940775723422e-07 -1.007547888870853e-07 -8.6367730962300602e-08 -0.00025023334340978253 -1.3343361732194599e-07 -1.951722894377731e-08 -0.00025021886095124614 -8.4334850803019559e-08 -2.3212616966489892e-08 -0.00025021819016786336 2.4515325480314466e-08 1.6152693274787213e-08 -1.8749940775723422e-07 -5.4630247008611555e-08 -3.5568358125678976e-08 -1.0558484335960514e-07 -1.0075478888708529e-07 -8.6367730962300615e-08 -0.00025023334340978248 2.4515325480314466e-08 1.6152693274787213e-08 -1.8749940775723422e-07 -1.3343361732194599e-07 -1.951722894377731e-08 -0.00025021886095124614 -5.2296049020615822e-08 -4.3714243651273785e-09 -2.45359990925853e-07 -5.4630247008611555e-08 -3.5568358125678976e-08 -1.0558484335960514e-07 2.4515325480314466e-08 1.6152693274787213e-08 -1.8749940775723422e-07 -1.3343361732194599e-07 -1.951722894377731e-08 -0.00025021886095124614 -2.6317440650810294e-09 1.1332136717130827e-08 -2.1468366431778986e-07 -5.4681293730544267e-08 1.3878495902307534e-08 -0.00025020481899142629 2.4515325480314466e-08 1.6152693274787213e-08 -1.8749940775723422e-07 -4.0157084189134517e-08 -5.0912315914330295e-08 -0.00025020398668889921 -1.007547888870853e-07 -8.6367730962300602e-08 -0.00025023334340978253 -4.0157084189134523e-08 -5.0912315914330295e-08 -0.00025020398668889921 -2.6317440650810294e-09 1.1332136717130827e-08 -2.1468366431778986e-07 2.4515325480314466e-08 1.6152693274787213e-08 -1.8749940775723422e-07 -5.4681293730544241e-08 1.3878495902307521e-08 -0.00025020481899142624 -4.0157084189134517e-08 -5.0912315914330295e-08 -0.00025020398668889921 -8.4334850803019559e-08 -2.3212616966489892e-08 -0.00025021819016786336 2.4515325480314466e-08 1.6152693274787213e-08 -1.8749940775723422e-07 -4.0157084189134517e-08 -5.0912315914330295e-08 -0.00025020398668889921 -1.0075478888708531e-07 -8.6367730962300602e-08 -0.00025023334340978253 -8.4334850803019546e-08 -2.3212616966489882e-08 -0.0002502181901678633 2.4515325480314466e-08 1.6152693274787213e-08 -1.8749940775723422e-07 -2.4656536901480915e-08 -4.6470928894278212e-08 -2.3441202925218828e-07 -5.194091436150279e-08 -1.2724769330054262e-07 -0.0002502077610903694 -2.6317440650810294e-09 1.1332136717130827e-08 -2.1468366431778986e-07 -1.007547888870853e-07 -8.6367730962300602e-08 -0.00025023334340978253 -2.4656536901480915e-08 -4.6470928894278212e-08 -2.3441202925218828e-07 -2.6317440650810245e-09 1.1332136717130833e-08 -2.1468366431778986e-07 2.4515325480314466e-08 1.6152693274787213e-08 -1.8749940775723422e-07 -1.007547888870853e-07 -8.6367730962300602e-08 -0.00025023334340978253 -5.4630247008611555e-08 -3.5568358125678976e-08 -1.0558484335960514e-07 -2.4656536901480915e-08 -4.6470928894278212e-08 -2.3441202925218828e-07 2.4515325480314466e-08 1.6152693274787213e-08 -1.8749940775723422e-07 -1.007547888870853e-07 -8.6367730962300602e-08 -0.00025023334340978253 -2.4656536901480915e-08 -4.6470928894278212e-08 -2.3441202925218828e-07 5.0248037134716262e-09 -5.2720990687541384e-08 -1.8098150367161284e-07 -2.6317440650810294e-09 1.1332136717130827e-08 -2.1468366431778986e-07 -5.1940914361502797e-08 -1.2724769330054259e-07 -0.0002502077610903694 -2.6317440650810294e-09 1.1332136717130827e-08 -2.1468366431778986e-07 5.0248037134716303e-09 -5.2720990687541384e-08 -1.8098150367158817e-07 -4.8807952531138892e-09 1.6546708482194273e-08 -9.7709441583645488e-08 -5.1940914361502797e-08 -1.2724769330054259e-07 -0.0002502077610903694 -2.6317440650810294e-09 1.1332136717130827e-08 -2.1468366431778986e-07 -5.194091436150279e-08 -1.2724769330054264e-07 -0.00025020776109036934 -4.8807952531138892e-09 1.6546708482194276e-08 -9.7709441583654077e-08 -4.0157084189134517e-08 -5.0912315914330295e-08 -0.00025020398668889921 3.7897891307484161e-09 2.5030884340567081e-09 -1.8649049483752121e-07 -2.6317440650810294e-09 1.1332136717130827e-08 -2.1468366431778986e-07 5.7103991761969028e-09 -9.1897548644279956e-09 -7.257155776972121e-08 -4.0157084189134517e-08 -5.0912315914330295e-08 -0.00025020398668889921 5.7103991761969028e-09 -9.1897548644279956e-09 -7.257155776972121e-08 -2.6317440650810319e-09 1.1332136717130824e-08 -2.146836643178022e-07 -4.8807952531138892e-09 1.6546708482194273e-08 -9.7709441583645488e-08 -4.0157084189134517e-08 -5.0912315914330295e-08 -0.00025020398668889921 5.7103991761969028e-09 -9.1897548644279956e-09 -7.257155776972121e-08 -4.0157084189134497e-08 -5.0912315914330334e-08 -0.00025020398668889926 -4.8807952531138868e-09 1.654670848219427e-08 -9.7709441583650729e-08 -5.1090223092872945e-09 -8.4147681616467602e-08 -0.00025018507413546333 5.3191271020013026e-08 -2.6642587289682492e-08 -0.00025019539493019183 1.2402946993366954e-08 -4.2728827727012792e-08 -0.00025018016420011869 5.7103991761969028e-09 -9.1897548644279956e-09 -7.257155776972121e-08 -1.2701597023715064e-08 1.1314999334876794e-08 -9.8543763430473803e-08 -1.2601065194127133e-08 4.7781306176199381e-09 -1.7697879196408146e-07 5.7103991761969028e-09 -9.1897548644279939e-09 -7.2571557769721197e-08 -1.2701597023715064e-08 1.1314999334876794e-08 -9.8543763430473803e-08 5.3191271020013026e-08 -2.6642587289682492e-08 -0.00025019539493019183 5.7103991761969028e-09 -9.1897548644279956e-09 -7.257155776972121e-08 -5.1090223092872945e-09 -8.4147681616467602e-08 -0.00025018507413546333 -1.2701597023715064e-08 1.1314999334876794e-08 -9.8543763430473803e-08 1.2402946993366944e-08 -4.2728827727012792e-08 -0.00025018016420011869 5.7103991761969028e-09 -9.1897548644279956e-09 -7.257155776972121e-08 -4.8807952531138892e-09 1.6546708482194273e-08 -9.7709441583645488e-08 -1.2701597023715064e-08 1.1314999334876794e-08 -9.8543763430473803e-08 -5.1090223092872945e-09 -8.4147681616467602e-08 -0.00025018507413546333 -4.8807952531138892e-09 1.6546708482194273e-08 -9.7709441583645488e-08 2.9118623099787909e-08 -4.4973803751509392e-08 -1.3795280499339997e-07 -1.2701597023715064e-08 1.1314999334876794e-08 -9.8543763430473803e-08 1.9424314648141098e-08 -1.3542569447092323e-07 -0.0002501974593498796 5.0248037134716303e-09 -5.2720990687541384e-08 -1.8098150367158817e-07 1.9424314648141101e-08 -1.3542569447092325e-07 -0.00025019745934987966 -4.8807952531138892e-09 1.6546708482194273e-08 -9.7709441583645488e-08 -5.1940914361502784e-08 -1.2724769330054259e-07 -0.00025020776109036934 5.0248037134716303e-09 -5.2720990687541384e-08 -1.8098150367158817e-07 2.9118623099787916e-08 -4.4973803751509412e-08 -1.3795280499339997e-07 -4.8807952531138892e-09 1.6546708482194273e-08 -9.7709441583645488e-08 1.9424314648141095e-08 -1.3542569447092325e-07 -0.00025019745934987966 -4.8807952531138892e-09 1.6546708482194273e-08 -9.7709441583645488e-08 1.9424314648141098e-08 -1.3542569447092323e-07 -0.0002501974593498796 -1.2701597023715064e-08 1.1314999334876796e-08 -9.8543763430469264e-08 -5.1090223092872945e-09 -8.4147681616467602e-08 -0.00025018507413546333 1.9424314648141098e-08 -1.3542569447092323e-07 -0.0002501974593498796 -5.1940914361502777e-08 -1.2724769330054256e-07 -0.00025020776109036929 -5.1090223092872945e-09 -8.4147681616467602e-08 -0.00025018507413546333 -4.8807952531138892e-09 1.6546708482194273e-08 -9.7709441583645488e-08 1.9424314648141098e-08 -1.3542569447092323e-07 -0.0002501974593498796 -5.1090223092872945e-09 -8.4147681616467602e-08 -0.00025018507413546333 3.6405689352046989e-08 -7.037516748364634e-08 -0.00025018848982403337 -1.2701597023715064e-08 1.1314999334876794e-08 -9.8543763430473803e-08 1.2402946993366944e-08 -4.2728827727012792e-08 -0.00025018016420011869 5.3191271020013033e-08 -2.6642587289682492e-08 -0.00025019539493019183 3.6405689352046989e-08 -7.037516748364634e-08 -0.00025018848982403337 -1.2701597023715064e-08 1.1314999334876794e-08 -9.8543763430473803e-08 -5.1090223092872945e-09 -8.4147681616467602e-08 -0.00025018507413546333 1.2402946993366944e-08 -4.2728827727012792e-08 -0.00025018016420011869 3.6405689352046989e-08 -7.037516748364634e-08 -0.00025018848982403337 -1.2701597023715064e-08 1.1314999334876794e-08 -9.8543763430473803e-08 -4.0157084189134517e-08 -5.0912315914330295e-08 -0.00025020398668889921 1.2402946993366946e-08 -4.2728827727012792e-08 -0.00025018016420011869 -5.1090223092872945e-09 -8.4147681616467602e-08 -0.00025018507413546333 5.7103991761969028e-09 -9.1897548644279956e-09 -7.257155776972121e-08 -4.0157084189134517e-08 -5.0912315914330295e-08 -0.00025020398668889921 4.6049871340832291e-09 -1.6664806845841655e-10 -0.00025019722130686115 1.2402946993366944e-08 -4.2728827727012792e-08 -0.00025018016420011869 5.7103991761969028e-09 -9.1897548644279956e-09 -7.257155776972121e-08 -5.1940914361502784e-08 -1.2724769330054259e-07 -0.00025020776109036934 -4.0157084189134517e-08 -5.0912315914330295e-08 -0.00025020398668889921 -5.1090223092872945e-09 -8.4147681616467602e-08 -0.00025018507413546333 -4.8807952531138892e-09 1.6546708482194273e-08 -9.7709441583645488e-08 -5.1940914361502784e-08 -1.2724769330054259e-07 -0.00025020776109036934 -1.007547888870853e-07 -8.6367730962300588e-08 -0.00025023334340978253 -4.0157084189134517e-08 -5.0912315914330295e-08 -0.00025020398668889921 -2.6317440650810183e-09 1.1332136717130843e-08 -2.1468366431773462e-07 -4.0157084189134517e-08 -5.0912315914330295e-08 -0.00025020398668889921 -5.1940914361502784e-08 -1.2724769330054259e-07 -0.00025020776109036934 -5.1090223092872945e-09 -8.4147681616467602e-08 -0.00025018507413546333 1.342688195330615e-08 -1.0928213917652711e-07 -0.00050024183603022802 1.3426881953306133e-08 -1.0928213917652712e-07 -0.00050024183603022802 -1.7763088577255822e-08 -5.5698635138834034e-08 -0.00050024072692775941 2.1585568604745211e-08 -7.3842292289880239e-08 -0.00050023705327713493 -5.1090223092872945e-09 -8.4147681616467602e-08 -0.00025018507413546333 -4.0157084189134517e-08 -5.0912315914330295e-08 -0.00025020398668889921 1.3426881953306135e-08 -1.0928213917652715e-07 -0.00050024183603022802 -5.1090223092872937e-09 -8.4147681616467589e-08 -0.00025018507413546333 -1.7763088577255822e-08 -5.5698635138834034e-08 -0.00050024072692775941 1.3426881953306133e-08 -1.0928213917652712e-07 -0.00050024183603022802 -4.495831144067322e-08 -1.0091920827755714e-07 -0.00050025145002038137 -1.7763088577255822e-08 -5.5698635138834034e-08 -0.00050024072692775941 -4.0157084189134517e-08 -5.0912315914330295e-08 -0.00025020398668889915 -1.007547888870853e-07 -8.6367730962300602e-08 -0.00025023334340978253 -5.1940914361502777e-08 -1.2724769330054256e-07 -0.00025020776109036934 -4.0157084189134517e-08 -5.0912315914330295e-08 -0.00025020398668889921 1.342688195330615e-08 -1.0928213917652711e-07 -0.00050024183603022802 4.6049871340832291e-09 -1.6664806845841655e-10 -0.00025019722130686115 -4.0157084189134517e-08 -5.0912315914330295e-08 -0.00025020398668889921 1.2402946993366944e-08 -4.2728827727012792e-08 -0.00025018016420011869 -1.7763088577255822e-08 -5.5698635138834034e-08 -0.00050024072692775941 1.2402946993366944e-08 -4.2728827727012792e-08 -0.00025018016420011869 -1.7763088577255786e-08 -5.5698635138834034e-08 -0.00050024072692775952 -5.109022309287292e-09 -8.4147681616467602e-08 -0.00025018507413546333 2.1585568604745211e-08 -7.3842292289880239e-08 -0.00050023705327713493 -1.7763088577255822e-08 -5.5698635138834034e-08 -0.00050024072692775941 5.285518203447834e-09 3.3977405199378185e-09 -0.00050024015126508606 2.189696233078987e-08 -3.3945748206068674e-08 -0.00050023617907914001 1.2402946993366944e-08 -4.2728827727012792e-08 -0.00025018016420011869 1.2402946993366944e-08 -4.2728827727012792e-08 -0.00025018016420011869 -4.0157084189134517e-08 -5.0912315914330295e-08 -0.00025020398668889921 -5.1090223092872945e-09 -8.4147681616467602e-08 -0.00025018507413546333 -1.7763088577255822e-08 -5.5698635138834034e-08 -0.00050024072692775941 -1.7763088577255822e-08 -5.5698635138834034e-08 -0.00050024072692775941 2.189696233078987e-08 -3.3945748206068674e-08 -0.00050023617907914001 2.1585568604745211e-08 -7.3842292289880239e-08 -0.00050023705327713493 1.2402946993366944e-08 -4.2728827727012792e-08 -0.00025018016420011869 2.189696233078987e-08 -3.3945748206068674e-08 -0.00050023617907914001 5.4737282952888282e-08 -1.567270046466827e-08 -0.00050024194754310931 5.1804561556865892e-08 -5.3006081232249176e-08 -0.00050023741580112731 3.6405689352046989e-08 -7.037516748364634e-08 -0.00025018848982403337 5.3191271020013026e-08 -2.6642587289682492e-08 -0.00025019539493019183 1.2402946993366943e-08 -4.2728827727012799e-08 -0.00025018016420011869 3.6405689352046989e-08 -7.037516748364634e-08 -0.00025018848982403337 5.4737282952888276e-08 -1.5672700464668267e-08 -0.00050024194754310931 5.4737282952888276e-08 -1.5672700464668267e-08 -0.00050024194754310931 2.1896962330789876e-08 -3.3945748206068668e-08 -0.00050023617907914001 1.2402946993366944e-08 -4.2728827727012792e-08 -0.00025018016420011869 3.6405689352046989e-08 -7.037516748364634e-08 -0.00025018848982403337 1.2402946993366944e-08 -4.2728827727012792e-08 -0.00025018016420011869 2.1585568604745211e-08 -7.3842292289880239e-08 -0.00050023705327713493 3.6405689352046989e-08 -7.037516748364634e-08 -0.00025018848982403337 2.189696233078987e-08 -3.3945748206068674e-08 -0.00050023617907914001 1.2402946993366944e-08 -4.2728827727012792e-08 -0.00025018016420011869 -5.1090223092872945e-09 -8.4147681616467602e-08 -0.00025018507413546333 3.6405689352046989e-08 -7.037516748364634e-08 -0.00025018848982403337 2.1585568604745211e-08 -7.3842292289880239e-08 -0.00050023705327713493 2.1585568604745211e-08 -7.3842292289880239e-08 -0.00050023705327713493 2.189696233078987e-08 -3.3945748206068674e-08 -0.00050023617907914001 5.1804561556865892e-08 -5.3006081232249176e-08 -0.00050023741580112731 3.6405689352046989e-08 -7.037516748364634e-08 -0.00025018848982403337 -5.1940914361502784e-08 -1.2724769330054259e-07 -0.00025020776109036934 1.9424314648141098e-08 -1.3542569447092323e-07 -0.0002501974593498796 -5.1090223092872945e-09 -8.4147681616467602e-08 -0.00025018507413546333 6.6421010715166441e-08 -8.7910667705722529e-08 -0.00050023805665004334 6.6421010715166427e-08 -8.7910667705722555e-08 -0.00050023805665004334 1.3426881953306126e-08 -1.0928213917652711e-07 -0.00050024183603022791 2.1585568604745211e-08 -7.3842292289880239e-08 -0.00050023705327713493 -5.1090223092872945e-09 -8.4147681616467602e-08 -0.00025018507413546333 -5.1940914361502784e-08 -1.2724769330054259e-07 -0.00025020776109036934 6.6421010715166454e-08 -8.7910667705722542e-08 -0.00050023805665004334 -5.1090223092872945e-09 -8.4147681616467602e-08 -0.00025018507413546333 1.3426881953306133e-08 -1.0928213917652712e-07 -0.00050024183603022802 -5.1090223092872945e-09 -8.4147681616467602e-08 -0.00025018507413546333 6.6421010715166427e-08 -8.7910667705722555e-08 -0.00050023805665004334 3.6405689352046989e-08 -7.0375167483646353e-08 -0.00025018848982403342 2.1585568604745211e-08 -7.3842292289880239e-08 -0.00050023705327713493 -5.1090223092872945e-09 -8.4147681616467602e-08 -0.00025018507413546333 1.9424314648141095e-08 -1.3542569447092323e-07 -0.0002501974593498796 3.6405689352046989e-08 -7.037516748364634e-08 -0.00025018848982403337 6.6421010715166427e-08 -8.7910667705722555e-08 -0.00050023805665004334 6.6421010715166427e-08 -8.7910667705722555e-08 -0.00050023805665004334 2.1585568604745211e-08 -7.3842292289880239e-08 -0.00050023705327713493 5.1804561556865892e-08 -5.3006081232249176e-08 -0.00050023741580112731 3.6405689352046989e-08 -7.037516748364634e-08 -0.00025018848982403337 1.3426881953306133e-08 -1.0928213917652712e-07 -0.00050024183603022802 6.6421010715166441e-08 -8.7910667705722555e-08 -0.00050023805665004334 2.1585568604745211e-08 -7.3842292289880239e-08 -0.00050023705327713493 5.4070236636992887e-08 -9.7714493793771091e-08 -0.00075027449352671591 2.1585568604745211e-08 -7.3842292289880239e-08 -0.00050023705327713493 6.6421010715166427e-08 -8.7910667705722568e-08 -0.00050023805665004334 5.1804561556865892e-08 -5.3006081232249176e-08 -0.00050023741580112731 5.4070236636992893e-08 -9.7714493793771091e-08 -0.0007502744935267158 2.189696233078987e-08 -3.3945748206068674e-08 -0.00050023617907914001 2.1585568604745211e-08 -7.3842292289880239e-08 -0.00050023705327713493 5.1804561556865892e-08 -5.3006081232249176e-08 -0.00050023741580112731 1.9446258876822828e-08 -7.5921511201781866e-08 -0.00075027448187289759 5.4737282952888276e-08 -1.5672700464668267e-08 -0.00050024194754310931 2.189696233078987e-08 -3.3945748206068681e-08 -0.00050023617907914001 5.1804561556865892e-08 -5.3006081232249176e-08 -0.00050023741580112731 5.3659635500081282e-08 -1.9712139893444383e-08 -0.00075027713252303458 2.189696233078987e-08 -3.3945748206068674e-08 -0.00050023617907914001 -1.7763088577255822e-08 -5.5698635138834034e-08 -0.00050024072692775941 2.1585568604745211e-08 -7.3842292289880239e-08 -0.00050023705327713493 -1.6514619342314717e-08 -5.5258126423613265e-08 -0.00075027529645470964 5.285518203447834e-09 3.3977405199378185e-09 -0.00050024015126508606 -1.7763088577255822e-08 -5.5698635138834034e-08 -0.00050024072692775941 2.189696233078987e-08 -3.3945748206068674e-08 -0.00050023617907914001 -1.6514619342314717e-08 -5.5258126423613265e-08 -0.00075027529645470964 -4.495831144067322e-08 -1.0091920827755715e-07 -0.00050025145002038137 1.3426881953306133e-08 -1.0928213917652711e-07 -0.00050024183603022802 -1.7763088577255822e-08 -5.5698635138834034e-08 -0.00050024072692775941 -1.9358064722513593e-09 -1.1165195407948844e-07 -0.00075027486002766171 -1.7763088577255822e-08 -5.5698635138834034e-08 -0.00050024072692775941 1.3426881953306133e-08 -1.0928213917652712e-07 -0.00050024183603022802 2.1585568604745211e-08 -7.3842292289880239e-08 -0.00050023705327713493 -1.9358064722513593e-09 -1.1165195407948844e-07 -0.00075027486002766171 -4.495831144067322e-08 -1.0091920827755715e-07 -0.00050025145002038137 -1.7763088577255825e-08 -5.5698635138834028e-08 -0.00050024072692775941 -6.5683348629617826e-08 -4.3493399709501792e-08 -0.00050024544105816023 -5.7170960325582183e-08 -9.5808094099033693e-08 -0.00075027803755021798 -8.7987115773343237e-08 -6.6310499984859064e-08 -0.00050024670705175437 -4.495831144067322e-08 -1.0091920827755715e-07 -0.00050025145002038137 -6.5683348629617826e-08 -4.3493399709501792e-08 -0.00050024544105816023 -5.7170960325582183e-08 -9.5808094099033693e-08 -0.00075027803755021798 -1.007547888870853e-07 -8.6367730962300602e-08 -0.00025023334340978253 1.3426881953306159e-08 -1.0928213917652713e-07 -0.00050024183603022802 -4.0157084189134517e-08 -5.0912315914330295e-08 -0.00025020398668889921 -4.495831144067322e-08 -1.0091920827755715e-07 -0.00050025145002038137 -1.007547888870853e-07 -8.6367730962300602e-08 -0.00025023334340978253 -4.015708418913451e-08 -5.0912315914330288e-08 -0.00025020398668889921 -8.4334850803019559e-08 -2.3212616966489892e-08 -0.00025021819016786336 -4.495831144067322e-08 -1.0091920827755715e-07 -0.00050025145002038137 -1.3343361732194599e-07 -1.951722894377731e-08 -0.00025021886095124614 -1.007547888870853e-07 -8.6367730962300602e-08 -0.00025023334340978253 -8.4334850803019559e-08 -2.3212616966489892e-08 -0.00025021819016786336 -4.495831144067322e-08 -1.0091920827755715e-07 -0.00050025145002038137 -5.0932247061277565e-08 3.0316840441076977e-09 -0.00050024263792332107 -1.7763088577255822e-08 -5.5698635138834034e-08 -0.00050024072692775941 -6.5683348629617826e-08 -4.3493399709501792e-08 -0.00050024544105816023 -8.4334850803019559e-08 -2.3212616966489892e-08 -0.00025021819016786336 -1.7763088577255822e-08 -5.5698635138834034e-08 -0.00050024072692775941 -4.4958311440673226e-08 -1.0091920827755715e-07 -0.00050025145002038137 -6.5683348629617839e-08 -4.3493399709501778e-08 -0.00050024544105816012 -8.433485080301955