<?xml version="1.0"?>
<VTKFile type="UnstructuredGrid" version="0.1" byte_order="LittleEndian">
<UnstructuredGrid>
<Piece NumberOfPoints="29" NumberOfCells="40">
<Points>
<DataArray type="Float64" NumberOfComponents="3" format="ascii">
0 0 0 0.141906415343692 0.141416507446866 0 0.249999999999412 0 0 0.499999999999799 0.193783068783061 0 0.499999999998694 0 0 0.27852182539675 0.275582378013015 0 0.499837718009023 0.499858338746519 0 0.192322530864179 0.498212856816572 0 0 0.25000000000104 0 0 0.500000000002059 0 0 1 0 0 0.750000000000347 0 0.144097222222436 0.855902777777921 0 0.25000000000104 1 0 0.273653365667397 0.726310344858913 0 0.721478174603193 0.721478174603123 0 0.500000000002059 1 0 0.501460537919202 0.807677469135779 0 0.750000000000347 1 0 0.858093584656216 0.858093584655919 0 1 1 0 1 0.749999999999342 0 1 0.499999999998694 0 0.809138007054671 0.49967339473487 0 1 0.249999999999412 0 1 0 0 0.85809358465589 0.141416507446419 0 0.749999999999342 0 0 0.721478174603091 0.275582378012891 0 
</DataArray>
</Points>
<Cells>
<DataArray type="UInt32" Name="connectivity" format="ascii">
8 0 1 5 8 1 2 5 1 2 1 0 2 3 5 2 4 3 5 6 7 5 3 6 9 8 7 5 7 8 9 7 11 11 7 14 13 12 14 10 12 13 11 14 12 10 11 12 16 13 17 13 14 17 14 6 17 14 7 6 15 17 6 15 6 23 18 17 15 18 16 17 21 20 19 15 21 19 18 15 19 18 19 20 22 21 23 15 23 21 24 22 23 24 23 28 27 26 28 24 28 26 27 25 26 24 26 25 27 28 3 27 3 4 28 6 3 28 23 6 
</DataArray>
<DataArray type="UInt32" Name="offsets" format="ascii">
3 6 9 12 15 18 21 24 27 30 33 36 39 42 45 48 51 54 57 60 63 66 69 72 75 78 81 84 87 90 93 96 99 102 105 108 111 114 117 120 
</DataArray>
<DataArray type="UInt32" Name="types" format="ascii">
5 5 5 5 5 5 5 5 5 5 5 5 5 5 5 5 5 5 5 5 5 5 5 5 5 5 5 5 5 5 5 5 5 5 5 5 5 5 5 5 
</DataArray>
</Cells>
<CellData Scalars="A_conc,B_conc,C_conc," Vectors="" Tensors="">
<DataArray type="Float64" Name="A_conc" format="ascii">
0 0 0 0 0 0 0 0 0 0 0 0 0 0 0 0 0 0 0 0 0 0 0 0 0 0 0 0 0 0 0 0 0 0 0 0 0 0 0 0 
</DataArray>
<DataArray type="Float64" Name="B_conc" format="ascii">
0.9 0.9 0.9 0.9 0.9 0.9 0.9 0.9 0.9 0.9 0.9 0.9 0.9 0.9 0.9 0.9 0.9 0.9 0.9 0.9 0.9 0.9 0.9 0.9 0.9 0.9 0.9 0.9 0.9 0.9 0.9 0.9 0.9 0.9 0.9 0.9 0.9 0.9 0.9 0.9 
</DataArray>
<DataArray type="Float64" Name="C_conc" format="ascii">
0 0 0 0 0 0 0 0 0 0 0 0 0 0 0 0 0 0 0 0 0 0 0 0 0 0 0 0 0 0 0 0 0 0 0 0 0 0 0 0 
</DataArray>
</CellData>
</Piece>
</UnstructuredGrid>
</VTKFile>
