<?xml version="1.0"?>
<VTKFile type="UnstructuredGrid" version="0.1" byte_order="LittleEndian">
<UnstructuredGrid>
<Piece NumberOfPoints="2400" NumberOfCells="800">
<Points>
<DataArray type="Float64" NumberOfComponents="3" format="ascii">
0.000000000000000e+00 0.000000000000000e+00 0.000000000000000e+00 0.000000000000000e+00 1.999999999995579e-01 0.000000000000000e+00 2.000000000000000e-01 1.999999999995579e-01 0.000000000000000e+00 0.000000000000000e+00 0.000000000000000e+00 0.000000000000000e+00 2.000000000000000e-01 1.999999999995579e-01 0.000000000000000e+00 2.000000000000000e-01 0.000000000000000e+00 0.000000000000000e+00 2.000000000000000e-01 0.000000000000000e+00 0.000000000000000e+00 2.000000000000000e-01 1.999999999995579e-01 0.000000000000000e+00 4.000000000000000e-01 1.999999999995579e-01 0.000000000000000e+00 2.000000000000000e-01 0.000000000000000e+00 0.000000000000000e+00 4.000000000000000e-01 1.999999999995579e-01 0.000000000000000e+00 4.000000000000000e-01 0.000000000000000e+00 0.000000000000000e+00 4.000000000000000e-01 0.000000000000000e+00 0.000000000000000e+00 4.000000000000000e-01 1.999999999995579e-01 0.000000000000000e+00 6.000000000000000e-01 1.999999999995579e-01 0.000000000000000e+00 4.000000000000000e-01 0.000000000000000e+00 0.000000000000000e+00 6.000000000000000e-01 1.999999999995579e-01 0.000000000000000e+00 6.000000000000000e-01 0.000000000000000e+00 0.000000000000000e+00 6.000000000000000e-01 0.000000000000000e+00 0.000000000000000e+00 6.000000000000000e-01 1.999999999995579e-01 0.000000000000000e+00 8.000000000000000e-01 1.999999999995579e-01 0.000000000000000e+00 6.000000000000000e-01 0.000000000000000e+00 0.000000000000000e+00 8.000000000000000e-01 1.999999999995579e-01 0.000000000000000e+00 8.000000000000000e-01 0.000000000000000e+00 0.000000000000000e+00 8.000000000000000e-01 0.000000000000000e+00 0.000000000000000e+00 8.000000000000000e-01 1.999999999995579e-01 0.000000000000000e+00 1.000000000000000e+00 1.999999999995579e-01 0.000000000000000e+00 8.000000000000000e-01 0.000000000000000e+00 0.000000000000000e+00 1.000000000000000e+00 1.999999999995579e-01 0.000000000000000e+00 1.000000000000000e+00 0.000000000000000e+00 0.000000000000000e+00 1.000000000000000e+00 0.000000000000000e+00 0.000000000000000e+00 1.000000000000000e+00 1.999999999995579e-01 0.000000000000000e+00 1.200000000000000e+00 1.999999999995579e-01 0.000000000000000e+00 1.000000000000000e+00 0.000000000000000e+00 0.000000000000000e+00 1.200000000000000e+00 1.999999999995579e-01 0.000000000000000e+00 1.200000000000000e+00 0.000000000000000e+00 0.000000000000000e+00 1.200000000000000e+00 0.000000000000000e+00 0.000000000000000e+00 1.200000000000000e+00 1.999999999995579e-01 0.000000000000000e+00 1.400000000000000e+00 1.999999999995579e-01 0.000000000000000e+00 1.200000000000000e+00 0.000000000000000e+00 0.000000000000000e+00 1.400000000000000e+00 1.999999999995579e-01 0.000000000000000e+00 1.400000000000000e+00 0.000000000000000e+00 0.000000000000000e+00 1.400000000000000e+00 0.000000000000000e+00 0.000000000000000e+00 1.400000000000000e+00 1.999999999995579e-01 0.000000000000000e+00 1.600000000000000e+00 1.999999999995579e-01 0.000000000000000e+00 1.400000000000000e+00 0.000000000000000e+00 0.000000000000000e+00 1.600000000000000e+00 1.999999999995579e-01 0.000000000000000e+00 1.600000000000000e+00 0.000000000000000e+00 0.000000000000000e+00 1.600000000000000e+00 0.000000000000000e+00 0.000000000000000e+00 1.600000000000000e+00 1.999999999995579e-01 0.000000000000000e+00 1.800000000000000e+00 1.999999999995579e-01 0.000000000000000e+00 1.600000000000000e+00 0.000000000000000e+00 0.000000000000000e+00 1.800000000000000e+00 1.999999999995579e-01 0.000000000000000e+00 1.800000000000000e+00 0.000000000000000e+00 0.000000000000000e+00 1.800000000000000e+00 0.000000000000000e+00 0.000000000000000e+00 1.800000000000000e+00 1.999999999995579e-01 0.000000000000000e+00 2.000000000000000e+00 1.999999999995579e-01 0.000000000000000e+00 1.800000000000000e+00 0.000000000000000e+00 0.000000000000000e+00 2.000000000000000e+00 1.999999999995579e-01 0.000000000000000e+00 2.000000000000000e+00 0.000000000000000e+00 0.000000000000000e+00 2.000000000000000e+00 0.000000000000000e+00 0.000000000000000e+00 2.000000000000000e+00 1.999999999995579e-01 0.000000000000000e+00 2.200000000000000e+00 1.999999999995579e-01 0.000000000000000e+00 2.000000000000000e+00 0.000000000000000e+00 0.000000000000000e+00 2.200000000000000e+00 1.999999999995579e-01 0.000000000000000e+00 2.200000000000000e+00 0.000000000000000e+00 0.000000000000000e+00 2.200000000000000e+00 0.000000000000000e+00 0.000000000000000e+00 2.200000000000000e+00 1.999999999995579e-01 0.000000000000000e+00 2.400000000000000e+00 1.999999999995579e-01 0.000000000000000e+00 2.200000000000000e+00 0.000000000000000e+00 0.000000000000000e+00 2.400000000000000e+00 1.999999999995579e-01 0.000000000000000e+00 2.400000000000000e+00 0.000000000000000e+00 0.000000000000000e+00 2.400000000000000e+00 0.000000000000000e+00 0.000000000000000e+00 2.400000000000000e+00 1.999999999995579e-01 0.000000000000000e+00 2.600000000000000e+00 1.999999999995579e-01 0.000000000000000e+00 2.400000000000000e+00 0.000000000000000e+00 0.000000000000000e+00 2.600000000000000e+00 1.999999999995579e-01 0.000000000000000e+00 2.600000000000000e+00 0.000000000000000e+00 0.000000000000000e+00 2.600000000000000e+00 0.000000000000000e+00 0.000000000000000e+00 2.600000000000000e+00 1.999999999995579e-01 0.000000000000000e+00 2.800000000000000e+00 1.999999999995579e-01 0.000000000000000e+00 2.600000000000000e+00 0.000000000000000e+00 0.000000000000000e+00 2.800000000000000e+00 1.999999999995579e-01 0.000000000000000e+00 2.800000000000000e+00 0.000000000000000e+00 0.000000000000000e+00 2.800000000000000e+00 0.000000000000000e+00 0.000000000000000e+00 2.800000000000000e+00 1.999999999995579e-01 0.000000000000000e+00 3.000000000000000e+00 1.999999999995579e-01 0.000000000000000e+00 2.800000000000000e+00 0.000000000000000e+00 0.000000000000000e+00 3.000000000000000e+00 1.999999999995579e-01 0.000000000000000e+00 3.000000000000000e+00 0.000000000000000e+00 0.000000000000000e+00 3.000000000000000e+00 0.000000000000000e+00 0.000000000000000e+00 3.000000000000000e+00 1.999999999995579e-01 0.000000000000000e+00 3.200000000000000e+00 1.999999999995579e-01 0.000000000000000e+00 3.000000000000000e+00 0.000000000000000e+00 0.000000000000000e+00 3.200000000000000e+00 1.999999999995579e-01 0.000000000000000e+00 3.200000000000000e+00 0.000000000000000e+00 0.000000000000000e+00 3.200000000000000e+00 0.000000000000000e+00 0.000000000000000e+00 3.200000000000000e+00 1.999999999995579e-01 0.000000000000000e+00 3.400000000000000e+00 1.999999999995579e-01 0.000000000000000e+00 3.200000000000000e+00 0.000000000000000e+00 0.000000000000000e+00 3.400000000000000e+00 1.999999999995579e-01 0.000000000000000e+00 3.400000000000000e+00 0.000000000000000e+00 0.000000000000000e+00 3.400000000000000e+00 0.000000000000000e+00 0.000000000000000e+00 3.400000000000000e+00 1.999999999995579e-01 0.000000000000000e+00 3.600000000000000e+00 1.999999999995579e-01 0.000000000000000e+00 3.400000000000000e+00 0.000000000000000e+00 0.000000000000000e+00 3.600000000000000e+00 1.999999999995579e-01 0.000000000000000e+00 3.600000000000000e+00 0.000000000000000e+00 0.000000000000000e+00 3.600000000000000e+00 0.000000000000000e+00 0.000000000000000e+00 3.600000000000000e+00 1.999999999995579e-01 0.000000000000000e+00 3.800000000000000e+00 1.999999999995579e-01 0.000000000000000e+00 3.600000000000000e+00 0.000000000000000e+00 0.000000000000000e+00 3.800000000000000e+00 1.999999999995579e-01 0.000000000000000e+00 3.800000000000000e+00 0.000000000000000e+00 0.000000000000000e+00 3.800000000000000e+00 0.000000000000000e+00 0.000000000000000e+00 3.800000000000000e+00 1.999999999995579e-01 0.000000000000000e+00 4.000000000000000e+00 1.999999999995579e-01 0.000000000000000e+00 3.800000000000000e+00 0.000000000000000e+00 0.000000000000000e+00 4.000000000000000e+00 1.999999999995579e-01 0.000000000000000e+00 4.000000000000000e+00 0.000000000000000e+00 0.000000000000000e+00 4.000000000000000e+00 0.000000000000000e+00 0.000000000000000e+00 4.000000000000000e+00 1.999999999995579e-01 0.000000000000000e+00 4.200000000000000e+00 1.999999999995579e-01 0.000000000000000e+00 4.000000000000000e+00 0.000000000000000e+00 0.000000000000000e+00 4.200000000000000e+00 1.999999999995579e-01 0.000000000000000e+00 4.200000000000000e+00 0.000000000000000e+00 0.000000000000000e+00 4.200000000000000e+00 0.000000000000000e+00 0.000000000000000e+00 4.200000000000000e+00 1.999999999995579e-01 0.000000000000000e+00 4.400000000000000e+00 1.999999999995579e-01 0.000000000000000e+00 4.200000000000000e+00 0.000000000000000e+00 0.000000000000000e+00 4.400000000000000e+00 1.999999999995579e-01 0.000000000000000e+00 4.400000000000000e+00 0.000000000000000e+00 0.000000000000000e+00 4.400000000000000e+00 0.000000000000000e+00 0.000000000000000e+00 4.400000000000000e+00 1.999999999995579e-01 0.000000000000000e+00 4.600000000000000e+00 1.999999999995579e-01 0.000000000000000e+00 4.400000000000000e+00 0.000000000000000e+00 0.000000000000000e+00 4.600000000000000e+00 1.999999999995579e-01 0.000000000000000e+00 4.600000000000000e+00 0.000000000000000e+00 0.000000000000000e+00 4.600000000000000e+00 0.000000000000000e+00 0.000000000000000e+00 4.600000000000000e+00 1.999999999995579e-01 0.000000000000000e+00 4.800000000000000e+00 1.999999999995579e-01 0.000000000000000e+00 4.600000000000000e+00 0.000000000000000e+00 0.000000000000000e+00 4.800000000000000e+00 1.999999999995579e-01 0.000000000000000e+00 4.800000000000000e+00 0.000000000000000e+00 0.000000000000000e+00 4.800000000000000e+00 0.000000000000000e+00 0.000000000000000e+00 4.800000000000000e+00 1.999999999995579e-01 0.000000000000000e+00 5.000000000000000e+00 1.999999999995579e-01 0.000000000000000e+00 4.800000000000000e+00 0.000000000000000e+00 0.0000000000000
[...]
<PointData Scalars="conc_conc," Vectors="" Tensors="">
<DataArray type="Float64" Name="conc_conc" format="ascii">
-4.948059928501474e-02 -4.655866280304759e-02 8.104517622274360e-02 -8.206436913481864e-02 1.004783580056457e-01 1.136658560937019e-01 1.288219376252243e-01 1.344348052681774e-01 2.935985092502004e-01 1.869419364116246e-01 2.776514317446732e-01 2.174343944994798e-01 2.284659457375502e-01 2.999494723464782e-01 1.508943676539423e-01 2.377565365752940e-01 1.447677601843538e-01 9.308739118331841e-02 9.459942892378141e-02 1.349025850623987e-01 2.442199392085226e-02 8.574452446020979e-02 2.889410388828363e-02 2.144011485547576e-02 2.069548546782861e-02 2.514166601844752e-02 4.241677478187059e-04 1.753692840808195e-02 2.686092811282655e-03 3.890845446191551e-03 3.392299509246363e-03 2.337064772714562e-03 -5.793507439027510e-04 2.762059712754463e-03 -2.193242066128437e-05 6.295993902002776e-04 4.877505576404330e-04 3.587796880407409e-06 -1.658249004182304e-04 3.855231994246286e-04 -6.151109732274970e-05 9.483914822059447e-05 6.593104274052485e-05 -4.683457944960672e-05 -3.235951444888442e-05 5.087673822065522e-05 -1.535858391920936e-05 1.366212832467756e-05 8.680609808103539e-06 -1.208209139436285e-05 -5.394861950810484e-06 6.566227983463581e-06 -2.828632452469255e-06 1.912509938985708e-06 1.132693673945309e-06 -2.259141229987027e-06 -8.270376853993079e-07 8.429125193782679e-07 -4.569742850527313e-07 2.626672533566390e-07 1.476126792819175e-07 -3.691732331140935e-07 -1.206223686374237e-07 1.084325651273354e-07 -6.876311758035186e-08 3.560315823118575e-08 1.926460080671617e-08 -5.612550592411334e-08 -1.704969768814727e-08 1.401076813215136e-08 -9.916593991407551e-09 4.780960992188489e-09 2.518932070858802e-09 -8.174346448819802e-09 -2.361398787109911e-09 1.818289785017302e-09 -1.392435051450438e-09 6.377443039956636e-10 3.298836934808691e-10 -1.159019687048530e-09 -3.227091426102451e-10 2.368056388948278e-10 -1.921941177932803e-10 8.467472403855960e-11 4.325554523535471e-11 -1.615360863455836e-10 -4.371693994882527e-11 3.092281852254840e-11 -2.623672294548093e-11 1.120803938420013e-11 5.678038600439890e-12 -2.226689980996101e-11 -5.889349346504023e-12 4.046553762796437e-12 -3.556698989137487e-12 1.480962515515090e-12 7.462269785570751e-13 -3.048106112299237e-12 -7.907616528830856e-13 5.305390899818521e-13 -4.801325881767728e-13 1.955562471570663e-13 9.821423844669208e-14 -4.155156800314802e-13 -1.059982430473175e-13 6.969396728571332e-14 -6.466953696080791e-14 2.582894575161162e-14 1.294981023867296e-14 -5.651648430023819e-14 -1.420219318366323e-14 9.175056964841804e-15 -8.703008713515964e-15 3.414856272075434e-15 1.711208224746337e-15 -7.680586450083283e-15 -1.903761205405870e-15 1.210823417482832e-15 -1.171415855935644e-15 4.521992857991181e-16 2.266983875059688e-16 -1.043952608476428e-15 -2.554873729526924e-16 1.602284715117968e-16 -1.578154022917209e-16 6.000473958264457e-17 3.011862097552772e-17 -1.420215921274350e-16 -3.434419323409065e-17 2.126684428945744e-17 -2.129244684629702e-17 7.981779706338081e-18 4.013956181726926e-18 -1.934874444695077e-17 -4.626323747698993e-18 2.831846189788779e-18 -2.878194957629892e-18 1.064618996764228e-18 5.367173585942657e-19 -2.640911265990659e-18 -6.246651987757836e-19 3.783701793624947e-19 -3.899140530026780e-19 1.424162411697425e-19 7.201382419353045e-20 -3.612360303778054e-19 -8.456381141975491e-20 5.073429654325571e-20 -5.295091661251622e-20 1.911002677665636e-20 9.696739332544658e-21 -4.952963184099596e-20 -1.147942464863555e-20 6.827517201398684e-21 -7.209585517148192e-21 2.572442241554478e-21 1.310393990425689e-21 -6.808499833706148e-21 -1.562813462920771e-21 9.221986006626553e-22 -9.843194989173176e-22 3.474109199747483e-22 1.777291975963929e-22 -9.384397591839504e-22 -2.133948026295242e-22 1.250255872423316e-22 -1.347697883966005e-22 4.707323795151550e-23 2.419364567758223e-23 -1.297094364485184e-22 -2.922650594887963e-23 1.701332981714195e-23 -1.850587761513418e-23 6.399526088265263e-24 3.305424858562960e-24 -1.797947663811362e-23 -4.015171286198325e-24 2.323763898335113e-24 -2.548639526758648e-24 8.729075430905902e-25 4.532409672808444e-25 -2.499447118280854e-24 -5.533197409792405e-25 3.185650136028198e-25 -3.520485028831816e-25 1.194630902271538e-25 6.237282926368334e-26 -3.484868421425174e-25 -7.648891775904186e-26 4.383236383400411e-26 -4.877531589328982e-26 1.640358358939036e-26 8.614137274776044e-27 -4.873184687650018e-26 -1.060650295304111e-26 6.052948946245513e-27 -6.778051481515296e-27 2.259824114752076e-27 1.193882921772410e-27 -6.834826838130352e-27 -1.475349757356903e-27 8.388745128233133e-28 -9.447500932708298e-28 3.123421352119802e-28 1.660455915664822e-28 -9.614592677163876e-28 -2.058552205495199e-28 1.166718276016084e-28 -1.320789482350072e-28 4.331057117288195e-29 2.317339214612942e-29 -1.356502867191875e-28 -2.881149712764988e-29 1.628374006522336e-29 -1.852037612891138e-29 6.024911467490775e-30 3.245105214468310e-30 -1.919518981026853e-29 -4.044809029912676e-30 2.280557083840932e-30 -2.604705535351869e-30 8.407867117247488e-31 4.559577784644067e-31 -2.724203265727140e-30 -5.695715619215243e-31 3.204832820992521e-31 -3.674105672989254e-31 1.177019378843047e-31 6.427714787331577e-32 -3.877519559191526e-31 -8.044616532763075e-32 4.518832056301387e-32 -5.197794579010775e-32 1.652827646780537e-32 9.090838536029190e-33 -5.535114101092697e-32 -1.139611795631079e-32 6.392665789109932e-33 -7.374800196017652e-33 2.328095556873397e-33 1.289869645927323e-33 -7.924044051154367e-33 -1.619161072740361e-33 9.073008079341821e-34 -1.049381517765651e-33 3.289167809340496e-34 1.835952114538754e-34 -1.137636797149349e-33 -2.307230806599913e-34 1.291851538624279e-34 -1.497463125576336e-34 4.660855836858597e-35 2.621377958684402e-35 -1.637890173012648e-34 -3.297202958860810e-35 1.845204351852386e-35 -2.142916985945494e-35 6.624023738246843e-36 3.754307544288918e-36 -2.364708429133508e-35 -4.725407480351786e-36 2.643781017812770e-36 -3.075157563638970e-36 9.441404430355381e-37 5.393132975610767e-37 -3.423487797477176e-36 -6.791358283130675e-37 3.799568523243854e-37 -4.425150197017731e-37 1.349558029366190e-37 7.770387494020096e-38 -4.969863710249092e-37 -9.787735927358085e-38 5.477085956494014e-38 -6.385171651640176e-38 1.934497943065503e-38 1.122829094403986e-38 -7.234196827505828e-38 -1.414490603035523e-38 7.918628939755450e-39 -9.238167855852552e-39 2.780660500782791e-39 1.627170848865258e-39 -1.055823766612945e-38 -2.049715748134332e-39 1.148191203924690e-39 -1.340145879350278e-39 4.007850748099313e-40 2.364721877998601e-40 -1.545013898208235e-39 -2.978145526236157e-40 1.669631727523840e-40 -1.949193026794279e-40 5.792144489635109e-41 3.446140281576260e-41 -2.266716050410962e-40 -4.338495215090227e-41 2.434711767419215e-41 -2.842345954966130e-41 8.392883316497914e-42 5.035814897154045e-42 -3.334024136846490e-41 -6.336573429904258e-42 3.560183526673343e-42 -4.155277061030774e-42 1.219285840125783e-42 7.378489475174842e-43 -4.916197020910213e-42 -9.278370945667146e-43 5.220015739608915e-43 -6.089814512410422e-43 1.775821805672728e-43 1.083930603762240e-43 -7.267068266770221e-43 -1.361973181088457e-43 7.673985041788866e-44 -8.946783783562532e-44 2.592789360828039e-44 1.596411270898337e-44 -1.076804625867214e-43 -2.004100362301213e-44 1.131077949786971e-44 -1.317537552519705e-44 3.794720807936957e-45 2.357038143331498e-45 -1.599327256740087e-44 -2.955931162890102e-45 1.671304782807995e-45 -1.944740257253103e-45 5.566756960960243e-46 3.488433668359911e-46 -2.380842930137791e-45 -4.369744006733597e-46 2.475561984754497e-46 -2.876899104841802e-46 8.184481198909739e-47 5.174772396048452e-47 -3.552059255818812e-46 -6.473766575742173e-47 3.675378266545669e-47 -4.264841178667983e-47 1.205842203305694e-47 7.692915031141984e-48 -5.310533592543416e-47 -9.610248374772489e-48 5.468683482519247e-48 -6.334767003776565e-48 1.780022163616021e-48 1.145914685564623e-48 -7.955021352269065e-48 -1.429233671155276e-48 8.153416964498496e-49 -9.425797610230108e-49 2.632045454501983e-49 1.709896013503098e-49 -1.193722371672288e-48 -2.128845682935578e-49 1.217778964982983e-49 -1.404558679208848e-49 3.897186118645612e-50 2.555029668870448e-50 -1.793922605030307e-49 -3.174608520741478e-50 1.821479508189514e-50 -2.095168028325995e-50 5.775586221850697e-51 3.821405081476807e-51 -2.698811176376061e-50 -4.737001785254980e-51 2.727110224899266e-51 -3.126819908300882e-51 8.561294035210896e-52 5.716827159212049e-52 -4.062261534753866e-51 -7.067160383875654e-52 4.084256060558118e-52 -4.664783820829479e-52 1.268142556480670e-52 8.546114745502726e-53 -6.112856684486150e-52 -1.053001250756194e-52 6.112794682500279e-53 -6.948465837611932e-53 1.874519907375389e-53 1.274846442810754e-53 -9.185581248778171e-53 -1.564445446004340e-53 9.130376218251145e-54 -1.031659569064103e-53 2.759664717042283e-54 1.893883780435527e-54 -1.376088283557055e-53 -2.312302370715519e-54 1.358336494548868e-54 -1.523057306846345e-54 4.035041957799103e-55 2.793875082601254e-55 -2.050441847787151e-54 -3.388876774582584e-55 2.007117476843422e-55 -2.227985226941019e-55 5.835946787143161e-56 4.075880011913049e-56 -3.028677436963450e-55 -4.901679536315781e-56 2.933758639603057e-56 -3.213249580301247e-56 8.300577783938450e-57 5.845097164196327e-57 -4.413322957890942e-56 -6.949414275074518e-57 4.217087804049779e-57 -4.535818384215034e-57 1.151140890562382e-57 8.167693464409051e-58 -6.300067323467787e-57 -9.561496041560982e-58 5.910223098633382e-58 -6.200320844729035e-58 1.536901991321304e-58 1.097573789908341e-58 -8.720187442507357e-58 -1.257731549800128e-58 7.973008930547893e-59 -8.077385946680185e-59 1.937209074839924e-59 1.389841236264331e-59 -1.152390597482592e-58 -1.545548839918240e-59 1.014995424137118e-59 -9.781495844734525e-60 2.233627850865975e-60 1.604227689176521e-60 -1.419417816069100e-59 -1.708074704421685e-60 1.180617621715226e-60 -1.056567659964886e-60 2.228428911817804e-61 1.590016633222602e-61 -1.565755970596498e-60 -1.584479637428999e-61 1.184286842977433e-61 -9.434276929164723e-62 1.714707203865094e-62 1.189749881686350e-62 -1.437070562202682e-61 -1.059258757270752e-62 9.052319244182856e-63 -5.855872334180777e-63 7.198024205347330e-64 4.327987642004154e-64 -9.284028610521564e-63 -2.873816338953723e-64 3.484586454160657e-64 -1.213520052080048e-64 -1.463534882146046e-65 -1.857243777402437e-65 -2.109756567774993e-64 1.480478356885745e-65 -3.787493810415103e-65 3.328124519489748e-65 1.571805240148695e-65 0.000000000000000e+00 0.000000000000000e+00 0.000000000000000e+00 0.000000000000000e+00 0.000000000000000e+00 0.000000000000000e+00 0.000000000000000e+00 0.000000000000000e+00 0.000000000000000e+00 0.000000000000000e+00 0.000000000000000e+00 0.000000000000000e+00 0.000000000000000e+00 0.000000000000000e+00 0.000000000000000e+00 0.000000000000000e+00 0.000000000000000e+00 0.000000000000000e+00 -4.951777676509114e-02 -4.641808959721910e-02 8.143439723498833e-02 -8.240725522263526e-02 9.968814017122472e-02 1.161414401499007e-01 1.327328224798495e-01 1.329652168873200e-01 2.905147605714282e-01 1.948874770863397e-01 2.680498831616790e-01 2.351425813322811e-01 2.458042890346087e-01 2.900754997709117e-01 1.411592732323583e-01 2.598467257368929e-01 1.318289063731072e-01 1.144203413332036e-01 1.119818784981580e-01 1.238451196622287e-01 1.559666128355250e-02 1.034193317930249e-01 2.127526161822114e-02 3.234299239221355e-02 2.874650547317160e-02 1.908903221813533e-02 -3.678649900974318e-03 2.485756486390190e-02 -1.715026518455110e-04 7.390998556468340e-03 5.821612907384401e-03 1.257877375234167e-04 -1.862767435693812e-03 4.850202416184086e-03 -8.320744639810404e-04 1.496646800780656e-03 1.064400248935901e-03 -6.185182714865729e-04 -4.832006144606862e-04 8.668268796365982e-04 -2.532712908670930e-04 2.794921621124277e-04 1.850839247097560e-04 -1.941759127625811e-04 -1.004637881555915e-04 1.487832572773356e-04 -5.575095948110172e-05 4.954356918173454e-05 3.134342113870797e-05 -4.325996689494578e-05 -1.877549683043986e-05 2.504176865997624e-05 -1.071334468214644e-05 8.499916268257766e-06 5.231698995080558e-06 -8.384992016364068e-06 -3.313020795277890e-06 4.174132522060280e-06 -1.921113894585879e-06 1.429982622219958e-06 8.667614706618890e-07 -1.515325652718496e-06 -5.663559246602408e-07 6.928569162614799e-07 -3.319398830474414e-07 2.380266430100489e-07 1.432026066859178e-07 -2.638220487572804e-07 -9.521417545199279e-08 1.149391133759441e-07 -5.625600482364598e-08 3.944749075196751e-08 2.367486628538823e-08 -4.505428731862194e-08 -1.588968983027186e-08 1.910788552959856e-08 -9.452138373815486e-09 6.538117872572870e-09 3.926970193397075e-09 -7.628872307112993e-09 -2.648319065303184e-09 3.190162665346871e-09 -1.585213434154565e-09 1.087259213667395e-09 6.548839189643330e-10 -1.289542655653628e-09 -4.426294531417174e-10 5.358333263688315e-10 -2.665469828138228e-10 1.818421612082394e-10 1.099822189307216e-10 -2.185705103465866e-10 -7.439548771085813e-11 9.067424896322493e-11 -4.507005713253512e-11 3.064109927244479e-11 1.862502573162294e-11 -3.725814722277626e-11 -1.259926342305598e-11 1.547668213240214e-11 -7.679316291569660e-12 5.208768284059909e-12 3.183695804884978e-12 -6.400420809415161e-12 -2.153001622407024e-12 2.666942702798358e-12 -1.320377771789986e-12 8.941608123008879e-13 5.497599600573982e-13 -1.109599731262262e-12 -3.716045180834556e-13 4.643120014498884e-13 -2.293256852174217e-13 1.551199474075967e-13 9.595988471041871e-14 -1.943232628193264e-13 -6.482921331076095e-14 8.171760610212704e-14 -4.026215646957463e-14 2.721018980763938e-14 1.693896643465854e-14 -3.440235941459963e-14 -1.143780151427762e-14 1.454531780093402e-14 -7.149131150551046e-15 4.828212082913188e-15 3.024964484112171e-15 -6.159891553104679e-15 -2.041560178300232e-15 2.619262766608781e-15 -1.284340075539786e-15 8.668898297887898e-16 5.466456852689804e-16 -1.115920549966609e-15 -3.687643917593008e-16 4.773014942644172e-16 -2.335017204072099e-16 1.575288972421093e-16 9.998360341989424e-17 -2.045868950692867e-16 -6.741983946157540e-17 8.803283237206506e-17 -4.296971796373696e-17 2.897634438717326e-17 1.851182985905836e-17 -3.796494182863643e-17 -1.247777732890322e-17 1.643583691317353e-17 -8.004816915228584e-18 5.395863553135992e-18 3.469836178533424e-18 -7.131810429492362e-18 -2.337958209143157e-18 3.106512558892873e-18 -1.509705297470634e-18 1.017285478196383e-18 6.584670652387302e-19 -1.356321065113813e-18 -4.435172636839957e-19 5.944469887854688e-19 -2.882743981383874e-19 1.941811496480922e-19 1.265142319919595e-19 -2.611504044062425e-19 -8.518663076160680e-20 1.151662696383937e-19 -5.573186377448751e-20 3.752853622483335e-20 2.461108018771152e-20 -5.090890642390601e-20 -1.656622565576151e-20 2.258990207212999e-20 -1.090904936277767e-20 7.343564717591195e-21 4.847375258735360e-21 -1.004784977687624e-20 -3.261852196248516e-21 4.486196091000918e-21 -2.161981812206554e-21 1.454914665375594e-21 9.666306413858646e-22 -2.007817032575552e-21 -6.502580442508130e-22 9.020066861819369e-22 -4.338005082032536e-22 2.918390769237719e-22 1.951558187175684e-22 -4.061976740343414e-22 -1.312429962442676e-22 1.836105219278742e-22 -8.812281446156545e-23 5.926676896375813e-23 3.988920118933670e-23 -8.319555242765768e-23 -2.681764501432095e-23 3.783792189288850e-23 -1.812305875525890e-23 1.218498084319468e-23 8.254018787121025e-24 -1.725029452047622e-23 -5.547560717066981e-24 7.893727236002713e-24 -3.773130886462493e-24 2.536098542216962e-24 1.728993518969197e-24 -3.620836506562485e-24 -1.161720054936563e-24 1.667030352186138e-24 -7.952070922785494e-25 5.343372307742427e-25 3.666225638857269e-25 -7.693394759514687e-25 -2.462627140062984e-25 3.563621139461469e-25 -1.696469968822433e-25 1.139598887668150e-25 7.869044509978544e-26 -1.654639395622282e-25 -5.284116415756065e-26 7.710903207456308e-26 -3.663349311887781e-26 2.460108595852237e-26 1.709543365179624e-26 -3.601999385094811e-26 -1.147626920707459e-26 1.688740978572716e-26 -8.006721940524722e-27 5.375267096020053e-27 3.758991510605333e-27 -7.936278977499685e-27 -2.522675118658799e-27 3.743197624051945e-27 -1.771140526272205e-27 1.188684950621161e-27 8.365138116112853e-28 -1.769705135151384e-27 -5.612178352378134e-28 8.396956910381096e-28 -3.965066526767274e-28 2.660306129197870e-28 1.883920919313045e-28 -3.993677652570177e-28 -1.263537870386468e-28 1.906241324274339e-28 -8.983059799577509e-29 6.025202709212201e-29 4.293556012122929e-29 -9.120328786017126e-29 -2.878781824244317e-29 4.379130282441830e-29 -2.059451498684169e-29 1.380905400003115e-29 9.901787870684073e-30 -2.107611699664916e-29 -6.636971584550999e-30 1.017956251588708e-29 -4.777596138514078e-30 3.202472852287308e-30 2.310623968829665e-30 -4.928225555838411e-30 -1.548278061956116e-30 2.394301867863547e-30 -1.121437509808209e-30 7.514729780013523e-31 5.455585109474565e-31 -1.165970989129025e-30 -3.654457587170220e-31 5.697897194832665e-31 -2.663334933822576e-31 1.784123377889549e-31 1.303248238024345e-31 -2.790998058626722e-31 -8.727083548666933e-32 1.371872394500470e-31 -6.399395637845508e-32 4.285458927898162e-32 3.149663594722170e-32 -6.759016366144120e-32 -2.108458089637716e-32 3.341595235948809e-32 -1.555579185742294e-32 1.041377440937877e-32 7.700695978599811e-33 -1.655912223360919e-32 -5.153329621728859e-33 8.234035178387999e-33 -3.825276947680799e-33 2.559969986673096e-33 1.904593099237242e-33 -4.103918759867825e-33 -1.274135152808839e-33 2.052429060608308e-33 -9.515440265031477e-34 6.365828931105748e-34 4.764951567389035e-34 -1.028834833526748e-33 -3.186582466050760e-34 5.174852599414185e-34 -2.394240230543073e-34 1.601200862309915e-34 1.205802942260052e-34 -2.608890351959156e-34 -8.061097450768961e-35 1.319714348537075e-34 -6.093359055404066e-35 4.073657356832350e-35 3.086263075387738e-35 -6.691244248912903e-35 -2.062525569293197e-35 3.404015147836719e-35 -1.568458203404147e-35 1.048208007066304e-35 7.989229172466808e-36 -1.735705606152392e-35 -5.337239448565298e-36 8.879930063088681e-36 -4.083122158327485e-36 2.727785161153077e-36 2.091547183897214e-36 -4.553442858569063e-36 -1.396757091765125e-36 2.342664527678599e-36 -1.074953769175540e-36 7.178707841158014e-37 5.537262320145813e-37 -1.208018688736521e-36 -3.696446849153410e-37 6.249820994126522e-37 -2.861790011105013e-37 1.910411171512255e-37 1.482375597012073e-37 -3.240788508526435e-37 -9.891829685392634e-38 1.685985950085175e-37 -7.703808955533750e-38 5.140658751064795e-38 4.012583354255214e-38 -8.791060979453207e-38 -2.676464629433562e-38 4.598724834468587e-38 -2.096800377526532e-38 1.398565244788696e-38 1.098128547835987e-38 -2.411077161178292e-38 -7.321425212573131e-39 1.268178858569559e-38 -5.769642627707038e-39 3.846538784441098e-39 3.038064033766400e-39 -6.685268133788891e-39 -2.024530249253940e-39 3.535389232296395e-39 -1.604818943355996e-39 1.069347015721688e-39 8.495576966296146e-40 -1.873755160045699e-39 -5.658172688633767e-40 9.962059642161935e-40 -4.511457835330125e-40 3.004319825077480e-40 2.400814509269824e-40 -5.307945061192588e-40 -1.597924308648215e-40 2.836870542910629e-40 -1.281521186171212e-40 8.527889405900939e-41 6.854609182090855e-41 -1.519395660716182e-40 -4.558631623609535e-41 8.162163328987317e-41 -3.677242107967239e-41 2.444850666036482e-41 1.976569768077257e-41 -4.393654283753314e-41 -1.313202768957047e-41 2.371949272209045e-41 -1.065432557227465e-41 7.075657892453388e-42 5.753533011091277e-42 -1.282997184183194e-41 -3.817669427008414e-42 6.958964989537378e-42 -3.115200284275638e-42 2.065805266421889e-42 1.689481747313714e-42 -3.781290210307826e-42 -1.119140235570101e-42 2.059922274664979e-42 -9.184403559054459e-43 6.078628264165207e-43 4.999805857151388e-43 -1.123949533448144e-42 -3.304454292897673e-43 6.146709555118479e-43 -2.727269057191346e-43 1.800252091217432e-43 1.489188252988811e-43 -3.365847569371012e-43 -9.811924505168689e-44 1.846650710244183e-43 -8.143742267889744e-44 5.356156786235819e-44 4.455751336228042e-44 -1.014022889524533e-43 -2.923314459939122e-44 5.5760