<?xml version="1.0"?>
<VTKFile type="UnstructuredGrid" version="0.1" byte_order="LittleEndian">
<UnstructuredGrid>
<Piece NumberOfPoints="2400" NumberOfCells="800">
<Points>
<DataArray type="Float64" NumberOfComponents="3" format="ascii">
0.000000000000000e+00 0.000000000000000e+00 0.000000000000000e+00 0.000000000000000e+00 1.999999999995579e-01 0.000000000000000e+00 2.000000000000000e-01 1.999999999995579e-01 0.000000000000000e+00 0.000000000000000e+00 0.000000000000000e+00 0.000000000000000e+00 2.000000000000000e-01 1.999999999995579e-01 0.000000000000000e+00 2.000000000000000e-01 0.000000000000000e+00 0.000000000000000e+00 2.000000000000000e-01 0.000000000000000e+00 0.000000000000000e+00 2.000000000000000e-01 1.999999999995579e-01 0.000000000000000e+00 4.000000000000000e-01 1.999999999995579e-01 0.000000000000000e+00 2.000000000000000e-01 0.000000000000000e+00 0.000000000000000e+00 4.000000000000000e-01 1.999999999995579e-01 0.000000000000000e+00 4.000000000000000e-01 0.000000000000000e+00 0.000000000000000e+00 4.000000000000000e-01 0.000000000000000e+00 0.000000000000000e+00 4.000000000000000e-01 1.999999999995579e-01 0.000000000000000e+00 6.000000000000000e-01 1.999999999995579e-01 0.000000000000000e+00 4.000000000000000e-01 0.000000000000000e+00 0.000000000000000e+00 6.000000000000000e-01 1.999999999995579e-01 0.000000000000000e+00 6.000000000000000e-01 0.000000000000000e+00 0.000000000000000e+00 6.000000000000000e-01 0.000000000000000e+00 0.000000000000000e+00 6.000000000000000e-01 1.999999999995579e-01 0.000000000000000e+00 8.000000000000000e-01 1.999999999995579e-01 0.000000000000000e+00 6.000000000000000e-01 0.000000000000000e+00 0.000000000000000e+00 8.000000000000000e-01 1.999999999995579e-01 0.000000000000000e+00 8.000000000000000e-01 0.000000000000000e+00 0.000000000000000e+00 8.000000000000000e-01 0.000000000000000e+00 0.000000000000000e+00 8.000000000000000e-01 1.999999999995579e-01 0.000000000000000e+00 1.000000000000000e+00 1.999999999995579e-01 0.000000000000000e+00 8.000000000000000e-01 0.000000000000000e+00 0.000000000000000e+00 1.000000000000000e+00 1.999999999995579e-01 0.000000000000000e+00 1.000000000000000e+00 0.000000000000000e+00 0.000000000000000e+00 1.000000000000000e+00 0.000000000000000e+00 0.000000000000000e+00 1.000000000000000e+00 1.999999999995579e-01 0.000000000000000e+00 1.200000000000000e+00 1.999999999995579e-01 0.000000000000000e+00 1.000000000000000e+00 0.000000000000000e+00 0.000000000000000e+00 1.200000000000000e+00 1.999999999995579e-01 0.000000000000000e+00 1.200000000000000e+00 0.000000000000000e+00 0.000000000000000e+00 1.200000000000000e+00 0.000000000000000e+00 0.000000000000000e+00 1.200000000000000e+00 1.999999999995579e-01 0.000000000000000e+00 1.400000000000000e+00 1.999999999995579e-01 0.000000000000000e+00 1.200000000000000e+00 0.000000000000000e+00 0.000000000000000e+00 1.400000000000000e+00 1.999999999995579e-01 0.000000000000000e+00 1.400000000000000e+00 0.000000000000000e+00 0.000000000000000e+00 1.400000000000000e+00 0.000000000000000e+00 0.000000000000000e+00 1.400000000000000e+00 1.999999999995579e-01 0.000000000000000e+00 1.600000000000000e+00 1.999999999995579e-01 0.000000000000000e+00 1.400000000000000e+00 0.000000000000000e+00 0.000000000000000e+00 1.600000000000000e+00 1.999999999995579e-01 0.000000000000000e+00 1.600000000000000e+00 0.000000000000000e+00 0.000000000000000e+00 1.600000000000000e+00 0.000000000000000e+00 0.000000000000000e+00 1.600000000000000e+00 1.999999999995579e-01 0.000000000000000e+00 1.800000000000000e+00 1.999999999995579e-01 0.000000000000000e+00 1.600000000000000e+00 0.000000000000000e+00 0.000000000000000e+00 1.800000000000000e+00 1.999999999995579e-01 0.000000000000000e+00 1.800000000000000e+00 0.000000000000000e+00 0.000000000000000e+00 1.800000000000000e+00 0.000000000000000e+00 0.000000000000000e+00 1.800000000000000e+00 1.999999999995579e-01 0.000000000000000e+00 2.000000000000000e+00 1.999999999995579e-01 0.000000000000000e+00 1.800000000000000e+00 0.000000000000000e+00 0.000000000000000e+00 2.000000000000000e+00 1.999999999995579e-01 0.000000000000000e+00 2.000000000000000e+00 0.000000000000000e+00 0.000000000000000e+00 2.000000000000000e+00 0.000000000000000e+00 0.000000000000000e+00 2.000000000000000e+00 1.999999999995579e-01 0.000000000000000e+00 2.200000000000000e+00 1.999999999995579e-01 0.000000000000000e+00 2.000000000000000e+00 0.000000000000000e+00 0.000000000000000e+00 2.200000000000000e+00 1.999999999995579e-01 0.000000000000000e+00 2.200000000000000e+00 0.000000000000000e+00 0.000000000000000e+00 2.200000000000000e+00 0.000000000000000e+00 0.000000000000000e+00 2.200000000000000e+00 1.999999999995579e-01 0.000000000000000e+00 2.400000000000000e+00 1.999999999995579e-01 0.000000000000000e+00 2.200000000000000e+00 0.000000000000000e+00 0.000000000000000e+00 2.400000000000000e+00 1.999999999995579e-01 0.000000000000000e+00 2.400000000000000e+00 0.000000000000000e+00 0.000000000000000e+00 2.400000000000000e+00 0.000000000000000e+00 0.000000000000000e+00 2.400000000000000e+00 1.999999999995579e-01 0.000000000000000e+00 2.600000000000000e+00 1.999999999995579e-01 0.000000000000000e+00 2.400000000000000e+00 0.000000000000000e+00 0.000000000000000e+00 2.600000000000000e+00 1.999999999995579e-01 0.000000000000000e+00 2.600000000000000e+00 0.000000000000000e+00 0.000000000000000e+00 2.600000000000000e+00 0.000000000000000e+00 0.000000000000000e+00 2.600000000000000e+00 1.999999999995579e-01 0.000000000000000e+00 2.800000000000000e+00 1.999999999995579e-01 0.000000000000000e+00 2.600000000000000e+00 0.000000000000000e+00 0.000000000000000e+00 2.800000000000000e+00 1.999999999995579e-01 0.000000000000000e+00 2.800000000000000e+00 0.000000000000000e+00 0.000000000000000e+00 2.800000000000000e+00 0.000000000000000e+00 0.000000000000000e+00 2.800000000000000e+00 1.999999999995579e-01 0.000000000000000e+00 3.000000000000000e+00 1.999999999995579e-01 0.000000000000000e+00 2.800000000000000e+00 0.000000000000000e+00 0.000000000000000e+00 3.000000000000000e+00 1.999999999995579e-01 0.000000000000000e+00 3.000000000000000e+00 0.000000000000000e+00 0.000000000000000e+00 3.000000000000000e+00 0.000000000000000e+00 0.000000000000000e+00 3.000000000000000e+00 1.999999999995579e-01 0.000000000000000e+00 3.200000000000000e+00 1.999999999995579e-01 0.000000000000000e+00 3.000000000000000e+00 0.000000000000000e+00 0.000000000000000e+00 3.200000000000000e+00 1.999999999995579e-01 0.000000000000000e+00 3.200000000000000e+00 0.000000000000000e+00 0.000000000000000e+00 3.200000000000000e+00 0.000000000000000e+00 0.000000000000000e+00 3.200000000000000e+00 1.999999999995579e-01 0.000000000000000e+00 3.400000000000000e+00 1.999999999995579e-01 0.000000000000000e+00 3.200000000000000e+00 0.000000000000000e+00 0.000000000000000e+00 3.400000000000000e+00 1.999999999995579e-01 0.000000000000000e+00 3.400000000000000e+00 0.000000000000000e+00 0.000000000000000e+00 3.400000000000000e+00 0.000000000000000e+00 0.000000000000000e+00 3.400000000000000e+00 1.999999999995579e-01 0.000000000000000e+00 3.600000000000000e+00 1.999999999995579e-01 0.000000000000000e+00 3.400000000000000e+00 0.000000000000000e+00 0.000000000000000e+00 3.600000000000000e+00 1.999999999995579e-01 0.000000000000000e+00 3.600000000000000e+00 0.000000000000000e+00 0.000000000000000e+00 3.600000000000000e+00 0.000000000000000e+00 0.000000000000000e+00 3.600000000000000e+00 1.999999999995579e-01 0.000000000000000e+00 3.800000000000000e+00 1.999999999995579e-01 0.000000000000000e+00 3.600000000000000e+00 0.000000000000000e+00 0.000000000000000e+00 3.800000000000000e+00 1.999999999995579e-01 0.000000000000000e+00 3.800000000000000e+00 0.000000000000000e+00 0.000000000000000e+00 3.800000000000000e+00 0.000000000000000e+00 0.000000000000000e+00 3.800000000000000e+00 1.999999999995579e-01 0.000000000000000e+00 4.000000000000000e+00 1.999999999995579e-01 0.000000000000000e+00 3.800000000000000e+00 0.000000000000000e+00 0.000000000000000e+00 4.000000000000000e+00 1.999999999995579e-01 0.000000000000000e+00 4.000000000000000e+00 0.000000000000000e+00 0.000000000000000e+00 4.000000000000000e+00 0.000000000000000e+00 0.000000000000000e+00 4.000000000000000e+00 1.999999999995579e-01 0.000000000000000e+00 4.200000000000000e+00 1.999999999995579e-01 0.000000000000000e+00 4.000000000000000e+00 0.000000000000000e+00 0.000000000000000e+00 4.200000000000000e+00 1.999999999995579e-01 0.000000000000000e+00 4.200000000000000e+00 0.000000000000000e+00 0.000000000000000e+00 4.200000000000000e+00 0.000000000000000e+00 0.000000000000000e+00 4.200000000000000e+00 1.999999999995579e-01 0.000000000000000e+00 4.400000000000000e+00 1.999999999995579e-01 0.000000000000000e+00 4.200000000000000e+00 0.000000000000000e+00 0.000000000000000e+00 4.400000000000000e+00 1.999999999995579e-01 0.000000000000000e+00 4.400000000000000e+00 0.000000000000000e+00 0.000000000000000e+00 4.400000000000000e+00 0.000000000000000e+00 0.000000000000000e+00 4.400000000000000e+00 1.999999999995579e-01 0.000000000000000e+00 4.600000000000000e+00 1.999999999995579e-01 0.000000000000000e+00 4.400000000000000e+00 0.000000000000000e+00 0.000000000000000e+00 4.600000000000000e+00 1.999999999995579e-01 0.000000000000000e+00 4.600000000000000e+00 0.000000000000000e+00 0.000000000000000e+00 4.600000000000000e+00 0.000000000000000e+00 0.000000000000000e+00 4.600000000000000e+00 1.999999999995579e-01 0.000000000000000e+00 4.800000000000000e+00 1.999999999995579e-01 0.000000000000000e+00 4.600000000000000e+00 0.000000000000000e+00 0.000000000000000e+00 4.800000000000000e+00 1.999999999995579e-01 0.000000000000000e+00 4.800000000000000e+00 0.000000000000000e+00 0.000000000000000e+00 4.800000000000000e+00 0.000000000000000e+00 0.000000000000000e+00 4.800000000000000e+00 1.999999999995579e-01 0.000000000000000e+00 5.000000000000000e+00 1.999999999995579e-01 0.000000000000000e+00 4.800000000000000e+00 0.000000000000000e+00 0.0000000000000
[...]
<PointData Scalars="conc_conc," Vectors="" Tensors="">
<DataArray type="Float64" Name="conc_conc" format="ascii">
6.320175487462187e-01 6.320175487462196e-01 4.100227457388095e-01 8.245264361657135e-01 2.229948152049108e-01 1.567576912252028e-01 1.013969683204101e-01 8.655761660064112e-02 -8.819382878905689e-02 4.076019107516723e-02 -3.307553582955233e-02 3.965054090059680e-03 -1.575065143034579e-03 -1.575044047497466e-02 3.538776594875012e-03 -5.410321179502756e-04 1.618426051244201e-03 -5.511451199485604e-04 -1.042357066919924e-04 7.764667457465899e-04 -7.527646753752130e-05 -5.813411524639797e-05 -4.932428772771820e-05 2.726222516796686e-05 8.464524768114324e-06 -2.320957626058848e-05 -5.456749160530665e-08 4.319069354828275e-06 8.840223727562633e-07 -9.159078095687604e-07 -3.665142106860246e-07 3.874718336326433e-07 8.780590772216194e-08 -1.813430359522191e-07 4.778434512282653e-09 2.188067984260792e-08 1.150085583102325e-08 3.983823373112316e-09 -4.854446186928812e-09 5.541396272731508e-09 -1.199137823729916e-09 -2.635286665095917e-10 -2.603180326952584e-10 -6.311691946600242e-10 1.791692800946157e-10 -1.204590793938258e-10 6.156323185105201e-11 -7.670075517063714e-12 2.763365998000573e-12 3.086118178538570e-11 -5.004836421302233e-12 1.064369837116554e-12 -2.192746490013985e-12 6.878020426250565e-13 1.071961626425398e-13 -1.068153704733520e-12 9.722282881984790e-14 6.098556895753054e-14 5.956485569810881e-14 -3.028985627640643e-14 -8.622976696955395e-15 2.816294179498539e-14 -3.939454701125409e-16 -4.390484330337242e-15 -1.111724711487252e-15 9.880821146044449e-16 3.681881627702623e-16 -4.964092746223096e-16 -7.434334774836095e-17 1.808893422606960e-16 2.568670058511587e-18 -2.453696933450880e-17 -1.176012284972337e-17 -3.099606447341487e-19 4.482125827973871e-18 -5.625177091425606e-18 9.478921772624265e-19 3.783824382468202e-19 2.852350852182123e-19 5.006109031560170e-19 -1.736550058562146e-19 1.319479027989130e-19 -5.454431421452595e-20 3.287863698375354e-21 -4.161591749217302e-21 -2.711267245336233e-20 5.156683014496903e-21 -1.755443424336530e-21 2.067778033607583e-21 -5.525218026600787e-22 -5.014071709069412e-23 9.981102099177882e-22 -1.134104928142294e-22 -3.208840849919305e-23 -6.024188061258063e-23 2.718432016501511e-23 6.813117748263615e-24 -2.831929159454641e-23 1.184863369688251e-24 3.462161055628276e-24 1.288756916237819e-24 -9.543123399323716e-25 -3.249811588995649e-25 5.816152401223098e-25 4.592422349956998e-26 -1.584373650360076e-25 -1.198104960867011e-26 2.587704777015225e-26 1.119069532966574e-26 -4.360894158442074e-27 -3.686278242163358e-27 5.315801244332721e-27 -5.985710966785251e-28 -4.893176908275630e-28 -2.973399302940236e-28 -3.255646662062422e-28 1.578005079200557e-28 -1.373578734644045e-28 4.450820682716567e-29 1.599058298174119e-30 5.413308682491874e-30 2.205597119263954e-29 -5.072289678636507e-30 2.364961651425797e-30 -1.858635661886962e-30 3.903299624058673e-31 -7.492950451736598e-33 -8.918490080987518e-31 1.246432107659451e-31 3.702233322588187e-33 5.862351835749330e-32 -2.301536380597836e-32 -4.855768267022539e-33 2.744268430540392e-32 -1.897226387992375e-33 -2.494943700502517e-33 -1.406802655563962e-33 8.836692417931315e-34 2.735374747590654e-34 -6.378930123719181e-34 -1.738967487262990e-35 1.329780145767361e-34 2.013398368423543e-35 -2.609328113169131e-35 -1.027617200613783e-35 8.327213435238609e-36 2.805442708108676e-36 -4.861254395716763e-36 2.634787454453376e-37 5.715888583491083e-37 2.975063757217205e-37 1.620965703290949e-37 -1.371169129173564e-37 1.372594422173756e-37 -3.400098318121660e-38 -5.960816793596200e-39 -6.324593076154067e-39 -1.693370811094897e-38 4.795450878814123e-39 -2.804520088654859e-39 1.607507082209933e-39 -2.294209247657247e-40 5.773833057128389e-41 7.696747243968871e-40 -1.297342594508845e-40 2.059848839051493e-41 -5.507913208892110e-41 1.839429239926270e-41 2.974542443829931e-42 -2.572355041766650e-41 2.453345547755667e-42 1.586821965468287e-42 1.457826867218606e-42 -7.861895914947889e-43 -2.189707434687026e-43 6.626127615747891e-43 -8.427876683911403e-45 -1.067347745059384e-43 -2.643365352944323e-44 2.524653702001266e-44 9.109573467628952e-45 -1.136514408855440e-44 -1.922784078650179e-45 4.303727616550695e-45 3.425947825813506e-47 -6.206998107534956e-46 -2.866306448651521e-46 -1.912326779321754e-47 1.136507206162822e-46 -1.321895944178692e-46 2.374639794621802e-47 9.512858652284230e-48 6.867678782711003e-48 1.203390815483693e-47 -4.364691846020258e-48 3.069102525052151e-48 -1.333503600245278e-48 8.116289163842319e-50 -9.833426465088532e-50 -6.396308991694137e-49 1.289603321405091e-49 -4.007711148695002e-50 5.000774964744647e-50 -1.368400303405690e-50 -1.268111466377915e-51 2.334806150397386e-50 -2.833296226299900e-51 -7.741357973437460e-52 -1.446275251083560e-51 6.713118875841212e-52 1.646306189164896e-52 -6.586573151295866e-52 3.017811354798280e-53 8.104469338542477e-53 3.075255401323192e-53 -2.351762039072303e-53 -7.783467679962169e-54 1.345826231724848e-53 1.093954894853416e-54 -3.683184596159748e-54 -2.833633996521577e-55 6.377394720608194e-55 2.666605816543929e-55 -9.964966031782867e-56 -8.919479551550279e-56 1.230887847322127e-55 -1.424838309132823e-56 -1.214456748068626e-56 -7.062114055948612e-57 -7.547720861068432e-57 3.826150662041497e-57 -3.172386797133782e-57 1.053763666474894e-57 4.732346316971560e-59 1.284981134695438e-58 5.087745657464967e-58 -1.231639571163451e-58 5.458151833344206e-59 -4.387562905767510e-59 9.171671819467696e-60 -2.014345899671153e-61 -2.052315727948904e-59 3.039706077809978e-60 7.862977957801753e-62 1.381512327929048e-60 -5.480869619539690e-61 -1.132020349907424e-61 6.306688596498435e-61 -4.720584943135697e-62 -5.696719286447098e-62 -3.316107709930427e-62 2.113191963845821e-62 6.386735754370310e-63 -1.466326439596635e-62 -3.575111936573879e-64 3.037270471599156e-63 4.787290748019892e-64 -6.265083535935612e-64 -2.399306876871536e-64 1.928615709960198e-64 6.524801193773313e-65 -1.110150739990116e-64 5.856769522375347e-66 1.385066384057998e-65 6.951494967780395e-66 3.605459105724898e-66 -3.225622949333025e-66 3.136452002550258e-66 -7.827144896343434e-67 -1.521283774618974e-67 -1.483938371891516e-67 -3.829982915283893e-67 1.134378826801145e-67 -6.430787822224523e-68 3.714344274156263e-68 -5.067478271989183e-69 1.401207266274461e-69 1.744848024145355e-68 -3.089062574533360e-69 4.891526734091906e-70 -1.275103988496416e-69 4.243555743384814e-70 6.665957519341708e-71 -5.839757463882417e-70 5.937601751383581e-71 3.527501210397732e-71 3.385456569134400e-71 -1.832045198471692e-71 -4.996764424716001e-72 1.508122397570667e-71 -2.633674671468605e-73 -2.398465344509795e-72 -6.200058464701767e-73 5.922350501027766e-73 2.088122128042784e-73 -2.609356176219502e-73 -4.295743691863211e-74 9.701392530697258e-74 1.220911618204897e-75 -1.469818559043899e-74 -6.592171777957900e-75 -2.816141307070826e-76 2.604096974931606e-75 -2.987566759688781e-75 5.314738733239338e-76 2.319416733539043e-76 1.588465463338090e-76 2.668230117456414e-76 -1.009412787142185e-76 6.969381957179561e-77 -3.022475399999769e-77 1.507712620621215e-78 -2.322422895877317e-78 -1.430136732255337e-77 3.005946524857492e-78 -9.279300679051247e-79 1.139152405281095e-78 -3.063667362441432e-79 -2.628337922901641e-80 5.239840449598372e-79 -6.693166916292757e-80 -1.646231346829465e-80 -3.310192339956340e-80 1.529669284024217e-80 3.675703247183652e-81 -1.483863606707038e-80 7.585067293281236e-82 1.792774053978876e-81 7.103552450023208e-82 -5.406833441456492e-82 -1.754985715602053e-82 3.056144575367710e-82 2.311634468390397e-83 -8.204064787715555e-83 -6.899632717163211e-84 1.479978128553158e-83 6.045167531538537e-84 -2.397478595807014e-84 -1.995500032023204e-84 2.753221584164889e-84 -3.077836784295322e-85 -2.874365552203348e-85 -1.611054667768436e-85 -1.633863903592422e-85 8.678176493652397e-86 -7.133003097278980e-86 2.346467528958924e-86 1.436514372106968e-87 2.975075972095833e-87 1.122928301498101e-86 -2.818821484593217e-87 1.243651944590192e-87 -9.852317352846033e-88 1.986915449730297e-88 -7.269941699908412e-90 -4.557871269579006e-88 7.037811100351394e-89 7.733183962914296e-91 3.120898404062995e-89 -1.224478342448474e-89 -2.469609264061073e-90 1.407366051970995e-89 -1.128399813062020e-90 -1.239466292104579e-90 -7.554887092815794e-91 4.776443330161424e-91 1.419093848690559e-91 -3.295882855518882e-91 -6.187368690392575e-93 6.692474624981356e-92 1.119869504059612e-92 -1.429925906498059e-92 -5.372588168946280e-93 4.446256531008207e-93 1.426221430734213e-93 -2.460695077892182e-93 1.161934641109737e-94 3.210165191361412e-94 1.567694394068921e-94 7.452629763857913e-95 -7.199668710998553e-95 6.992549643906459e-95 -1.714104167750522e-95 -3.758750909259826e-96 -3.387891328477791e-96 -8.350048809821789e-96 2.560880127875676e-96 -1.449157257554433e-96 8.247628451190592e-97 -1.041849634424427e-97 3.401320618480675e-98 3.842532524581270e-97 -7.059881293416219e-98 1.180511276555284e-98 -2.855968509022581e-98 9.331277285887882e-99 1.409383786927499e-99 -1.294759839574924e-98 1.390764294865231e-99 7.514377732578615e-100 7.662692852844170e-100 -4.104410446883904e-100 -1.100353149615205e-100 3.372614753049882e-100 -7.906864106132876e-102 -5.247433153293880e-101 -1.435278957678916e-101 1.347943639728603e-101 4.668735750183682e-102 -5.953432431847922e-102 -9.158011564706770e-103 2.146455927637580e-102 4.451291014311654e-104 -3.424548196838672e-103 -1.496896775023634e-103 9.034007604669180e-108 5.820564763792684e-104 -6.688206915358686e-104 1.153593169852560e-104 5.735703956960633e-105 3.696818863912493e-105 5.772440908132016e-105 -2.326672058492082e-105 1.590775463654579e-105 -6.819973050810691e-106 1.909015700601274e-107 -5.761816896924833e-107 -3.178237377473180e-106 7.219636384071585e-107 -2.243963699538374e-107 2.656837735710983e-107 -6.817983304031372e-108 -4.661920045422976e-109 1.191822518858883e-107 -1.732782874147055e-108 -3.207339125574705e-109 -8.092766420290555e-109 3.694379886674411e-109 8.506502851102086e-110 -3.487843505687017e-109 2.494532022349504e-110 4.017505162059231e-110 1.888259958616520e-110 -1.433550963107380e-110 -4.414609874624944e-111 7.630724668384143e-111 3.891858496708841e-112 -1.933357143073327e-111 -2.413790410787375e-112 4.526630432058179e-112 1.675308813266405e-112 -7.822771167109029e-113 -5.168412809466892e-113 6.815632926951749e-113 -6.302422931023857e-114 -1.141229870947435e-113 -5.078714074372067e-114 -3.263238900290576e-114 2.770841288257406e-114 -1.849400715575233e-114 6.393766020804280e-115 1.743662338465850e-115 1.130065987492508e-115 2.489828676390656e-115 -1.111824812431566e-115 3.318257074979449e-116 -2.921502620782007e-116 2.888750868942475e-117 -9.905908991116296e-118 -8.895747591596702e-117 3.277394543949239e-117 -1.177899045620004e-118 7.825089642814657e-118 -3.053058861447646e-118 -2.867196812533040e-119 1.422208844751030e-118 -4.617229684906034e-119 -3.908906179611701e-120 -5.514343875568746e-120 4.521527711409447e-120 6.302385252552897e-01 6.302385252552888e-01 4.054415054636565e-01 8.208650752538157e-01 2.198300054361401e-01 1.556548508288420e-01 1.001760824488732e-01 8.466565159703987e-02 -8.748577571600571e-02 3.994029722798324e-02 -3.268896126655146e-02 3.733204623388274e-03 -1.663739846537950e-03 -1.551246011684185e-02 3.568446835974244e-03 -5.928127197591601e-04 1.621491188746024e-03 -5.486411557260504e-04 -1.015136276393495e-04 7.764706167163484e-04 -7.699616482804477e-05 -5.621059939660339e-05 -4.993117345998814e-05 2.753789042213100e-05 8.489866011911987e-06 -2.348122363260465e-05 -2.822452504108527e-08 4.308662112290831e-06 9.043537998852594e-07 -9.333645364231199e-07 -3.715748188533036e-07 3.975026308490789e-07 8.908142037445964e-08 -1.830990225593043e-07 4.648499163139252e-09 2.246602450385669e-08 1.174407735463857e-08 3.888550639089007e-09 -4.970244893249691e-09 5.640857553248430e-09 -1.222148928246011e-09 -2.742260544517283e-10 -2.676664379335103e-10 -6.405321815436925e-10 1.845175008239157e-10 -1.236326276824571e-10 6.316394224600776e-11 -7.793086294064777e-12 2.884836100430397e-12 3.156063903254474e-11 -5.182274466412450e-12 1.119211297428749e-12 -2.260961472147014e-12 7.087269811925093e-13 1.091620754706573e-13 -1.098453434061142e-12 1.013829782884605e-13 6.177047200694512e-14 6.172178968281562e-14 -3.140056089224137e-14 -8.889874271332952e-15 2.912358624154257e-14 -4.323190918458170e-16 -4.505633050207033e-15 -1.159742102533853e-15 1.029772105874974e-15 3.818179443777989e-16 -5.176078829786155e-16 -7.689041498758895e-17 1.868358858527809e-16 2.914977496877926e-18 -2.572857982400969e-17 -1.225995053976478e-17 -1.726155986094464e-19 4.676344571697520e-18 -5.843806938475166e-18 9.823061456544435e-19 4.013389680574313e-19 2.992029713868402e-19 5.168045900272308e-19 -1.822037312274038e-19 1.380359915407317e-19 -5.695779914547880e-20 3.275074967648797e-21 -4.420179528346788e-21 -2.821941024703457e-20 5.440899361352242e-21 -1.866070145474008e-21 2.170703702944290e-21 -5.771650330423302e-22 -5.052617714030526e-23 1.044785809141127e-21 -1.205646647778224e-22 -3.240838731115941e-23 -6.358131342939536e-23 2.863029451322613e-23 7.119046208714581e-24 -2.981720315108966e-23 1.290360914859505e-24 3.602621246293123e-24 1.370309212926894e-24 -1.011266692351102e-24 -3.422679130208344e-25 6.175442929547392e-25 4.754986372998816e-26 -1.662232105596486e-25 -1.308632954510387e-26 2.760529149054487e-26 1.185790156704992e-26 -4.816591713217176e-27 -3.892790447493486e-27 5.613191258495663e-27 -6.223222243530572e-28 -5.277925379689214e-28 -3.171967860883087e-28 -3.378689528528114e-28 1.679185602128899e-28 -1.461068895133750e-28 4.704681411240315e-29 1.968734639872819e-30 5.842117762118621e-30 2.324678128983218e-29 -5.432741011319755e-30 2.549693402020029e-30 -1.978736705821370e-30 4.098324371411785e-31 -1.101840410890794e-32 -9.469235207827784e-31 1.345683243169156e-31 2.405207682175804e-33 6.280567340666799e-32 -2.451603330108268e-32 -5.105521816848915e-33 2.933073105419621e-32 -2.084908144701718e-33 -2.615511635906037e-33 -1.519136755084889e-33 9.486653319176954e-34 2.914337518982285e-34 -6.876545237364734e-34 -1.707399024341804e-35 1.411970129785213e-34 2.215576606216449e-35 -2.822139062551149e-35 -1.103200736663176e-35 9.184414516641616e-36 2.982475945786812e-36 -5.202148507218927e-36 2.654860216131383e-37 6.247849631542224e-37 3.217668913262914e-37 1.651870158794979e-37 -1.474672330881636e-37 1.480396505580744e-37 -3.620636127609558e-38 -6.770911825324936e-39 -6.915521124674800e-39 -1.799543164948483e-38 5.197936075096660e-39 -3.061554710352310e-39 1.730064317246745e-39 -2.384701210681659e-40 6.611322122289303e-41 8.264614401512005e-40 -1.418089465465623e-40 2.399699212476672e-41 -5.972744774993736e-41 1.973712665345560e-41 3.109324991741735e-42 -2.783512583748982e-41 2.721244968003603e-42 1.659427007432450e-42 1.594120733653420e-42 -8.525743719409123e-43 -2.351417132188873e-43 7.233442015558349e-43 -1.116022370226184e-44 -1.143074513972462e-43 -2.935141468417244e-44 2.760972277804165e-44 9.881461583059874e-45 -1.262301719427719e-44 -2.042461660349481e-45 4.655414892155494e-45 5.926337450400949e-47 -6.858423098113969e-46 -3.135143482687317e-46 -1.037290455792122e-47 1.231532075238233e-46 -1.442235885827673e-46 2.531129257370545e-47 1.076628665269432e-47 7.591403768709663e-48 1.282234966366358e-47 -4.776257520636425e-48 3.386563686570724e-48 -1.446652830041021e-48 7.698845523904199e-50 -1.116253286173462e-49 -6.927118739924869e-49 1.423954555774526e-49 -4.565553493845418e-50 5.476157353819912e-50 -1.471988733296752e-50 -1.256723454232460e-51 2.552215640436720e-50 -3.169202832563657e-51 -7.833727094842540e-52 -1.597938940330570e-51 7.335192365469808e-52 1.774303690260558e-52 -7.266359330583069e-52 3.540191766644387e-53 8.720231385684838e-53 3.443526157352407e-53 -2.595119402975781e-53 -8.510594001516222e-54 1.506431558336291e-53 1.140632978452012e-54 -4.018067081435292e-54 -3.362937149813004e-55 7.110461000897724e-55 2.943846924536789e-55 -1.208675044604393e-55 -9.706086307230400e-56 1.355881698033691e-55 -1.499888079905426e-56 -1.378936181671077e-56 -7.878233339759378e-57 -7.979110837643518e-57 4.218271123249448e-57 -3.533057246627837e-57 1.148823204702249e-57 6.544798873699933e-59 1.461725069115796e-58 5.541475371384208e-58 -1.371386202903827e-58 6.213907043410036e-59 -4.842270447641523e-59 9.811361549365873e-60 -3.679679069793962e-61 -2.261927920883515e-59 3.425536078968146e-60 1.926088925744108e-62 1.539612001597870e-60 -6.018956434549293e-61 -1.216320342980718e-61 7.019657818031599e-61 -5.470595036246884e-62 -6.123231144227215e-62 -3.741376581405737e-62 2.348832111360540e-62 7.022691529395318e-63 -1.653469687020655e-62 -3.258276261058210e-64 3.334073888274897e-63 5.573476286498441e-64 -7.038691360370149e-64 -2.668899775882507e-64 2.257212289734354e-64 7.097707636690326e-65 -1.232629012437179e-64 5.730566251097388e-66 1.580096032070236e-65 7.815778862034165e-66 3.646563777166003e-66 -3.575813516918011e-66 3.521091337044315e-66 -8.541191862035188e-67 -1.833909040243656e-67 -1.695443836088678e-67 -4.180481822678444e-67 1.271899953681107e-67 -7.346724579029820e-68 4.123646989101109e-68 -5.273721985274692e-69 1.715084781417406e-69 1.935424357233003e-68 -3.504264804920663e-69 6.146701908140158e-70 -1.431318671799793e-69 4.669325492737603e-70 7.028317419047939e-71 -6.548918348718275e-70 6.874757016568790e-71 3.742312736025727e-71 3.845470495516602e-71 -2.047893236590901e-71 -5.509987807355736e-72 1.712142139896051e-71 -3.707548624093698e-73 -2.642461334041065e-72 -7.199989022065492e-73 6.696968352203459e-73 2.336824686892593e-73 -3.036455311695653e-73 -4.630779573310230e-74 1.084122840601936e-73 2.198988254993557e-75 -1.685146256936642e-74 -7.461753977049856e-75 6.122274454515069e-77 2.896445309485947e-75 -3.377276096105248e-75 5.764543428784267e-76 2.744742990115905e-76 1.823763585920511e-76 2.901819443354566e-76 -1.138235659251367e-76 7.998471045000674e-77 -3.368684547734881e-77 1.285166930430566e-78 -2.764226234044781e-78 -1.593511971374589e-77 3.430044549385723e-78 -1.111760383213375e-78 1.286368838320403e-78 -3.361710293171619e-79 -2.511863282090516e-80 5.913221847219800e-79 -7.766573157970889e-80 -1.647439284681408e-80 -3.782655540358951e-80 1.716752561923614e-80 4.048488459365518e-81 -1.694945000375972e-80 9.331879389847422e-82 1.975369607205826e-81 8.262486515634756e-82 -6.147683766546183e-82 -1.972830547660855e-82 3.558276857144010e-82 2.406216761186578e-83 -9.213269772425936e-83 -8.641866010118085e-84 1.705022010488312e-83 6.881992921475980e-84 -3.089098720030679e-84 -2.220455924074355e-84 3.131019168913321e-84 -3.259080964901393e-85 -3.387430105153672e-85 -1.858716083197748e-85 -1.747342533993979e-85 9.829079692432985e-86 -8.225393964464382e-86 2.618723586656307e-86 2.051982278915949e-87 3.518339203813469e-87 1.253936894352865e-86 -3.233196890338368e-87 1.474617383058142e-87 -1.117861558282057e-87 2.152949140579669e-88 -1.286354996465852e-89 -5.169995931395147e-88 8.193171104434934e-89 -1.213977238272043e-90 3.585408743836170e-89 -1.376966118654907e-89 -2.696266707484671e-90 1.616413104164986e-89 -1.358356656813630e-90 -1.357418611236358e-90 -8.814077276704276e-91 5.455470148910292e-91 1.599472378691031e-91 -3.847392912593700e-91 -4.868212772271648e-93 7.539935145533247e-92 1.357766255222962e-92 -1.654840456448096e-92 -6.145715883713797e-93 5.432811988819648e-93 1.579918827866367e-93 -2.812539139539224e-93 1.088303933481460e-94 3.783787177878947e-94 1.817054317144254e-94 7.435964148698715e-95 -8.178755038138351e-95 8.100847130861163e-95 -1.907741535560557e-95 -4.712305844683117e-96 -4.003749805129393e-96 -9.312081231528862e-96 2.950437287777796e-96 -1.714691551403890e-96 9.389744809772404e-97 -1.080059842171732e-97 4.347223378688005e-98 4.375325268036684e-97 -8.248152741219794e-98 1.555603874221015e-98 -3.296246654204677e-98 1.048235705225254e-98 1.493550231845092e-99 -1.494259018461776e-98 1.663793949334486e-99 8.057330534789052e-100 8.97076042