<?xml version="1.0"?>
<VTKFile type="UnstructuredGrid" version="0.1" byte_order="LittleEndian">
<UnstructuredGrid>
<Piece NumberOfPoints="2400" NumberOfCells="800">
<Points>
<DataArray type="Float64" NumberOfComponents="3" format="ascii">
0.000000000000000e+00 0.000000000000000e+00 0.000000000000000e+00 0.000000000000000e+00 1.999999999995579e-01 0.000000000000000e+00 2.000000000000000e-01 1.999999999995579e-01 0.000000000000000e+00 0.000000000000000e+00 0.000000000000000e+00 0.000000000000000e+00 2.000000000000000e-01 1.999999999995579e-01 0.000000000000000e+00 2.000000000000000e-01 0.000000000000000e+00 0.000000000000000e+00 2.000000000000000e-01 0.000000000000000e+00 0.000000000000000e+00 2.000000000000000e-01 1.999999999995579e-01 0.000000000000000e+00 4.000000000000000e-01 1.999999999995579e-01 0.000000000000000e+00 2.000000000000000e-01 0.000000000000000e+00 0.000000000000000e+00 4.000000000000000e-01 1.999999999995579e-01 0.000000000000000e+00 4.000000000000000e-01 0.000000000000000e+00 0.000000000000000e+00 4.000000000000000e-01 0.000000000000000e+00 0.000000000000000e+00 4.000000000000000e-01 1.999999999995579e-01 0.000000000000000e+00 6.000000000000000e-01 1.999999999995579e-01 0.000000000000000e+00 4.000000000000000e-01 0.000000000000000e+00 0.000000000000000e+00 6.000000000000000e-01 1.999999999995579e-01 0.000000000000000e+00 6.000000000000000e-01 0.000000000000000e+00 0.000000000000000e+00 6.000000000000000e-01 0.000000000000000e+00 0.000000000000000e+00 6.000000000000000e-01 1.999999999995579e-01 0.000000000000000e+00 8.000000000000000e-01 1.999999999995579e-01 0.000000000000000e+00 6.000000000000000e-01 0.000000000000000e+00 0.000000000000000e+00 8.000000000000000e-01 1.999999999995579e-01 0.000000000000000e+00 8.000000000000000e-01 0.000000000000000e+00 0.000000000000000e+00 8.000000000000000e-01 0.000000000000000e+00 0.000000000000000e+00 8.000000000000000e-01 1.999999999995579e-01 0.000000000000000e+00 1.000000000000000e+00 1.999999999995579e-01 0.000000000000000e+00 8.000000000000000e-01 0.000000000000000e+00 0.000000000000000e+00 1.000000000000000e+00 1.999999999995579e-01 0.000000000000000e+00 1.000000000000000e+00 0.000000000000000e+00 0.000000000000000e+00 1.000000000000000e+00 0.000000000000000e+00 0.000000000000000e+00 1.000000000000000e+00 1.999999999995579e-01 0.000000000000000e+00 1.200000000000000e+00 1.999999999995579e-01 0.000000000000000e+00 1.000000000000000e+00 0.000000000000000e+00 0.000000000000000e+00 1.200000000000000e+00 1.999999999995579e-01 0.000000000000000e+00 1.200000000000000e+00 0.000000000000000e+00 0.000000000000000e+00 1.200000000000000e+00 0.000000000000000e+00 0.000000000000000e+00 1.200000000000000e+00 1.999999999995579e-01 0.000000000000000e+00 1.400000000000000e+00 1.999999999995579e-01 0.000000000000000e+00 1.200000000000000e+00 0.000000000000000e+00 0.000000000000000e+00 1.400000000000000e+00 1.999999999995579e-01 0.000000000000000e+00 1.400000000000000e+00 0.000000000000000e+00 0.000000000000000e+00 1.400000000000000e+00 0.000000000000000e+00 0.000000000000000e+00 1.400000000000000e+00 1.999999999995579e-01 0.000000000000000e+00 1.600000000000000e+00 1.999999999995579e-01 0.000000000000000e+00 1.400000000000000e+00 0.000000000000000e+00 0.000000000000000e+00 1.600000000000000e+00 1.999999999995579e-01 0.000000000000000e+00 1.600000000000000e+00 0.000000000000000e+00 0.000000000000000e+00 1.600000000000000e+00 0.000000000000000e+00 0.000000000000000e+00 1.600000000000000e+00 1.999999999995579e-01 0.000000000000000e+00 1.800000000000000e+00 1.999999999995579e-01 0.000000000000000e+00 1.600000000000000e+00 0.000000000000000e+00 0.000000000000000e+00 1.800000000000000e+00 1.999999999995579e-01 0.000000000000000e+00 1.800000000000000e+00 0.000000000000000e+00 0.000000000000000e+00 1.800000000000000e+00 0.000000000000000e+00 0.000000000000000e+00 1.800000000000000e+00 1.999999999995579e-01 0.000000000000000e+00 2.000000000000000e+00 1.999999999995579e-01 0.000000000000000e+00 1.800000000000000e+00 0.000000000000000e+00 0.000000000000000e+00 2.000000000000000e+00 1.999999999995579e-01 0.000000000000000e+00 2.000000000000000e+00 0.000000000000000e+00 0.000000000000000e+00 2.000000000000000e+00 0.000000000000000e+00 0.000000000000000e+00 2.000000000000000e+00 1.999999999995579e-01 0.000000000000000e+00 2.200000000000000e+00 1.999999999995579e-01 0.000000000000000e+00 2.000000000000000e+00 0.000000000000000e+00 0.000000000000000e+00 2.200000000000000e+00 1.999999999995579e-01 0.000000000000000e+00 2.200000000000000e+00 0.000000000000000e+00 0.000000000000000e+00 2.200000000000000e+00 0.000000000000000e+00 0.000000000000000e+00 2.200000000000000e+00 1.999999999995579e-01 0.000000000000000e+00 2.400000000000000e+00 1.999999999995579e-01 0.000000000000000e+00 2.200000000000000e+00 0.000000000000000e+00 0.000000000000000e+00 2.400000000000000e+00 1.999999999995579e-01 0.000000000000000e+00 2.400000000000000e+00 0.000000000000000e+00 0.000000000000000e+00 2.400000000000000e+00 0.000000000000000e+00 0.000000000000000e+00 2.400000000000000e+00 1.999999999995579e-01 0.000000000000000e+00 2.600000000000000e+00 1.999999999995579e-01 0.000000000000000e+00 2.400000000000000e+00 0.000000000000000e+00 0.000000000000000e+00 2.600000000000000e+00 1.999999999995579e-01 0.000000000000000e+00 2.600000000000000e+00 0.000000000000000e+00 0.000000000000000e+00 2.600000000000000e+00 0.000000000000000e+00 0.000000000000000e+00 2.600000000000000e+00 1.999999999995579e-01 0.000000000000000e+00 2.800000000000000e+00 1.999999999995579e-01 0.000000000000000e+00 2.600000000000000e+00 0.000000000000000e+00 0.000000000000000e+00 2.800000000000000e+00 1.999999999995579e-01 0.000000000000000e+00 2.800000000000000e+00 0.000000000000000e+00 0.000000000000000e+00 2.800000000000000e+00 0.000000000000000e+00 0.000000000000000e+00 2.800000000000000e+00 1.999999999995579e-01 0.000000000000000e+00 3.000000000000000e+00 1.999999999995579e-01 0.000000000000000e+00 2.800000000000000e+00 0.000000000000000e+00 0.000000000000000e+00 3.000000000000000e+00 1.999999999995579e-01 0.000000000000000e+00 3.000000000000000e+00 0.000000000000000e+00 0.000000000000000e+00 3.000000000000000e+00 0.000000000000000e+00 0.000000000000000e+00 3.000000000000000e+00 1.999999999995579e-01 0.000000000000000e+00 3.200000000000000e+00 1.999999999995579e-01 0.000000000000000e+00 3.000000000000000e+00 0.000000000000000e+00 0.000000000000000e+00 3.200000000000000e+00 1.999999999995579e-01 0.000000000000000e+00 3.200000000000000e+00 0.000000000000000e+00 0.000000000000000e+00 3.200000000000000e+00 0.000000000000000e+00 0.000000000000000e+00 3.200000000000000e+00 1.999999999995579e-01 0.000000000000000e+00 3.400000000000000e+00 1.999999999995579e-01 0.000000000000000e+00 3.200000000000000e+00 0.000000000000000e+00 0.000000000000000e+00 3.400000000000000e+00 1.999999999995579e-01 0.000000000000000e+00 3.400000000000000e+00 0.000000000000000e+00 0.000000000000000e+00 3.400000000000000e+00 0.000000000000000e+00 0.000000000000000e+00 3.400000000000000e+00 1.999999999995579e-01 0.000000000000000e+00 3.600000000000000e+00 1.999999999995579e-01 0.000000000000000e+00 3.400000000000000e+00 0.000000000000000e+00 0.000000000000000e+00 3.600000000000000e+00 1.999999999995579e-01 0.000000000000000e+00 3.600000000000000e+00 0.000000000000000e+00 0.000000000000000e+00 3.600000000000000e+00 0.000000000000000e+00 0.000000000000000e+00 3.600000000000000e+00 1.999999999995579e-01 0.000000000000000e+00 3.800000000000000e+00 1.999999999995579e-01 0.000000000000000e+00 3.600000000000000e+00 0.000000000000000e+00 0.000000000000000e+00 3.800000000000000e+00 1.999999999995579e-01 0.000000000000000e+00 3.800000000000000e+00 0.000000000000000e+00 0.000000000000000e+00 3.800000000000000e+00 0.000000000000000e+00 0.000000000000000e+00 3.800000000000000e+00 1.999999999995579e-01 0.000000000000000e+00 4.000000000000000e+00 1.999999999995579e-01 0.000000000000000e+00 3.800000000000000e+00 0.000000000000000e+00 0.000000000000000e+00 4.000000000000000e+00 1.999999999995579e-01 0.000000000000000e+00 4.000000000000000e+00 0.000000000000000e+00 0.000000000000000e+00 4.000000000000000e+00 0.000000000000000e+00 0.000000000000000e+00 4.000000000000000e+00 1.999999999995579e-01 0.000000000000000e+00 4.200000000000000e+00 1.999999999995579e-01 0.000000000000000e+00 4.000000000000000e+00 0.000000000000000e+00 0.000000000000000e+00 4.200000000000000e+00 1.999999999995579e-01 0.000000000000000e+00 4.200000000000000e+00 0.000000000000000e+00 0.000000000000000e+00 4.200000000000000e+00 0.000000000000000e+00 0.000000000000000e+00 4.200000000000000e+00 1.999999999995579e-01 0.000000000000000e+00 4.400000000000000e+00 1.999999999995579e-01 0.000000000000000e+00 4.200000000000000e+00 0.000000000000000e+00 0.000000000000000e+00 4.400000000000000e+00 1.999999999995579e-01 0.000000000000000e+00 4.400000000000000e+00 0.000000000000000e+00 0.000000000000000e+00 4.400000000000000e+00 0.000000000000000e+00 0.000000000000000e+00 4.400000000000000e+00 1.999999999995579e-01 0.000000000000000e+00 4.600000000000000e+00 1.999999999995579e-01 0.000000000000000e+00 4.400000000000000e+00 0.000000000000000e+00 0.000000000000000e+00 4.600000000000000e+00 1.999999999995579e-01 0.000000000000000e+00 4.600000000000000e+00 0.000000000000000e+00 0.000000000000000e+00 4.600000000000000e+00 0.000000000000000e+00 0.000000000000000e+00 4.600000000000000e+00 1.999999999995579e-01 0.000000000000000e+00 4.800000000000000e+00 1.999999999995579e-01 0.000000000000000e+00 4.600000000000000e+00 0.000000000000000e+00 0.000000000000000e+00 4.800000000000000e+00 1.999999999995579e-01 0.000000000000000e+00 4.800000000000000e+00 0.000000000000000e+00 0.000000000000000e+00 4.800000000000000e+00 0.000000000000000e+00 0.000000000000000e+00 4.800000000000000e+00 1.999999999995579e-01 0.000000000000000e+00 5.000000000000000e+00 1.999999999995579e-01 0.000000000000000e+00 4.800000000000000e+00 0.000000000000000e+00 0.0000000000000
[...]
<PointData Scalars="conc_conc," Vectors="" Tensors="">
<DataArray type="Float64" Name="conc_conc" format="ascii">
-2.863599071074642e-02 -2.729238742428659e-02 1.679010570322654e-02 -5.979764051819099e-02 3.097646342478087e-02 3.838052589185012e-02 3.788941962935992e-02 3.654393750360705e-02 2.104447947560621e-01 6.474487588487962e-02 2.097459421376812e-01 1.829972074652509e-01 1.941889486551672e-01 2.427247327655730e-01 2.149081927942161e-01 2.224065491023083e-01 2.057452208276044e-01 1.374108263400477e-01 1.425566524106535e-01 2.085689355231042e-01 8.232544497323896e-02 1.413532524504045e-01 8.255224337384724e-02 4.868456377031670e-02 5.012576305354367e-02 7.740666211156023e-02 1.701097250779098e-02 4.613231182893414e-02 1.915774743169570e-02 1.186820767508748e-02 1.194526334151701e-02 1.731973681032347e-02 2.105293578596462e-03 1.054290410058548e-02 3.053916302769224e-03 2.401454186895971e-03 2.303808420943616e-03 2.735078575532818e-03 7.321030275898275e-05 1.977580970371683e-03 3.385394057205204e-04 4.412471045891955e-04 3.953577973244783e-04 3.084116616357086e-04 -4.505803299583520e-05 3.318883782776442e-04 1.515181823572742e-05 7.718876634857774e-05 6.379720660666675e-05 1.615437665941955e-05 -1.703881138367889e-05 5.246316701931212e-05 -4.829463709745228e-06 1.320249980248456e-05 1.002340717233943e-05 -3.598702335765324e-06 -4.262795355498031e-06 8.076334028657107e-06 -1.942014021352593e-06 2.239279767298366e-06 1.567372971693877e-06 -1.579833174624166e-06 -9.101060891550386e-07 1.237680651668747e-06 -4.858025999613880e-07 3.789671789679953e-07 2.469677436335608e-07 -4.047263909074034e-07 -1.786325244982430e-07 1.913228021372367e-07 -1.029457055710408e-07 6.410150014008934e-08 3.940958797411788e-08 -8.694219407299267e-08 -3.331908455506551e-08 3.001326104504095e-08 -2.004063895067556e-08 1.083292492445067e-08 6.369492765779610e-09 -1.710282575672806e-08 -6.012071381461436e-09 4.781803199456504e-09 -3.710284956909992e-09 1.827407828620827e-09 1.040163546247004e-09 -3.195613045637565e-09 -1.060681266608123e-09 7.720088619134812e-10 -6.653069937253338e-10 3.074857225178679e-10 1.711011398500451e-10 -5.780083073748906e-10 -1.842285190646428e-10 1.258775349723249e-10 -1.168029837187466e-10 5.159315798917731e-11 2.827410606547180e-11 -1.023399723518567e-10 -3.164947620881068e-11 2.066284684956899e-11 -2.021620752753448e-11 8.633713815065248e-12 4.684708634292407e-12 -1.786283246628249e-11 -5.395754466856406e-12 3.406414233058716e-12 -3.465533114729408e-12 1.441568875965184e-12 7.774109247889420e-13 -3.088090975655239e-12 -9.151049477588608e-13 5.631087149470090e-13 -5.902897974724954e-13 2.403129676725135e-13 1.291459484601469e-13 -5.304894931814209e-13 -1.546754321548262e-13 9.326340390032058e-14 -1.001357759073364e-13 4.002462262279261e-14 2.147558791884238e-14 -9.076464268869201e-14 -2.609272924568292e-14 1.547096570962017e-14 -1.694645912286468e-14 6.664836218574451e-15 3.575403462036507e-15 -1.549331234390137e-14 -4.397922661494321e-15 2.570497469437696e-15 -2.864744977994406e-15 1.110317790876753e-15 5.961517196014294e-16 -2.641839445795505e-15 -7.412873604863179e-16 4.278548704037018e-16 -4.842055229351327e-16 1.851623249867192e-16 9.958507778461106e-17 -4.504196097359411e-16 -1.250372081134104e-16 7.136357356523481e-17 -8.189047550595683e-17 3.092585949331376e-17 1.667199270442780e-17 -7.684132607891860e-17 -2.111770667509453e-17 1.193126259119642e-17 -1.386590692380977e-17 5.175301324318104e-18 2.798151301259178e-18 -1.312459432283881e-17 -3.572738328891369e-18 2.000077552244946e-18 -2.351642777214149e-18 8.680451964433801e-19 4.709337699680453e-19 -2.245347191596365e-18 -6.056972207446242e-19 3.362507854344377e-19 -3.996296216394507e-19 1.459691603771436e-19 7.949633419195563e-20 -3.848926696589741e-19 -1.029274742259622e-19 5.670524964518633e-20 -6.806590865717308e-20 2.461424588176786e-20 1.346192796883407e-20 -6.612630129609803e-20 -1.753575681054675e-20 9.593929524668034e-21 -1.162208225576411e-20 4.162867592725223e-21 2.287165389215020e-21 -1.138890684768141e-20 -2.995786491107423e-21 1.628684578769947e-21 -1.989742088988677e-21 7.062140429277026e-22 3.899069039135031e-22 -1.966698760925656e-21 -5.132743555400829e-22 2.774501093917313e-22 -3.416080024825539e-22 1.201879844699207e-22 6.670039273840617e-23 -3.405653320154228e-22 -8.820365232791701e-23 4.743175131305607e-23 -5.881991664947572e-23 2.052101396097776e-23 1.145042030483017e-23 -5.914468993556957e-23 -1.520397181201733e-23 8.137844315787331e-24 -1.015832224679949e-23 3.515383900633519e-24 1.972667001447418e-24 -1.030194833333638e-23 -2.628981476953373e-24 1.401256659331425e-24 -1.759739023893959e-24 6.042251121127081e-25 3.410617585003789e-25 -1.799858626000594e-24 -4.560342199675093e-25 2.421588035332978e-25 -3.057903215444004e-25 1.042046084734733e-25 5.917821398767833e-26 -3.154228267683218e-25 -7.935978914211641e-26 4.200089177915457e-26 -5.330441612851065e-26 1.803194736400894e-26 1.030478807289817e-26 -5.544957693983375e-26 -1.385497734269010e-26 7.311224106185102e-27 -9.321306073517608e-27 3.130888050960357e-27 1.800778914730013e-27 -9.778311518522626e-27 -2.426714352607580e-27 1.277290583976776e-27 -1.635199694999358e-27 5.454567105938374e-28 3.158051249534868e-28 -1.729801991659096e-27 -4.264235746720850e-28 2.239493054938995e-28 -2.877719622330669e-28 9.534920931973072e-29 5.557849982064139e-29 -3.069722441460640e-28 -7.517494401286429e-29 3.940584692608239e-29 -5.080546605268535e-29 1.672369451650102e-29 9.815519191138378e-30 -5.464781274346125e-29 -1.329572272693654e-29 6.958436501479169e-30 -8.998190596207831e-30 2.943054979940922e-30 1.739511574555072e-30 -9.759242050253245e-30 -2.359139229321619e-30 1.233078549081951e-30 -1.598745994573995e-30 5.196452632685215e-31 3.093405361670027e-31 -1.748340260241025e-30 -4.199450034505397e-31 2.192729440260741e-31 -2.849564956161466e-31 9.205521902165584e-32 5.519871597811097e-32 -3.141939882408509e-31 -7.499317390166974e-32 3.912740774629715e-32 -5.095027129867130e-32 1.636109058554995e-32 9.883035340332130e-33 -5.664036976519621e-32 -1.343487881208344e-32 7.005913904107674e-33 -9.138528281019695e-33 2.917341682407805e-33 1.775444446543610e-33 -1.024244834151572e-32 -2.414458897695154e-33 1.258698585115712e-33 -1.644219774070839e-33 5.218692896422299e-34 3.200110056199278e-34 -1.857903876632248e-33 -4.352817372034062e-34 2.269013480279335e-34 -2.967484589877658e-34 9.365331300249782e-35 5.786942095586387e-35 -3.380460405874160e-34 -7.871823638883503e-35 4.103888631536751e-35 -5.372202295497841e-35 1.686003316169945e-35 1.049891916661037e-35 -6.169531176489120e-35 -1.427984163680737e-35 7.447003373326113e-36 -9.755305348621497e-36 3.044764634114953e-36 1.910889221534204e-36 -1.129384432277652e-35 -2.598378293560030e-36 1.355747422131471e-36 -1.776815114758074e-36 5.515618407111351e-37 3.489034590558411e-37 -2.073639760334653e-36 -4.742407271917114e-37 2.476111644405292e-37 -3.245961068694044e-37 1.002221433318754e-37 6.390517485452431e-38 -3.818685645315386e-37 -8.681555883225758e-38 4.536674312037572e-38 -5.947425354503205e-38 1.826602361157923e-38 1.174108053370702e-38 -7.052920217199600e-38 -1.593972512755259e-38 8.337980578605030e-39 -1.092902921097384e-38 3.338983248760002e-39 2.163709432023016e-39 -1.306415542890055e-38 -2.935130264863865e-39 1.537153774096402e-39 -2.014092968735859e-39 6.121378851434639e-40 3.999282468702746e-40 -2.426778923671642e-39 -5.420143818496488e-40 2.842367021981739e-40 -3.722165593416890e-40 1.125428395727644e-40 7.413526339403287e-41 -4.520531913797707e-40 -1.003684444857968e-40 5.271287121103877e-41 -6.897551935170649e-41 2.074817603078180e-41 1.378115330214226e-41 -8.443560310595906e-41 -1.863552691665335e-41 9.803594240028967e-42 -1.281535216676689e-41 3.835148761860097e-42 2.568676790117206e-42 -1.581224788587034e-41 -3.468834299488711e-42 1.828233535043970e-42 -2.386924102420734e-42 7.106447469578996e-43 4.799793653750111e-43 -2.968469908185241e-42 -6.472010831953365e-43 3.418081803811805e-43 -4.455854085479752e-43 1.319748954346393e-43 8.989245201956083e-44 -5.585455628769766e-43 -1.210019201493534e-43 6.405267118523766e-44 -8.334591750845321e-44 2.455611055592755e-44 1.686824923407246e-44 -1.053062261390607e-43 -2.266100921854648e-44 1.202697988190469e-44 -1.561440532309657e-44 4.575748711164860e-45 3.170039625599855e-45 -1.988629987535919e-44 -4.248837863579194e-45 2.261753462226555e-45 -2.928262982893232e-45 8.533440914381138e-46 5.962500258449163e-46 -3.759463440012546e-45 -7.969678445584501e-46 4.257247943469166e-46 -5.492800125919208e-46 1.591321911002136e-46 1.121420090897690e-46 -7.109542965061937e-46 -1.493944579870891e-46 8.013485570953331e-47 -1.029416894338461e-46 2.963585250796789e-47 2.106352417967957e-47 -1.343504196973526e-46 -2.794529174542248e-47 1.506534706163736e-47 -1.924507515178144e-47 5.502154773198080e-48 3.944001730990271e-48 -2.533183984309316e-47 -5.205470907559895e-48 2.823818550253082e-48 -3.581117751146355e-48 1.015828140988242e-48 7.343251617812030e-49 -4.755635424531791e-48 -9.627617226696042e-49 5.264014615596051e-49 -6.612079445904898e-49 1.858448151304152e-49 1.354673741067117e-49 -8.862877519377760e-49 -1.760743665865145e-49 9.725243104686563e-50 -1.206075798555943e-49 3.352402180686248e-50 2.463635228803260e-50 -1.632845656782429e-49 -3.165614540155717e-50 1.771876034434013e-50 -2.159875910643539e-50 5.920223159000690e-51 4.384926305634013e-51 -2.956209653483910e-50 -5.548523241804954e-51 3.161077326966989e-51 -3.763818787903544e-51 1.012965643225218e-51 7.557917240643154e-52 -5.214748042355504e-51 -9.366309067734987e-52 5.465470577946179e-52 -6.299598088072872e-52 1.653546919724274e-52 1.241722625416201e-52 -8.851267509467121e-52 -1.495203124401314e-52 9.018306327459432e-53 -9.929828479941995e-53 2.514083067923496e-53 1.897064485475505e-53 -1.418552774030283e-52 -2.193319602680938e-53 1.386458384011513e-53 -1.428817974275160e-53 3.421039820752569e-54 2.585296146526791e-54 -2.083195016763309e-53 -2.815788790311032e-54 1.907830234751340e-54 -1.778772456544364e-54 3.867296583662771e-55 2.903273707234293e-55 -2.662161762061125e-54 -2.877608484219066e-55 2.177835060522919e-55 -1.721738495269210e-55 3.049123467777631e-56 2.210594139603950e-56 -2.671362564661342e-55 -1.831593967332201e-56 1.714666011586477e-56 -9.664602677225664e-57 7.287373845626925e-58 3.427778165023627e-58 -1.590861507480949e-56 -2.877931766311040e-59 2.593881659215522e-58 2.995029195022910e-58 -1.419297010767468e-58 0.000000000000000e+00 0.000000000000000e+00 0.000000000000000e+00 0.000000000000000e+00 0.000000000000000e+00 0.000000000000000e+00 0.000000000000000e+00 0.000000000000000e+00 0.000000000000000e+00 0.000000000000000e+00 0.000000000000000e+00 0.000000000000000e+00 0.000000000000000e+00 0.000000000000000e+00 0.000000000000000e+00 0.000000000000000e+00 0.000000000000000e+00 0.000000000000000e+00 -2.871706941452548e-02 -2.728990745720582e-02 1.705035033625493e-02 -6.024753177415504e-02 3.083916242899396e-02 3.930399412084289e-02 3.985082408349631e-02 3.603613061945611e-02 2.089607351038253e-01 6.862921122845900e-02 2.031651101627268e-01 1.962958108119306e-01 2.089646416072566e-01 2.351188438976593e-01 2.063108777167393e-01 2.427498465544823e-01 1.914977565416837e-01 1.631409484561022e-01 1.657714894783063e-01 1.952910968681519e-01 7.028769842269786e-02 1.670295596292105e-01 7.001523813045255e-02 6.885444048083347e-02 6.646131453048588e-02 6.677482833868026e-02 8.639540021484034e-03 6.213864896208290e-02 1.239608429127162e-02 2.136506700824664e-02 1.914033065181643e-02 1.181151618594544e-02 -1.693802555118973e-03 1.712878893285997e-02 3.673798531559356e-04 5.704502706035243e-03 4.693571718409290e-03 5.806611601158754e-04 -1.243819948536566e-03 4.080616644791878e-03 -5.322932535420677e-04 1.394940161096109e-03 1.062375004804084e-03 -3.868540714401737e-04 -4.291262611533856e-04 9.053570006673959e-04 -2.305653833077689e-04 3.218976156089461e-04 2.306394954896735e-04 -1.802381171609198e-04 -1.170368418058883e-04 1.939445512613077e-04 -6.784576219034330e-05 7.137198509378056e-05 4.893055270969460e-05 -5.416281827945599e-05 -2.840297666526014e-05 4.081582764435001e-05 -1.706794442178702e-05 1.539210493875532e-05 1.024140084572627e-05 -1.378279195902314e-05 -6.448613081332789e-06 8.510054962189803e-06 -3.953660746138125e-06 3.257348990083409e-06 2.126283857139729e-06 -3.219982046002543e-06 -1.406632732534048e-06 1.765666673349698e-06 -8.733164328853095e-07 6.809112766239668e-07 4.394508068363298e-07 -7.165579259725873e-07 -2.995043820383221e-07 3.655445321639752e-07 -1.875811737325362e-07 1.413056023200965e-07 9.065411813711911e-08 -1.549946525027061e-07 -6.288599392524944e-08 7.566639467671313e-08 -3.965214072398220e-08 2.922521786459327e-08 1.870687724396314e-08 -3.299044754903643e-08 -1.311002027127874e-08 1.568669277969863e-08 -8.313783849283606e-09 6.042305642411919e-09 3.868602122855650e-09 -6.964929648724078e-09 -2.726566177353160e-09 3.261915227923086e-09 -1.738139353646093e-09 1.251786248033536e-09 8.030283088627993e-10 -1.466312267771583e-09 -5.676279980157724e-10 6.812420419607801e-10 -3.636855135724649e-10 2.603512393118282e-10 1.675383686603415e-10 -3.089790014907294e-10 -1.185815330710002e-10 1.430614252836536e-10 -7.635957188675248e-11 5.444296735978557e-11 3.517191141826930e-11 -6.533811320957812e-11 -2.490387426584787e-11 3.023939265965872e-11 -1.611846080531825e-11 1.146026365787477e-11 7.436816943183621e-12 -1.389196185230735e-11 -5.265091239835154e-12 6.439110538015583e-12 -3.425422526869550e-12 2.430698635792813e-12 1.584997472863881e-12 -2.973880806534127e-12 -1.121715488526083e-12 1.382276540243046e-12 -7.336484684584828e-13 5.198532206169431e-13 3.407225246820067e-13 -6.416441391121071e-13 -2.410128410703088e-13 2.993239671756792e-13 -1.584842286941257e-13 1.121775896329349e-13 7.391504470486747e-14 -1.396404795990823e-13 -5.225670836727752e-14 6.541551044177795e-14 -3.455152060334175e-14 2.443522153032954e-14 1.618863152957684e-14 -3.067106846283572e-14 -1.143910998825009e-14 1.443405138854348e-14 -7.605527334115062e-15 5.374985208831948e-15 3.580816447387270e-15 -6.802061366688971e-15 -2.528999972338343e-15 3.216666359553475e-15 -1.690925944739953e-15 1.194319128063706e-15 8.001434637415967e-16 -1.523682453832624e-15 -5.648516659065562e-16 7.241821555164925e-16 -3.798130578922172e-16 2.681321656785353e-16 1.806599790379003e-16 -3.448294545307468e-16 -1.274805267896089e-16 1.647418432357892e-16 -8.620949077828976e-17 6.083359640772759e-17 4.122287783538974e-17 -7.886009521525964e-17 -2.907703268691092e-17 3.787434369053408e-17 -1.977647072749340e-17 1.394974907264607e-17 9.507232261284181e-18 -1.822718668530719e-17 -6.703608948206030e-18 8.800880689178225e-18 -4.585671412930945e-18 3.233441513145692e-18 2.216423680569529e-18 -4.258350545015034e-18 -1.562288521752821e-18 2.067228525107148e-18 -1.074870382098423e-18 7.576604397993243e-19 5.223559198480740e-19 -1.005679616808331e-18 -3.680766147276843e-19 4.908658860661473e-19 -2.547042577824038e-19 1.794818859367626e-19 1.244567031173447e-19 -2.401048991174926e-19 -8.767201858642831e-20 1.178341009137540e-19 -6.101864803223677e-20 4.298534716064171e-20 2.997944102874281e-20 -5.795405578129002e-20 -2.111269265420229e-20 2.859745599999060e-20 -1.477908629979716e-20 1.040842199979519e-20 7.301153992235244e-21 -1.414228638365040e-20 -5.140367403101912e-21 7.016824149607515e-21 -3.619077844589929e-21 2.548117613386342e-21 1.797738220433957e-21 -3.489108306705127e-21 -1.265365025567710e-21 1.740661005382826e-21 -8.960158736717428e-22 6.307035625982453e-22 4.475365012942578e-22 -8.703018074481277e-22 -3.149255312579231e-22 4.365639343322176e-22 -2.242845062784828e-22 1.578337492433760e-22 1.126404216441300e-22 -2.194744001361947e-22 -7.924398459974931e-23 1.106975262146748e-22 -5.676020082937541e-23 3.993354404674599e-23 2.866274875691707e-23 -5.595660728151598e-23 -2.015972015709786e-23 2.837775725736752e-23 -1.452253549813573e-23 1.021483757074061e-23 7.373792115525094e-24 -1.442331019881103e-23 -5.185058611620629e-24 7.354612911125559e-24 -3.756519096158967e-24 2.641623968463360e-24 1.917799984733434e-24 -3.758505159679021e-24 -1.348227806325044e-24 1.926960858442020e-24 -9.823414917319470e-25 6.906295569093169e-25 5.042471984835178e-25 -9.901271370900278e-25 -3.544062457436901e-25 5.103940122183315e-25 -2.596933720269180e-25 1.825329982388709e-25 1.340289523585428e-25 -2.636817356957579e-25 -9.417916010966691e-26 1.366611160430071e-25 -6.940126747809345e-26 4.876924866158726e-26 3.601263519786573e-26 -7.098539749293328e-26 -2.529936173297138e-26 3.698939546218419e-26 -1.874855860125535e-26 1.317178823002237e-26 9.781326185274634e-27 -1.931717589301913e-26 -6.869906227470413e-27 1.012016936135839e-26 -5.119733869224030e-27 3.596021450590756e-27 2.685418097104970e-27 -5.313601361063721e-27 -1.885658809384943e-27 2.798732451640393e-27 -1.413156948087855e-27 9.923456396031262e-28 7.452151038156342e-28 -1.477370893847062e-27 -5.231551847948769e-28 7.823161846582560e-28 -3.942583734710581e-28 2.767901551143049e-28 2.090213957623666e-28 -4.151732784656036e-28 -1.467022164602653e-28 2.210214488459599e-28 -1.111738265660974e-28 7.803127306227384e-29 5.925467001361615e-29 -1.179212809295210e-28 -4.157810908845191e-29 6.311043454479833e-29 -3.168388829422252e-29 2.223310459246211e-29 1.697696922355725e-29 -3.385019758718595e-29 -1.190960837005783e-29 1.821233634077877e-29 -9.125810852737474e-30 6.402173345930063e-30 4.915707454947741e-30 -9.820178018209568e-30 -3.447602539224341e-30 5.311419389638127e-30 -2.656340964057388e-30 1.863084818474010e-30 1.438408354793833e-30 -2.879049381366530e-30 -1.008568762764590e-30 1.565374203931877e-30 -7.813708621391442e-31 5.478945057646225e-31 4.253338428575852e-31 -8.529672743689251e-31 -2.981557673264491e-31 4.661974972782332e-31 -2.322589374896585e-31 1.628173108057105e-31 1.270894465722756e-31 -2.553584542624229e-31 -8.906556123920749e-32 1.402963880158308e-31 -6.976040957429001e-32 4.889024283722198e-32 3.837068485490282e-32 -7.724719378446497e-32 -2.688332427357262e-32 4.266060990066564e-32 -2.117116015337247e-32 1.483331552551981e-32 1.170513959989271e-32 -2.361065869552205e-32 -8.198561747165212e-33 1.310656437004654e-32 -6.491638240906575e-33 4.546967581779624e-33 3.607562085630796e-33 -7.291255180915318e-33 -2.526067333419326e-33 4.068236228912775e-33 -2.010985609551333e-33 1.408125699938840e-33 1.123258147815697e-33 -2.274770550121924e-33 -7.862668258488400e-34 1.275700966982708e-33 -6.293232691254006e-34 4.405125858185912e-34 3.532931993968628e-34 -7.169371384204631e-34 -2.472120355204691e-34 4.040923827806300e-34 -1.989324121553812e-34 1.391950701660455e-34 1.122360087035595e-34 -2.282402561950818e-34 -7.850343954265514e-35 1.292873518858781e-34 -6.351099088719478e-35 4.441962420193786e-35 3.600868162957128e-35 -7.338709651322898e-35 -2.517414470324466e-35 4.177500455314669e-35 -2.047534200002909e-35 1.431290113409419e-35 1.166477964848562e-35 -2.382848750063030e-35 -8.150247618444777e-36 1.362965821737987e-35 -6.664310078663541e-36 4.655532753630671e-36 3.814409244393783e-36 -7.811482219533028e-36 -2.663210477016679e-36 4.489086885828133e-36 -2.189219049895573e-36 1.528080582307171e-36 1.258651939586973e-36 -2.584700823559997e-36 -8.779685921123324e-37 1.492090674269440e-36 -7.255260472869717e-37 5.058797630174190e-37 4.188905910952499e-37 -8.629046633872565e-37 -2.918394527933546e-37 5.002698650720270e-37 -2.424369282965801e-37 1.688036930074060e-37 1.405146198389647e-37 -2.905130918284242e-37 -9.773712289096957e-38 1.690911789702375e-37 -8.161779190453442e-38 5.672168165539099e-38 4.746431577996197e-38 -9.856176552625053e-38 -3.294235212921248e-38 5.756788118434381e-38 -2.765281406684597e-38 1.916877965400213e-38 1.612438956660537e-38 -3.366373889115173e-38 -1.115777625579726e-38 1.971868640847749e-38 -9.414766547828757e-39 6.503552100482911e-39 5.499230240169329e-39 -1.155936744633913e-38 -3.789879202004349e-39 6.784465219192988e