<?xml version="1.0"?>
<VTKFile type="UnstructuredGrid" version="0.1" byte_order="LittleEndian">
<UnstructuredGrid>
<Piece NumberOfPoints="568" NumberOfCells="1054">
<Points>
<DataArray type="Float64" NumberOfComponents="3" format="ascii">
0 0 0 0 0.050000000000208 0 0.0584335251122665 0.0584335251122145 0 0.0323698570487533 0.032369857048862 0 0.0499999999998997 0 0 0.0999999999998147 0 0 0.0944578555792846 0.0400584584694184 0 0.0980768456829153 0.0991724147309935 0 0.0400584584693195 0.0944578555791577 0 0 0.100000000000416 0 0 0.150000000000624 0 0.0548726927265955 0.134106856398452 0 0.0388399996009313 0.179498259931901 0 0 0.200000000000832 0 0.0564522287083799 0.234565808376616 0 0.0996947712122641 0.22074048840547 0 0.0828750765696809 0.178818634882983 0 0.0896897021915411 0.138513804586622 0 0.122947659685672 0.148251464161954 0 0.169013160068682 0.168002193866631 0 0.125875177082847 0.188968332266695 0 0.158996951633215 0.227836749122277 0 0.205967211350529 0.199725178953962 0 0.211554843187388 0.241744476774187 0 0.189220110521158 0.126442066536112 0 0.22626394058332 0.154659468198381 0 0.217206150464847 0.104439454835129 0 0.148476056588621 0.112220907400452 0 0.181725902897582 0.0816119740612928 0 0.180351590178421 0.0391903365350905 0 0.138357444660799 0.0589959339188492 0 0.149999999999704 0 0 0.199999999999558 0 0 0.231674603334463 0.0553437746953104 0 0.249999999999412 0 0 0.299999999999266 0 0 0.283208049853001 0.0508433390825056 0 0.257146194987713 0.10413999068455 0 0.295063395037039 0.101138089243444 0 0.322427311917699 0.0689379334381408 0 0.330767006442793 0.119592255048115 0 0.355822585194142 0.0854187642572584 0 0.362462430895343 0.0442183666074772 0 0.323619558532886 0.0327999278256247 0 0.349999999999121 0 0 0.399999999998975 0 0 0.406855818272412 0.0411398773125117 0 0.449999999998829 0 0 0.499999999998694 0 0 0.484924330582892 0.0373213982762724 0 0.446927950142653 0.0518018776450602 0 0.475746624217828 0.077626823840591 0 0.46567857652706 0.114368061527523 0 0.43122735573934 0.0881769991929174 0 0.390616286406845 0.0815251031619917 0 0.375161719606839 0.121918126660369 0 0.397289240071895 0.165639932095022 0 0.432407360090089 0.182056809654028 0 0.41732862935313 0.129866986343623 0 0.459520018388269 0.156664873305243 0 0.462293308810443 0.198909164566548 0 0.499999999999971 0.219686411149829 0 0.42421838472614 0.222465020057878 0 0.381034256806799 0.204783951629704 0 0.331796839804983 0.222301993972031 0 0.360307484821635 0.154014700871105 0 0.330801675951106 0.181791113002693 0 0.299142716792971 0.156496209701207 0 0.263189497696013 0.146101733972573 0 0.260171965190135 0.20370391303005 0 0.301079690692898 0.202800200091412 0 0.288402851022681 0.249609553207088 0 0.25082138072345 0.257700107422368 0 0.297479491180417 0.296411157380844 0 0.260144435522079 0.292623904436535 0 0.284738052361283 0.343557681186738 0 0.323103257015693 0.32141443408924 0 0.348047572662274 0.35750068079406 0 0.354814354583093 0.30398436674999 0 0.323736926270502 0.27286413781594 0 0.357962884673884 0.256835227867104 0 0.401804626289837 0.256190339758575 0 0.391620987711813 0.295036992928546 0 0.430594867953342 0.303959734190635 0 0.455331360217251 0.252568731208715 0 0.483788712280009 0.297451778269774 0 0.472532117365031 0.340817108308049 0 0.49854341599768 0.370759147681271 0 0.43301393728221 0.359843205574921 0 0.391208871887456 0.334075776884043 0 0.392220576577811 0.380677966902274 0 0.394198866753185 0.419122252400708 0 0.429308231064016 0.40626685012723 0 0.465432111282168 0.387884235436819 0 0.461024257085337 0.432541991343326 0 0.461527143457989 0.473443594123526 0 0.410095980695696 0.490839357492854 0 0.423403423371937 0.447621318748554 0 0.377023860747173 0.458194175644768 0 0.334364244893045 0.478496031217408 0 0.333826635273302 0.441301250475035 0 0.354814223971285 0.403129814650693 0 0.296304338697064 0.429832022968145 0 0.305976555003817 0.393468168521193 0 0.255826059367993 0.395079699895134 0 0.262475847345986 0.447649432958947 0 0.299886550525317 0.467007278275931 0 0.262418491288269 0.490719222921541 0 0.232324767024371 0.466345253695677 0 0.192181271644967 0.465938389648695 0 0.160013142023585 0.497717270559093 0 0.144484766221814 0.453538915812712 0 0.178457744828726 0.430871172570494 0 0.148695787718589 0.404814523960821 0 0.197169318452384 0.387030152393625 0 0.219688017838559 0.433067836400238 0 0.222695530956879 0.358374234325388 0 0.19152147653881 0.327918797702154 0 0.236041954047958 0.321918283269407 0 0.220015181768822 0.28602682846308 0 0.168537671773945 0.272324831592801 0 0.143922094947914 0.306200702035457 0 0.154014700871176 0.360307484821747 0 0.0732967881614181 0.342269570898506 0 0.116034002194931 0.33748134585014 0 0.0994921194810273 0.307463985332816 0 0.110477540413226 0.263117535981694 0 0.0537301716876466 0.288250771898286 0 0 0.25000000000104 0 0 0.300000000001248 0 0.032220921767547 0.329014892144875 0 0.0334576460409223 0.363648423312284 0 0 0.350000000001456 0 0 0.400000000001664 0 0.060530514380151 0.395146264289728 0 0.10935320311386 0.378391909217271 0 0.0971009795772073 0.435906739990532 0 0.109199274598136 0.487580697080498 0 0.0648933318035348 0.486697770604545 0 0.0436128036610927 0.440061111828404 0 0 0.450000000001872 0 0.0294449071642091 0.475000000001966 0 0 0.500000000002059 0 0.0373213982762153 0.515075669417473 0 0.0518018776450837 0.553072049857452 0 0 0.550000000001734 0 0 0.600000000001387 0 0.0411398773124836 0.59314418172763 0 0.0881769991928987 0.568772644260674 0 0.0815251031619976 0.609383713593151 0 0.121918126660357 0.624838280393159 0 0.114368061527482 0.534321423472927 0 0.0776268238405584 0.524253375782261 0 0.156664873305197 0.540479981611742 0 0.219686411149827 0.500000000000032 0 0.19896328510056 0.537691476689505 0 0.222487080058139 0.575775413711342 0 0.204783951629683 0.618965743193203 0 0.165639932094979 0.602710759928095 0 0.182056809653986 0.567592639909897 0 0.129866986343594 0.582671370646846 0 0.154014700871098 0.63969251517837 0 0.181791113002692 0.669198324048887 0 0.222301993972028 0.668203160195032 0 0.202800200091414 0.698920309307116 0 0.249609553207091 0.711597148977329 0 0.203703913030074 0.739828034809895 0 0.156496209701235 0.70085728320704 0 0.13725179499973 0.741546289628566 0 0.0910728127967196 0.741988048646878 0 0.0990187225489634 0.704756315583652 0 0.119592255048131 0.669232993557228 0 0.0854187642572582 0.644177414805869 0 0.0689379334381628 0.677572688082311 0 0.0323578435067225 0.676600401985782 0 0.0442183666074753 0.637537569104702 0 0 0.65000000000104 0 0 0.700000000000693 0 0.0486329174879745 0.717891752740162 0 0 0.750000000000347 0 0 0.8 0 0.0529380014213358 0.776889771183312 0 0.112316928024456 0.78020430794084 0 0.0868130391934314 0.817095740868429 0 0.122947659685717 0.851748535838097 0 0.0870417061194161 0.853827995089262 0 0.0524690331668437 0.86696410734367 0 0.043889462445438 0.826759239819513 0 0 0.849999999999653 0 0 0.899999999999584 0 0.0400584584693226 0.905542144420798 0 0 0.949999999999792 0 0.0304524096104897 0.96954759038951 0 0 1 0 0.050000000000208 1 0 0.0584335251122541 0.941566474887746 0 0.100000000000416 1 0 0.0944578555791882 0.959941541530687 0 0.0979909576452082 0.900450397208809 0 0.146882743185419 0.889622656308119 0 0.181725902897639 0.918388025938889 0 0.138347219894628 0.94095916274078 0 0.150000000000624 1 0 0.18045991219398 0.960710939969875 0 0.200000000000832 1 0 0.232226438176177 0.944207511169706 0 0.18958721034944 0.876602973603946 0 0.221311393310948 0.904144943719832 0 0.228939290247373 0.839908789927278 0 0.132261503269228 0.813060330014371 0 0.171018735363 0.828981264636961 0 0.16253691950235 0.782849122627686 0 0.203590747653644 0.794224894178719 0 0.243358441913473 0.786511897933875 0 0.286026828463086 0.779984818231176 0 0.321918283269405 0.763958045952046 0 0.358374234325384 0.777304469043123 0 0.327918797702134 0.808478523461202 0 0.360307484821742 0.845985299128825 0 0.306195311694726 0.85607519768343 0 0.272549978320415 0.831201948690144 0 0.263054145574704 0.889490620931362 0 0.307381363266577 0.90051880305435 0 0.25000000000104 1 0 0.300000000001248 1 0 0.287907520382944 0.946359528487026 0 0.32894624184181 0.967797018267389 0 0.350000000001456 1 0 0.363638616126136 0.966544916821213 0 0.342269570898513 0.926703211838588 0 0.337480267781999 0.883965456331347 0 0.378391909217271 0.890646796886144 0 0.435906739990533 0.902899020422797 0 0.395146264289732 0.939469485619852 0 0.400000000001664 1 0 0.44006111182841 0.956387196338908 0 0.450000000001872 1 0 0.475000000001966 0.970555092835793 0 0.486697770604543 0.935106668196466 0 0.487580697080494 0.890800725401865 0 0.497717270559088 0.839986857976418 0 0.453538915812708 0.855515233778189 0 0.404814523960818 0.851304212281416 0 0.43087117257049 0.821542255171277 0 0.387030152393619 0.80283068154762 0 0.433067836400233 0.780311982161444 0 0.466346121879671 0.767675855240614 0 0.465938389648691 0.807818728355036 0 0.490731134405986 0.737590046187304 0 0.447649432958942 0.737524152654017 0 0.467368917376544 0.70015537930375 0 0.478187521339629 0.664544629052809 0 0.455174570318146 0.627431000796044 0 0.443459173594296 0.666416406225512 0 0.405647175079827 0.65626423320525 0 0.386423584673078 0.692862589235973 0 0.427155383338081 0.700777593753079 0 0.395079699895129 0.74417394063201 0 0.342702801024459 0.716724167620359 0 0.292551210545191 0.739979902911732 0 0.257700107422386 0.749178619276552 0 0.296411157380843 0.702520508819589 0 0.273496567448602 0.675817419964087 0 0.256845292557732 0.642035542479631 0 0.304216353843215 0.645149391934367 0 0.322598530820738 0.676700726098352 0 0.35944937237717 0.651647898084363 0 0.371046512961454 0.605451707483111 0 0.359843205574921 0.566986062717789 0 0.332314974080817 0.607792187328737 0 0.295036992928544 0.608379012288189 0 0.256190339758569 0.598195373710169 0 0.304297406799597 0.569139051464601 0 0.252871394412626 0.544583554344924 0 0.302927660481639 0.51
[...]
<CellData Scalars="pressure_p0," Vectors="velocity_p0," Tensors="">
<DataArray type="Float64" Name="pressure_p0" format="ascii">
2.2055526556978e-07 6.45690639536009e-07 6.97961043709723e-07 1.22506044688707e-06 3.24735891252127e-06 7.02818231717444e-06 2.14509620160626e-06 2.03137563520514e-06 3.18659760086851e-06 6.1156971390695e-06 8.45020718288957e-06 2.93882451809895e-06 1.96291941012499e-06 7.8300855658991e-07 2.64768491172332e-07 2.62205180358772e-07 6.88830232599139e-07 7.28860503945022e-07 1.57552483387119e-06 2.49317458208792e-07 3.89943906745696e-07 1.61425614024289e-06 7.13655714625495e-07 2.77778179159836e-06 3.67922609360913e-06 8.5306741788787e-06 4.9826603883811e-06 6.1430289733495e-06 2.49090154811066e-06 4.42692597393923e-06 5.08584579808842e-06 1.49840320720866e-05 2.54399127323553e-05 1.22120786097792e-05 9.58241924566481e-06 1.66468709422811e-05 3.24894334728492e-05 3.1644055636128e-05 4.54764571300363e-05 0.000140547757910551 9.91711387861718e-05 0.000111525013781681 0.000171675047824435 5.56490800636756e-05 4.83711964928282e-05 6.94117610930478e-05 0.000168561725141219 0.000116455567175471 0.000122481166693126 6.96304854377176e-05 4.7921568301299e-05 2.77939343288021e-05 9.71714182736997e-06 1.87770581806368e-05 2.48894476726664e-05 9.80960127141473e-06 1.93670208124371e-05 3.24801979512649e-05 5.19441575561253e-05 6.09117834764677e-05 0.000104602255681988 0.000342245599928626 0.000605452301148258 0.000717812764886332 0.000199545187152215 0.000338115990752753 0.000209164299872353 0.00028638784700103 0.000569021401269861 0.00128805755680473 0.000811255983815578 0.00302189845295158 0.0019499011351721 0.00165800414926404 0.00273022001426674 0.00130475453948818 0.00102570654211429 0.00162732063201175 0.00287979150921548 0.00442772862817996 0.00402691223913517 0.00998831963840886 0.0116893398021451 0.00832858700576632 0.0203789854113453 0.0301542199825048 0.0242990026202687 0.0389686042105178 0.0193001459204172 0.0166426103601293 0.0342212012079503 0.0126555330025092 0.00722058080058153 0.00659302373883794 0.00477557371344795 0.00323977543108315 0.00499677342096564 0.00338820379611254 0.00580745343532674 0.0075832054138002 0.0120794053374151 0.0158082163455999 0.0280954780142197 0.0414288627077185 0.0270071677738318 0.0164761952332381 0.012700975926049 0.0361721252240909 0.0256689385134218 0.0360647101487923 0.0150631786806727 0.00970295454168448 0.00715901274536157 0.00342318612772513 0.00557764567993396 0.00205319043537885 0.000786810633383692 0.000904303454002358 0.00166813622735168 0.00207788104382821 0.00200855589597565 0.00141130194860304 0.000892887779765345 0.000702811462417535 0.000674463474078413 0.000396442180737004 0.000299755845823451 0.0003729036391748 0.000408640343206939 0.000656187043299991 0.000249776823769553 0.000246391118226317 0.000588456352643164 0.000354394251573043 0.000342754407525662 0.000216534117649716 0.000200398909980249 0.000564442085618029 0.000875741800043459 0.00144546877555044 0.000773744343225638 0.0024227668430027 0.00260003947205158 0.00119213659544539 0.00076760637638469 0.00131719385546234 0.00157293429718373 0.00376653655187627 0.0033430818905718 0.00584619703441806 0.00640153762706866 0.0103649030449628 0.0319903872960151 0.0185670725573736 0.0212072790395758 0.0144451106890005 0.0381238627375366 0.0424240746537327 0.0294894853299754 0.0184843507078116 0.00809245517974824 0.00601727593276138 0.00324132643228904 0.00340334423599813 0.00590253484780928 0.00305881342740447 0.00745941277586202 0.0079767130448354 0.01350473468052 0.037371972121141 0.0388698952906684 0.028665573962374 0.0121795341145708 0.0166707351631174 0.0155196651172633 0.0282561109383177 0.038270760841797 0.0259144399536733 0.0134832550180662 0.0108152178583636 0.00583989199538999 0.00513038554379787 0.003602509550763 0.00202590941725709 0.000914747494670539 0.00164835343242695 0.0019489037826025 0.0024232120954584 0.00128483586096824 0.00114905724222561 0.000724947038664398 0.000410295847713912 0.000378765197362674 0.000282410932610103 0.000300862295320284 0.000176606866501586 0.000676970512530707 0.000391221265405839 0.00072565582270659 0.000419479126686944 0.000126094084427322 0.000126352984727449 7.26387972347514e-05 4.73640693604047e-05 7.25882872794102e-05 4.21880089477635e-05 2.27059508268919e-05 1.17064267926918e-05 2.63100979978818e-05 1.83800692042924e-05 2.91914480436859e-05 9.77562282040313e-06 1.17392130853926e-05 2.38049059871174e-05 5.10094963199075e-05 0.000157876796949345 9.86580897519545e-05 9.66652168288117e-05 5.74728861507127e-05 7.95611028978641e-05 0.000166440247315876 0.000129846491107235 9.86178041902852e-05 0.000147092648805847 5.24726576144652e-05 4.48270240423789e-05 7.66871890041421e-05 2.44275595832251e-05 1.49782432980577e-05 1.29853806830409e-05 1.17022570335543e-05 2.1563764783004e-05 3.35220196498836e-05 8.82013487931657e-06 4.5764995056104e-06 2.85706672849786e-06 2.44222735941313e-06 4.13024733192009e-06 7.43784525741822e-06 7.25296607734502e-06 2.51342663992442e-06 3.55538341771022e-06 8.98241230446192e-07 3.71705640553962e-07 6.11882287982181e-07 2.03360347723677e-07 1.33207366417476e-06 1.07338911589355e-06 1.45716504129631e-06 4.3334501734983e-07 2.12380390593112e-07 2.9198223862254e-07 8.04300889523066e-07 6.91651948499835e-07 3.55819690262892e-06 7.32230482230372e-06 2.00999207356566e-06 2.09307164825485e-06 6.89373655269795e-06 3.07307690643967e-06 3.62207566540908e-06 1.02064096834423e-06 1.10898051467944e-06 5.13476832093114e-07 1.89235988954426e-07 4.51317816932976e-07 2.39794041235593e-07 1.44934255618045e-06 1.65380447048583e-06 6.40723444647315e-07 2.61368934525668e-07 6.84146471154017e-07 5.96056025360457e-07 1.42775535696841e-06 1.66577909226862e-06 2.20882744992019e-06 6.11982990140871e-06 4.58549222413871e-06 5.97009248141745e-06 3.86168541653926e-06 2.27411541525533e-06 4.72127256922638e-06 9.31699465017651e-06 1.37695358671205e-05 1.03731115010431e-05 3.11241478047374e-05 2.68320011780732e-05 4.59946731368156e-05 0.000153330791582369 9.46182372943106e-05 9.53341454770844e-05 5.27913355560025e-05 5.59926692151795e-05 0.000148318561467838 0.000136918913394008 0.000101557572721991 3.54830914401028e-05 2.83214599244967e-05 1.99472209159779e-05 1.82501047107537e-05 1.19438650051571e-05 1.45716806833563e-05 9.7196953280819e-06 1.68282011990474e-05 1.66861348412688e-05 3.2984666501627e-05 5.59633608454266e-05 0.00010151862192978 0.000166117271403285 5.38032289910112e-05 8.20315328473794e-05 3.98466344808116e-05 9.38978820035598e-05 0.000130454416896513 2.41143152767095e-05 3.16406676178616e-05 8.64246507549952e-06 1.03451380056301e-05 5.87544476445703e-06 2.85322286394581e-06 1.85597475654378e-06 2.28142201485662e-06 4.18523507040934e-06 5.60016557248616e-06 4.05327395239216e-06 1.91030623079348e-06 2.13070838046463e-06 3.67899371722352e-06 1.15031813661569e-06 2.85103485013585e-07 5.21067058663973e-07 2.02449183833552e-07 5.63029070107217e-07 1.21399976527346e-06 7.67594031563945e-07 3.21351320523957e-07 3.53726385869464e-07 7.15802065053254e-07 1.69689886621997e-06 3.31781056602032e-06 6.54142664505674e-06 5.97255734060281e-06 3.16717302793021e-06 2.33495371190689e-06 4.43502261141121e-06 6.60705007548835e-06 4.95114096670187e-06 2.80699581404247e-06 7.0810737455709e-07 1.67995431112291e-06 2.83406080136957e-07 7.02689357985265e-07 2.6081492059818e-07 7.7535882242886e-07 2.62681734942798e-07 6.75253286616723e-07 6.18694029873816e-07 2.05644358742054e-07 1.18776041653306e-06 2.1179836299754e-06 3.20341159129483e-06 6.93151207637923e-06 6.04365584299642e-06 2.00972483085306e-06 3.15011466074237e-06 1.90647632050581e-06 8.33403037230217e-06 2.71409075818925e-05 1.82922361291739e-05 9.47203820068309e-06 9.67576201158933e-06 3.19287659200804e-05 1.91193315841108e-05 2.47234753522393e-05 6.01880301645663e-05 5.19788437774567e-05 0.000102532196757235 0.000132350591853247 7.22851920014464e-05 4.89565217836298e-05 0.000128071073191592 0.000165114661329865 5.55133562326077e-05 7.30038032586272e-05 4.97452203505864e-05 2.55142928514377e-05 1.50931808235765e-05 1.2904693509478e-05 3.12728576395537e-05 1.76894861215942e-05 1.11471276001743e-05 1.18795665469986e-05 2.53185847313081e-05 4.18068907759779e-05 7.75763689033181e-05 9.53621430024462e-05 0.000122438478752332 0.000226573871176738 0.000330189366079111 0.000262341289138743 0.000718811002212063 0.000506882578305383 0.000542702285446172 0.0014162326118607 0.00208766585882442 0.00123066302847338 0.00116626838197557 0.00215549204795364 0.00212678530752789 0.00125144902527904 0.00059608803011903 0.000350844768295979 0.000193247542415958 0.000463163020032428 0.000405666918327345 0.000225886228262565 0.000202008538471739 0.000341233411609561 0.000628392164145621 0.000899797315919188 0.00102446072205729 0.00282318119664523 0.00163751978287302 0.00258727506509593 0.00155536198540221 0.00295744230860547 0.00076148953298185 0.000811765799481502 0.0010876729728654 0.00186235066888682 0.0063303077699915 0.00915947360448163 0.0058714413392193 0.00394846906019197 0.0103428932939917 0.00689324940103399 0.0231603509187018 0.0175987160703413 0.0278482745279804 0.0439172834078799 0.039391502768687 0.0251698374143982 0.0456123649218614 0.0178237981815329 0.0196671456123439 0.0306583391342619 0.0259036506748115 0.015955667103658 0.0108829102393703 0.00352851193002093 0.00372741130254965 0.0102835565811641 0.00624396876724568 0.00780386202418637 0.00597049347885124 0.00342235832892288 0.0094256465987051 0.0155668828338146 0.0178104111685785 0.0137138649036947 0.0360570798805718 0.0286314734457555 0.034440039995508 0.023841655888821 0.0241127976111463 0.0151612309542074 0.0145406665695557 0.0388249748745015 0.0349731014537313 0.0312894270563753 0.0190925727731205 0.0209136706011159 0.00913950683314173 0.00599419529925932 0.00885873765043267 0.0114691152252586 0.00445064351765517 0.00368072766536914 0.00561927557662021 0.00904060932678946 0.00248404079708434 0.00306915016511815 0.000892830165670202 0.000880761636913718 0.000724768163055808 0.000254257738359375 0.000295340790907989 0.000357262609472239 0.000554087458015014 0.000519780963469535 0.000174616168111403 0.000329783816821889 0.000397935927962566 0.00117717095023059 0.00105804729518105 0.00141528347366754 0.00229010558352947 0.00193094968168076 0.00189974795231383 0.00117199501315703 0.000698692247621171 0.00069970684869177 0.00026529850345844 0.00028303504066172 0.00039156956104264 0.000409088941286688 0.000291490550872777 0.00113316634753428 0.00117740783582434 0.000728122520400719 0.00114604310388412 0.00170708623473185 0.00285631460220545 0.00429116819145641 0.00855711515496912 0.0069449698661793 0.0102513073784185 0.00404302635234501 0.00326526132918003 0.00336134913368429 0.00464713928639524 0.0122985254173961 0.00840591117412668 0.0102763779219604 0.0223379655042093 0.0352867594726553 0.0265768187682813 0.0177605284868836 0.018137156259548 0.0296497041715455 0.0849064225041994 0.136720738163671 0.160494535660692 0.0509056641099269 0.0697441324004294 0.046971256893809 0.0607656988186551 0.154316123236273 0.12244938240355 0.257052848901449 0.365423129337623 0.325131453397439 0.285506748447174 0.239319224685781 0.211894716000757 0.514295950186067 0.430830848511532 0.793381519173598 1.29435415427279 1.61901969967098 2.73665978219439 3.38036525909781 4.94670401537155 1.78736939257861 2.72202116853098 3.59168785071909 3.05153092646967 2.79930808915796 1.2311428337675 1.66543442063345 1.39908091500731 0.604232688669881 0.847666328452319 0.750865730344964 0.692312413016291 1.05173494699672 1.63613603686661 1.82060921437261 4.88963790447666 4.36340025415256 2.15282043925819 3.06015237429487 3.93178345783041 2.09963675421923 2.99806692377875 1.14098383608715 1.70577406143098 1.21166706640282 0.642454727672037 0.981644999902443 0.477657249365745 0.202220257604182 0.301571749494793 0.321079787521869 0.517250724178917 0.562049159116164 0.325565726016735 0.244256966742393 0.154726483882884 0.102313605374145 0.105352093013448 0.0471825419056811 0.0724726768514443 0.11002691868996 0.116378035708594 0.0671222014467951 0.0600501224524711 0.0824791171864457 0.0589526015082161 0.162361935275571 0.138180308311366 0.208557103109788 0.515423770681091 0.338561471990236 0.27947153282055 0.257026135040867 0.333394557390566 0.523773406249261 0.374390422542385 0.541091493557416 0.171563821029549 0.138372326483116 0.125871987555046 0.0784049381143639 0.077325784214153 0.0536259210079289 0.0641044358867458 0.167354891769715 0.126951840302034 0.111664226076313 0.0551663600521402 0.0872383571454433 0.0746019027671712 0.106741320673695 0.19890168123475 0.249483097417864 0.178476624032809 0.433631442141815 0.454995185187267 0.28928811165657 0.270757615435743 0.39222265277031 0.851375178404275 0.579932450785586 1.67837698219326 1.16669456592431 0.964300498214891 0.629531261928444 1.00374028805365 0.626451857439188 1.48612271546812 1.18881359549282 1.91391589788611 2.2014522992757 3.34388600509116 5.14557121427171 4.88536613625199 3.22535113993571 2.2504089428026 3.67933850343482 3.59855328624754 1.88971665956858 1.93577279843368 2.92067279736326 1.57954321660892 1.08948348692358 0.830165172646295 0.800948677869866 1.54481610567122 0.964132985566429 0.808998052481118 1.73835128528757 1.99942539366432 2.98903978270126 2.8203803776059 3.96740049226471 5.97404897796365 7.65079067496523 7.48245180237703 12.5303743623632 14.9676850456343 30.4511898814908 22.0616553021899 15.2698086315597 27.4081757206386 24.6545607682157 17.5204919955556 12.7494119450088 9.96612986327667 11.6491495395067 5.62914943010865 6.92061470563475 5.55628410819992 11.8119235210125 9.92651572909067 6.75225537585971 7.86106604813537 12.5244874295974 11.5685756530847 16.3864607191164 30.5070291176878 22.0040435004005 22.3012158715165 30.3514955490534 17.8198767046466 16.5676809974753 19.9519942037909 28.5636882678093 32.9569486270037 58.4951016951956 48.6773380970637 58.5834115641436 36.9913801992612 34.9020099867198 50.3499998585258 57.5617042085436 69.721840828368 82.0395004789576 92.8148692517924 80.1503796186884 91.0753368689926 78.5977831143697 91.0741289039607 91.2328211895769 61.7726856749681 78.5123246646967 78.4425826963937 48.9938546392783 46.1027874498502 38.8728174487553 51.9692084166686 41.0003063044602 32.2101332348122 47.2600262860775 62.4348019417083 79.2130956134367 87.681127922921 88.1750871405838 76.3597978835538 81.1687614266378 92.8280566216402 85.4706700271591 92.5640008926382 64.3303444558986 69.9014189789536 65.8761660898866 53.168158424064 50.3399582500857 41.3088444922477 42.7237516518753 32.6787622203091 33.571220330639 47.0259615761582 54.7473396738912 23.7806464547118 25.3754098817234 17.699280266739 11.1197431295764 7.31471271536373 5.73382732599818 6.20541459153018 12.395232708767 8.88147642673553 8.74914201108015 5.43784823751704 10.6180468090496 14.8021256156951 18.9033286606582 26.1724565031217 30.2593040915784 26.4854712432355 29.0700655646112 20.4987962954761 16.1924144143152 18.1303763211589 7.73627717186538 7.91128178198994 5.55429775127352 11.5342005427584 8.98730120910063 11.7606007218899 6.2384854566504 6.26129405665603 12.9829339581078 8.99631845086653 18.3708239694128 16.8585060538252 26.3193367833489 45.7253146237354 48.8134990582757 57.1890730360128 33.965312296786 33.4729738742818 46.4378890789922 57.9854975906063 77.4597500596633 79.5125276218357 90.381480753649 83.9842723589346 70.3046942204223 71.5114050692014 85.2831613350269 93.4697358116958 91.7197230463009 80.5031029616621 64.397905758447 61.8803645817392 40.8959677437599 36.1002637802289 43.7941565349284 54.4150212732216 55.974737879887 41.1014241222687 36.4867736604031 64.5141474907892 61.4081086940902 79.7501517679414 90.8623927287798 81.2825816014444 83.0466907368455 90.2039343246337 68.519359204413 92.688990469883 81.6104380468475 88.761356601153 76.9895168977523 67.1667935357964 54.2152563970774 48.3488416933641 56.3917452093095 33.9083225629346 42.7418990816932 44.9449083634216 55.7823151792051 58.0052333289009 36.828833680493 42.5807311413785 28.2151411574425 15.0055521253933 21.840216028414 22.0834396132263 30.6144473436352 27.6185030362575 17.7674488097588 14.8149870908295 8.5800661240306 13.5424717062226 6.44891326366655 7.68068747745363 5.33152281561648 10.7441018985912 10.7589867714346 7.40203706503237 6.23494143944534 7.40288063594153 5.69317516842552 10.7084831282803 14.1112708898835 16.1557527823861 25.9435682922159 23.3335634292054 20.79675437835 19.9981285825529 15.0698718436954 27.6359229642533 29.8770915688046 24.4567265895697 16.8897105392216 12.6511009403452 10.9547598852347 7.7435119411004 5.66294847718306 7.94605976049024 3.66330641679059 2.88702493895388 3.69425421503644 3.78606516144507 1.81727647672613 1.82246616380201 2.8794326090482 1.24657885358078 0.702368657511146 0.713801879001499 0.793602170198441 1.75932824145348 1.24025983206775 1.29229699675786 0.818361212193556 0.519418319706037 0.509857955433774 0.362288116855003 0.167830430720118 0.22034271605081 0.170386412213872 0.09605956608223 0.068751554544786 0.0945480580592791 0.0709103110999968 0.0664161921734569 0.0951703456302736 0.182479582897631 0.24679997972835 0.442018780919727 0.455738158579569 0.482279214497729 0.213324371415453 0.304283038331739 0.183324552714021 0.250701726971765 0.107522235430982 0.0713832053195233 0.0939668545150678 0.139085439086446 0.13305465940465 0.0567500617128233 0.0537183461858067 0.0861363700196957 0.0880102786606325 0.221700965433334 0.562352827635812 0.325819711065607 0.691244130831112 1.61287288807705 1.55583363455739 0.708493260538547 1.26235620374576 1.36953428088183 1.06807470527198 2.35028658355911 2.25702786398476 2.90060471058481 3.26241343863083 5.11102125939168 3.55051880567221 3.22586909123454 1.89807118375021 3.98193045035687 4.30803502837982 3.20613810754842 2.21767999142794 2.47777020902002 1.81193383150882 3.98313156316362 4.82556228078939 3.14134460721434 2.17988224557832 1.30437385883619 1.22070837258588 0.774512996776567 0.796730693400625 0.795873222086081 1.16952468138218 1.07496311563374 0.320586402974948 0.514602023766266 0.251827946835144 0.214061306668984 0.131048931367698 0.0606906648582664 0.0597132653632142 0.0734318377538171 0.148931240473774 0.115963968499371 0.128882974935396 0.0825121652645234 0.0718222863396962 0.193040330962936 0.195914556965745 0.304784609897839 0.482182903817603 0.50792608902011 0.341985282458308 0.222971578829046 0.318043894428426 0.111572305587734 0.0892737309536171 0.0483249887260729 0.123892737193813 0.0924566230942226 0.0553416260588975 0.0504999050370507 0.0802280432128782 0.119070521783513 0.196943437724248 0.284059477648495 0.464468634042888 0.626785652473532 0.964850092549368 1.43581974128122 1.61416498784687 1.01790527622825 0.678635139538741 0.618103063603972 0.871739340843459 1.3380279128912 1.65736876802591 1.83821800314942 2.85148212303445 2.55549976875406 4.28067895040189 4.63405846513126 2.05753980492312 3.20164877374878 7.36678967508128 11.8503856201267 10.6350809805753 15.9299914330255 21.3619403206224 30.409117561473 18.812424195639 22.4646069524866 29.4599524049289 21.0303796328576 16.7049314097098 11.8473782732691 9.5733302427239 6.15117839410311 6.35263485512762 9.30989477278777 12.218698054066 11.5768198480449 5.4225347531519 7.90792775185557 6.73348937925517 9.00316639545886 16.2376196217893 13.827230139858 17.9127087970999 27.3922839154762 22.5175952423427 29.5165611430874 27.1376475476877 17.598676726051 24.7708678119361 48.7166550141896 45.9158171815118 38.171325341814 39.2530447850279 32.535574690482 47.0257270360537 50.6893734100196 62.5961916327447 79.3567542134198 87.7902944271482 91.2648077370703 61.8333519456172 78.4626871749615 78.5589503207185 91.0782386468086 91.0782890083243 78.6027952376911 58.5862679780891 32.8232985224111 31.1687416622881 36.9340429787823 48.7533351382144 58.6630215856746 57.5700997118119 34.9107833133468 50.3575308414567 69.7271940962941 80.1542728275517 82.0424695016281 92.8161988770649 