<?xml version="1.0"?>
<VTKFile type="UnstructuredGrid" version="0.1" byte_order="LittleEndian">
<UnstructuredGrid>
<Piece NumberOfPoints="568" NumberOfCells="1054">
<Points>
<DataArray type="Float64" NumberOfComponents="3" format="ascii">
0 0 0 0 0.050000000000208 0 0.0584335251122665 0.0584335251122145 0 0.0323698570487533 0.032369857048862 0 0.0499999999998997 0 0 0.0999999999998147 0 0 0.0944578555792846 0.0400584584694184 0 0.0980768456829153 0.0991724147309935 0 0.0400584584693195 0.0944578555791577 0 0 0.100000000000416 0 0 0.150000000000624 0 0.0548726927265955 0.134106856398452 0 0.0388399996009313 0.179498259931901 0 0 0.200000000000832 0 0.0564522287083799 0.234565808376616 0 0.0996947712122641 0.22074048840547 0 0.0828750765696809 0.178818634882983 0 0.0896897021915411 0.138513804586622 0 0.122947659685672 0.148251464161954 0 0.169013160068682 0.168002193866631 0 0.125875177082847 0.188968332266695 0 0.158996951633215 0.227836749122277 0 0.205967211350529 0.199725178953962 0 0.211554843187388 0.241744476774187 0 0.189220110521158 0.126442066536112 0 0.22626394058332 0.154659468198381 0 0.217206150464847 0.104439454835129 0 0.148476056588621 0.112220907400452 0 0.181725902897582 0.0816119740612928 0 0.180351590178421 0.0391903365350905 0 0.138357444660799 0.0589959339188492 0 0.149999999999704 0 0 0.199999999999558 0 0 0.231674603334463 0.0553437746953104 0 0.249999999999412 0 0 0.299999999999266 0 0 0.283208049853001 0.0508433390825056 0 0.257146194987713 0.10413999068455 0 0.295063395037039 0.101138089243444 0 0.322427311917699 0.0689379334381408 0 0.330767006442793 0.119592255048115 0 0.355822585194142 0.0854187642572584 0 0.362462430895343 0.0442183666074772 0 0.323619558532886 0.0327999278256247 0 0.349999999999121 0 0 0.399999999998975 0 0 0.406855818272412 0.0411398773125117 0 0.449999999998829 0 0 0.499999999998694 0 0 0.484924330582892 0.0373213982762724 0 0.446927950142653 0.0518018776450602 0 0.475746624217828 0.077626823840591 0 0.46567857652706 0.114368061527523 0 0.43122735573934 0.0881769991929174 0 0.390616286406845 0.0815251031619917 0 0.375161719606839 0.121918126660369 0 0.397289240071895 0.165639932095022 0 0.432407360090089 0.182056809654028 0 0.41732862935313 0.129866986343623 0 0.459520018388269 0.156664873305243 0 0.462293308810443 0.198909164566548 0 0.499999999999971 0.219686411149829 0 0.42421838472614 0.222465020057878 0 0.381034256806799 0.204783951629704 0 0.331796839804983 0.222301993972031 0 0.360307484821635 0.154014700871105 0 0.330801675951106 0.181791113002693 0 0.299142716792971 0.156496209701207 0 0.263189497696013 0.146101733972573 0 0.260171965190135 0.20370391303005 0 0.301079690692898 0.202800200091412 0 0.288402851022681 0.249609553207088 0 0.25082138072345 0.257700107422368 0 0.297479491180417 0.296411157380844 0 0.260144435522079 0.292623904436535 0 0.284738052361283 0.343557681186738 0 0.323103257015693 0.32141443408924 0 0.348047572662274 0.35750068079406 0 0.354814354583093 0.30398436674999 0 0.323736926270502 0.27286413781594 0 0.357962884673884 0.256835227867104 0 0.401804626289837 0.256190339758575 0 0.391620987711813 0.295036992928546 0 0.430594867953342 0.303959734190635 0 0.455331360217251 0.252568731208715 0 0.483788712280009 0.297451778269774 0 0.472532117365031 0.340817108308049 0 0.49854341599768 0.370759147681271 0 0.43301393728221 0.359843205574921 0 0.391208871887456 0.334075776884043 0 0.392220576577811 0.380677966902274 0 0.394198866753185 0.419122252400708 0 0.429308231064016 0.40626685012723 0 0.465432111282168 0.387884235436819 0 0.461024257085337 0.432541991343326 0 0.461527143457989 0.473443594123526 0 0.410095980695696 0.490839357492854 0 0.423403423371937 0.447621318748554 0 0.377023860747173 0.458194175644768 0 0.334364244893045 0.478496031217408 0 0.333826635273302 0.441301250475035 0 0.354814223971285 0.403129814650693 0 0.296304338697064 0.429832022968145 0 0.305976555003817 0.393468168521193 0 0.255826059367993 0.395079699895134 0 0.262475847345986 0.447649432958947 0 0.299886550525317 0.467007278275931 0 0.262418491288269 0.490719222921541 0 0.232324767024371 0.466345253695677 0 0.192181271644967 0.465938389648695 0 0.160013142023585 0.497717270559093 0 0.144484766221814 0.453538915812712 0 0.178457744828726 0.430871172570494 0 0.148695787718589 0.404814523960821 0 0.197169318452384 0.387030152393625 0 0.219688017838559 0.433067836400238 0 0.222695530956879 0.358374234325388 0 0.19152147653881 0.327918797702154 0 0.236041954047958 0.321918283269407 0 0.220015181768822 0.28602682846308 0 0.168537671773945 0.272324831592801 0 0.143922094947914 0.306200702035457 0 0.154014700871176 0.360307484821747 0 0.0732967881614181 0.342269570898506 0 0.116034002194931 0.33748134585014 0 0.0994921194810273 0.307463985332816 0 0.110477540413226 0.263117535981694 0 0.0537301716876466 0.288250771898286 0 0 0.25000000000104 0 0 0.300000000001248 0 0.032220921767547 0.329014892144875 0 0.0334576460409223 0.363648423312284 0 0 0.350000000001456 0 0 0.400000000001664 0 0.060530514380151 0.395146264289728 0 0.10935320311386 0.378391909217271 0 0.0971009795772073 0.435906739990532 0 0.109199274598136 0.487580697080498 0 0.0648933318035348 0.486697770604545 0 0.0436128036610927 0.440061111828404 0 0 0.450000000001872 0 0.0294449071642091 0.475000000001966 0 0 0.500000000002059 0 0.0373213982762153 0.515075669417473 0 0.0518018776450837 0.553072049857452 0 0 0.550000000001734 0 0 0.600000000001387 0 0.0411398773124836 0.59314418172763 0 0.0881769991928987 0.568772644260674 0 0.0815251031619976 0.609383713593151 0 0.121918126660357 0.624838280393159 0 0.114368061527482 0.534321423472927 0 0.0776268238405584 0.524253375782261 0 0.156664873305197 0.540479981611742 0 0.219686411149827 0.500000000000032 0 0.19896328510056 0.537691476689505 0 0.222487080058139 0.575775413711342 0 0.204783951629683 0.618965743193203 0 0.165639932094979 0.602710759928095 0 0.182056809653986 0.567592639909897 0 0.129866986343594 0.582671370646846 0 0.154014700871098 0.63969251517837 0 0.181791113002692 0.669198324048887 0 0.222301993972028 0.668203160195032 0 0.202800200091414 0.698920309307116 0 0.249609553207091 0.711597148977329 0 0.203703913030074 0.739828034809895 0 0.156496209701235 0.70085728320704 0 0.13725179499973 0.741546289628566 0 0.0910728127967196 0.741988048646878 0 0.0990187225489634 0.704756315583652 0 0.119592255048131 0.669232993557228 0 0.0854187642572582 0.644177414805869 0 0.0689379334381628 0.677572688082311 0 0.0323578435067225 0.676600401985782 0 0.0442183666074753 0.637537569104702 0 0 0.65000000000104 0 0 0.700000000000693 0 0.0486329174879745 0.717891752740162 0 0 0.750000000000347 0 0 0.8 0 0.0529380014213358 0.776889771183312 0 0.112316928024456 0.78020430794084 0 0.0868130391934314 0.817095740868429 0 0.122947659685717 0.851748535838097 0 0.0870417061194161 0.853827995089262 0 0.0524690331668437 0.86696410734367 0 0.043889462445438 0.826759239819513 0 0 0.849999999999653 0 0 0.899999999999584 0 0.0400584584693226 0.905542144420798 0 0 0.949999999999792 0 0.0304524096104897 0.96954759038951 0 0 1 0 0.050000000000208 1 0 0.0584335251122541 0.941566474887746 0 0.100000000000416 1 0 0.0944578555791882 0.959941541530687 0 0.0979909576452082 0.900450397208809 0 0.146882743185419 0.889622656308119 0 0.181725902897639 0.918388025938889 0 0.138347219894628 0.94095916274078 0 0.150000000000624 1 0 0.18045991219398 0.960710939969875 0 0.200000000000832 1 0 0.232226438176177 0.944207511169706 0 0.18958721034944 0.876602973603946 0 0.221311393310948 0.904144943719832 0 0.228939290247373 0.839908789927278 0 0.132261503269228 0.813060330014371 0 0.171018735363 0.828981264636961 0 0.16253691950235 0.782849122627686 0 0.203590747653644 0.794224894178719 0 0.243358441913473 0.786511897933875 0 0.286026828463086 0.779984818231176 0 0.321918283269405 0.763958045952046 0 0.358374234325384 0.777304469043123 0 0.327918797702134 0.808478523461202 0 0.360307484821742 0.845985299128825 0 0.306195311694726 0.85607519768343 0 0.272549978320415 0.831201948690144 0 0.263054145574704 0.889490620931362 0 0.307381363266577 0.90051880305435 0 0.25000000000104 1 0 0.300000000001248 1 0 0.287907520382944 0.946359528487026 0 0.32894624184181 0.967797018267389 0 0.350000000001456 1 0 0.363638616126136 0.966544916821213 0 0.342269570898513 0.926703211838588 0 0.337480267781999 0.883965456331347 0 0.378391909217271 0.890646796886144 0 0.435906739990533 0.902899020422797 0 0.395146264289732 0.939469485619852 0 0.400000000001664 1 0 0.44006111182841 0.956387196338908 0 0.450000000001872 1 0 0.475000000001966 0.970555092835793 0 0.486697770604543 0.935106668196466 0 0.487580697080494 0.890800725401865 0 0.497717270559088 0.839986857976418 0 0.453538915812708 0.855515233778189 0 0.404814523960818 0.851304212281416 0 0.43087117257049 0.821542255171277 0 0.387030152393619 0.80283068154762 0 0.433067836400233 0.780311982161444 0 0.466346121879671 0.767675855240614 0 0.465938389648691 0.807818728355036 0 0.490731134405986 0.737590046187304 0 0.447649432958942 0.737524152654017 0 0.467368917376544 0.70015537930375 0 0.478187521339629 0.664544629052809 0 0.455174570318146 0.627431000796044 0 0.443459173594296 0.666416406225512 0 0.405647175079827 0.65626423320525 0 0.386423584673078 0.692862589235973 0 0.427155383338081 0.700777593753079 0 0.395079699895129 0.74417394063201 0 0.342702801024459 0.716724167620359 0 0.292551210545191 0.739979902911732 0 0.257700107422386 0.749178619276552 0 0.296411157380843 0.702520508819589 0 0.273496567448602 0.675817419964087 0 0.256845292557732 0.642035542479631 0 0.304216353843215 0.645149391934367 0 0.322598530820738 0.676700726098352 0 0.35944937237717 0.651647898084363 0 0.371046512961454 0.605451707483111 0 0.359843205574921 0.566986062717789 0 0.332314974080817 0.607792187328737 0 0.295036992928544 0.608379012288189 0 0.256190339758569 0.598195373710169 0 0.304297406799597 0.569139051464601 0 0.252871394412626 0.544583554344924 0 0.302927660481639 0.51
[...]
<CellData Scalars="pressure_p0," Vectors="velocity_p0," Tensors="">
<DataArray type="Float64" Name="pressure_p0" format="ascii">
2.69332232175236e-08 8.03666872381412e-08 8.66323650566099e-08 1.54509355571908e-07 4.311412969978e-07 9.72827951054363e-07 2.76830859054099e-07 2.60920519942861e-07 4.19466672028418e-07 8.37017242063661e-07 1.18105435092817e-06 3.84476298141307e-07 2.51499527744847e-07 9.74676031505169e-08 3.21770556701125e-08 3.18138268078102e-08 8.47727503168757e-08 9.02231094622361e-08 1.98463774986374e-07 3.01396847291725e-08 4.75531990685557e-08 2.03597959303581e-07 8.79829006598204e-08 3.60547459633477e-07 4.87646689460823e-07 1.19027421528341e-06 6.70052954598858e-07 8.39114704668671e-07 3.21517386445795e-07 5.90720783329747e-07 6.85969112735465e-07 2.1761967172893e-06 3.83356427956038e-06 1.7436819614809e-06 1.34890762864346e-06 2.43409978613754e-06 4.96452094361224e-06 4.83878087396219e-06 7.15809997512337e-06 2.40261356611344e-05 1.64847837226777e-05 1.87267364106069e-05 2.98001155168016e-05 8.89366524372106e-06 7.64482605754787e-06 1.12701397865037e-05 2.92630376976644e-05 1.96271683184332e-05 2.07501366096852e-05 1.13366815437776e-05 7.55860295641903e-06 4.21442511750625e-06 1.37307221455111e-06 2.77061245555385e-06 3.76078757729763e-06 1.39310279106416e-06 2.87472290797964e-06 5.01506750748746e-06 8.26354975409535e-06 9.82807113944651e-06 1.75796005305135e-05 6.30935845179658e-05 0.000116880164576328 0.000140608611235491 3.51937951199107e-05 6.20528001406225e-05 3.69959235823106e-05 5.17471608995445e-05 0.000109065150849668 0.000264497345697007 0.000160112277114872 0.000670258716666617 0.000416093272307263 0.000348666750087293 0.000599156239666021 0.00026859683092137 0.000207440834253545 0.000342374936689431 0.000637003206511533 0.00102048050831814 0.000917151333386319 0.00247833573269003 0.0029528970357116 0.00203196537168505 0.00543350889216675 0.00839683645895066 0.00660036181637675 0.0111295139717296 0.00513278426826089 0.0043486603911911 0.00965129247095278 0.00322073597695096 0.00173809988298272 0.00157007649033683 0.00110482970545394 0.000721434157564825 0.0011603693116856 0.000756770798646994 0.00136377302748747 0.00183055407702595 0.00305436303911867 0.00412519543982308 0.00773656948569839 0.0119265227793652 0.0073895574337591 0.0042895428068855 0.00321428119258836 0.0102258963737613 0.00697892447701127 0.0101988984801418 0.00388314134123579 0.00239264238817692 0.00171769608323769 0.000764150852301244 0.0013019790985045 0.000438158996538472 0.0001546379039451 0.000179592166768219 0.000349147555056597 0.000444421650066942 0.000429344279880864 0.000291515310112623 0.000177407273758901 0.000136515347613025 0.000130806764476903 7.35928839049978e-05 5.42606790448321e-05 6.8765563062124e-05 7.59901869821438e-05 0.000126792493630842 4.45316133576391e-05 4.38454177873149e-05 0.000112579145029864 6.49961429989352e-05 6.26096745670022e-05 3.81733264683652e-05 3.53233911685796e-05 0.000107459529200794 0.000173949708553684 0.00029890531999742 0.000151937857961826 0.000524502758663858 0.000566500982125476 0.000242271476428288 0.000150221334536579 0.000270068958847207 0.000328124028884742 0.000851449733750518 0.000745801094631778 0.00137185248161566 0.0015176889792089 0.00257858703010208 0.00892120240198741 0.00489109277553551 0.00567569316692101 0.00370614420550248 0.0108271428935349 0.0122130128757 0.0081498080007594 0.00486772153053211 0.00196521924917733 0.0014165429545862 0.00072179986118042 0.000759517395935747 0.00138545386699415 0.000675633201992843 0.00179232506601727 0.00193215476777791 0.00344108280296042 0.0106156033105186 0.0110817125344874 0.0079029614853637 0.00307027376018588 0.00434684445181686 0.00401286202088737 0.00776032422127526 0.0108678855549706 0.00704660247765883 0.0034395438721005 0.00269565300282574 0.00137267455614673 0.00118925663225981 0.000809164293448908 0.000431768153012091 0.000181463233162372 0.000343841305562349 0.000413327722014962 0.000523878506287285 0.00026319744568371 0.000232990032989448 0.000141059827129942 7.64551706653055e-05 7.01539542578322e-05 5.08287939449104e-05 5.43790506674032e-05 3.06003006403602e-05 0.000130710236466274 7.22533563438104e-05 0.000141135728912788 7.8082574034377e-05 2.1257436105731e-05 2.13127636641692e-05 1.17467729060001e-05 7.4165024941018e-06 1.17332691424464e-05 6.56432180443364e-06 3.37208801605705e-06 1.66194701099314e-06 3.95143233049662e-06 2.68882337972847e-06 4.43533638086603e-06 1.37223871906813e-06 1.6717267395673e-06 3.55777776980957e-06 8.06232108156849e-06 2.71947273830728e-05 1.64267329641483e-05 1.60551092918369e-05 9.15570964915812e-06 1.30130450963291e-05 2.87811579625114e-05 2.19763007946848e-05 1.63365308012654e-05 2.51823526420761e-05 8.30746853482761e-06 7.01006253147394e-06 1.24808313195535e-05 3.65668534766941e-06 2.17411171657679e-06 1.86256498259665e-06 1.66287109685447e-06 3.1963786395679e-06 5.13909415579102e-06 1.22815687888104e-06 6.11107431430205e-07 3.7033521862172e-07 3.1359592656499e-07 5.4713632043907e-07 1.0239888131229e-06 9.97730648953197e-07 3.25406005086553e-07 4.69188861957126e-07 1.1188921274218e-07 4.52918989183907e-08 7.47739680206537e-08 2.44474455868813e-08 1.66014276807316e-07 1.32374134213705e-07 1.82497726758625e-07 5.23769197701855e-08 2.55264222781093e-08 3.53269407899933e-08 9.91641451392961e-08 8.47825280108516e-08 4.67933219598199e-07 1.00737418253903e-06 2.55586989107688e-07 2.66687526010817e-07 9.42185292326505e-07 4.00243266271774e-07 4.75769472255281e-07 1.25908903694795e-07 1.37368314713039e-07 6.25172895195728e-08 2.27684529156767e-08 5.47023731120853e-08 2.88661721524301e-08 1.81354546943844e-07 2.08543938519146e-07 7.83007902948368e-08 3.14222365100864e-08 8.38424235350298e-08 7.25088226125765e-08 1.7801367832365e-07 2.09707942437774e-07 2.82647900725283e-07 8.32204211207786e-07 6.11013309710907e-07 8.09725477930318e-07 5.09310211324878e-07 2.90821105914174e-07 6.32506412597381e-07 1.30375553919608e-06 1.98272276714353e-06 1.45890314045787e-06 4.73041256786723e-06 4.0388973617831e-06 7.2254903254816e-06 2.6318331442012e-05 1.56640275670986e-05 1.57869781725094e-05 8.3435475973973e-06 8.89426339334419e-06 2.54076966872677e-05 2.33563933329577e-05 1.6880017031466e-05 5.44679502763989e-06 4.27374548212521e-06 2.94535680652003e-06 2.67194937382949e-06 1.6957616803002e-06 2.10058067125771e-06 1.3581421141539e-06 2.4519110307451e-06 2.43352951803431e-06 5.04852735121995e-06 8.89265656737309e-06 1.68621620398828e-05 2.87178595543002e-05 8.51862225525469e-06 1.34216429529603e-05 6.19492955537217e-06 1.55218210884113e-05 2.22121731649801e-05 3.61623333484188e-06 4.81295823323864e-06 1.20277800395538e-06 1.46346401524843e-06 7.9804455598207e-07 3.71505056483479e-07 2.35423620297308e-07 2.92109791562891e-07 5.55443889374013e-07 7.54651524192039e-07 5.34177919842939e-07 2.41655272979436e-07 2.7091201007269e-07 4.83138705306053e-07 1.42107348144465e-07 3.43110797450439e-08 6.31722109880787e-08 2.42861635592401e-08 6.85301616067135e-08 1.50581467125525e-07 9.45856012711873e-08 3.8874582899841e-08 4.29093420177803e-08 8.80442155561992e-08 2.14362176422291e-07 4.35953963978613e-07 8.95465855214896e-07 8.12096912326992e-07 4.14599721261035e-07 3.00593700082356e-07 5.91242755900935e-07 9.0561028378098e-07 6.66435651069564e-07 3.66086575553903e-07 8.70777058818867e-08 2.12169438925498e-07 3.42569299601692e-08 8.6884967492601e-08 3.16315356652942e-08 9.64168419909848e-08 3.19125114067745e-08 8.36846467171606e-08 7.6798855511312e-08 2.50843791825284e-08 1.49454263235874e-07 2.72816451717822e-07 4.24351821379597e-07 9.5711958443222e-07 8.25766213899649e-07 2.57784418624488e-07 4.1403015280798e-07 2.43747372243253e-07 1.1636658786221e-06 4.10494627394402e-06 2.69227014284602e-06 1.33517094286385e-06 1.37070996244012e-06 4.91088598140733e-06 2.83078422807353e-06 3.73298293707043e-06 9.67785236597516e-06 8.26699131738245e-06 1.7147151820499e-05 2.25413017324503e-05 1.18112520847589e-05 7.72501911530885e-06 2.17159188726933e-05 2.85559165691196e-05 8.86075251352313e-06 1.18843687038113e-05 7.86662586290288e-06 3.84336714064948e-06 2.19233409661153e-06 1.84715740893206e-06 4.7675277101258e-06 2.59084316576475e-06 1.58117724004723e-06 1.69523837141737e-06 3.81266198820366e-06 6.5224894773909e-06 1.26317350760294e-05 1.58106297689128e-05 2.06922562433092e-05 4.00582744718257e-05 6.01850632185906e-05 4.71025120275059e-05 0.000139789313293338 9.5923255595527e-05 0.000103022738322681 0.000292348399716778 0.000446477567888261 0.000250133574310967 0.000237256054538702 0.000462937186374853 0.00045604455851221 0.000256433877783005 0.000114655996220299 6.43864553277752e-05 3.38577917158324e-05 8.71386091037716e-05 7.55550541549899e-05 4.0170020979101e-05 3.55306536141362e-05 6.25944116504693e-05 0.000121012514333005 0.000179383590828504 0.000205992606464841 0.000620705273168094 0.000342586312404852 0.000564766004588576 0.000323960870032203 0.000655496793161465 0.000149579488852293 0.000159749598938675 0.000220104908300137 0.000394680568285908 0.00150457995882884 0.00225631748985667 0.00138433598287278 0.0008960728638284 0.00257339283635667 0.00164645360884465 0.00625074185050343 0.00460883130673962 0.00768570215443391 0.0127229749715934 0.011238910347263 0.00686044409369632 0.0131884401383568 0.00468311781671403 0.00521790970799226 0.00853367703842458 0.007064020797445 0.00413826693095355 0.00272320847509159 0.000792139954780135 0.000839193482473238 0.00255447629317862 0.00147451709394775 0.00188749741431061 0.00140535310124638 0.000765056426037282 0.00232301071370269 0.00402379470583272 0.00467054434193465 0.00349784283853623 0.0101884081688908 0.0078813993199191 0.00968978193536351 0.00645161173134804 0.00653457419880241 0.0039126353482417 0.00372842891934623 0.0110695504180322 0.00982236305888964 0.00867616292554418 0.00502238556954901 0.00556207173601063 0.00223457590557928 0.00140631476066643 0.00216397643980485 0.00287405121397517 0.00102180409884602 0.000826163530023714 0.00131250477792469 0.00221901890311895 0.000539312514281047 0.000680383713820575 0.000177171874625041 0.000175024709805968 0.000141412633216597 4.54349178592431e-05 5.3404762111879e-05 6.59176375994592e-05 0.00010552178159983 9.84479237833739e-05 3.02941734725403e-05 6.01282043426361e-05 7.38752455434696e-05 0.000239640966552198 0.000212461851436796 0.000291601819551619 0.00049231736849081 0.000410141831802865 0.000401840857352088 0.000237980568604066 0.000135485887387553 0.000135804143552907 4.74553874715863e-05 5.09886553024939e-05 7.25266709385021e-05 7.59691748980923e-05 5.25742761783681e-05 0.000229370715235869 0.000239623735533227 0.000141342358757175 0.000231842235522885 0.000357416883491819 0.000626007836382914 0.000981113312009486 0.00208347616745331 0.00165020939341083 0.0025425094960163 0.000915164848013973 0.000725052753337189 0.000749649718650515 0.00106855454145032 0.00311104436906406 0.00204401644246532 0.00254730500000305 0.00598417123288182 0.00995053808048313 0.00725817593463019 0.00464898530081073 0.00475669239609752 0.00819283408822162 0.0262948632080653 0.0447400765117923 0.0537505912415492 0.0148923127076692 0.0211847917666214 0.013625032901843 0.0181416972172644 0.0513125875649654 0.0395952993065515 0.0909313863218799 0.135409150648445 0.118583900189619 0.102419194543303 0.084134093170332 0.0731461838889417 0.199204349452953 0.162962927817206 0.325765424483299 0.569644046773415 0.739424262518935 1.34834043582957 1.72487721818476 2.68508746825762 0.824216244932235 1.33983077482113 1.85799474692443 1.53656189464499 1.38904802153597 0.538343196771295 0.763796599740588 0.622927525729015 0.238757882671134 0.351701566734543 0.306498170349646 0.279557275934246 0.449606377892542 0.748558408553972 0.849407457315979 2.6644311943243 2.32609033462318 1.02358127645655 1.5345099875153 2.06152056133372 0.994917269330801 1.49930428294639 0.494642394829427 0.781895991331641 0.528202683680238 0.256326426636607 0.415235685945018 0.182995895280996 0.0696651457706289 0.108912192646896 0.116869183303074 0.200075059463314 0.220273348356511 0.119088020830846 0.0859065975993988 0.0514697041325033 0.0324642620597388 0.0335367619584099 0.0136738987836635 0.0220058314207948 0.0351500871357612 0.0375754111432766 0.0203495613477806 0.0179523940370894 0.0255761334826356 0.017548911760436 0.0545753116369805 0.0454455886487463 0.0722237162209316 0.200057697335703 0.124568162957525 0.100385571283662 0.0910438850755902 0.122665520387135 0.203826893883073 0.139193097326249 0.211353623022658 0.0578782077550602 0.0454869059850676 0.0408801777590286 0.0241372741406487 0.0237882694689823 0.0158214030325118 0.019294292304568 0.0563906231472638 0.041351335581401 0.0357795201996422 0.0163141483189229 0.027165509890524 0.0229349376368788 0.0341929881719165 0.0682367221884619 0.0887049443828453 0.0605767285311105 0.16470314100294 0.173619030497474 0.104051903750991 0.0965271519077944 0.146778065347906 0.353980839201282 0.228382400531547 0.769158776836507 0.506761668877125 0.407685415020334 0.25096603842293 0.428025659354542 0.250576409171957 0.673468592660876 0.51964204874155 0.896633096128638 1.05737749678903 1.7152582229775 2.8406883778562 2.66691259173326 1.6372276800953 1.08104709232781 1.90820023650127 1.86522147869663 0.885792827080125 0.907537809802525 1.45793565397172 0.71913659958624 0.469711923195853 0.344208426479094 0.330628534568286 0.700616676290892 0.409636014154511 0.334532751273609 0.802065574796363 0.945055456663914 1.50090374010175 1.40317541599846 2.08846617104742 3.36904900760546 4.52546059949677 4.40367137384327 8.09716383811434 10.0401959160171 23.6192038670993 15.9336547489635 10.2531557926998 20.7856787713993 18.2657356558394 12.0838770629423 8.27300390517347 6.15698445505656 7.4213955435146 3.14143152582462 4.00322334311393 3.08707702293212 7.5426289389824 6.13606164284586 3.89354128017338 4.66387529680648 8.10456209984005 7.37524372864118 11.1831063675427 23.6037466971776 15.9185037065529 16.1680784892709 23.4777122347331 12.3232914002176 11.2934666027198 14.1367028728587 21.817264468796 25.9825209680147 52.4107290334363 41.7470518873453 52.49611108656 29.8286889008094 27.876983377574 43.5706737314426 51.2748464659548 64.8247645152559 79.0064791349448 91.5326340241088 76.7716646971716 89.4600776923301 75.0353886567709 89.4583462267639 89.639794992832 55.8504392875482 74.865977875898 74.8427770850418 42.0994269560016 39.1308111063856 31.7234959048695 45.2072931616274 33.8617145972953 25.340080252894 40.2995889187888 56.6002212749335 75.6710573144119 85.5100754281295 86.1031458567086 72.4536705025083 77.9334486740666 91.5395579499448 82.9189803668706 91.2392174171583 58.7369648314998 64.9604128510263 60.4360912140734 46.4912961902678 43.5262081178897 34.1534078494797 35.5577591045512 25.6393069014122 26.5583871737968 40.0680362529088 48.3570671177321 17.5010207414111 18.914909230473 12.2230738202852 7.0133953076788 4.27036996417567 3.20562386154827 3.51875751114756 7.98429136772302 5.37078713562168 5.26841114859976 3.02125775557574 6.6319588837279 9.85762641524516 13.2269693666305 19.5695155727462 23.3828395018976 19.8858632346718 22.3029740119962 14.6085457995435 10.9981089316897 12.6070321980511 4.56688769563638 4.70000913052988 3.08941978145708 7.32734574593228 5.43757386425006 7.49375194150348 3.53440535898375 3.54950835291056 8.45014280372446 5.44505580682881 12.801646527374 11.5393575265537 19.7402006205519 38.7126571523942 41.8929831933497 50.9384000270353 26.9451549571301 26.4922145771289 39.4610253260751 51.8169289140129 73.7566370944598 76.0740032053227 88.7021050564925 81.2327593008421 65.4917056164925 66.8275131831013 82.7186032668963 92.3077312692188 90.248830328216 77.1971234866015 58.8343358889214 56.0303191890334 33.7194952404042 28.9720791852026 36.6713136612816 47.8647829033236 49.6367706071732 34.0385867103526 29.4211329580094 58.9708631985962 55.5803799393146 76.3587010126365 89.2315177241132 78.0764293542951 80.1063560871227 88.470022602321 63.4068825450595 91.3695042732739 78.4288704684251 86.7784402198612 73.159554937224 61.8692693523295 47.6352091036552 41.4841355273979 50.0926087362307 26.8943300545374 35.6187885112809 37.8928794131619 49.3558558508775 51.7549194299808 29.6613964443295 35.4598607977528 21.4439089792212 10.0328913003748 15.7686568974275 15.9777954091433 23.7370177589661 20.9760674475744 12.3495324290794 9.85981029924573 5.18240059386116 8.889739861523 3.69189009368467 4.51768723285092 2.94278177567437 6.70792582550656 6.73942366256879 4.33913563971827 3.54510009948308 4.33424916836209 3.1675176874808 6.69546059038777 9.31008456741592 10.971305559116 19.4354563904753 17.0541633017942 14.8568422632503 14.1687204408361 10.0586088866375 20.9155196541689 23.0459258553239 18.0405236124305 11.575638421493 8.20477679464582 6.86560044710638 4.56058271672353 3.1592562333351 4.72029221623494 1.90189450242177 1.43956471058264 1.91791418649299 1.97713929557446 0.842707937244861 0.846949330976747 1.43178611410718 0.54726078792559 0.284984943005921 0.290443324095898 0.325623160770509 0.812370802028995 0.544216358204547 0.568802600041746 0.337177530709252 0.201545854668934 0.197051426736475 0.133238333427118 0.0562263901072831 0.0763355950877982 0.0572074851301293 0.0302236580213465 0.0207573700154525 0.029662392459441 0.021545637091628 0.0200814018520626 0.0300720047129048 0.0621354105016064 0.0873189980677504 0.167899370415868 0.173706483818639 0.184973168427076 0.0736573342684873 0.109974291847029 0.0622063521834383 0.0889878847136929 0.0343438968577996 0.0217587005295596 0.0294752960591747 0.0457434017080919 0.0435562762381465 0.0168435399624224 0.0158472205312749 0.0268128300261188 0.0274655793397879 0.0772446454573139 0.220322966561575 0.119035637220799 0.280133775656585 0.736835050462014 0.704025285590968 0.286349105468403 0.555419530666587 0.609125759343314 0.456875420167022 1.13297060578857 1.08150352631378 1.44916423147565 1.65816376550043 2.79776579149778 1.83084967706273 1.64231485447668 0.8918446380705 2.10030837165639 2.30307368777469 1.62685279504625 1.06148278266956 1.21349905048849 0.841166684257075 2.09838007499021 2.61927718769545 1.59199769353998 1.0426789011637 0.57866336137368 0.535296927264758 0.317718254764878 0.329569077532682 0.328539075655152 0.508845232392939 0.462236573907045 0.117137895460309 0.199566631960295 0.0890791368139666 0.0742483194447051 0.042810745820642 0.0181072106752282 0.0178090702974948 0.0224236562489929 0.0494310401186455 0.0373099780298489 0.0419699164373615 0.0255477350337581 0.0219170616172858 0.0662705708649539 0.0672456641766579 0.110704315372499 0.185813101839191 0.196838430951873 0.126597758961641 0.0778459409927607 0.116281030339054 0.0359564916124693 0.0280168358590934 0.0141838812165944 0.0404708258150383 0.0290791085833009 0.0164374093089999 0.0148457331211405 0.0249074901826295 0.0386445367558222 0.0678196560806736 0.102518659688842 0.178327125342644 0.251361809201318 0.409891222844784 0.647818534951002 0.740148684089938 0.436189494621859 0.275050192168708 0.246800151122306 0.364234198797453 0.59382070030512 0.759433629208748 0.860579504749493 1.42277599098092 1.25027877811231 2.28302442200725 2.51156566992925 0.979407752365327 1.62884072380173 4.31207876638193 7.61256267224009 6.67917029715122 10.8024094585532 15.3643348394521 23.5140294598458 13.1797685702274 16.3303509593257 22.6305575737825 15.0621301856721 11.4009515861335 7.56410972239896 5.88455018806176 3.48897746558593 3.61823172232577 5.67603445394033 7.87238053964118 7.37101422271552 3.0048996519569 4.6779939447437 3.88766849979042 5.46933655150376 11.011756114395 9.09945647527715 12.4708625918505 20.7354715176507 16.3123720825181 22.6774224850893 20.5172212381034 12.1453497678841 18.3646074860862 41.8187107863129 38.9461969528156 31.0305402760586 32.0993486155974 25.6127541761168 40.072571787811 43.9011248284945 56.7984731064981 75.8480174331906 85.6455396656365 89.6814790574739 55.9284897301505 74.8665227650135 74.9239837133142 89.4632394646937 89.4631103961194 75.039189791383