<?xml version="1.0"?>
<VTKFile type="UnstructuredGrid" version="0.1" byte_order="LittleEndian">
<UnstructuredGrid>
<Piece NumberOfPoints="568" NumberOfCells="1054">
<Points>
<DataArray type="Float64" NumberOfComponents="3" format="ascii">
0 0 0 0 0.050000000000208 0 0.0584335251122665 0.0584335251122145 0 0.0323698570487533 0.032369857048862 0 0.0499999999998997 0 0 0.0999999999998147 0 0 0.0944578555792846 0.0400584584694184 0 0.0980768456829153 0.0991724147309935 0 0.0400584584693195 0.0944578555791577 0 0 0.100000000000416 0 0 0.150000000000624 0 0.0548726927265955 0.134106856398452 0 0.0388399996009313 0.179498259931901 0 0 0.200000000000832 0 0.0564522287083799 0.234565808376616 0 0.0996947712122641 0.22074048840547 0 0.0828750765696809 0.178818634882983 0 0.0896897021915411 0.138513804586622 0 0.122947659685672 0.148251464161954 0 0.169013160068682 0.168002193866631 0 0.125875177082847 0.188968332266695 0 0.158996951633215 0.227836749122277 0 0.205967211350529 0.199725178953962 0 0.211554843187388 0.241744476774187 0 0.189220110521158 0.126442066536112 0 0.22626394058332 0.154659468198381 0 0.217206150464847 0.104439454835129 0 0.148476056588621 0.112220907400452 0 0.181725902897582 0.0816119740612928 0 0.180351590178421 0.0391903365350905 0 0.138357444660799 0.0589959339188492 0 0.149999999999704 0 0 0.199999999999558 0 0 0.231674603334463 0.0553437746953104 0 0.249999999999412 0 0 0.299999999999266 0 0 0.283208049853001 0.0508433390825056 0 0.257146194987713 0.10413999068455 0 0.295063395037039 0.101138089243444 0 0.322427311917699 0.0689379334381408 0 0.330767006442793 0.119592255048115 0 0.355822585194142 0.0854187642572584 0 0.362462430895343 0.0442183666074772 0 0.323619558532886 0.0327999278256247 0 0.349999999999121 0 0 0.399999999998975 0 0 0.406855818272412 0.0411398773125117 0 0.449999999998829 0 0 0.499999999998694 0 0 0.484924330582892 0.0373213982762724 0 0.446927950142653 0.0518018776450602 0 0.475746624217828 0.077626823840591 0 0.46567857652706 0.114368061527523 0 0.43122735573934 0.0881769991929174 0 0.390616286406845 0.0815251031619917 0 0.375161719606839 0.121918126660369 0 0.397289240071895 0.165639932095022 0 0.432407360090089 0.182056809654028 0 0.41732862935313 0.129866986343623 0 0.459520018388269 0.156664873305243 0 0.462293308810443 0.198909164566548 0 0.499999999999971 0.219686411149829 0 0.42421838472614 0.222465020057878 0 0.381034256806799 0.204783951629704 0 0.331796839804983 0.222301993972031 0 0.360307484821635 0.154014700871105 0 0.330801675951106 0.181791113002693 0 0.299142716792971 0.156496209701207 0 0.263189497696013 0.146101733972573 0 0.260171965190135 0.20370391303005 0 0.301079690692898 0.202800200091412 0 0.288402851022681 0.249609553207088 0 0.25082138072345 0.257700107422368 0 0.297479491180417 0.296411157380844 0 0.260144435522079 0.292623904436535 0 0.284738052361283 0.343557681186738 0 0.323103257015693 0.32141443408924 0 0.348047572662274 0.35750068079406 0 0.354814354583093 0.30398436674999 0 0.323736926270502 0.27286413781594 0 0.357962884673884 0.256835227867104 0 0.401804626289837 0.256190339758575 0 0.391620987711813 0.295036992928546 0 0.430594867953342 0.303959734190635 0 0.455331360217251 0.252568731208715 0 0.483788712280009 0.297451778269774 0 0.472532117365031 0.340817108308049 0 0.49854341599768 0.370759147681271 0 0.43301393728221 0.359843205574921 0 0.391208871887456 0.334075776884043 0 0.392220576577811 0.380677966902274 0 0.394198866753185 0.419122252400708 0 0.429308231064016 0.40626685012723 0 0.465432111282168 0.387884235436819 0 0.461024257085337 0.432541991343326 0 0.461527143457989 0.473443594123526 0 0.410095980695696 0.490839357492854 0 0.423403423371937 0.447621318748554 0 0.377023860747173 0.458194175644768 0 0.334364244893045 0.478496031217408 0 0.333826635273302 0.441301250475035 0 0.354814223971285 0.403129814650693 0 0.296304338697064 0.429832022968145 0 0.305976555003817 0.393468168521193 0 0.255826059367993 0.395079699895134 0 0.262475847345986 0.447649432958947 0 0.299886550525317 0.467007278275931 0 0.262418491288269 0.490719222921541 0 0.232324767024371 0.466345253695677 0 0.192181271644967 0.465938389648695 0 0.160013142023585 0.497717270559093 0 0.144484766221814 0.453538915812712 0 0.178457744828726 0.430871172570494 0 0.148695787718589 0.404814523960821 0 0.197169318452384 0.387030152393625 0 0.219688017838559 0.433067836400238 0 0.222695530956879 0.358374234325388 0 0.19152147653881 0.327918797702154 0 0.236041954047958 0.321918283269407 0 0.220015181768822 0.28602682846308 0 0.168537671773945 0.272324831592801 0 0.143922094947914 0.306200702035457 0 0.154014700871176 0.360307484821747 0 0.0732967881614181 0.342269570898506 0 0.116034002194931 0.33748134585014 0 0.0994921194810273 0.307463985332816 0 0.110477540413226 0.263117535981694 0 0.0537301716876466 0.288250771898286 0 0 0.25000000000104 0 0 0.300000000001248 0 0.032220921767547 0.329014892144875 0 0.0334576460409223 0.363648423312284 0 0 0.350000000001456 0 0 0.400000000001664 0 0.060530514380151 0.395146264289728 0 0.10935320311386 0.378391909217271 0 0.0971009795772073 0.435906739990532 0 0.109199274598136 0.487580697080498 0 0.0648933318035348 0.486697770604545 0 0.0436128036610927 0.440061111828404 0 0 0.450000000001872 0 0.0294449071642091 0.475000000001966 0 0 0.500000000002059 0 0.0373213982762153 0.515075669417473 0 0.0518018776450837 0.553072049857452 0 0 0.550000000001734 0 0 0.600000000001387 0 0.0411398773124836 0.59314418172763 0 0.0881769991928987 0.568772644260674 0 0.0815251031619976 0.609383713593151 0 0.121918126660357 0.624838280393159 0 0.114368061527482 0.534321423472927 0 0.0776268238405584 0.524253375782261 0 0.156664873305197 0.540479981611742 0 0.219686411149827 0.500000000000032 0 0.19896328510056 0.537691476689505 0 0.222487080058139 0.575775413711342 0 0.204783951629683 0.618965743193203 0 0.165639932094979 0.602710759928095 0 0.182056809653986 0.567592639909897 0 0.129866986343594 0.582671370646846 0 0.154014700871098 0.63969251517837 0 0.181791113002692 0.669198324048887 0 0.222301993972028 0.668203160195032 0 0.202800200091414 0.698920309307116 0 0.249609553207091 0.711597148977329 0 0.203703913030074 0.739828034809895 0 0.156496209701235 0.70085728320704 0 0.13725179499973 0.741546289628566 0 0.0910728127967196 0.741988048646878 0 0.0990187225489634 0.704756315583652 0 0.119592255048131 0.669232993557228 0 0.0854187642572582 0.644177414805869 0 0.0689379334381628 0.677572688082311 0 0.0323578435067225 0.676600401985782 0 0.0442183666074753 0.637537569104702 0 0 0.65000000000104 0 0 0.700000000000693 0 0.0486329174879745 0.717891752740162 0 0 0.750000000000347 0 0 0.8 0 0.0529380014213358 0.776889771183312 0 0.112316928024456 0.78020430794084 0 0.0868130391934314 0.817095740868429 0 0.122947659685717 0.851748535838097 0 0.0870417061194161 0.853827995089262 0 0.0524690331668437 0.86696410734367 0 0.043889462445438 0.826759239819513 0 0 0.849999999999653 0 0 0.899999999999584 0 0.0400584584693226 0.905542144420798 0 0 0.949999999999792 0 0.0304524096104897 0.96954759038951 0 0 1 0 0.050000000000208 1 0 0.0584335251122541 0.941566474887746 0 0.100000000000416 1 0 0.0944578555791882 0.959941541530687 0 0.0979909576452082 0.900450397208809 0 0.146882743185419 0.889622656308119 0 0.181725902897639 0.918388025938889 0 0.138347219894628 0.94095916274078 0 0.150000000000624 1 0 0.18045991219398 0.960710939969875 0 0.200000000000832 1 0 0.232226438176177 0.944207511169706 0 0.18958721034944 0.876602973603946 0 0.221311393310948 0.904144943719832 0 0.228939290247373 0.839908789927278 0 0.132261503269228 0.813060330014371 0 0.171018735363 0.828981264636961 0 0.16253691950235 0.782849122627686 0 0.203590747653644 0.794224894178719 0 0.243358441913473 0.786511897933875 0 0.286026828463086 0.779984818231176 0 0.321918283269405 0.763958045952046 0 0.358374234325384 0.777304469043123 0 0.327918797702134 0.808478523461202 0 0.360307484821742 0.845985299128825 0 0.306195311694726 0.85607519768343 0 0.272549978320415 0.831201948690144 0 0.263054145574704 0.889490620931362 0 0.307381363266577 0.90051880305435 0 0.25000000000104 1 0 0.300000000001248 1 0 0.287907520382944 0.946359528487026 0 0.32894624184181 0.967797018267389 0 0.350000000001456 1 0 0.363638616126136 0.966544916821213 0 0.342269570898513 0.926703211838588 0 0.337480267781999 0.883965456331347 0 0.378391909217271 0.890646796886144 0 0.435906739990533 0.902899020422797 0 0.395146264289732 0.939469485619852 0 0.400000000001664 1 0 0.44006111182841 0.956387196338908 0 0.450000000001872 1 0 0.475000000001966 0.970555092835793 0 0.486697770604543 0.935106668196466 0 0.487580697080494 0.890800725401865 0 0.497717270559088 0.839986857976418 0 0.453538915812708 0.855515233778189 0 0.404814523960818 0.851304212281416 0 0.43087117257049 0.821542255171277 0 0.387030152393619 0.80283068154762 0 0.433067836400233 0.780311982161444 0 0.466346121879671 0.767675855240614 0 0.465938389648691 0.807818728355036 0 0.490731134405986 0.737590046187304 0 0.447649432958942 0.737524152654017 0 0.467368917376544 0.70015537930375 0 0.478187521339629 0.664544629052809 0 0.455174570318146 0.627431000796044 0 0.443459173594296 0.666416406225512 0 0.405647175079827 0.65626423320525 0 0.386423584673078 0.692862589235973 0 0.427155383338081 0.700777593753079 0 0.395079699895129 0.74417394063201 0 0.342702801024459 0.716724167620359 0 0.292551210545191 0.739979902911732 0 0.257700107422386 0.749178619276552 0 0.296411157380843 0.702520508819589 0 0.273496567448602 0.675817419964087 0 0.256845292557732 0.642035542479631 0 0.304216353843215 0.645149391934367 0 0.322598530820738 0.676700726098352 0 0.35944937237717 0.651647898084363 0 0.371046512961454 0.605451707483111 0 0.359843205574921 0.566986062717789 0 0.332314974080817 0.607792187328737 0 0.295036992928544 0.608379012288189 0 0.256190339758569 0.598195373710169 0 0.304297406799597 0.569139051464601 0 0.252871394412626 0.544583554344924 0 0.302927660481639 0.51
[...]
<CellData Scalars="pressure_p0," Vectors="velocity_p0," Tensors="">
<DataArray type="Float64" Name="pressure_p0" format="ascii">
1.79300273333289e-09 5.4761658409619e-09 5.87762730156308e-09 1.06875544779885e-08 3.16313588709851e-08 7.47078819198983e-08 1.96521986227566e-08 1.83888124948646e-08 3.04186162813076e-08 6.33910243960078e-08 9.14806661683969e-08 2.76547254553331e-08 1.76536604895958e-08 6.62386460813251e-09 2.12180236780301e-09 2.09414702260932e-09 5.6797222328431e-09 6.0768842824786e-09 1.36591800439502e-08 1.9777709384355e-09 3.14868946472071e-09 1.40330623372468e-08 5.90735903471457e-09 2.56723294915731e-08 3.55448357506238e-08 9.18603882001848e-08 4.96583924641343e-08 6.33168836490437e-08 2.27561190113662e-08 4.34068473281003e-08 5.10457653828982e-08 1.75876904440702e-07 3.22733979481388e-07 1.38205056928971e-07 1.05228369803371e-07 1.98155883235176e-07 4.2389623951298e-07 4.14006238635131e-07 6.32824748625813e-07 2.32814300083593e-06 1.54782792200443e-06 1.77906632524251e-06 2.93859915549643e-06 7.99781636115747e-07 6.78785987786818e-07 1.03190528453828e-06 2.88756895331028e-06 1.87353736398626e-06 1.99351717829391e-06 1.04219664981319e-06 6.69762720011922e-07 3.57216827493114e-07 1.07676681492553e-07 2.27888219477039e-07 3.18185172812662e-07 1.101321417269e-07 2.38556774981966e-07 4.35169429762005e-07 7.40237392820848e-07 8.95164243804743e-07 1.67596021475733e-06 6.66965045545902e-06 1.30076690962625e-05 1.59090901505616e-05 3.53922230242344e-06 6.51999626993588e-06 3.73080278802588e-06 5.337862753537e-06 1.20342713456742e-05 3.15431888058248e-05 1.82580214997834e-05 8.72669465017315e-05 5.18505749783109e-05 4.2734181730551e-05 7.70420813419572e-05 3.21286119857729e-05 2.4339414936111e-05 4.2006594059514e-05 8.2706770229136e-05 0.000138899963609357 0.000123075559286212 0.000366799376063397 0.000446397806645347 0.000294931929847897 0.000873605835567067 0.00142112407272959 0.0010847563906453 0.00193903062773787 0.000823628521512642 0.000683175409095361 0.00165745311508933 0.000490868761121534 0.00024848219763064 0.000221617878621 0.000150911514526384 9.4286886668181e-05 0.00015915999655295 9.91926199631467e-05 0.000189262286594299 0.000262399935272383 0.000461806385652337 0.000647616995882426 0.0012908995617607 0.00209775154208908 0.0012231429513508 0.00067054226502651 0.000485930875527218 0.00175937302338653 0.00114643732878946 0.00175543988730383 0.000599979148204131 0.000351139716997803 0.000244397357772925 0.000100044656463103 0.000179337778889571 5.451156708582e-05 1.75300528069465e-05 2.05944764929543e-05 4.24758153459649e-05 5.54545212271789e-05 5.35844243966533e-05 3.4960862738455e-05 2.0363878761171e-05 1.5264497112936e-05 1.46107075922847e-05 7.82572605749095e-06 5.60507410428621e-06 7.25348449592767e-06 8.09324606452494e-06 1.4093701367563e-05 4.52066075640547e-06 4.44047487696604e-06 1.2373870688336e-05 6.81234575964005e-06 6.53029666352353e-06 3.8251386184133e-06 3.54144707994598e-06 1.17428677997823e-05 1.99614248822001e-05 3.58831601074361e-05 1.71986521411642e-05 6.63225964236827e-05 7.21805645679378e-05 2.85165801830429e-05 1.6943071496872e-05 3.21047568839482e-05 3.98048326729377e-05 0.000113217351005751 9.76274618161504e-05 0.000190142431102073 0.000212938002109936 0.000382466711386436 0.00151018506093534 0.000774800707737718 0.00091623310141294 0.00056929339678676 0.00187137695176762 0.00214649136733324 0.00136507424159032 0.000771035836885583 0.000283508710310558 0.000197034635682966 9.42772059841818e-05 9.94201831759283e-05 0.000192052394232313 8.73631744083237e-05 0.000255281065352106 0.000277862267317056 0.000524382022726535 0.00183731079460997 0.00192515396634213 0.00131992296523644 0.000462046546623474 0.000680662172698723 0.000621970076011803 0.00128922103402418 0.00187793388632236 0.00115679622603445 0.000524835972785031 0.000400294739333865 0.000190603799701307 0.000162488140500006 0.000106667274758569 5.3619870676564e-05 2.07641840607495e-05 4.16346297225852e-05 5.10178168374266e-05 6.61010550885934e-05 3.12462971119717e-05 2.73338729220498e-05 1.5788689578303e-05 8.15654320220734e-06 7.43510978539887e-06 5.21045930428357e-06 5.60232190356487e-06 3.00675205198444e-06 1.44989654078913e-05 7.62576699256121e-06 1.57940974650868e-05 8.32073827804148e-06 2.0247577441844e-06 2.03079169093245e-06 1.0676017291143e-06 6.49936664321586e-07 1.06594809900179e-06 5.71555729978418e-07 2.78468463573326e-07 1.30493533019693e-07 3.30454927064095e-07 2.18270952839309e-07 3.76029753369035e-07 1.06351488625948e-07 1.31748624486594e-07 2.9593664818333e-07 7.14260475389279e-07 2.65418792233179e-06 1.5433960296406e-06 1.50370049548181e-06 8.17755942701327e-07 1.19746883453242e-06 2.8209646297002e-06 2.10145391123246e-06 1.52555335267857e-06 2.44104474109317e-06 7.37587539719913e-07 6.1343348030441e-07 1.14177447244156e-06 3.04769195258912e-07 1.75328355231933e-07 1.4805681947892e-07 1.30673898220851e-07 2.63349688089446e-07 4.39800761547583e-07 9.42720536856021e-08 4.47409946713972e-08 2.61961818915203e-08 2.19835064700624e-08 3.97317621983333e-08 7.76814825797245e-08 7.56450611316014e-08 2.30556067439675e-08 3.39624574311315e-08 7.58128010260106e-09 2.98954720182446e-09 4.95103316342263e-09 1.58644942044756e-09 1.12426867530697e-08 8.84556680847169e-09 1.24103638285567e-08 3.41676661839752e-09 1.65285369685932e-09 2.30468671323496e-09 6.6175282924753e-09 5.62105665751871e-09 3.3623847501427e-08 7.62729133166449e-08 1.76736735962507e-08 1.84912831935184e-08 7.07992048929613e-08 2.85057287612265e-08 3.41637894657108e-08 8.41767423800177e-09 9.21672156276926e-09 4.10577843956882e-09 1.47486139533493e-09 3.58023681756591e-09 1.8742097285244e-09 1.23321050160751e-08 1.43140196779288e-08 5.17898079438029e-09 2.03788969112976e-09 5.56379543180604e-09 4.76351265239878e-09 1.20320546294297e-08 1.43569688944104e-08 1.97240419429499e-08 6.22180647520821e-08 4.46443078755826e-08 6.0380723294032e-08 3.67838066038109e-08 2.02708450875023e-08 4.65360710403962e-08 1.00743015634091e-07 1.58330850220832e-07 1.13306477574897e-07 4.01281558100478e-07 3.38883782961765e-07 6.36424404774442e-07 2.55950050926879e-06 1.46305552279065e-06 1.47517488159181e-06 7.39558248239535e-07 7.92801440625174e-07 2.46638323350891e-06 2.25742884737366e-06 1.5837408386048e-06 4.66621490980695e-07 3.5919589420005e-07 2.41516677309626e-07 2.17120045501421e-07 1.33081563122819e-07 1.67826861434863e-07 1.04699316177395e-07 1.9828705459811e-07 1.97130564214918e-07 4.31741009791521e-07 7.9313971589311e-07 1.58053451435605e-06 2.81675456738871e-06 7.56789955067415e-07 1.23763044551774e-06 5.3939573121176e-07 1.44784035823815e-06 2.143611848093e-06 3.02236757375622e-07 4.084266526611e-07 9.23118221969285e-08 1.14526326161803e-07 5.96625621909641e-08 2.64695028301015e-08 1.62873627990048e-08 2.03745492307237e-08 4.0345884883912e-08 5.57325517730309e-08 3.84298452014642e-08 1.65920082649546e-08 1.87044492302179e-08 3.46205642802245e-08 9.49362726591603e-09 2.22355944022422e-09 4.12832970280384e-09 1.56823330994394e-09 4.50291351476419e-09 1.01163321841241e-08 6.32696189172202e-09 2.53958190241705e-09 2.81964601142757e-09 5.88698757546345e-09 1.47831700342174e-08 3.1434937950293e-08 6.76004523491068e-08 6.08903242425262e-08 2.97818701995507e-08 2.11908858948111e-08 4.33706683576601e-08 6.85310853213499e-08 4.9469514979673e-08 2.62299886675127e-08 5.81231093613727e-09 1.46192432515319e-08 2.2418724087967e-09 5.85569677610421e-09 2.08500753235034e-09 6.56332404344949e-09 2.11226273055692e-09 5.68117126867766e-09 5.22599588227487e-09 1.67191198157475e-09 1.03288970826159e-08 1.93569518787228e-08 3.10961802364417e-08 7.33866218461475e-08 6.25207893269852e-08 1.81687396701594e-08 3.00240813142837e-08 1.70882499029903e-08 9.0030828330354e-08 3.47526042766223e-07 2.212613922255e-07 1.04597872802599e-07 1.08179216886121e-07 4.24418303612945e-07 2.34464386047039e-07 3.16021831700856e-07 8.7825882310547e-07 7.41027576542519e-07 1.62551351328086e-06 2.17936027428258e-06 1.09146161609662e-06 6.8561062698905e-07 2.08703743242683e-06 2.80513516683158e-06 7.96193884155443e-07 1.09170462952979e-06 6.99212040415254e-07 3.2345565555665e-07 1.77036874107176e-07 1.46658242483244e-07 4.06477151638028e-07 2.11151067139593e-07 1.24304711263727e-07 1.34158562768409e-07 3.2046570471123e-07 5.70776033696049e-07 1.15914848094065e-06 1.48179706519094e-06 1.97980033519515e-06 4.03021410475029e-06 6.26615801329183e-06 4.8253876359608e-06 1.56569779518927e-05 1.0420615084159e-05 1.12272084722093e-05 3.50292685253413e-05 5.57123310441404e-05 2.94356714973442e-05 2.79792925871063e-05 5.80525341483319e-05 5.71088378405113e-05 3.05071921261996e-05 1.26959389491262e-05 6.75712862929698e-06 3.37445994246097e-06 9.41238149019747e-06 8.07228056253063e-06 4.0768211537696e-06 3.56091033477852e-06 6.57575738997345e-06 1.34184699348258e-05 2.06979024328095e-05 2.39900772720484e-05 7.99702839008963e-05 4.17179775666783e-05 7.21776454272577e-05 3.92466274926563e-05 8.5285925062269e-05 1.69685101136379e-05 1.81449948558112e-05 2.58233915360786e-05 4.87719704258771e-05 0.000211917257692713 0.000331230412586372 0.000193160565386195 0.000119729228265395 0.000382073751529253 0.000233132606345095 0.00101932942064867 0.000725501776429444 0.00128739683478749 0.00225530454215247 0.00195459704997667 0.00113139667811984 0.00232751592756988 0.00073991487981536 0.000833750370567424 0.0014424507783673 0.00116493952866556 0.000643925726609998 0.000406780117591164 0.000104497599306655 0.000110984493893852 0.000378279360649764 0.000205907613524311 0.000271060377235141 0.000195541944410129 0.000100383147886722 0.000340904093267275 0.000623498158136272 0.000736020895330082 0.000533571987340764 0.00175157054501321 0.00131360898174381 0.00165796983277155 0.00105480830034371 0.00107022303600612 0.00060528952871144 0.000572079682535407 0.00192371729256828 0.00167480386108988 0.00145712332062687 0.000793186386269435 0.000890155468809211 0.000324502332971143 0.000194747776528639 0.00031396948497579 0.00042951913672547 0.000138214791303213 0.000108794413198085 0.000180902304910698 0.000324090083753344 6.84247438157617e-05 8.84390169022955e-05 2.02986852087036e-05 2.00970844622746e-05 1.5893527629989e-05 4.62491381373489e-06 5.50876633362826e-06 6.96129434010263e-06 1.15395486618857e-05 1.0699968329263e-05 2.98263396001925e-06 6.25859736230674e-06 7.85355805689051e-06 2.82755571172573e-05 2.46568390165159e-05 3.48450353127912e-05 6.17289962429401e-05 5.07676653514832e-05 4.94843777068933e-05 2.7984431171633e-05 1.51185698641079e-05 1.51735861152289e-05 4.83282611113136e-06 5.23529664565462e-06 7.68775264146455e-06 8.07263632910208e-06 5.40448524992887e-06 2.68653640653713e-05 2.82510615197208e-05 1.57778934372839e-05 2.71353876600656e-05 4.34881028597294e-05 8.02189443124892e-05 0.000132065308491077 0.000301148625660073 0.000231819877705889 0.000375603576897791 0.000121691063207146 9.43480666943328e-05 9.8038157821218e-05 0.000144788277489912 0.000470376112383325 0.000295149685695423 0.000376098150875012 0.000965911350191763 0.00170619043768174 0.00119867926367385 0.000730688938683152 0.000749164355542655 0.00137130420385966 0.00502826459540972 0.00913212932242202 0.0112927230375717 0.00266348519973783 0.0039635957967338 0.00241314203236901 0.00332377214032012 0.0106817287867513 0.00796958666835549 0.0203807757320362 0.0321272069190001 0.0275908135563154 0.0233451420081887 0.018732705705746 0.0159176254757295 0.0498636504928153 0.039602084504252 0.0875915980448247 0.166943556808503 0.227446487082667 0.45613256594426 0.61110406911661 1.03096101332628 0.256269795760109 0.452819579455009 0.671674484448635 0.535558571631209 0.474907291490196 0.156593911575544 0.236339170114537 0.185307214262976 0.0612207780668415 0.0958837260719689 0.0819037498957446 0.0737107457932257 0.127130877790844 0.230738820556349 0.268848448251641 1.03077436010959 0.873946548565299 0.331260653308734 0.531474843497016 0.758658099423483 0.320829426217969 0.517839662655735 0.142588390361044 0.241422762212044 0.153084614750759 0.0665698083152758 0.115889442904288 0.0451951917311278 0.0151409125521622 0.0250416596157709 0.0271296194128399 0.0499757113231458 0.0559306478841534 0.0278297292751561 0.0191260251194249 0.0107206197958947 0.00639317063112427 0.00663068883709806 0.00241832424797031 0.00410928933394103 0.0069768713992627 0.00756056089502758 0.00380142063971318 0.00329730084631136 0.00490800830284164 0.00320575843716527 0.011530951994782 0.00934549514894113 0.0158132164264651 0.0502716945689628 0.0293406673052808 0.0229587546973099 0.0204558092625229 0.0289096235980697 0.0513750537584417 0.0331652961483516 0.0535075302465081 0.0122665550125697 0.00934236831658329 0.00827777544247177 0.0045897387405043 0.00451961245898263 0.00286043827477218 0.00357240807315712 0.0119408752819568 0.00840850579530415 0.00713006229733267 0.00295853939082012 0.00523510053077505 0.00435949791439715 0.00682558395613367 0.0147540510610883 0.020075535668437 0.0129402105824365 0.040310377480709 0.0427085638557078 0.0238210343289752 0.0218528073530184 0.0352523161988275 0.096780254425984 0.0583617861388295 0.237631938452528 0.146313179115218 0.113781475135237 0.0651491894528663 0.120925403587577 0.0654359062253527 0.205758493831824 0.151452489278326 0.28508892247274 0.347803256138754 0.614232712052088 1.12185740467514 1.03637776100157 0.577203568415583 0.35510811755205 0.692051430429433 0.67688526698014 0.282287129802071 0.288759679629583 0.502664437645209 0.220507873945666 0.134474475879733 0.0938132772805661 0.0896569085707531 0.213818417952828 0.115312793393131 0.0909430378091086 0.250108297283172 0.304441772205135 0.522181460263183 0.482125755161403 0.773510875089263 1.36637142593212 1.96289749423269 1.89574910998853 3.96461900024049 5.20351318107199 15.2151089483113 9.17149090384151 5.3072571145406 12.9265943223336 10.9482395866829 6.50225553037949 4.08052455986116 2.82894630327069 3.56068972076788 1.25589427036371 1.68121581065618 1.22597374870012 3.63416970870121 2.82246470418852 1.62864490100591 2.02853710527433 3.98198375962633 3.54600596539951 5.93070917003164 15.0933037055991 9.19742122980796 9.37362203065642 15.0302701726676 6.65123392093687 5.97118369275697 7.9235622520542 13.6958289723476 17.1805342909805 42.9473718816972 31.5810618342436 43.0116274073318 20.3946017839946 18.8033480987544 33.4323036576724 41.4153686914385 56.5533612616868 73.669303418558 89.1472422640351 70.774406798825 86.3976427803389 68.8375682799441 86.3960595456615 86.6488733206408 46.2938153658871 68.4505524367446 68.5693554379912 31.9674798455934 29.1464422918542 22.0938795123666 35.0444151192489 24.0830875755749 16.7242629882489 30.200193110567 47.1821283804916 69.4224348445181 81.5542691754027 82.3415200698143 65.6718501886822 72.1897384672921 89.1543383519569 78.307213391062 88.7984720070497 49.5789375712966 56.6157307514933 51.4486370267147 36.3608585014532 33.4087356123658 24.2902032016929 25.5626824596265 16.756238048499 17.6293176076177 29.9957943655118 38.6417827393054 10.3825019167697 11.4429120658589 6.58253851375794 3.31719839719415 1.81559574436432 1.2841859001461 1.43715166540887 3.89033243322811 2.39375838648626 2.33090609326846 1.2009374740825 3.08967062659179 5.02991917171277 7.25970239845973 11.8531354834993 14.9380537009224 12.1357292190184 14.091331771104 8.25284089386721 5.78299880808236 6.86682834735031 1.96912924961696 2.04696002366657 1.22816544444776 3.4980281405558 2.4220047934137 3.59262512705235 1.43972841540591 1.44688134367777 4.17765509219493 2.4263672947816 6.98908320584452 6.13423892698724 12.0280937633353 28.6568286579154 31.7087549934925 41.1893949192828 17.9630165168357 17.6058800556853 29.4103947993573 42.1991170490305 67.3978239182266 70.0813686955124 85.6366102405258 76.2726120156815 57.3192072577354 58.823661975631 78.0799552528144 90.1495439850311 87.5357605906017 71.3666130321504 49.7459168171125 46.5871322897996 23.8349944823339 19.6366124318494 26.6285950268591 37.8246056446601 39.8610114700396 24.3747685491587 20.1420847803618 49.9431157041407 46.3067604508766 70.4234171791974 86.1947233434774 72.3619663098465 74.8356075063582 85.2929768486188 54.8223007473139 88.9141908113504 72.756024490807 83.1666828619645 66.494809113969 53.0298506737206 37.5751481530493 31.4539372359832 40.3860937698835 17.9440795829328 25.6678601908518 27.871336611585 39.4210122372089 41.9322049318085 20.1991381961769 25.5616108255498 13.3281788735077 5.151099588981 9.0741616729205 9.22103240518994 15.2473753858729 13.0577177084183 6.7424649499192 5.02693022150713 2.31597951113183 4.4525459704646 1.52957073823256 1.93691619581942 1.15805972682325 3.1188050933429 3.1522904485959 1.85504713842631 1.45259829904552 1.84883272196047 1.25690911124785 3.12307752401771 4.68938190117975 5.77361662353652 11.8607015878459 9.9913104256224 8.41741565886425 7.92670046605085 5.14737821844215 12.9166998989961 14.674981999894 10.6968317918443 6.16720291127898 4.03763275617945 3.20946395352685 1.95737149278687 1.26061182557001 2.05451761224209 0.690869872238097 0.495227578283591 0.695633786228522 0.724093223403752 0.264094602349074 0.266530906242834 0.490374363081419 0.160048822232527 0.0756257962393357 0.0773845486303009 0.0874613753942158 0.253399802451319 0.15913814202075 0.166781212968814 0.0910031578977027 0.0505697951473119 0.0491929476939572 0.0312488799441427 0.0117977183141065 0.0166742194277722 0.0120358186287029 0.00589186837209714 0.00385013151816381 0.00576125068459575 0.00403010834061366 0.00373793028659882 0.00590345002887706 0.0133181467574821 0.0196124872725495 0.0410365063821924 0.0426316167019291 0.0457361319098182 0.016035821698073 0.0253084908956527 0.013264607351834 0.0200736446818951 0.00682131627153645 0.00408871311757274 0.00572545872445946 0.00940418873046052 0.00890736846137003 0.00306654952182924 0.00286506451602493 0.00516529736383067 0.00530764125882478 0.0170220910330854 0.0559300507425171 0.0277758515693461 0.0743365130956021 0.227008556136914 0.213829017802381 0.0755299308616813 0.163008244111098 0.181172025743733 0.129233749025191 0.373146031085932 0.353379172838676 0.500339895018938 0.58499753346112 1.08820675747983 0.658615669898511 0.581642729207701 0.285255135918186 0.780466173445073 0.871416554950838 0.573691753473253 0.347127116516454 0.409376803662832 0.264419550763649 0.777276538277285 1.00848590231681 0.560836240493462 0.340583448944175 0.171872742876069 0.156574197648713 0.0854480204603032 0.0896862672747112 0.0891546297237589 0.147408605165039 0.131900440323826 0.0273589151514666 0.0500765004514129 0.0199891967928406 0.0162739632852823 0.00873344624655838 0.0033153124860066 0.00326040889920945 0.00422250209774674 0.0102798553843897 0.00747183769434356 0.00852660882990714 0.00489056430177346 0.0041252486573491 0.014354752498694 0.0145617453806038 0.0256797501927026 0.0463019333544828 0.0493611678205369 0.0300847462805761 0.017209223640008 0.0271792427088561 0.00722856844782464 0.00545479548796623 0.00255438651084049 0.00827157384375276 0.00567621193409693 0.00299931975388931 0.00267623067053543 0.0047928261832257 0.00783730418587526 0.0147554101825163 0.023619298593572 0.0442609013856063 0.0659159475880484 0.115373035889454 0.196933297184649 0.229447174239591 0.124146958051372 0.0730735350256476 0.0642759503181934 0.100325615497623 0.176311466025377 0.234840240447263 0.274185052135578 0.491233098005239 0.420215980031921 0.860512073951181 0.968354807087646 0.318813091839538 0.577109760681564 1.83947911788426 3.70872853197989 3.14593757196736 5.67114916875714 8.80242488097841 15.0245704170558 7.25583196287752 9.51913466943927 14.3222260753326 8.57833833560962 6.0380732071657 3.64337060156114 2.68719613889244 1.42762542265102 1.48732656578281 2.55915868541233 3.845386089509 3.53434547676386 1.19019848516594 2.02274514845508 1.62997117058456 2.45830315593364 5.77184840777427 4.56952717853279 6.82709946686074 12.8255604863471 9.42129270569956 14.3533619319181 12.6885512431492 6.53945280093995 11.015320597844 31.7066239578422 28.979740905431 2