<?xml version="1.0"?>
<VTKFile type="UnstructuredGrid" version="0.1" byte_order="LittleEndian">
<UnstructuredGrid>
<Piece NumberOfPoints="316" NumberOfCells="724">
<Points>
<DataArray type="Float64" NumberOfComponents="3" format="ascii">
0.000000000000000e+00 8.000000000000000e+00 0.000000000000000e+00 0.000000000000000e+00 7.000000000000000e-01 0.000000000000000e+00 6.000000000000000e-01 7.000000000000000e-01 0.000000000000000e+00 2.000000000000000e+00 3.000000000000000e+00 0.000000000000000e+00 0.000000000000000e+00 3.700000000000000e+00 0.000000000000000e+00 5.750000000000000e+00 7.000000000000000e-01 0.000000000000000e+00 8.500000000000000e+00 7.000000000000000e-01 0.000000000000000e+00 1.155000000000000e+01 1.100000000000000e+00 0.000000000000000e+00 1.275000000000000e+01 7.000000000000000e-01 0.000000000000000e+00 1.040000000000000e+01 2.300000000000000e+00 0.000000000000000e+00 7.500000000000000e+00 2.000000000000000e+00 0.000000000000000e+00 8.000000000000000e+00 2.500000000000000e+00 0.000000000000000e+00 7.000000000000000e+00 2.200000000000000e+00 0.000000000000000e+00 5.750000000000000e+00 2.500000000000000e+00 0.000000000000000e+00 5.000000000000000e+00 2.200000000000000e+00 0.000000000000000e+00 4.250000000000000e+00 1.500000000000000e+00 0.000000000000000e+00 4.750000000000000e+00 2.800000000000000e+00 0.000000000000000e+00 5.500000000000000e+00 2.800000000000000e+00 0.000000000000000e+00 6.750000000000000e+00 4.000000000000000e+00 0.000000000000000e+00 6.000000000000000e+00 3.800000000000000e+00 0.000000000000000e+00 5.250000000000000e+00 4.000000000000000e+00 0.000000000000000e+00 4.750000000000000e+00 4.000000000000000e+00 0.000000000000000e+00 4.250000000000000e+00 3.500000000000000e+00 0.000000000000000e+00 3.500000000000000e+00 4.000000000000000e+00 0.000000000000000e+00 2.750000000000000e+00 4.000000000000000e+00 0.000000000000000e+00 2.250000000000000e+00 4.800000000000000e+00 0.000000000000000e+00 1.750000000000000e+00 5.000000000000000e+00 0.000000000000000e+00 3.500000000000000e+00 5.000000000000000e+00 0.000000000000000e+00 4.250000000000000e+00 4.800000000000000e+00 0.000000000000000e+00 4.750000000000000e+00 4.700000000000000e+00 0.000000000000000e+00 5.250000000000000e+00 5.000000000000000e+00 0.000000000000000e+00 4.000000000000000e+00 5.700000000000000e+00 0.000000000000000e+00 3.250000000000000e+00 6.300000000000000e+00 0.000000000000000e+00 4.750000000000000e+00 7.200000000000000e+00 0.000000000000000e+00 5.000000000000000e+00 6.300000000000000e+00 0.000000000000000e+00 6.000000000000000e+00 6.400000000000000e+00 0.000000000000000e+00 7.250000000000000e+00 6.000000000000000e+00 0.000000000000000e+00 6.500000000000000e+00 5.300000000000000e+00 0.000000000000000e+00 9.000000000000000e+00 8.000000000000000e+00 0.000000000000000e+00 9.000000000000000e+00 5.500000000000000e+00 0.000000000000000e+00 9.750000000000000e+00 5.500000000000000e+00 0.000000000000000e+00 8.250000000000000e+00 5.000000000000000e+00 0.000000000000000e+00 8.250000000000000e+00 3.700000000000000e+00 0.000000000000000e+00 7.500000000000000e+00 3.700000000000000e+00 0.000000000000000e+00 9.750000000000000e+00 4.000000000000000e+00 0.000000000000000e+00 9.000000000000000e+00 2.700000000000000e+00 0.000000000000000e+00 1.125000000000000e+01 4.300000000000000e+00 0.000000000000000e+00 1.050000000000000e+01 4.800000000000000e+00 0.000000000000000e+00 1.275000000000000e+01 4.600000000000000e+00 0.000000000000000e+00 1.190000000000000e+01 7.000000000000000e+00 0.000000000000000e+00 1.275000000000000e+01 8.000000000000000e+00 0.000000000000000e+00 1.000000000000000e+00 6.200000000000000e+00 0.000000000000000e+00 7.500000000000000e+00 4.800000000000000e+00 0.000000000000000e+00 7.750000000000000e+00 5.500000000000000e+00 0.000000000000000e+00 1.200000000000000e+01 3.700000000000000e+00 0.000000000000000e+00 7.650000000000000e+00 6.200000000000000e+00 0.000000000000000e+00 9.499999999992372e-01 1.274999999998747e+00 0.000000000000000e+00 1.299999999998378e+00 1.849999999997335e+00 0.000000000000000e+00 1.649999999999066e+00 2.424999999998465e+00 0.000000000000000e+00 5.500000000000827e+00 1.199999999998346e+00 0.000000000000000e+00 5.250000000000705e+00 1.699999999998589e+00 0.000000000000000e+00 4.400000000000134e+00 2.359999999999964e+00 0.000000000000000e+00 3.800000000000203e+00 2.519999999999946e+00 0.000000000000000e+00 3.200000000000143e+00 2.679999999999962e+00 0.000000000000000e+00 2.600000000000082e+00 2.839999999999978e+00 0.000000000000000e+00 2.083333333332920e+00 3.599999999997022e+00 0.000000000000000e+00 2.166666666666273e+00 4.199999999997162e+00 0.000000000000000e+00 2.833333333333118e+00 5.099999999999890e+00 0.000000000000000e+00 3.416666666667265e+00 5.400000000000308e+00 0.000000000000000e+00 3.625000000007225e+00 5.999999999994220e+00 0.000000000000000e+00 4.499999999999542e+00 5.999999999999726e+00 0.000000000000000e+00 6.374999999999935e+00 3.899999999999983e+00 0.000000000000000e+00 5.625000000000065e+00 3.899999999999983e+00 0.000000000000000e+00 4.750000000000338e+00 4.399999999999729e+00 0.000000000000000e+00 3.083333333334594e+00 4.266666666665859e+00 0.000000000000000e+00 2.666666666668059e+00 4.533333333332442e+00 0.000000000000000e+00 3.874999999992375e+00 3.750000000005084e+00 0.000000000000000e+00 1.599999999997112e+00 6.100000000000482e+00 0.000000000000000e+00 2.199999999995692e+00 6.000000000000719e+00 0.000000000000000e+00 2.799999999997127e+00 5.900000000000479e+00 0.000000000000000e+00 3.399999999998564e+00 5.800000000000240e+00 0.000000000000000e+00 4.500000000000000e+00 6.699999999999999e+00 0.000000000000000e+00 4.250000000000000e+00 6.200000000000001e+00 0.000000000000000e+00 3.124999999988985e+00 4.000000000000000e+00 0.000000000000000e+00 5.249999999999616e+00 2.499999999999539e+00 0.000000000000000e+00 5.250000000000325e+00 3.199999999999480e+00 0.000000000000000e+00 5.000000000000298e+00 3.599999999999522e+00 0.000000000000000e+00 5.916666666666305e+00 3.199999999999653e+00 0.000000000000000e+00 6.333333333333001e+00 3.599999999999680e+00 0.000000000000000e+00 6.374999999999980e+00 2.350000000000005e+00 0.000000000000000e+00 7.499999999999977e+00 2.349999999999993e+00 0.000000000000000e+00 7.750000000000000e+00 2.250000000000000e+00 0.000000000000000e+00 8.166666666666181e+00 1.900000000001745e+00 0.000000000000000e+00 8.333333333332911e+00 1.300000000001518e+00 0.000000000000000e+00 8.499999999999950e+00 2.599999999999990e+00 0.000000000000000e+00 9.466666666664466e+00 2.566666666667295e+00 0.000000000000000e+00 9.933333333329530e+00 2.433333333334420e+00 0.000000000000000e+00 1.078333333333231e+01 1.900000000001070e+00 0.000000000000000e+00 1.116666666666699e+01 1.499999999999660e+00 0.000000000000000e+00 8.437500000000002e+00 2.875000000000001e+00 0.000000000000000e+00 8.875000000000004e+00 3.250000000000002e+00 0.000000000000000e+00 9.312500000000002e+00 3.625000000000002e+00 0.000000000000000e+00 9.250000000000073e+00 3.900000000000015e+00 0.000000000000000e+00 8.749999999999956e+00 3.799999999999991e+00 0.000000000000000e+00 7.749999999999754e+00 3.100000000000591e+00 0.000000000000000e+00 7.249999999989753e+00 4.333333333326502e+00 0.000000000000000e+00 7.749999999989754e+00 4.666666666659836e+00 0.000000000000000e+00 7.875000000013636e+00 4.900000000003637e+00 0.000000000000000e+00 8.750000000000000e+00 5.166666666666667e+00 0.000000000000000e+00 9.250000000000000e+00 5.333333333333333e+00 0.000000000000000e+00 8.625000000000000e+00 5.250000000000000e+00 0.000000000000000e+00 8.000000000000000e+00 5.250000000000000e+00 0.000000000000000e+00 9.250000000000000e+00 4.333333333333334e+00 0.000000000000000e+00 8.749999999999998e+00 4.666666666666668e+00 0.000000000000000e+00 1.024999999999999e+01 4.099999999999998e+00 0.000000000000000e+00 1.075000000000014e+01 4.200000000000029e+00 0.000000000000000e+00 1.087500000000000e+01 4.550000000000000e+00 0.000000000000000e+00 1.174999999999974e+01 4.399999999999949e+00 0.000000000000000e+00 1.224999999999979e+01 4.499999999999957e+00 0.000000000000000e+00 1.141249999999975e+01 4.974999999998960e+00 0.000000000000000e+00 1.157499999999913e+01 5.649999999996393e+00 0.000000000000000e+00 1.173749999999942e+01 6.324999999997594e+00 0.000000000000000e+00 1.061249999999995e+01 2.799999999999874e+00 0.000000000000000e+00 1.082499999999963e+01 3.299999999999124e+00 0.000000000000000e+00 1.103749999999963e+01 3.799999999999124e+00 0.000000000000000e+00 1.162500000000034e+01 3.999999999999729e+00 0.000000000000000e+00 4.416666666666864e+00 5.466666666666557e+00 0.000000000000000e+00 4.833333333333728e+00 5.233333333333112e+00 0.000000000000000e+00 5.749999999989753e+00 4.666666666673498e+00 0.000000000000000e+00 6.249999999989754e+00 4.333333333340164e+00 0.000000000000000e+00 3.749999999999261e+00 5.349999999998966e+00 0.000000000000000e+00 5.500000000000000e+00 6.350000000000001e+00 0.000000000000000e+00 6.624999999999850e+00 6.200000000000048e+00 0.000000000000000e+00 7.687500000000000e+00 6.500000000000000e+00 0.000000000000000e+00 8.125000000000000e+00 7.000000000000000e+00 0.000000000000000e+00 8.562500000000000e+00 7.500000000000000e+00 0.000000000000000e+00 6.875000000000779e+00 5.650000000000727e+00 0.000000000000000e+00 5.750000000000000e+00 5.250000000000000e+00 0.000000000000000e+00 6.250000000000000e+00 5.500000000000000e+00 0.000000000000000e+00 6.750000000000000e+00 5.750000000000000e+00 0.000000000000000e+00 4.625000000000497e+00 1.850000000000465e+00 0.000000000000000e+00 5.624999999982411e-01 3.974999999999140e+00 0.000000000000000e+00 1.124999999996417e+00 4.249999999998249e+00 0.000000000000000e+00 1.687499999999411e+00 4.524999999999712e+00 0.000000000000000e+00 1.170522597735573e+00 8.000000000000000e+00 0.000000000000000e+00 2.270782585693947e+00 8.000000000000000e+00 0.000000000000000e+00 3.304997541058108e+00 8.000000000000000e+00 0.000000000000000e+00 4.277131717100321e+00 8.000000000000000e+00 0.00000000000000
[...]
<CellData Scalars="A_conc,B_conc,region_id," Vectors="" Tensors="">
<DataArray type="Float64" Name="A_conc" format="ascii">
3.629844940837560e-01 4.905934755240599e-01 5.878740383108947e-01 6.697219876385325e-01 5.530883202566677e-03 4.312747582539120e-02 1.041565141992704e-01 7.582061312607208e-01 7.536933102086457e-01 7.489895281230092e-01 7.425559715326964e-01 7.303211158145044e-01 7.108564851213974e-01 6.841738422253054e-01 6.546977411903496e-01 4.136045947257757e-01 5.981097261637515e-01 6.161223560739446e-01 6.380548411939506e-01 5.454671225175840e-01 3.968225319021013e-01 3.433367594888675e-01 3.832491200803129e-01 8.670334123462513e-01 8.840233698535249e-01 8.460694711803292e-01 8.191513620048294e-01 7.024892688962763e-01 7.558318250303890e-01 4.747894269931675e-01 4.319496871608808e-01 3.901859396608623e-01 3.479851929933703e-01 5.094650396543550e-01 5.507240078835390e-01 5.207954321969540e-01 5.616229124774775e-01 5.886535254250211e-01 6.108302065312787e-01 6.306813804405021e-01 2.625520595384443e-03 3.805101072668314e-02 2.367594423112079e-01 8.539008689049225e-02 1.497440711748019e-01 5.229147193996605e-01 8.218181454338740e-01 8.324606625608097e-01 8.164573843849927e-01 7.777644964112017e-01 7.057935083494512e-01 2.585288255689820e-01 3.165908145549249e-01 3.984524842743181e-01 9.074327358991761e-01 9.166044477361285e-01 9.218534203711863e-01 9.244847120809476e-01 9.265245310830319e-01 7.279869737773685e-01 8.809409631465858e-01 5.213185480271405e-02 6.185528024144626e-02 1.226719233198318e-01 9.489739541559381e-01 9.671438667480411e-01 9.754592684060587e-01 9.782192971711450e-01 9.798327822577013e-01 9.666756640442482e-01 9.719694588608685e-01 9.765246039112568e-01 9.194290585878764e-01 9.433719155306401e-01 9.665589474953103e-01 9.841380724947273e-01 9.850362975673199e-01 9.701966575636036e-01 9.020236326345967e-01 7.003623616972050e-01 8.635368546027946e-01 8.970001597359711e-01 9.187546981042474e-01 9.313662071166833e-01 8.671917019076378e-01 9.148901823690612e-01 5.848259848341419e-01 6.411449054020122e-01 7.054452690332448e-01 6.737807583806550e-01 1.880342506806091e-01 8.678929543816805e-01 9.159311391607259e-01 9.915351978224056e-01 9.895532093217392e-01 9.852816467509092e-01 9.928372270909638e-01 9.938002853160467e-01 9.943182962794448e-01 9.886369079450371e-01 9.731266828770540e-01 9.986137458820303e-01 9.992050048416320e-01 9.996324445809821e-01 9.554318322110656e-01 9.644308323150299e-01 9.692015254473242e-01 9.730252268057629e-01 9.857543908553335e-01 9.880785041552518e-01 9.903516694762999e-01 9.927905901615545e-01 9.825428847050965e-01 9.782542189046370e-01 7.923614308902055e-01 8.064668422260719e-01 8.137144806063319e-01 8.676376349152037e-01 8.835284314166113e-01 8.916120573050745e-01 2.366341804059367e-01 1.213869236852867e-01 1.493254176262070e-01 4.307972989196253e-01 4.696033721532276e-01 5.066303333883874e-01 5.479709488469797e-01 6.275404282888993e-01 7.218349220639763e-01 8.296764290380326e-01 9.060851194004542e-01 5.875987606023750e-01 6.172567706394814e-01 2.364680131882618e-01 2.748817721391887e-01 2.508065243553800e-01 3.258924656169794e-01 4.177628042760581e-01 7.013632205191005e-01 5.457984344175142e-01 5.366554802283412e-01 5.427655191329717e-01 5.484280900540385e-01 5.538088773438432e-01 3.654469024508311e-01 3.783422729853161e-01 5.994682118784154e-01 5.323604878022343e-01 5.315071187987348e-01 4.925970939857099e-01 4.714811778701896e-01 5.922723741969762e-01 6.583717831629659e-01 5.602203836335420e-01 5.601925780906065e-01 4.815439146839728e-01 5.537944140476159e-01 5.756434559054528e-01 6.391305227197384e-01 6.917584859618018e-01 6.609637304088640e-01 5.768411859469533e-01 5.615492925051900e-01 6.561518431028388e-01 6.419972181014950e-01 6.086896224732110e-01 6.219761413594699e-01 5.158140589677922e-01 5.884372536947869e-01 4.896702780023112e-01 5.084836878074630e-01 5.640317050147401e-01 1.903994401095199e-03 4.723233217789999e-04 2.945330091261518e-01 6.853642899287486e-01 1.327687881507118e-03 3.126954234424606e-03 2.133747879414701e-03 2.092183895416352e-02 1.924455908785233e-01 5.152793416949665e-01 6.188002317304597e-02 3.268914438687560e-01 6.186099215922645e-01 4.344211043073603e-01 5.694964568190228e-01 4.268392496604080e-01 2.966310804031412e-01 2.632487962931220e-01 1.823624707604330e-01 2.511240657707864e-01 6.438489774412143e-01 2.726210122516591e-01 2.220794066076086e-01 5.115644689495045e-01 4.668647697458548e-01 3.526756668736868e-01 7.825474925347993e-02 4.504001806617600e-02 2.183783962708120e-01 2.771200219736043e-02 2.199154447480247e-03 1.342529168988815e-01 3.324525142322754e-02 1.078096301113593e-01 4.532237824960408e-02 2.111296355289117e-02 3.810481080589745e-02 1.513061091627827e-02 6.453655851133860e-03 2.681651693566477e-02 7.050444636350626e-03 1.331151311029721e-02 2.558216019403287e-02 1.382388043472095e-02 1.699283266280367e-01 2.409292445526170e-01 1.236829258967132e-01 6.515528507394872e-02 8.150583168137357e-02 3.697039567917146e-02 4.597402300859399e-03 1.821127586341299e-02 2.689030672418606e-01 1.459199006120378e-01 1.455057721538029e-04 1.374893443646086e-02 5.175044822369372e-02 1.164271518215212e-01 4.568817277054495e-02 1.729423360957983e-02 2.879971462614827e-03 7.451392015529175e-04 5.027343132689909e-03 4.020790440902755e-01 5.073419056185490e-01 5.964607340388834e-01 9.887142714009616e-01 9.804152972401944e-01 9.759531840970133e-01 9.832316090804203e-01 8.505248881396666e-01 9.821336568808390e-01 9.738195444074256e-01 9.563343959061008e-01 9.465647671168850e-01 9.602442807295650e-01 9.133794380088622e-01 8.395160399485101e-01 9.360543077438708e-01 8.995089672618468e-01 7.649193244555330e-01 6.852362405801743e-01 8.214653440184946e-01 7.597233284764349e-01 8.992860423853692e-01 9.292390259108466e-01 9.586592029619059e-01 1.603725125155772e-01 1.855905850623735e-01 3.179245356267643e-01 1.781323000277004e-01 3.340802515646252e-02 7.989027802828980e-02 1.287763050900311e-01 1.263961349650134e-02 2.596936664848854e-02 1.557774427322546e-01 7.966711280460906e-02 1.155176445401252e-01 1.204752013381932e-02 3.496338649214776e-01 1.028478503536271e-02 2.058087429165080e-02 6.248608398291346e-02 3.725822299123731e-01 4.391482714319427e-01 5.331296972406003e-01 5.833116141882830e-01 5.702822710509139e-01 1.771557543096388e-02 5.262127748403616e-01 4.301843822433014e-01 4.510913266872646e-01 7.754235202178388e-02 4.845632501931635e-02 6.523124380585514e-01 5.744641849722347e-02 4.084124507877821e-01 4.060313977627651e-01 5.339972398256639e-01 3.680713667539213e-01 3.484120641423611e-01 3.902333082298537e-01 4.929138941003976e-01 5.200052480697225e-01 4.118658959505433e-01 4.117443773773218e-01 1.109556295610476e-01 4.013274057750412e-01 3.761113164549406e-01 4.719163695336742e-01 4.358845537135232e-01 4.845604565639823e-01 4.432450340685768e-01 4.224181156803764e-01 5.156378162511164e-01 4.998779991944214e-01 4.342575972319782e-01 3.245852047999272e-01 1.292058004804179e-03 8.521462021513941e-04 3.565874683315094e-01 1.206934353405190e-01 1.955375372649008e-01 9.566785342026574e-02 4.431292004545203e-01 4.901065226186967e-01 4.611927165115113e-04 3.986126809935749e-01 4.033633633686156e-01 1.728398898604114e-02 2.286408673953460e-01 3.352579832953744e-01 1.885789215146689e-01 1.196930571940646e-01 1.408266617140508e-01 2.091831885642927e-01 3.099288208130474e-01 2.663444335081313e-01 6.579950169062143e-02 1.449982659513215e-01 2.900900944828471e-01 2.082695879178484e-01 2.321941951351940e-02 7.609167597251524e-03 4.985721907671907e-03 5.974293415127161e-01 4.139607566430021e-01 2.389556683852562e-02 2.322737650248268e-01 9.390820772959273e-02 8.073083430968661e-04 1.261752735930674e-03 4.946930041504827e-04 4.947293770651828e-01 1.813905114587039e-02 4.500416420514242e-02 8.439205561293009e-02 7.294394569117195e-03 2.119045031974415e-02 3.792249720463670e-02 8.090430735506601e-02 4.687398169372105e-02 4.748815324449410e-02 1.506645588737071e-02 4.439099826402438e-03 3.996724054557982e-01 2.074505044998217e-01 7.904007327293860e-02 7.959820641749386e-03 5.209469056378431e-03 2.501776431125817e-03 1.391436719693951e-03 3.762894000055400e-01 3.779165464961842e-01 4.796433569267860e-01 6.163122305232638e-02 2.882770412804442e-01 7.809638104255755e-01 7.649167110203343e-01 8.766964069511461e-01 4.582861870029146e-01 5.837952687693580e-03 1.264509054931368e-01 5.568547971340920e-01 9.555683616036544e-03 2.239575464974779e-02 1.632333623802245e-02 1.573947847856600e-01 1.394166824381033e-02 6.779857919501073e-01 5.686548569360370e-01 1.928451164663929e-01 6.300941932972688e-01 3.563982333808040e-01 2.801259336116080e-01 5.340992838149178e-02 4.084000919093375e-01 3.787693356050182e-01 3.157116262438053e-02 2.436140833821158e-02 3.438293760428618e-02 1.630048774556612e-02 1.383025952150723e-02 1.355861898450255e-01 1.605629068054816e-01 6.161380028099144e-01 2.489046363857333e-01 3.595316210803178e-01 5.165629371134686e-01 4.654365478402914e-01 3.212456123321329e-01 4.085118368917713e-01 9.898640452932337e-01 9.969973883696093e-01 9.898376049957556e-01 9.978315035502219e-01 2.190966399026901e-01 9.677481036002562e-01 7.616077214593679e-01 9.818977738792239e-01 9.625144471603282e-01 9.864862916104034e-01 9.815626968698141e-01 2.892644225683243e-01 8.847894259780400e-01 9.289387418653050e-01 9.865398435132404e-01 6.925711145750502e-01 9.891528992678034e-01 7.132089276786260e-01 5.657513130665552e-01 4.174338104464252e-01 4.276977871173359e-01 9.765002726850514e-01 9.792252042627348e-01 1.911377620828698e-01 2.596243058657062e-01 9.915259351474484e-01 9.975286492450861e-01 9.945192412779088e-01 9.946614960510864e-01 9.923917843279375e-01 9.902588578261964e-01 9.863249379287680e-01 9.925038134479244e-01 9.973017348397935e-01 9.934966419266615e-01 9.921712041962083e-01 9.889179278297232e-01 9.826175166835655e-01 9.888251891536253e-01 9.878344645506230e-01 9.848424495883691e-01 9.971084547146176e-01 9.940283650215087e-01 7.397203079809341e-01 7.630744254943199e-01 9.786976696077032e-01 5.853223592425121e-01 5.676098460911767e-01 5.153880312358352e-01 6.647855473382253e-01 9.835345519640974e-01 9.835522540895909e-01 9.865604211362884e-01 9.796477837540520e-01 9.808634637253719e-01 8.740278790373958e-01 8.706492727431749e-01 9.396440120774879e-01 8.910380641186280e-01 3.651524025088092e-01 4.835416366792415e-01 5.120903420360021e-01 3.683435634300256e-01 6.712232787324947e-01 9.948766961541869e-01 9.929733717219571e-01 9.919225641809047e-01 9.874543550081659e-01 9.858729383751381e-01 8.792574873157345e-01 5.585384815870265e-01 9.056269274561637e-01 8.751217622254619e-01 8.384905234708399e-01 9.073101899249743e-01 1.793494713112599e-01 5.903811965872457e-01 4.610095241909689e-01 6.500483690176757e-01 7.165520437170214e-01 4.369466456912521e-01 4.432897340830456e-01 9.955829096518790e-01 9.919500958735559e-01 9.618379250987140e-01 8.368267366940167e-01 8.805063548308010e-01 9.812868988231864e-01 8.594138135497049e-01 9.877372041484834e-01 9.128808908118416e-01 9.338729428701507e-01 8.894152408750033e-01 9.337359113889041e-01 9.949874586533427e-01 9.972839808829903e-01 9.556800332521505e-01 9.723606873795998e-01 9.917578306600727e-01 9.638132650882147e-01 8.715211089654612e-01 9.892606371645967e-01 9.924972591262533e-01 9.912673456932988e-01 8.716064207268075e-01 9.560366418177765e-01 8.026117250199425e-01 8.112243511756749e-01 8.272852408886207e-01 9.974122757145140e-01 9.942958569842115e-01 9.453123708355522e-01 9.323652498804660e-01 8.635739001331142e-01 8.682518320055509e-01 8.481408189749089e-01 9.034634225494569e-01 8.745773840885186e-01 8.748574149849925e-01 9.659775266312656e-01 8.892911066387708e-01 9.881230782973793e-01 9.848326987521880e-01 8.730179976884040e-01 8.991553257945287e-01 7.134046816398190e-01 7.808543424601895e-01 9.363250418135913e-01 9.153444728919732e-01 9.788172272075651e-01 9.553816444962731e-01 8.876109953421427e-01 8.912582519041922e-01 9.470984677029961e-01 9.416334299581306e-01 9.563115375412583e-01 9.754124307250970e-01 9.596955574651551e-01 7.636523066611947e-01 8.487873744892473e-01 7.938470343395849e-01 8.782956099871018e-01 8.318665754213290e-01 9.788556952520761e-01 9.736288833221433e-01 7.106434944601242e-01 9.886058250115075e-01 9.926503379210956e-01 6.482923094308849e-01 6.433873943849509e-01 7.609320247218125e-01 8.086214897378461e-01 9.596355880491863e-01 8.902289064975041e-01 8.898403944043669e-01 9.535883221339030e-01 7.833612432902204e-01 8.258979880427929e-01 8.400164677988784e-01 9.486453705149999e-01 9.508360039659784e-01 9.351265234910102e-01 9.172671785447426e-01 9.771687915121408e-01 9.836421319600879e-01 9.659582072284916e-01 8.452078534746880e-01 8.530506047246034e-01 8.633868299880754e-01 8.435910965985649e-01 8.332209863844893e-01 9.715602544682533e-01 9.846788448890049e-01 7.977863654326263e-01 7.640431628221399e-01 5.612931466555688e-01 5.563854091813047e-01 6.546070285993868e-01 7.071951506584482e-01 8.305050342157918e-01 7.961904488718536e-01 7.998851633337871e-01 7.637402053290665e-01 7.524155129565167e-01 7.082433553860352e-01 7.251503934199170e-01 4.914741953857145e-01 7.021925020583535e-01 4.700030343475213e-01 4.620025132114906e-01 6.526497715336864e-01 6.894425300528862e-01 6.557631053548360e-01 4.999004230467465e-01 3.975259094427353e-01 4.505719885603013e-01 6.064019655374133e-01 7.681923800207175e-01 8.090298111697652e-01 6.664429687950287e-01 9.970933356639275e-01 9.939302717301968e-01 4.304136030214694e-01 6.458558863955011e-01 9.064561146961563e-01 9.550662512981205e-01 9.483193594806189e-01 9.778286567640002e-01 6.000751222458618e-01 7.081775043436900e-01 8.478049223475876e-01 8.493213691078796e-01 7.233304387577968e-01 6.625121570343662e-01 8.050106985875418e-01 8.636809985140058e-01 6.533373615498839e-01 4.637099471474176e-01 8.318853988414476e-01 5.972762984497653e-01 6.896305029974420e-01 5.116383973543919e-01 5.359957348187174e-01 6.274702391804517e-01 4.546250582980944e-01 5.298687304399359e-01 8.755476845799671e-01 8.036873899807160e-01 8.016837552330678e-01 8.208956607550080e-01 7.565497026096973e-01 6.862820482589516e-01 9.043539037767596e-01 8.743608503013823e-01 8.418974653812249e-01 9.378787034674189e-01 9.144748147076144e-01 9.571424466397572e-01 9.584560617041959e-01 4.561819773681580e-01 4.006391465272453e-01 6.012688489077077e-01 5.550232563510862e-01 6.152355024136285e-01 5.794605869288104e-01 1.512324104157320e-02 1.637133503126996e-02 9.971447642737896e-02 2.024138186790058e-01 1.335812741131361e-01 2.839637578042305e-01 6.353255096709455e-01 4.189713503812798e-01 3.424865743848636e-01 5.203163186186617e-01 5.515647540293436e-01 6.538340888092092e-01 5.787510975343930e-01 5.889285808987081e-01 4.009201105694965e-01 5.752943925901051e-01 4.560296507502989e-01 5.430534525284889e-01 4.993377483234538e-01 5.770431690784719e-01 5.129315499263214e-01 7.569701426816389e-01 7.197960596480402e-01 6.009802182265361e-01 7.381353412560365e-01 6.884346809242008e-01 6.976906218265357e-01 7.104531901037709e-01 6.285451703426895e-01 6.368947643352398e-01 3.436448496148893e-01 2.665621717158402e-01 2.208941765592458e-01 4.574473120276773e-01 3.848247639902090e-01 3.254886412288188e-01 7.406947671329465e-01 7.504988981184468e-01 8.101633013207730e-01 8.302255609057885e-01 6.181732575612325e-01 5.920046407339628e-01 6.839767846787235e-01 2.940568631314125e-01 1.228922743541431e-01 5.840935426030907e-01 5.597175227722273e-01 8.383363413801573e-02 8.456454504393467e-02 5.712274002966742e-01 7.040335071917057e-01 7.888144608230796e-01 5.563174766158876e-01 6.753026735369527e-01 6.973380516367775e-01 6.479480636853688e-01 7.818927981015281e-01 7.230546206609445e-01 8.126033775317253e-01 7.692624088193332e-01 5.604662950862690e-01 6.404122358367751e-01 5.915008323560784e-01 4.700340318499974e-02 6.156536502009977e-01 4.793797433734669e-01 4.605221162234375e-01 4.006513621927530e-01 4.609998617155391e-01 5.038022850143101e-01 5.182338721485757e-01 4.545050828216675e-01 4.086458770895086e-01 3.518510224253503e-01 
</DataArray>
<DataArray type="Float64" Name="B_conc" format="ascii">