<?xml version="1.0"?>
<VTKFile type="UnstructuredGrid" version="0.1" byte_order="LittleEndian">
<UnstructuredGrid>
<Piece NumberOfPoints="57" NumberOfCells="96">
<Points>
<DataArray type="Float64" NumberOfComponents="3" format="ascii">
0.000000000000000e+00 0.000000000000000e+00 0.000000000000000e+00 1.000000000000000e+00 0.000000000000000e+00 0.000000000000000e+00 0.000000000000000e+00 1.000000000000000e+00 0.000000000000000e+00 1.000000000000000e+00 1.000000000000000e+00 0.000000000000000e+00 2.500000000000000e-01 0.000000000000000e+00 0.000000000000000e+00 0.000000000000000e+00 2.500000000000000e-01 0.000000000000000e+00 5.000000000000000e-01 5.000000000000000e-01 0.000000000000000e+00 7.500000000000000e-01 1.000000000000000e+00 0.000000000000000e+00 0.000000000000000e+00 3.999999999993061e-01 0.000000000000000e+00 0.000000000000000e+00 5.499999999990286e-01 0.000000000000000e+00 0.000000000000000e+00 6.999999999991673e-01 0.000000000000000e+00 0.000000000000000e+00 8.499999999995836e-01 0.000000000000000e+00 1.499999999993971e-01 1.000000000000000e+00 0.000000000000000e+00 2.999999999990501e-01 1.000000000000000e+00 0.000000000000000e+00 4.499999999990660e-01 1.000000000000000e+00 0.000000000000000e+00 5.999999999994290e-01 1.000000000000000e+00 0.000000000000000e+00 1.000000000000000e+00 8.571428571430554e-01 0.000000000000000e+00 1.000000000000000e+00 7.142857142862099e-01 0.000000000000000e+00 1.000000000000000e+00 5.714285714296619e-01 0.000000000000000e+00 1.000000000000000e+00 4.285714285727172e-01 0.000000000000000e+00 1.000000000000000e+00 2.857142857153761e-01 0.000000000000000e+00 1.000000000000000e+00 1.428571428577377e-01 0.000000000000000e+00 8.500000000008328e-01 0.000000000000000e+00 0.000000000000000e+00 7.000000000008327e-01 0.000000000000000e+00 0.000000000000000e+00 5.500000000005552e-01 0.000000000000000e+00 0.000000000000000e+00 4.000000000002777e-01 0.000000000000000e+00 0.000000000000000e+00 3.333333333331881e-01 1.666666666663762e-01 0.000000000000000e+00 4.166666666665131e-01 3.333333333330262e-01 0.000000000000000e+00 3.333333333336109e-01 4.166666666668055e-01 0.000000000000000e+00 1.666666666671293e-01 3.333333333335646e-01 0.000000000000000e+00 6.666666666666666e-01 8.333333333333333e-01 0.000000000000000e+00 5.833333333333333e-01 6.666666666666666e-01 0.000000000000000e+00 4.293977045941481e-01 7.128112913903036e-01 0.000000000000000e+00 2.998933064660453e-01 5.734214616116567e-01 0.000000000000000e+00 1.262659817929549e-01 7.913299378255220e-01 0.000000000000000e+00 5.271054966329634e-01 8.488328532632591e-01 0.000000000000000e+00 1.555085255433845e-01 4.752619409895978e-01 0.000000000000000e+00 2.853648640097591e-01 7.463071008059871e-01 0.000000000000000e+00 1.448015295635871e-01 6.434886585734013e-01 0.000000000000000e+00 3.808957665680138e-01 8.645016041761083e-01 0.000000000000000e+00 2.195877687281456e-01 8.878564404679016e-01 0.000000000000000e+00 9.917075010409951e-02 9.058372756586014e-01 0.000000000000000e+00 1.500000000000635e-01 1.499999999999882e-01 0.000000000000000e+00 6.194807743958560e-01 2.412219107496123e-01 0.000000000000000e+00 7.738404604248252e-01 4.704509657696636e-01 0.000000000000000e+00 7.736475786618975e-01 1.393304285805427e-01 0.000000000000000e+00 4.992042824076202e-01 1.490973993763484e-01 0.000000000000000e+00 6.359519675930375e-01 1.128248248704907e-01 0.000000000000000e+00 8.995418595679957e-01 3.660610945775338e-01 0.000000000000000e+00 7.576097615368714e-01 3.056501081260414e-01 0.000000000000000e+00 8.984269496357760e-01 4.968844551721360e-01 0.000000000000000e+00 6.227208784165946e-01 4.036087638678805e-01 0.000000000000000e+00 8.926331999611968e-01 2.185069385476834e-01 0.000000000000000e+00 8.030410438586795e-01 6.461605083906008e-01 0.000000000000000e+00 9.032561557247855e-01 1.001389019971927e-01 0.000000000000000e+00 8.699512850875576e-01 8.418204021921999e-01 0.000000000000000e+00 6.565871432066865e-01 5.373773809389624e-01 0.000000000000000e+00 
</DataArray>
</Points>
<Cells>
<DataArray type="Int32" Name="connectivity" format="ascii">
4 26 26 27 27 6 6 28 28 29 29 5 7 30 30 31 31 6 5 8 29 30 15 7 34 10 11 35 14 15 30 35 15 9 36 8 36 29 8 36 28 29 36 33 28 31 35 30 32 35 31 37 32 33 9 38 36 38 33 36 39 14 35 32 39 35 10 38 9 38 37 33 37 38 34 10 34 38 39 13 14 37 39 32 6 32 31 6 33 32 33 6 28 40 13 39 37 40 39 40 12 13 34 40 37 41 11 2 12 41 2 11 41 34 40 41 12 40 34 41 27 6 28 29 26 27 28 29 27 5 0 42 42 0 4 42 4 26 42 29 5 26 29 42 4 26 25 23 45 22 46 24 25 26 46 25 27 46 26 43 46 27 23 47 45 43 47 46 47 43 45 20 48 19 49 45 43 49 44 48 50 18 19 6 51 27 51 43 27 20 52 48 48 50 19 48 44 50 21 52 20 49 52 45 49 48 52 23 24 47 24 46 47 54 21 1 54 22 45 22 54 1 54 52 21 45 52 54 18 53 17 53 18 50 43 51 49 51 44 49 30 53 31 56 44 51 56 6 31 51 6 56 55 17 53 17 55 16 30 55 53 3 55 7 55 3 16 55 30 7 44 53 50 44 56 53 56 31 53 
</DataArray>
<DataArray type="Int32" Name="offsets" format="ascii">
2 4 6 8 10 12 14 16 18 21 24 27 30 33 36 39 42 45 48 51 54 57 60 63 66 69 72 75 78 81 84 87 90 93 96 99 102 105 108 111 114 117 120 123 126 129 132 135 138 141 144 147 150 153 156 159 162 165 168 171 174 177 180 183 186 189 192 195 198 201 204 207 210 213 216 219 222 225 228 231 234 237 240 243 246 249 252 255 258 261 264 267 270 273 276 279 
</DataArray>
<DataArray type="UInt8" Name="types" format="ascii">
3 3 3 3 3 3 3 3 3 5 5 5 5 5 5 5 5 5 5 5 5 5 5 5 5 5 5 5 5 5 5 5 5 5 5 5 5 5 5 5 5 5 5 5 5 5 5 5 5 5 5 5 5 5 5 5 5 5 5 5 5 5 5 5 5 5 5 5 5 5 5 5 5 5 5 5 5 5 5 5 5 5 5 5 5 5 5 5 5 5 5 5 5 5 5 5 
</DataArray>
</Cells>
<CellData Scalars="age_conc,U235_conc," Vectors="" Tensors="">
<DataArray type="Float64" Name="age_conc" format="ascii">
9.990099645315059e-01 9.992229321943829e-01 9.994462508859194e-01 9.994549342096339e-01 9.992361660526230e-01 9.990246909939740e-01 9.998964153748616e-01 9.997887798616172e-01 9.996739818760069e-01 9.934153307224818e-01 9.994847887034162e-01 9.978971983601148e-01 9.993721228922433e-01 9.990274241712578e-01 9.949958627973935e-01 9.939739753871664e-01 9.943086550006079e-01 9.949319317488509e-01 9.984262547798428e-01 9.978186290317150e-01 9.971555366416387e-01 9.955090622885940e-01 9.959771989221333e-01 9.989374914349054e-01 9.983829804506429e-01 9.964036677618693e-01 9.965812445198277e-01 9.973414349131333e-01 9.969436298883729e-01 9.993266276662698e-01 9.978294606934972e-01 9.971161530760960e-01 9.962169489971351e-01 9.955188985342764e-01 9.988832852039820e-01 9.983528342612789e-01 9.994155429433658e-01 9.978878106357569e-01 9.990774012292887e-01 9.994520863206175e-01 9.984009666832381e-01 9.990891456075541e-01 9.986327397055468e-01 9.981887798785480e-01 9.965497037797644e-01 9.975877228953052e-01 9.927002932480861e-01 9.926971555602336e-01 9.947378505019144e-01 9.947409303643523e-01 9.954263913993504e-01 9.928107616741120e-01 9.974485917678492e-01 9.942137204071555e-01 9.933399211348174e-01 9.938767141382402e-01 9.944442894584573e-01 9.960420621040569e-01 9.951863864766568e-01 9.960843358462289e-01 9.992718322532268e-01 9.964218818524058e-01 9.974676654121466e-01 9.991553121682747e-01 9.950104552446968e-01 9.949217390948655e-01 9.988425242599950e-01 9.987588682949506e-01 9.979589426447684e-01 9.992853404682431e-01 9.973444300460959e-01 9.978082266637631e-01 9.955859549263794e-01 9.947570843574176e-01 9.993584255907353e-01 9.979179670803449e-01 9.989867606558304e-01 9.989637688948827e-01 9.980745939567542e-01 9.987049243210784e-01 9.982922557124925e-01 9.959785521663294e-01 9.964481311225059e-01 9.970961591007097e-01 9.963032119466682e-01 9.959804780618602e-01 9.956543242135723e-01 9.985771052920295e-01 9.992888595022531e-01 9.977416872521423e-01 9.990563606048579e-01 9.993252315893602e-01 9.983231212742638e-01 9.978327841677710e-01 9.967851861802143e-01 9.965760378030613e-01 
</DataArray>
<DataArray type="Float64" Name="U235_conc" format="ascii">
9.990074514683471e-01 9.992209518863537e-01 9.994448313412782e-01 9.994535339968575e-01 9.992342144077963e-01 9.990222090577867e-01 9.998961454658442e-01 9.997882313978179e-01 9.996731393665828e-01 9.934005954502394e-01 9.994834657959777e-01 9.978919665367485e-01 9.993705193244988e-01 9.990249475254922e-01 9.949842004740806e-01 9.939602995250647e-01 9.942956353184685e-01 9.949201624614472e-01 9.984222980729485e-01 9.978132144512638e-01 9.971485793581523e-01 9.954984718085240e-01 9.959676112410479e-01 9.989347954283224e-01 9.983789217503845e-01 9.963950082982616e-01 9.965729860871010e-01 9.973349035758766e-01 9.969361842826361e-01 9.993249125305131e-01 9.978240732492848e-01 9.971091050986354e-01 9.962078989277765e-01 9.955083489881048e-01 9.988804581856143e-01 9.983487055331669e-01 9.994140503196827e-01 9.978825628703714e-01 9.990750529705703e-01 9.994506850607039e-01 9.983969478079218e-01 9.990868276545808e-01 9.986292885568944e-01 9.981842959325726e-01 9.965415239723319e-01 9.975818259449667e-01 9.926956488731861e-01 9.926925210179230e-01 9.947266027853466e-01 9.947296881699359e-01 9.954158611714425e-01 9.927949547431509e-01 9.974423477032773e-01 9.942005717612155e-01 9.933250762262489e-01 9.938628779735237e-01 9.944315617174941e-01 9.960326852322516e-01 9.951752039364679e-01 9.960750385433201e-01 9.992699910354067e-01 9.964133307939071e-01 9.974614590084816e-01 9.991531895657173e-01 9.949988534184691e-01 9.949099766160068e-01 9.988396082594693e-01 9.987557566549411e-01 9.979538964728596e-01 9.992835283154949e-01 9.973379478554135e-01 9.978028336237392e-01 9.955755955088108e-01 9.947450185055454e-01 9.993567940416146e-01 9.979128304702676e-01 9.989841931631824e-01 9.989611477143798e-01 9.980698358551126e-01 9.987016818478558e-01 9.982880032292364e-01 9.959690138767781e-01 9.964396255766519e-01 9.970890878123582e-01 9.962943752714259e-01 9.959709176720375e-01 9.956440675977034e-01 9.985735290050060e-01 9.992870461945901e-01 9.977361151440554e-01 9.990539761457877e-01 9.993235097012201e-01 9.983189398357148e-01 9.978274288659879e-01 9.967774270303298e-01 9.965677878412962e-01 
</DataArray>
</CellData>
</Piece>
</UnstructuredGrid>
</VTKFile>
