<?xml version="1.0"?>
<VTKFile type="UnstructuredGrid" version="0.1" byte_order="LittleEndian">
<UnstructuredGrid>
<Piece NumberOfPoints="57" NumberOfCells="96">
<Points>
<DataArray type="Float64" NumberOfComponents="3" format="ascii">
0.000000000000000e+00 0.000000000000000e+00 0.000000000000000e+00 1.000000000000000e+00 0.000000000000000e+00 0.000000000000000e+00 0.000000000000000e+00 1.000000000000000e+00 0.000000000000000e+00 1.000000000000000e+00 1.000000000000000e+00 0.000000000000000e+00 2.500000000000000e-01 0.000000000000000e+00 0.000000000000000e+00 0.000000000000000e+00 2.500000000000000e-01 0.000000000000000e+00 5.000000000000000e-01 5.000000000000000e-01 0.000000000000000e+00 7.500000000000000e-01 1.000000000000000e+00 0.000000000000000e+00 0.000000000000000e+00 3.999999999993061e-01 0.000000000000000e+00 0.000000000000000e+00 5.499999999990286e-01 0.000000000000000e+00 0.000000000000000e+00 6.999999999991673e-01 0.000000000000000e+00 0.000000000000000e+00 8.499999999995836e-01 0.000000000000000e+00 1.499999999993971e-01 1.000000000000000e+00 0.000000000000000e+00 2.999999999990501e-01 1.000000000000000e+00 0.000000000000000e+00 4.499999999990660e-01 1.000000000000000e+00 0.000000000000000e+00 5.999999999994290e-01 1.000000000000000e+00 0.000000000000000e+00 1.000000000000000e+00 8.571428571430554e-01 0.000000000000000e+00 1.000000000000000e+00 7.142857142862099e-01 0.000000000000000e+00 1.000000000000000e+00 5.714285714296619e-01 0.000000000000000e+00 1.000000000000000e+00 4.285714285727172e-01 0.000000000000000e+00 1.000000000000000e+00 2.857142857153761e-01 0.000000000000000e+00 1.000000000000000e+00 1.428571428577377e-01 0.000000000000000e+00 8.500000000008328e-01 0.000000000000000e+00 0.000000000000000e+00 7.000000000008327e-01 0.000000000000000e+00 0.000000000000000e+00 5.500000000005552e-01 0.000000000000000e+00 0.000000000000000e+00 4.000000000002777e-01 0.000000000000000e+00 0.000000000000000e+00 3.333333333331881e-01 1.666666666663762e-01 0.000000000000000e+00 4.166666666665131e-01 3.333333333330262e-01 0.000000000000000e+00 3.333333333336109e-01 4.166666666668055e-01 0.000000000000000e+00 1.666666666671293e-01 3.333333333335646e-01 0.000000000000000e+00 6.666666666666666e-01 8.333333333333333e-01 0.000000000000000e+00 5.833333333333333e-01 6.666666666666666e-01 0.000000000000000e+00 4.293977045941481e-01 7.128112913903036e-01 0.000000000000000e+00 2.998933064660453e-01 5.734214616116567e-01 0.000000000000000e+00 1.262659817929549e-01 7.913299378255220e-01 0.000000000000000e+00 5.271054966329634e-01 8.488328532632591e-01 0.000000000000000e+00 1.555085255433845e-01 4.752619409895978e-01 0.000000000000000e+00 2.853648640097591e-01 7.463071008059871e-01 0.000000000000000e+00 1.448015295635871e-01 6.434886585734013e-01 0.000000000000000e+00 3.808957665680138e-01 8.645016041761083e-01 0.000000000000000e+00 2.195877687281456e-01 8.878564404679016e-01 0.000000000000000e+00 9.917075010409951e-02 9.058372756586014e-01 0.000000000000000e+00 1.500000000000635e-01 1.499999999999882e-01 0.000000000000000e+00 6.194807743958560e-01 2.412219107496123e-01 0.000000000000000e+00 7.738404604248252e-01 4.704509657696636e-01 0.000000000000000e+00 7.736475786618975e-01 1.393304285805427e-01 0.000000000000000e+00 4.992042824076202e-01 1.490973993763484e-01 0.000000000000000e+00 6.359519675930375e-01 1.128248248704907e-01 0.000000000000000e+00 8.995418595679957e-01 3.660610945775338e-01 0.000000000000000e+00 7.576097615368714e-01 3.056501081260414e-01 0.000000000000000e+00 8.984269496357760e-01 4.968844551721360e-01 0.000000000000000e+00 6.227208784165946e-01 4.036087638678805e-01 0.000000000000000e+00 8.926331999611968e-01 2.185069385476834e-01 0.000000000000000e+00 8.030410438586795e-01 6.461605083906008e-01 0.000000000000000e+00 9.032561557247855e-01 1.001389019971927e-01 0.000000000000000e+00 8.699512850875576e-01 8.418204021921999e-01 0.000000000000000e+00 6.565871432066865e-01 5.373773809389624e-01 0.000000000000000e+00 
</DataArray>
</Points>
<Cells>
<DataArray type="Int32" Name="connectivity" format="ascii">
4 26 26 27 27 6 6 28 28 29 29 5 7 30 30 31 31 6 5 8 29 30 15 7 34 10 11 35 14 15 30 35 15 9 36 8 36 29 8 36 28 29 36 33 28 31 35 30 32 35 31 37 32 33 9 38 36 38 33 36 39 14 35 32 39 35 10 38 9 38 37 33 37 38 34 10 34 38 39 13 14 37 39 32 6 32 31 6 33 32 33 6 28 40 13 39 37 40 39 40 12 13 34 40 37 41 11 2 12 41 2 11 41 34 40 41 12 40 34 41 27 6 28 29 26 27 28 29 27 5 0 42 42 0 4 42 4 26 42 29 5 26 29 42 4 26 25 23 45 22 46 24 25 26 46 25 27 46 26 43 46 27 23 47 45 43 47 46 47 43 45 20 48 19 49 45 43 49 44 48 50 18 19 6 51 27 51 43 27 20 52 48 48 50 19 48 44 50 21 52 20 49 52 45 49 48 52 23 24 47 24 46 47 54 21 1 54 22 45 22 54 1 54 52 21 45 52 54 18 53 17 53 18 50 43 51 49 51 44 49 30 53 31 56 44 51 56 6 31 51 6 56 55 17 53 17 55 16 30 55 53 3 55 7 55 3 16 55 30 7 44 53 50 44 56 53 56 31 53 
</DataArray>
<DataArray type="Int32" Name="offsets" format="ascii">
2 4 6 8 10 12 14 16 18 21 24 27 30 33 36 39 42 45 48 51 54 57 60 63 66 69 72 75 78 81 84 87 90 93 96 99 102 105 108 111 114 117 120 123 126 129 132 135 138 141 144 147 150 153 156 159 162 165 168 171 174 177 180 183 186 189 192 195 198 201 204 207 210 213 216 219 222 225 228 231 234 237 240 243 246 249 252 255 258 261 264 267 270 273 276 279 
</DataArray>
<DataArray type="UInt8" Name="types" format="ascii">
3 3 3 3 3 3 3 3 3 5 5 5 5 5 5 5 5 5 5 5 5 5 5 5 5 5 5 5 5 5 5 5 5 5 5 5 5 5 5 5 5 5 5 5 5 5 5 5 5 5 5 5 5 5 5 5 5 5 5 5 5 5 5 5 5 5 5 5 5 5 5 5 5 5 5 5 5 5 5 5 5 5 5 5 5 5 5 5 5 5 5 5 5 5 5 5 
</DataArray>
</Cells>
<CellData Scalars="age_conc,U235_conc," Vectors="" Tensors="">
<DataArray type="Float64" Name="age_conc" format="ascii">
9.964881330061026e-01 9.976416840245506e-01 9.988533782698054e-01 9.991366048016540e-01 9.983423558633474e-01 9.975099699324844e-01 9.998935416200371e-01 9.997722521132549e-01 9.995802481785444e-01 7.444166565461772e-01 9.994745023988194e-01 9.976404106346859e-01 9.993589356548950e-01 9.990075669868925e-01 9.383964117264800e-01 8.260143962918115e-01 8.643116281029046e-01 9.218188914958081e-01 9.983714262456821e-01 9.975515385805607e-01 9.954050648408242e-01 9.650875462905604e-01 9.803229640678881e-01 9.989129340335192e-01 9.983136106233717e-01 9.897843145854038e-01 9.909595374274183e-01 9.963200863678596e-01 9.945376115622023e-01 9.993098592662187e-01 9.975627994632041e-01 9.951559609449474e-01 9.810098405158518e-01 9.568447634893094e-01 9.988478382425118e-01 9.982433437773728e-01 9.993981702668647e-01 9.975984434547823e-01 9.990465966604593e-01 9.994357007544586e-01 9.983058032232895e-01 9.990591918776204e-01 9.985677470227889e-01 9.937576485032293e-01 9.559487289879331e-01 9.883817255842842e-01 6.056239962334700e-01 6.052576061590107e-01 8.083437967757273e-01 8.086876813666665e-01 8.989924185842717e-01 6.277441234993806e-01 9.910662590992807e-01 8.231557624473322e-01 7.171216532867839e-01 7.978160766909528e-01 8.659869552510733e-01 9.582900251162497e-01 9.104470396371427e-01 9.642495423406240e-01 9.990556819858321e-01 9.735605738480202e-01 9.947577812390923e-01 9.989353095862763e-01 9.244765118788836e-01 9.085815429274666e-01 9.984200153694918e-01 9.983370675903261e-01 9.967830094814504e-01 9.990795914820312e-01 9.919776651564016e-01 9.950391591363581e-01 9.387914793590951e-01 8.774429245335782e-01 9.992145090953422e-01 9.942306913886445e-01 9.987583369242570e-01 9.986505307187192e-01 9.950195958037558e-01 9.984994195513175e-01 9.978753396846929e-01 9.658288062245715e-01 9.786150097042612e-01 9.921230017435332e-01 9.780379752502519e-01 9.733974477404135e-01 9.610932554816215e-01 9.984431393200290e-01 9.992693128391950e-01 9.960402611533652e-01 9.989136917640014e-01 9.993070218983844e-01 9.976475015449938e-01 9.968865705088498e-01 9.866762740930590e-01 9.863932453559023e-01 
</DataArray>
<DataArray type="Float64" Name="U235_conc" format="ascii">
9.965489810269825e-01 9.976909790208111e-01 9.988786326590808e-01 9.991514169958379e-01 9.983750569515877e-01 9.975556116874950e-01 9.998934525286617e-01 9.997727861027479e-01 9.995849297102579e-01 7.495619738198862e-01 9.994738074564129e-01 9.976596347033848e-01 9.993582032042373e-01 9.990063694248281e-01 9.412552195380448e-01 8.307357049808184e-01 8.684744078698957e-01 9.247719825838644e-01 9.983723180250410e-01 9.975726558181250e-01 9.955519931395798e-01 9.668684843581307e-01 9.813593633897413e-01 9.989120426361631e-01 9.983161814549497e-01 9.903019953265204e-01 9.913881851945274e-01 9.964108731285237e-01 9.947433959961922e-01 9.993094244833953e-01 9.975848176222017e-01 9.953138539748614e-01 9.818763866704247e-01 9.586961686968518e-01 9.988480864553453e-01 9.982500813354069e-01 9.993980818651018e-01 9.976224924025676e-01 9.990467472820075e-01 9.994355884509621e-01 9.983106165359148e-01 9.990593823056153e-01 9.985701930256494e-01 9.939250665766657e-01 9.570621474723959e-01 9.887229095960953e-01 6.067103318455963e-01 6.063396027968695e-01 8.106019711976112e-01 8.109462254256137e-01 9.010775243388128e-01 6.320193686815756e-01 9.914187340619340e-01 8.272515562903151e-01 7.221150118954313e-01 8.027891852519303e-01 8.702278818239766e-01 9.599544363870238e-01 9.133633287192326e-01 9.657864826932867e-01 9.990713626530894e-01 9.747309027381945e-01 9.949663268773197e-01 9.989521566626323e-01 9.275333698789612e-01 9.119363927135162e-01 9.984498342448905e-01 9.983694879716642e-01 9.968768127833409e-01 9.990928697808495e-01 9.923407873156089e-01 9.952393916989817e-01 9.410339652860564e-01 8.809472488470413e-01 9.992226121171544e-01 9.944516175178777e-01 9.987705348545191e-01 9.986700775112592e-01 9.952121030546337e-01 9.985144736033820e-01 9.979080392172823e-01 9.673735665939455e-01 9.796072048143332e-01 9.924519110516199e-01 9.790745560553675e-01 9.746763152083703e-01 9.629095860006381e-01 9.984514366849010e-01 9.992689665834045e-01 9.961583883247465e-01 9.989222838364670e-01 9.993066532752799e-01 9.976938173457255e-01 9.969632291609380e-01 9.872887952899051e-01 9.870329865077279e-01 
</DataArray>
</CellData>
</Piece>
</UnstructuredGrid>
</VTKFile>
