<?xml version="1.0"?>
<VTKFile type="UnstructuredGrid" version="0.1" byte_order="LittleEndian">
<UnstructuredGrid>
<Piece NumberOfPoints="6444" NumberOfCells="2148">
<Points>
<DataArray type="Float64" NumberOfComponents="3" format="ascii">
1.854221989851703e+00 4.919057320353651e+00 0.000000000000000e+00 1.894736842105409e+00 5.000000000000000e+00 0.000000000000000e+00 1.789473684210819e+00 5.000000000000000e+00 0.000000000000000e+00 1.761727974207509e+00 4.890294137299613e+00 0.000000000000000e+00 1.854221989851703e+00 4.919057320353651e+00 0.000000000000000e+00 1.789473684210819e+00 5.000000000000000e+00 0.000000000000000e+00 9.126921108264911e-02 4.747437874729231e+00 0.000000000000000e+00 0.000000000000000e+00 4.795918367346939e+00 0.000000000000000e+00 0.000000000000000e+00 4.693877551020408e+00 0.000000000000000e+00 0.000000000000000e+00 3.061224489795924e-01 0.000000000000000e+00 0.000000000000000e+00 2.040816326530610e-01 0.000000000000000e+00 9.632609441615088e-02 2.738115102943669e-01 0.000000000000000e+00 2.000000000000000e+00 4.693877551019979e+00 0.000000000000000e+00 2.000000000000000e+00 4.795918367346652e+00 0.000000000000000e+00 1.886180073786021e+00 4.742892287486169e+00 0.000000000000000e+00 2.000000000000000e+00 1.020408163263281e-01 0.000000000000000e+00 2.000000000000000e+00 2.040816326526563e-01 0.000000000000000e+00 1.916826065655924e+00 1.638313780388485e-01 0.000000000000000e+00 1.761727974207509e+00 4.890294137299613e+00 0.000000000000000e+00 1.789473684210819e+00 5.000000000000000e+00 0.000000000000000e+00 1.684210526316228e+00 5.000000000000000e+00 0.000000000000000e+00 1.671379238171647e+00 4.355565825994195e+00 0.000000000000000e+00 1.656972519506107e+00 4.264993659450348e+00 0.000000000000000e+00 1.742362910288180e+00 4.274686612473190e+00 0.000000000000000e+00 3.359160269493546e-01 6.613119939081207e-01 0.000000000000000e+00 3.652595891744679e-01 7.545548492898096e-01 0.000000000000000e+00 2.363841735149307e-01 7.296874934688182e-01 0.000000000000000e+00 9.142174725173587e-01 4.712367545816286e+00 0.000000000000000e+00 1.043103983284156e+00 4.686823006215624e+00 0.000000000000000e+00 9.872800728194056e-01 4.810542368547830e+00 0.000000000000000e+00 1.764587844538203e+00 5.512456518134270e-01 0.000000000000000e+00 1.667463593774317e+00 5.611131760755043e-01 0.000000000000000e+00 1.689211001472062e+00 4.529014916071041e-01 0.000000000000000e+00 1.164962332976885e+00 4.708689073081058e+00 0.000000000000000e+00 1.043103983284156e+00 4.686823006215624e+00 0.000000000000000e+00 1.120545679972557e+00 4.597850841802548e+00 0.000000000000000e+00 1.164962332976885e+00 4.708689073081058e+00 0.000000000000000e+00 1.286316001784507e+00 4.713364343843550e+00 0.000000000000000e+00 1.217721174034548e+00 4.795799111255508e+00 0.000000000000000e+00 1.564325884006745e+00 4.403553068152111e+00 0.000000000000000e+00 1.671379238171647e+00 4.355565825994195e+00 0.000000000000000e+00 1.684931319093551e+00 4.450594666363146e+00 0.000000000000000e+00 4.205970757819151e-01 5.958543694489439e-01 0.000000000000000e+00 3.359160269493546e-01 6.613119939081207e-01 0.000000000000000e+00 3.145434093627009e-01 5.491653808720912e-01 0.000000000000000e+00 9.872800728194056e-01 4.810542368547830e+00 0.000000000000000e+00 1.043103983284156e+00 4.686823006215624e+00 0.000000000000000e+00 1.096286039907942e+00 4.787940082264510e+00 0.000000000000000e+00 1.364646262478820e+00 4.592415066635965e+00 0.000000000000000e+00 1.459130418149962e+00 4.520124291173715e+00 0.000000000000000e+00 1.486898450120218e+00 4.623469252699420e+00 0.000000000000000e+00 9.731998290332249e-01 5.704471431595811e-01 0.000000000000000e+00 8.715730992191858e-01 5.999589335421364e-01 0.000000000000000e+00 9.025964009904515e-01 4.820800936387313e-01 0.000000000000000e+00 1.172155379345141e+00 6.712425757120589e-01 0.000000000000000e+00 1.072739201998409e+00 7.413529383884035e-01 0.000000000000000e+00 1.058169957782242e+00 6.325564283781506e-01 0.000000000000000e+00 7.694604707706209e-01 2.730531642794763e-01 0.000000000000000e+00 8.638861567287028e-01 2.417663344562214e-01 0.000000000000000e+00 8.676639121183823e-01 3.629112901794028e-01 0.000000000000000e+00 7.466817710519089e-01 3.879264348176992e-01 0.000000000000000e+00 7.694604707706209e-01 2.730531642794763e-01 0.000000000000000e+00 8.676639121183823e-01 3.629112901794028e-01 0.000000000000000e+00 1.364646262478820e+00 4.592415066635965e+00 0.000000000000000e+00 1.286316001784507e+00 4.713364343843550e+00 0.000000000000000e+00 1.240449671207480e+00 4.600906599908907e+00 0.000000000000000e+00 1.120545679972557e+00 4.597850841802548e+00 0.000000000000000e+00 1.172986079106911e+00 4.490918440524887e+00 0.000000000000000e+00 1.240449671207480e+00 4.600906599908907e+00 0.000000000000000e+00 1.564325884006745e+00 4.403553068152111e+00 0.000000000000000e+00 1.684931319093551e+00 4.450594666363146e+00 0.000000000000000e+00 1.572184068992192e+00 4.523523004927910e+00 0.000000000000000e+00 4.205970757819151e-01 5.958543694489439e-01 0.000000000000000e+00 3.145434093627009e-01 5.491653808720912e-01 0.000000000000000e+00 4.068115365931686e-01 4.849111945291972e-01 0.000000000000000e+00 1.172155379345141e+00 6.712425757120589e-01 0.000000000000000e+00 1.058169957782242e+00 6.325564283781506e-01 0.000000000000000e+00 1.167556212236738e+00 5.444613863691833e-01 0.000000000000000e+00 1.021509204635148e+00 4.306457964956466e+00 0.000000000000000e+00 9.249760607483019e-01 4.240686137320751e+00 0.000000000000000e+00 1.038824927240161e+00 4.193215529783378e+00 0.000000000000000e+00 6.140477785890850e-01 3.877958985257381e-01 0.000000000000000e+00 5.876865370665139e-01 4.641260454764261e-01 0.000000000000000e+00 4.985233412333956e-01 3.890769376372188e-01 0.000000000000000e+00 8.505257454769971e-01 4.304742794075727e+00 0.000000000000000e+00 9.249760607483019e-01 4.240686137320751e+00 0.000000000000000e+00 9.136899430584577e-01 4.366528851416208e+00 0.000000000000000e+00 1.217721174034548e+00 4.795799111255508e+00 0.000000000000000e+00 1.286316001784507e+00 4.713364343843550e+00 0.000000000000000e+00 1.330893336073056e+00 4.802100079534701e+00 0.000000000000000e+00 1.406791892218053e+00 4.712958382166945e+00 0.000000000000000e+00 1.286316001784507e+00 4.713364343843550e+00 0.000000000000000e+00 1.364646262478820e+00 4.592415066635965e+00 0.000000000000000e+00 1.406791892218053e+00 4.712958382166945e+00 0.000000000000000e+00 1.520349647702894e+00 4.725934894083145e+00 0.000000000000000e+00 1.444546878142265e+00 4.805729320756690e+00 0.000000000000000e+00 1.053976804423518e+00 5.111783379913616e-01 0.000000000000000e+00 1.058169957782242e+00 6.325564283781506e-01 0.000000000000000e+00 9.731998290332249e-01 5.704471431595811e-01 0.000000000000000e+00 9.457540055120633e-01 4.479990664125721e+00 0.000000000000000e+00 9.632120590257134e-01 4.593187479877926e+00 0.000000000000000e+00 8.488186929971376e-01 4.554461656195955e+00 0.000000000000000e+00 9.457540055120633e-01 4.479990664125721e+00 0.000000000000000e+00 9.136899430584577e-01 4.366528851416208e+00 0.000000000000000e+00 1.014058322891562e+00 4.409974741154480e+00 0.000000000000000e+00 7.146634246400515e-01 2.040887189500951e-01 0.000000000000000e+00 7.694604707706209e-01 2.730531642794763e-01 0.000000000000000e+00 6.726976395708967e-01 2.876661831819204e-01 0.000000000000000e+00 5.818851688336567e-01 3.023927590216423e-01 0.000000000000000e+00 6.726976395708967e-01 2.876661831819204e-01 0.000000000000000e+00 6.140477785890850e-01 3.877958985257381e-01 0.000000000000000e+00 1.014058322891562e+00 4.409974741154480e+00 0.000000000000000e+00 1.102033040334790e+00 4.388774056858976e+00 0.000000000000000e+00 1.052086496550295e+00 4.507933889775317e+00 0.000000000000000e+00 4.209153525333582e-01 7.498504268552800e-02 0.000000000000000e+00 3.157894736834524e-01 0.000000000000000e+00 0.000000000000000e+00 4.210526315779366e-01 0.000000000000000e+00 0.000000000000000e+00 1.691353031592377e-01 4.630297596376645e+00 0.000000000000000e+00 8.942628353205506e-02 4.620093306112614e+00 0.000000000000000e+00 1.385973799677695e-01 4.526400513386682e+00 0.000000000000000e+00 0.000000000000000e+00 4.591836734693878e+00 0.000000000000000e+00 0.000000000000000e+00 4.489795918367347e+00 0.000000000000000e+00 6.272666977118209e-02 4.533107743441798e+00 0.000000000000000e+00 6.272666977118209e-02 4.533107743441798e+00 0.000000000000000e+00 8.942628353205506e-02 4.620093306112614e+00 0.000000000000000e+00 0.000000000000000e+00 4.591836734693878e+00 0.000000000000000e+00 1.799696768310902e+00 3.849467768943328e-01 0.000000000000000e+00 1.689211001472062e+00 4.529014916071041e-01 0.000000000000000e+00 1.686356173437979e+00 3.249782898249454e-01 0.000000000000000e+00 1.686356173437979e+00 3.249782898249454e-01 0.000000000000000e+00 1.689211001472062e+00 4.529014916071041e-01 0.000000000000000e+00 1.587728198134857e+00 3.856392649237406e-01 0.000000000000000e+00 1.769553905740010e+00 4.371856910377475e+00 0.000000000000000e+00 1.671379238171647e+00 4.355565825994195e+00 0.000000000000000e+00 1.742362910288180e+00 4.274686612473190e+00 0.000000000000000e+00 2.358029283033816e-01 6.115643578091313e-01 0.000000000000000e+00 3.359160269493546e-01 6.613119939081207e-01 0.000000000000000e+00 2.363841735149307e-01 7.296874934688182e-01 0.000000000000000e+00 1.807134692036463e+00 4.570268112811003e+00 0.000000000000000e+00 1.697248708035143e+00 4.555627372102794e+00 0.000000000000000e+00 1.789234515049053e+00 4.469528438896718e+00 0.000000000000000e+00 1.923020723436804e-01 4.226788259659692e-01 0.000000000000000e+00 2.984553457856924e-01 4.475639080980484e-01 0.000000000000000e+00 2.220588771909371e-01 5.108576444228085e-01 0.000000000000000e+00 7.368421052615994e-01 0.000000000000000e+00 0.000000000000000e+00 8.421052631561770e-01 0.000000000000000e+00 0.000000000000000e+00 8.134038824017621e-01 8.223092854573356e-02 0.000000000000000e+00 8.134038824017621e-01 8.223092854573356e-02 0.000000000000
[...]
<PointData Scalars="conc_conc," Vectors="" Tensors="">
<DataArray type="Float64" Name="conc_conc" format="ascii">
1.273303217511132e-07 -4.252960080849873e-08 -4.556564934570680e-08 2.497470435948953e-07 3.858324651479655e-07 -1.639829567865916e-07 5.052121339030088e-07 4.807612532762587e-07 2.736453060634065e-06 2.866366072875440e-03 2.785765889317004e-03 2.967350437571369e-03 2.786191372430621e-06 6.623051243852142e-07 -1.335809371822209e-06 2.692237764645349e-03 2.776933523594712e-03 2.821709330054323e-03 2.348539127938869e-07 -5.827928655091351e-08 1.095625508674141e-07 1.559301049440827e-02 1.717183547733976e-02 6.585828773118681e-03 4.592378974707509e-03 4.901049883147292e-03 4.246776015231920e-03 5.120151230676945e-07 -1.209396790531050e-07 -1.674447658157863e-07 3.852854330815852e-03 4.231343598907960e-03 3.973126244058507e-03 1.629373525591041e-06 -3.417851655310007e-07 1.777593738645298e-06 2.903957574532885e-06 -4.930043231823999e-06 3.423928400816222e-06 2.866873264977051e-02 1.582362002107623e-02 1.545791499983597e-02 4.637920940235144e-03 4.609353755837349e-03 4.313690539300967e-03 -3.442337228060834e-08 -3.013148404581539e-08 -4.149815301796163e-08 -2.207024227305324e-03 6.213545731062775e-03 6.482516202131754e-03 1.207798957984351e-03 1.613499432932662e-03 1.459431895577258e-03 1.708868696149906e-03 1.259715820941272e-03 1.215769441597907e-03 2.134981676642157e-03 1.555948220311816e-03 1.578806922879913e-03 2.381440208570297e-03 2.152637543665982e-03 1.568406869857887e-03 -2.577211195135227e-04 -2.641373178153027e-05 4.370286738110962e-06 7.655174735752323e-06 -8.470120241748806e-06 -1.626456966973868e-05 2.817198533069715e-02 1.588613894670726e-02 3.422994863589600e-02 4.625223105459933e-03 4.331238399856837e-03 4.377908436921213e-03 1.719313948720923e-03 1.201624909798981e-03 1.675669945004709e-03 5.453866250886630e-06 -1.061700158543565e-05 1.070209583391271e-06 3.436985673626854e-03 3.730478515481140e-03 4.071474150671273e-03 -6.050518627993013e-05 -1.468326112455473e-05 1.559185361642685e-06 4.286201766360206e-06 -4.565665083619377e-06 4.461783603826415e-06 -2.372146690036773e-04 -3.333264018873079e-05 -2.937785809684327e-04 -6.009578195595658e-04 2.222241497101472e-03 -6.911159200801250e-04 1.230827131555707e-03 1.233333744250162e-03 1.214991481907197e-03 1.323029333744086e-06 2.035368474231794e-06 -1.495527108039814e-06 3.294886213935086e-06 -3.927510663069132e-06 3.174884899546868e-06 2.473969835972958e-03 2.148503854569894e-03 2.855813165723739e-03 3.495988797514088e-03 2.870944640387580e-03 3.421207940481692e-03 2.080003495403854e-06 -4.151336848718468e-07 2.126245446957184e-06 3.583263232825491e-03 3.386945824887909e-03 3.485420914256869e-03 -1.733903357273554e-04 -3.357657378278690e-05 -1.428266552263401e-04 6.850954347491826e-06 -6.843104355667937e-06 -2.343540051522340e-05 -2.622569543142370e-05 -2.114445363368659e-05 8.855236194784914e-06 3.464633914154189e-03 3.975016314952590e-03 3.772459838121034e-03 3.768364781310401e-03 3.994199735342835e-03 4.004933975746673e-03 2.497315993784712e-03 1.530759343499892e-02 6.603019610998370e-03 4.025813901027317e-03 4.602069021853438e-03 4.233735504982375e-03 -1.597252536043494e-03 5.174691401722156e-03 6.471539183281863e-04 3.530845943200960e-03 4.056240804916997e-03 3.799626656830077e-03 2.144442361638876e-03 1.565665337394607e-03 1.749407334850301e-03 1.751137207877250e-03 2.459255716098233e-03 2.151037950309213e-03 1.494999584407534e-03 1.561796163079626e-03 1.975640220347549e-03 2.469715857650677e-03 2.474864477797074e-03 1.987190069747625e-03 2.477056163580983e-03 2.866279811371643e-03 3.161952869122142e-03 -7.258643672235903e-05 1.280017701931883e-06 -3.775548973630960e-05 -2.720697746272125e-05 3.041557942390656e-06 -7.841856794855084e-05 -1.053654071744078e-04 9.569081664510433e-06 1.570370842652605e-06 4.630770845089893e-03 4.609513710874172e-03 4.803664908135347e-03 4.618695195491592e-03 4.813111902381799e-03 4.899137996076630e-03 4.238042574863860e-03 3.844031943296908e-03 4.099928578196839e-03 4.224033892737337e-03 4.113785336793126e-03 4.506401555357890e-03 2.250722907667367e-02 2.024722197759076e-02 2.605425263951894e-02 1.443626504733890e-02 2.598494713287101e-02 5.949529423255955e-03 1.536294467513439e-03 1.372848614360958e-02 5.957630346777559e-03 -4.313499102823625e-07 2.247909441321076e-06 2.360850240748080e-06 2.838552387022653e-03 -6.717594118146852e-04 1.162106838556729e-02 1.566792225145633e-02 2.170641625142264e-03 1.283152230207938e-02 4.028831954814622e-03 3.799964893194166e-03 4.301974778226938e-03 4.593932297355783e-03 4.037883726127956e-03 4.295523761594682e-03 4.191508240533973e-03 3.988599244692702e-03 4.008829617978831e-03 4.242566984971130e-03 4.202481162465532e-03 3.990765379929355e-03 2.689402894304459e-06 5.593282372716075e-06 -2.945146799404184e-06 1.143952353310068e-06 8.379517962685193e-07 -3.533491635012935e-07 1.006333811604530e-06 -2.704912100649441e-07 -1.338771886237254e-07 6.599093427028360e-07 6.291159472933990e-07 -2.386295522277663e-07 1.548567554021638e-03 1.500283191004733e-03 1.217808290952628e-03 7.009516702991506e-06 4.451267043866738e-06 -1.281052251415573e-05 1.194870265592557e-05 -1.813746101163510e-05 -1.547821590019152e-05 -1.932674971576284e-04 -1.071175749752565e-04 3.020811647074566e-05 6.957045289670953e-07 -1.750769261982545e-04 3.135188874649112e-05 1.418118330381154e-06 1.921875829266285e-06 8.880970341950101e-07 1.259505483564143e-06 8.235036008439455e-07 7.108845595111121e-07 2.476111268074481e-06 3.087603034444077e-06 -3.838920920750848e-06 6.142936120774449e-06 -5.203869816366475e-06 -1.295901590718954e-05 3.724808022077351e-03 3.421098780658835e-03 3.024732078400086e-03 4.774423802527450e-03 3.242336117046991e-02 8.902096116515244e-03 2.098955939567586e-03 1.432118518542006e-03 1.631363741544423e-03 3.011120184863133e-03 3.429309119734164e-03 2.408940221595849e-03 3.000191188631341e-03 2.406461935797810e-03 2.126143159079905e-03 -4.866332696303058e-06 3.731189560633107e-06 2.891862354692025e-06 -6.343327057204639e-06 3.998987143302662e-06 -1.244880216523890e-06 2.148888331793638e-03 2.468570974146541e-03 1.985176637083094e-03 2.136410964818521e-03 1.989557316884014e-03 1.555003757721444e-03 -1.800312933988280e-03 -1.132034388705698e-03 5.318916080880351e-03 5.280583036424876e-03 -3.069847008561181e-03 6.923045770828321e-03 -1.249726882452780e-04 -2.500315297065404e-04 -1.106461650086314e-05 -1.037655645137402e-04 -1.802438746895436e-05 4.487357419528883e-06 -2.353214441951265e-04 -4.737179511030443e-04 4.537225351946853e-04 -1.494855504525526e-03 -8.457119109325652e-05 4.962200292553529e-03 3.533704865700212e-03 3.322712410443934e-03 3.810283354121959e-03 3.540312978415125e-03 3.808928327738323e-03 4.049716836882861e-03 3.482444648272603e-03 3.437500072216673e-03 4.068417001638366e-03 3.777209807941246e-03 3.505680350197017e-03 4.049291449985350e-03 1.211235231535216e-03 1.513780871808098e-03 1.650956023799853e-03 1.223621592565723e-03 1.216775124513906e-03 1.643528480327963e-03 2.416955425719378e-03 3.421275784714372e-03 2.860565106867032e-03 2.408173811137610e-03 2.858685808012443e-03 2.144660240233660e-03 7.488132601473549e-06 -1.700157252003011e-07 -2.245341751675373e-05 8.791192141129817e-06 -2.386106806883377e-05 -7.274426090069550e-06 3.490033113794627e-03 3.152699508372752e-03 2.878558430799641e-03 -3.005627542527619e-05 -2.222086082186507e-05 -1.348064180919795e-04 1.760139840363580e-03 1.495432344751648e-03 1.976889036062012e-03 1.748271479927880e-03 1.987663845800242e-03 2.464659838190687e-03 4.052305626329612e-03 4.296843115464770e-03 3.808391077882650e-03 4.065042315251581e-03 4.400430968881442e-03 4.313765393777840e-03 7.174882349928870e-03 1.193109177542974e-02 -1.000265749900486e-03 -4.448492102768858e-03 4.005553180853182e-02 6.601895751454266e-03 1.024653170822665e-02 3.705463074754957e-02 1.256101789029486e-02 4.024251649897396e-03 3.782380136477406e-03 4.063927387106644e-03 5.503691349494369e-02 1.088995020433776e-02 3.668339155866839e-03 3.303482224436839e-02 4.895012030185154e-02 8.727994472793512e-03 9.719725646998811e-03 4.063404003397874e-02 3.777411026945992e-02 3.376264491992176e-02 -7.289788813785639e-03 9.500772065664801e-03 6.214830751139777e-03 -8.141545368721083e-03 3.592395704058492e-02 1.769269357650741e-02 1.282790579683276e-02 6.575922443114071e-02 1.568126762197835e-02 5.876388004920302e-02 1.712223732134297e-02 3.107316528903213e-03 3.036214672561556e-03 3.145937023655476e-03 -3.209202420298107e-05 4.385919118774873e-06 -6.266292467204524e-05 3.003984695713125e-03 3.073670486427161e-03 3.240480665767241e-03 3.258279961654050e-03 3.163711685990128e-03 3.231515308338504e-03 3.212651249755632e-03 3.155854051160944e-03 3.437669776024391e-03 -1.245557230392347e-04 -8.373827561540748e-05 -9.860169926410093e-05 6.189884671465539e-10 -4.669605235169094e-11 -6.783499035425757e-10 2.783293697660075e-03 2.154711230304052e-03 2.466003948421727e-03 3.157000009608348e-03 2.471156381706971e-03 2.479925031274103e-03 2.046198442287804e-07 4.542403515760533e-06 1.083570503272509e-06 2.256965850036311e-06 -5.980429873546092e-07 -6.277759834405152e-07 6.100867736166355e-05 4.991822429356087e-05 -1.768346826191121e-04 5.417464393899844e-03 7.559618767889453e-03 -5.703212349932204e-03 2.115554481682943e-06 -1.386963101833789e-05 8.164496863127277e-06 7.895214903175948e-06 -1.401572125166188e-05 2.389008327121090e-06 3.011711697287349e-07 3.108801786211631e-07 -1.413137483488589e-07 -3.374709638498561e-07 5.633116332990649e-07 9.476324697058447e-07 2.874141799985169e-03 2.780566776579048e-03 2.699183476658381e-03 2.978928389887222e-03 2.770582061500418e-03 2.890131069239047e-03 3.330419874948718e-03 3.274643596890431e-03 3.490425181802531e-03 3.944309799324621e-03 3.302562193685871e-03 2.322020355416774e-03 2.342756728597769e-03 2.995290159985572e-03 3.560140200257435e-03 5.585230901724284e-03 5.107956706168505e-03 4.496308024769908e-03 1.749674805390760e-03 4.711555109343523e-04 1.941988872115659e-04 1.826813040439111e-03 2.185724738217175e-03 4.184929807437588e-03 3.451206485199514e-03 1.694644828055997e-03 1.403028009781099e-03 1.342831253323835e-03 1.774523216597228e-03 2.823642141200900e-03 3.407262279158055e-03 2.190058062708138e-03 1.706073322667418e-03 1.482224790632171e-02 1.022157404710765e-02 8.888542081897485e-03 1.111019218317289e-02 6.118592979311231e-03 5.657841571714737e-03 6.904498779810477e-03 7.465716868494819e-03 1.241190730067765e-02 6.842362050396226e-03 7.100806180115929e-03 6.830932102790823e-03 6.833069224205342e-03 6.644388923372987e-03 6.839289707472696e-03 6.626671535727445e-03 6.706466902194951e-03 6.372596335385705e-03 6.388907124455035e-03 6.289317120832427e-03 6.611599180164658e-03 -7.902730771989935e-05 -1.381301151354512e-04 5.002822796930067e-04 3.264462396515247e-03 2.924621413216321e-03 1.807447780424858e-03 4.365511171065707e-03 4.443260422404625e-03 3.361314641135377e-03 2.387842678644296e-03 1.747778702429002e-03 9.392014044675131e-04 1.174238186508230e-03 2.163566425396275e-03 2.883018533631011e-03 7.220141300366217e-03 5.513343418219784e-03 4.098844337806061e-03 4.848957028636174e-03 6.359061797597286e-03 7.738854759164151e-03 7.103204037007173e-03 6.866094935889493e-03 9.960129680354358e-03 9.004035656185837e-03 5.886489786846147e-03 6.175971837217809e-03 2.645808090319062e-03 5.989351436505390e-03 5.016384381202911e-03 6.308151422478708e-03 7.306904130123670e-03 3.607573184032621e-03 1.672883130327088e-02 2.299288328230539e-02 2.097250493599509e-02 4.715293305698936e-03 5.435811730161429e-03 4.874538389219854e-03 4.951837549186328e-03 4.427402575278292e-03 4.900519743588906e-03 3.294159003319291e-03 1.664719720287307e-03 3.518974367922641e-03 4.252639416263795e-03 2.159126368695459e-03 4.030723053354559e-03 3.106798860605185e-03 2.649273102919858e-03 2.583353781280712e-03 -1.663454601320435e-04 1.594042152638884e-04 -3.863897584192800e-04 4.122531638695075e-03 4.400160739173506e-03 3.782958507528318e-03 9.113269496310483e-03 7.371590580737377e-03 8.671068433140099e-03 9.018080661840143e-03 7.328196329832668e-03 9.142477053773983e-03 9.395354524802288e-03 7.884324904530704e-03 9.779131359737013e-03 2.949915362163248e-03 2.170418425240915e-03 3.689354975436807e-03 3.705616256143003e-03 2.154727271289750e-03 3.441992525438346e-03 3.101989399363483e-03 1.751074249908560e-03 2.456697195185595e-03 2.859026622831348e-03 1.736155552254834e-03 3.117264401340142e-03 5.573009100295004e-03 6.919757361729797e-03 1.555997141332784e-03 2.272730453472257e-03 6.769272325702244e-03 6.390077552014738e-03 5.533177440848617e-03 4.855480886653020e-03 7.724869779327129e-03 5.506205861215095e-03 5.364167616267288e-03 3.453257986411582e-03 7.201195749658804e-03 4.109703748000445e-03 4.776991925697909e-03 2.862495019208087e-03 4.648795201542686e-03 4.748287716684688e-03 5.678688174396413e-03 1.573132643408683e-02 1.063118816924149e-02 7.109327188646142e-03 6.183303154898923e-03 7.388940542307984e-03 7.855799569539140e-03 6.800389993754091e-03 7.701192205028749e-03 6.901972866334631e-03 8.737792285335194e-03 7.300765212791461e-03 6.849099142858710e-03 4.672965987505693e-03 6.431715572776549e-03 7.828406873339480e-03 9.452627382120434e-03 7.666767018523324e-03 7.171768794268297e-03 5.398691325690889e-03 7.640297584703522e-03 3.672426940046363e-06 2.485692454505708e-06 -1.154287520321025e-06 1.669004205997762e-02 1.533257188101402e-02 1.561065443750451e-02 1.622738121683304e-02 1.323838202622401e-02 1.615758833358728e-02 3.474425951879443e-03 3.278654247331208e-03 3.326689672127512e-03 2.584698525125529e-03 2.629954702761541e-03 2.166381568827956e-03 1.338371868698390e-03 1.359694878428986e-03 1.139609494170627e-03 4.547612644606186e-03 4.428419287534526e-03 4.950099980512717e-03 4.935311223348855e-03 4.765465411760389e-03 4.570829165870822e-03 1.179387147488253e-03 1.303331012882388e-03 1.159848243340454e-03 4.960149985276500e-03 4.750656116148878e-03 4.949393910608362e-03 2.290554744741511e-03 2.635265221843687e-03 2.868313877970324e-03 1.033088661307253e-02 6.114920914714278e-03 1.114522992512036e-02 1.241503518175379e-02 7.481744000718482e-03 1.169816865842986e-02 1.496422748476581e-03 2.286661274539945e-03 1.977774923904925e-03 2.980121491554561e-06 8.432153669375357e-07 1.623316050403429e-06 3.513730077908955e-03 3.241611039450267e-03 3.253319243554229e-03 3.084462873087335e-03 3.328452640659938e-03 3.349884165499000e-03 3.368098265815418e-03 3.296291977595327e-03 3.517551052654553e-03 4.424920795356426e-07 9.442507677921289e-07 -2.611983006618149e-07 4.298513146746392e-06 -2.937481393183672e-05 7.699021080818112e-06 3.558386522565717e-03 3.364081448371157e-03 3.606998125059317e-03 3.787848402087552e-03 4.396049035022953e-03 4.029805625446138e-03 1.196030193093752e-03 1.263330767043559e-03 1.226964266931046e-03 1.503131127991201e-03 1.328592159990372e-03 1.217594535590830e-03 1.222815133058555e-03 1.283407691162719e-03 1.497858602391572e-03 1.016120058437765e-02 9.741122609184001e-03 1.005537429214376e-02 9.120487056739426e-03 9.026151638406223e-03 9.672459048970744e-03 1.143104696848002e-09 -1.538370335649736e-08 -2.494421644462910e-08 8.029159437118816e-10 -1.663300273017269e-08 1.391088414370253e-09 4.998726226768896e-03 5.624504798545951e-03 7.449346412436087e-03 7.638104775255375e-03 5.693571447570953e-03 5.042875043890725e-03 2.631501594969308e-03 2.285241777582995e-03 1.933770176997525e-03 1.938370487312858e-03 2.162563577476912e-03 2.626018389656056e-03 3.933463835601629e-03 4.202496500601435e-03 4.405068718338787e-03 4.399223968344025e-03 4.177036430113670e-03 4.261673481072354e-03 2.956278351467311e-03 5.386874745722300e-03 3.645264503166554e-03 4.244750572699550e-03 6.051779543245708e-03 3.478832360471813e-03 9.664222336728841e-03 2.066466846144116e-03 1.064031121438451e-02 -1.772247721486061e-07 7.026848393927574e-07 3.186039682421832e-06 3.429151247720281e-06 4.757272614665417e-06 -3.329395477537780e-07 4.023698259074249e-03 4.198866995674748e-03 3.667439898740761e-03 3.663364664350306e-03 4.196488210508351e-03 3.469372503951779e-03 2.634322702408094e-03 5.986824613593219e-03 -1.697487980563369e-04 2.154378815393323e-03 1.672707560844167e-03 1.492498511929643e-03 2.723981049398274e-03 4.970305136253858e-03 1.412835967392552e-03 6.799575786731830e-03 6.704894341255544e-03 6.393528321526208e-03 5.867371066211107e-03 6.348300445353352e-03 6.357979535802917e-03 2.091252673425608e-03 6.253067418100778e-03 3.677058457664929e-03 1.530368898405420e-02 1.931600128071526e-02 2.355059603367503e-02 1.013051154421105e-02 1.983431677505562e-02 1.459170541654038e-02 1.268509099061626e-03 -2.576088323529788e-04 4.529991892691709e-04 6.145396709149062e-04 -2.853333824947410e-04 1.284961883740434e-03 1.654110043085303e-03 1.491597408653300e-03 1.240767964873333e-03 -6.351520421826807e-05 -1.978762018507271e-05 -7.580704541008578e-05 3.749801368433072e-03 3.983577191362416e-03 3.724221449602131e-03 3.712773788113617e-03 3.515590890916050e-03 3.763556634595426e-03 2.477058381524023e-03 5.912973279849488e-03 2.674696399408591e-03 3.630736259514804e-03 7.235333842190658e-03 3.351897055682596e-03 -8.596981392151750e-08 4.336227750064370e-07 -1.551408028846702e-07 8.699993560544626e-03 6.958834110850567e-03 8.225115894040614e-03 8.274127853113910e-03 6.912589452388926e-03 6.454215940793288e-03 8.892321175811943e-03 7.735918103735960e-03 9.399472033676049e-03 7.197725405022293e-03 7.689771874729660e-03 8.948784470545883e-03 4.442983964605999e-03 4.440681169306721e-03 4.943972019274655e-03 1.287168405274216e-02 2.352599386516355e-02 1.524898121161009e-02 1.958098635760507e-02 2.365335868982129e-02 1.276412740098815e-02 2.542228966820460e-03 1.831915795714047e-03 3.813110723515019e-03 4.273036035887117e-03 6.331196416488109e-03 3.812324807625200e-03 3.840190253704411e-03 1.798754368758897e-03 4.210257676066016e-03 3.144846589278202e-03 1.405506905058178e-03 2.037682754667389e-03 3.139633377737340e-03 5.476422404963746e-03 3.536488953881789e-03 3.478376991067001e-03 1.372152797292966e-03 3.170926513829264e-03 5.894239298078400e-03 1.359584693785747e-02 1.700734599592898e-03 7.601024972551575e-07 -2.719548818993215e-07 3.421211101368622e-07 6.007567365368389e-07 7.482405076632818e-07 1.306378492749658e-06 1.003385056063919e-02 1.391844011247466e-02 2.346731465237231e-03 2.334911711451310e-03 1.390550540870799e-02 4.575187184984154e-03 -8.156589312446795e-04 4.213503096011164e-04 -3.604247239502842e-04 3.222929522131069e-03 3.276079818770376e-03 3.399303236389817e-03 3.091471441081061e-03 2.772016193877518e-03 2.486024750266828e-03 3.089723080144153e-03 3.175811623605052e-03 3.532467848475385e-03 2.483023894535326e-03 3.155480351150117e-03 3.099970076021091e-03 2.397485149215906e-03 2.337709160967708e-03 3.562318033977542e-03 2.381972251598239e-03 4.036023567575083e-03 3.083192388748386e-03 3.586518706424130e-03 4.035335673230336e-03 2.384307280870384e-03 -6.500554169301484e-05 -1.241006411991388e-04 1.686428904431788e-05 1.764926201371349e-03 1.244911754033805e-03 1.740355466302531e-03 1.790712000825758e-03 2.282291675964790e-03 1.501110407022952e-03 1.508834949274304e-03 1.251842546313428e-03 1.762921750475073e-03 -4.697940947928667e-04 1.603573295511865e-03 -1.204621183565482e-03 3.321252343469810e-03 3.804495288447837e-03 3.326553960508614e-03 5.579570242549463e-03 4.502657417189391e-03 4.987152674911952e-03 1.149365295166510e-03 1.274501448637777e-03 1.464475686129479e-03 1.464735613744722e-03 1.227509381817865e-03 1.148236787084461e-03 7.639363401396363e-04 3.547794630793392e-03 3.129423233474970e-04 3.316369996481638e-03 3.795292625087863e-03 6.817388414630687e-04 3.401746245122939e-03 3.800320447704868e-03 4.011858748393907e-03 9.386682963432726e-03 9.791448866476413e-03 9.726165534729584e-03 9.235857168973419e-03 9.098473184041563e-03 8.728148515718971e-03 3.909501635478915e-04 -2.500470978101254e-04 -3.387408435271677e-04 -1.289846763702906e-04 -