<?xml version="1.0"?>
<VTKFile type="UnstructuredGrid" version="0.1" byte_order="LittleEndian">
<UnstructuredGrid>
<Piece NumberOfPoints="2028" NumberOfCells="724">
<Points>
<DataArray type="Float64" NumberOfComponents="3" format="ascii">
0 0.69999999999999996 0 0.59999999999999998 0.69999999999999996 0 0 1.6319639930219929 0 0.59999999999999998 0.69999999999999996 0 0 1.6319639930219929 0 0.94999999999923723 1.2749999999987469 0 0.59999999999999998 0.69999999999999996 0 0.94999999999923723 1.2749999999987469 0 0 1.6319639930219929 0 0.68142292217753131 2.106313194182027 0 0.94999999999923723 1.2749999999987469 0 0 1.6319639930219929 0 0.68142292217753131 2.106313194182027 0 0 2.430303940964651 0 1.299999999998378 1.8499999999973351 0 0.94999999999923723 1.2749999999987469 0 0.68142292217753131 2.106313194182027 0 1.299999999998378 1.8499999999973351 0 0.94999999999923723 1.2749999999987469 0 0.68142292217753131 2.106313194182027 0 1.299999999998378 1.8499999999973351 0 1.186467289461244 2.488259157846338 0 1.299999999998378 1.8499999999973351 0 1.649999999999066 2.4249999999984651 0 1.299999999998378 1.8499999999973351 0 1.186467289461244 2.488259157846338 0 1.649999999999066 2.4249999999984651 0 1.299999999998378 1.8499999999973351 0 0.94999999999923723 1.2749999999987469 0 1.626949751997165 1.3978044304614949 0 1.243750000001385 0.69999999999999996 0 0.94999999999923723 1.2749999999987469 0 1.626949751997165 1.3978044304614949 0 1.243750000001385 0.69999999999999996 0 1.887500000003292 0.69999999999999996 0 1.626949751997165 1.3978044304614949 0 0.59999999999999998 0.69999999999999996 0 1.243750000001385 0.69999999999999996 0 0.94999999999923723 1.2749999999987469 0 0.45714634023723411 3.4614941897304652 0 1.013301616169622 3.6128741719811099 0 0.56249999999824107 3.9749999999991399 0 0 3.7000000000000002 0 0.56249999999824107 3.9749999999991399 0 0 3.7000000000000002 0 0.45714634023723411 3.4614941897304652 0 0.56249999999824107 3.9749999999991399 0 0 3.1141786369756268 0 0.45714634023723411 3.4614941897304652 0 0.70993008501830757 2.9054181396964478 0 0 3.7000000000000002 0 0 3.1141786369756268 0 0.45714634023723411 3.4614941897304652 0 0.45714634023723411 3.4614941897304652 0 0.70993008501830757 2.9054181396964478 0 1.013301616169622 3.6128741719811099 0 0.68142292217753131 2.106313194182027 0 0.70993008501830757 2.9054181396964478 0 0 2.430303940964651 0 0 3.1141786369756268 0 0.70993008501830757 2.9054181396964478 0 0 2.430303940964651 0 0.68142292217753131 2.106313194182027 0 0.70993008501830757 2.9054181396964478 0 1.186467289461244 2.488259157846338 0 1.186467289461244 2.488259157846338 0 1.451787781083937 3.11022608666643 0 1.649999999999066 2.4249999999984651 0 0.70993008501830757 2.9054181396964478 0 1.186467289461244 2.488259157846338 0 1.451787781083937 3.11022608666643 0 0.70993008501830757 2.9054181396964478 0 1.451787781083937 3.11022608666643 0 1.013301616169622 3.6128741719811099 0 1.451787781083937 3.11022608666643 0 1.013301616169622 3.6128741719811099 0 1.593428957229921 3.8897035774451321 0 2.08333333333292 3.599999999997022 0 2.4236693135559251 3.5256579194055688 0 2.1666666666662731 4.1999999999971616 0 1.451787781083937 3.11022608666643 0 2.08333333333292 3.599999999997022 0 1.593428957229921 3.8897035774451321 0 1.451787781083937 3.11022608666643 0 2.08333333333292 3.599999999997022 0 2 3 0 2 3 0 2.6000000000000818 2.8399999999999781 0 2.4236693135559251 3.5256579194055688 0 2.08333333333292 3.599999999997022 0 2 3 0 2.08333333333292 3.599999999997022 0 2 3 0 2.4236693135559251 3.5256579194055688 0 2 3 0 2.2687831884271348 2.397628317379688 0 2.6000000000000818 2.8399999999999781 0 2 3 0 2.6000000000000818 2.8399999999999781 0 2 3 0 1.649999999999066 2.4249999999984651 0 1.451787781083937 3.11022608666643 0 2 3 0 1.649999999999066 2.4249999999984651 0 2 3 0 1.649999999999066 2.4249999999984651 0 2.2687831884271348 2.397628317379688 0 2.2687831884271348 2.397628317379688 0 2.8857059848027808 2.304389417342541 0 2.6000000000000818 2.8399999999999781 0 2.8857059848027808 2.304389417342541 0 2.6000000000000818 2.8399999999999781 0 3.2000000000001432 2.679999999999962 0 2.6000000000000818 2.8399999999999781 0 3.2000000000001432 2.679999999999962 0 3.2848100522576571 3.06994577157805 0 2.6000000000000818 2.8399999999999781 0 3.2000000000001432 2.679999999999962 0 2.6000000000000818 2.8399999999999781 0 2.9420158813362729 3.5139475164392531 0 2.4236693135559251 3.5256579194055688 0 2.6000000000000818 2.8399999999999781 0 2.9420158813362729 3.5139475164392531 0 3.2848100522576571 3.06994577157805 0 2.9420158813362729 3.5139475164392531 0 3.412636880282601 3.6134558579332841 0 3.1249999999889848 4 0 2.9420158813362729 3.5139475164392531 0 2.75 4 0 3.1249999999889848 4 0 2.9420158813362729 3.5139475164392531 0 2.4236693135559251 3.5256579194055688 0 2.75 4 0 2.23284951060374 1.369095413116082 0 1.887500000003292 0.69999999999999996 0 2.5312500000049418 0.69999999999999996 0 2.23284951060374 1.369095413116082 0 1.887500000003292 0.69999999999999996 0 1.626949751997165 1.3978044304614949 0 1.299999999998378 1.8499999999973351 0 1.626949751997165 1.3978044304614949 0 1.942890303101708 1.90249985684108 0 2.23284951060374 1.369095413116082 0 1.626949751997165 1.3978044304614949 0 1.942890303101708 1.90249985684108 0 1.649999999999066 2.4249999999984651 0 2.2687831884271348 2.397628317379688 0 1.942890303101708 1.90249985684108 0 1.299999999998378 1.8499999999973351 0 1.649999999999066 2.4249999999984651 0 1.942890303101708 1.90249985684108 0 2.2687831884271348 2.397628317379688 0 1.942890303101708 1.90249985684108 0 2.5341028426591712 1.9138806300960609 0 2.23284951060374 1.369095413116082 0 1.942890303101708 1.90249985684108 0 2.5341028426591712 1.9138806300960609 0 2.23284951060374 1.369095413116082 0 2.5341028426591712 1.9138806300960609 0 2.730231246675086 1.4599417336750831 0 2.2687831884271348 2.397628317379688 0 2.8857059848027808 2.304389417342541 0 2.5341028426591712 1.9138806300960609 0 2.8857059848027808 2.304389417342541 0 3.16379900756549 1.750659825629856 0 3.5028943452390711 2.1825773809523441 0 2.8857059848027808 2.304389417342541 0 2.5341028426591712 1.9138806300960609 0 3.16379900756549 1.750659825629856 0 2.5341028426591712 1.9138806300960609 0 3.16379900756549 1.750659825629856 0 2.730231246675086 1.4599417336750831 0 3.16379900756549 1.750659825629856 0 3.047698899035677 1.175177397439602 0 2.730231246675086 1.4599417336750831 0 3.047698899035677 1.175177397439602 0 2.730231246675086 1.4599417336750831 0 2.5312500000049418 0.69999999999999996 0 2.23284951060374 1.369095413116082 0 2.730231246675086 1.4599417336750831 0 2.5312500000049418 0.69999999999999996 0 3.047698899035677 1.175177397439602 0 2.5312500000049418 0.69999999999999996 0 3.1750000000065048 0.69999999999999996 0 3.047698899035677 1.175177397439602 0 3.1750000000065048 0.69999999999999996 0 3.638214240926366 1.265285427893069 0 3.1750000000065048 0.69999999999999996 0 3.638214240926366 1.265285427893069 0 3.8187500000045098 0.69999999999999996 0 3.16379900756549 1.750659825629856 0 3.047698899035677 1.175177397439602 0 3.638214240926366 1.265285427893069 0 3.638214240926366 1.265285427893069 0 3.8187500000045098 0.69999999999999996 0 4.2198317920941601 1.108273596938623 0 3.8187500000045098 0.69999999999999996 0 4.2198317920941601 1.108273596938623 0 4.4625000000026009 0.69999999999999996 0 3.638214240926366 1.265285427893069 0 4.2198317920941601 1.108273596938623 0 4.25 1.5 0 4.2198317920941601 1.108273596938623 0 4.7733688274428578 1.2511819424194319 0 4.25 1.5 0 4.2198317920941601 1.108273596938623 0 4.7733688274428578 1.2511819424194319 0 4.4625000000026009 0.69999999999999996 0 4.7733688274428578 1.2511819424194319 0 4.4625000000026009 0.69999999999999996 0 5.1062500000012143 0.69999999999999996 0 4.4000000000001336 2.3599999999999639 0 5 2.2000000000000002 0 4.6250000000004974 1.8500000000004651 0 4.4000000000001336 2.3599999999999639 0 5 2.2000000000000002 0 4.7733688274428578 1.2511819424194319 0 4.6250000000004974 1.8500000000004651 0 4.25 1.5 0 4.6250000000004974 1.8500000000004651 0 4.25 1.5 0 4.6250000000004974 1.8500000000004651 0 4.25 1.5 0 4.0559490150232032 2.028653202947901 0 4.25 1.5 0 4.0559490150232032 2.028653202947901 0 3.757799744899315 1.759341836734688 0 4.6250000000004974 1.8500000000004651 0 4.0559490150232032 2.028653202947901 0 4.4000000000001336 2.3599999999999639 0 4.0559490150232032 2.028653202947901 0 3.757799744899315 1.759341836734688 0 3.5028943452390711 2.1825773809523441 0 4.0559490150232032 2.028653202947901 0 3.5028943452390711 2.1825773809523441 0 3.8000000000002032 2.5199999999999458 0 3.638214240926366 1.265285427893069 0 4.25 1.5 0 3.757799744899315 1.759341836734688 0 3.16379900756549 1.750659825629856 0 3.638214240926366 1.265285427893069 0 3.757799744899315 1.759341836734688 0 3.16379900756549 1.750659825629856 0 3.757799744899315 1.759341836734688 0 3.5028943452390711 2.1825773809523441 0 2.8857059848027808 2.304389417342541 0 3.5028943452390711 2.1825773809523441 0 3.2000000000001432 2.679999999999962 0 3.2000000000001432 2.679999999999962 0 3.8000000000002032 2.5199999999999458 0 3.5028943452390711 2.1825773809523441 0 3.2000000000001432 2.679999999999962 0 3.8000000000002032 2.5199999999999458 0 3.2000000000001432 2.679999999999962 0 3.2848100522576571 3.06994577157805 0 3.8000000000002032 2.5199999999999458 0 3.2848100522576571 3.06994577157805 0 3.8000000000002032 2.5199999999999458 0 3.8190056356267248 3.2454749759848052 0 3.412636880282601 3.6134558579332841 0 3.5 4 0 3.1249999999889848 4 0 3.2848100522576571 3.06994577157805 0 3.412636880282601 3.6134558579332841 0 3.8190056356267248 3.2454749759848052 0 2.9420158813362729 3.5139475164392531 0 3.2848100522576571 3.06994577157805 0 3.412636880282601 3.6134558579332841 0 3.412636880282601 3.6134558579332841 0 3.874999999992375 3.7500000000050839 0 3.5 4 0 3.412636880282601 3.6134558579332841 0 3.819005635626
[...]
<PointData Scalars="A_conc,B_conc,region_id," Vectors="" Tensors="">
<DataArray type="Float64" Name="A_conc" format="ascii">
0.32678651186249708 0.33971358119621409 0.71765335333786084 0.33691350438948481 0.71621993095704495 0.67132417446623305 0.30234119817419414 0.68623399988660516 0.65608835580600389 0.76378759930672457 0.63552513726061277 0.66420255166566022 0.7600782771387351 0.76556434869309231 0.76394859939387572 0.62926520951595988 0.76304078442880163 0.76108108206950464 0.63482730542391741 0.74798891605774909 0.75001140443804748 0.8057019862669319 0.75020091370623065 0.81864788417071754 0.74978038555291804 0.80504642088800604 0.81878207588202601 0.3151864264931109 0.08395397443545019 0.20048412881459446 -0.061694442815203247 0.098846952598433041 0.18838848018040044 -0.068710377934435241 -0.065059744257512056 0.19659693490241578 -0.044968725708355486 -0.052041332880265127 0.097010058588620621 0.79405100934111261 0.80885355012739191 0.74348956040934877 0.7772417305837872 0.78007936541815293 0.73335816381862884 0.79495037007194269 0.7435417229035659 0.78361171287865039 0.78601592358821337 0.81410723580707967 0.74379750287422841 0.79131641993298085 0.79078716897371382 0.78618758111852038 0.81357006323902792 0.80179978633186977 0.75365601092762335 0.80958500967880798 0.75369530652734051 0.79554952220542641 0.81127493862495015 0.75681608008420587 0.75356048349708193 0.80895117407003314 0.80271960165343981 0.79916594980650268 0.83708007071869195 0.81350033700888913 0.80461682641540067 0.79897524952634458 0.83752838121990891 0.81314520650402244 0.83445816360560077 0.80165507530623903 0.8323063675480219 0.79966878026097987 0.81454450992531591 0.71848220305164479 0.73347605855442777 0.62247567798157133 0.83174255392458518 0.84170476323198695 0.81446464506990091 0.82946489129613477 0.840868676341197 0.84904572540140955 0.81134160369325081 0.86800879519182739 0.72962448367323385 0.84080126679204736 0.84871939386960671 0.72058914550612951 0.81399768896051972 0.72941478206291477 0.61963997065408882 0.5971972549569855 0.75261829709649652 0.84809260851959556 0.85323233116539265 0.85132737495059796 0.81307597696099021 0.83675026887948267 0.85150241229961321 0.81325029181580433 0.61523730075622651 0.45285793801184421 0.59917021147061178 0.59952022743870814 0.69227178998542815 0.74854066456300028 0.68657095724133332 0.75057013440308107 0.82278988046937673 0.85761544235925302 0.86149390125323622 0.76944969451664103 0.85292995017695827 0.8559531952196443 0.86414208023664951 0.70547886255819736 0.73941177671417713 0.85999075650207046 0.70809263907651909 0.77037801557417462 0.72178569928888192 0.67577456286027271 0.63020082208124695 0.72346373712580958 0.63350524653329932 0.62957954364716417 0.71220153906516415 0.73505085254953917 0.62948906754090117 0.26118753124404204 -0.080484960126033553 -0.073000065850391926 0.2530074425618361 -0.072826825121431626 0.20454598325102116 0.31992804518216411 0.20345529412244218 0.46328515926781239 0.27953082343876556 0.19792071144705006 0.46904281698327777 0.47901219775227666 0.60193069202860017 0.4630748345814889 0.32449323141749686 0.48240372224429512 0.46260528937884293 0.60050643917832525 0.46354718996046168 0.57030481159549729 0.27524054277907423 0.47157007706979509 0.61646089364704326 0.26961854628613435 0.62126852001930299 0.42086430579910439 0.61075281240251 0.72043790316254996 0.55752924384165281 0.71485339313476759 0.62991849620205242 0.7870557126040727 0.71821705083974618 0.55893193323880352 0.63049653995196298 0.60707206371184763 0.69576908131369131 0.43082783069535524 0.71134311193220423 0.25669968238427943 0.40986562421691275 0.20843977113592019 0.38731147364805041 -0.089065861268576171 0.26804626097662221 0.38145890574556096 -0.081631959305587906 0.18383444107006647 -0.04970545479310632 -0.040240529403494339 0.18691533315279704 -0.045233026182084038 0.28126873960468002 -0.048223213436042557 0.28641986563605532 -0.032460790943851764 0.71423020722991715 0.25317259837745792 0.48809906894251942 0.29112578660168781 -0.036472781338019289 0.13703979877725223 0.035906638152957276 0.11080453068721875 0.056958116049171892 0.40518979403624911 0.20166116620600485 0.92091704664165264 0.20102259895815403 0.15570184185529704 0.92507574757924971 0.11161334682898956 0.099144786079438635 0.056471863398749544 0.090293478223096107 0.078293988195400704 0.12457909564997173 0.86096134186955431 0.86338020382870007 0.82328737746441782 0.85240681172969401 0.8669058697786709 0.1501075965801803 0.87580871702660312 0.92320388583837265 0.87665301843877097 0.64595439987554359 0.86933221240203562 0.66118109309530426 0.83931091037253713 0.66018335452068611 0.8426279134550444 0.69516622781437398 0.82340879829992941 0.79452854445497734 0.85415010391952506 0.83344594471589084 0.70985366925301197 0.78436124571192278 0.78645011732786463 0.75652909603061658 0.84468342202978042 0.53943338681732622 0.80972434501826562 0.73556267682822551 0.63727985232103368 0.54300268462651491 0.7357061605529126 0.63319701299238829 0.71498486056563337 0.78378405848246058 0.69000460692298637 0.75053388227329254 0.81915841489686192 0.85587772775611337 0.85850076573547995 0.74982950384052083 0.81595341318901971 0.84795662439637387 0.86198291942008487 0.76862989649415414 0.85288202096853061 0.77513465741016596 0.84499932169327197 0.69728892279964216 0.6679363494509083 0.68909774741243834 0.6052340328011222 0.77746168466230126 0.67686641970262773 0.6972376101808857 0.71992762138169075 0.77912877575867345 0.67523486951926126 0.6644766192808873 0.82335566989956088 0.69537092671051193 0.66507264005704381 0.74479673420585324 0.82187112323946332 0.75940320528665839 0.80706051953066948 0.89974221576507019 0.8025578544580283 0.77533154815449501 0.87927198243184368 0.8792448833565214 0.72677087857182998 0.7572685524451529 0.8804495563173621 0.726830773493083 0.80925311387747512 0.86664792130009283 0.76004195017775089 0.89867105008610737 0.83741233103000212 0.87234067332314258 0.86071035481115454 0.89956369038368589 0.8620478321480598 0.87260428886595021 0.86068642436981546 0.86435943375887136 0.87685753532068067 0.81594763679135784 0.8797436060944982 0.78986782558180679 0.7259776946736084 0.85846920292147733 0.86099226695447895 0.83948997836238803 0.71311575078610423 0.83179689846657268 0.78669941893143247 0.84208022854645614 0.85703632080995418 0.84269218576866334 0.70004860775147215 0.71225838839969957 0.72709836632654845 0.66724691968301675 0.82484666975881471 0.8382599696170584 0.83184930924490785 0.89585897581219009 0.59960301847555675 0.93597980949706738 0.92823962122080717 0.54770221633936134 0.953452948895543 0.67647507292554243 0.9512284487395527 0.92703493546201332 0.90914094148810698 0.90613189045711484 0.83278083346487752 0.91327721924659755 0.91797551759620644 0.83217302507470359 0.89462981119671803 0.9185197403596348 0.91094501192302457 0.89736627609300101 0.91084701590099504 0.90535338211086724 0.89516052085133468 0.89450920491869057 0.9627335300883656 0.80838859949356445 0.91689376907909859 0.88842637922447298 0.96272819484156935 0.91018116243953784 0.90877057263994765 -0.008957943259920699 0.05731171897277066 -0.0060486260020270553 0.87738904817682184 0.81481379689356792 0.85586767326852597 0.86765882619414336 0.90127123405974452 0.86754206542932455 0.90068984878683145 0.90368589031438074 0.87028538378983455 0.89959844970754199 -0.01139226529594055 0.090338555681664989 0.14758703928177974 0.56116864999193683 0.10180926906171466 0.16792527571544952 0.26478133152127215 0.11414854067847388 0.030622684224253162 -0.017550742477885246 0.15990956858957583 0.071881929399614075 0.29110117845890543 0.30890149480489787 0.10878368111969057 0.93204342710845922 0.92097014886402817 0.60389614586847917 0.073087829184960415 0.65528544305961178 0.29487377784301205 0.64106974860074306 0.31564825194612406 0.69148052678165484 0.70205137651158445 0.81915289189574803 0.76369520896066723 0.90054811533287571 0.65144470479246053 0.6781756873098127 0.30806152666482373 0.93163706813539948 0.93889223046980863 0.63825377731822597 0.40832534145540911 0.70302470763575209 0.93728320388080999 0.93988940038038948 0.80621532498337967 0.80833293202761525 0.85734317661792969 0.67973622909427522 0.69077825543868265 0.80908371184631112 0.85564582460034899 0.8741032630847303 0.86681383626556296 0.92111799613386869 0.86148001910350558 0.93977183597989544 0.94172576525553742 0.96252697926121966 0.75430540025983062 0.77056800964814332 0.95522576030577311 0.96373814422001924 0.75046525354309845 0.95990478536864166 0.74747657102137699 0.81201250636472366 0.75619601305959694 0.17828866667038856 0.66313341581440532 0.20953882384066369 0.34808199677180923 0.41382244800180418 0.26727803654149229 0.16822182644311079 0.21130005148723477 0.34866049781180408 0.16115768521099888 0.75668913839479135 0.18272178911741183 0.14158583276400849 0.12373456191627499 0.25545536173937705 0.25976508879398608 0.1697566806274915 0.13346001489188797 0.088469466444266356 0.14690891385180743 0.12675363435533904 0.11797932969621373 0.12407916626317467 0.24933215715871596 -0.037644898269590027 0.87713399637432488 0.11622868574837833 0.38976244276922523 0.25745260255461183 0.82865775226606297 0.86723531800579456 0.9143328307293288 0.59378250256115361 0.096531382664508239 0.79373356165666387 0.82478379077176589 0.61226402864034424 0.89766241456409479 0.78066071874008591 0.80819569886185949 0.75185755195683468 0.14232049984530934 0.59787195493244116 0.74801255034878211 0.82454288858880509 0.61260805612690894 0.42537248945099615 0.2162913851986798 0.25494130306987306 0.43481546002183041 0.43776944662154638 0.22110815198908843 0.43442147398597331 0.22524465703209587 0.25642328433290024 0.74694346656288835 0.34505904847847302 0.4145732104869489 0.34345853436697288 0.41216923580816828 0.19083817531466138 0.36820634011806169 0.73748373512649201 0.26409398607066359 0.77156216964382174 0.79241677659890231 0.74584471620714554 0.34224663302893343 0.74860367834678709 0.79207140779123375 0.80851207316306295 0.73438227968854541 0.71350438761466051 0.26426523745298064 0.69425351747437314 0.30065696821154003 0.4903848954540444 0.80790375582726404 0.8209733803132292 0.43138016895076825 0.45246335332899651 0.66882326353784349 0.42873953377248775 0.25195282946606651 0.46891205162294142 0.26271654993823246 0.43210255225579502 0.45072326125732959 0.42427335552671086 0.48135370797165761 0.65196108907091221 0.47849350907750671 0.65134165709144864 0.72410426137431116 0.48212216609472663 0.65143405529846699 0.649247375413053 0.85138291503623809 0.85944350538626657 0.87849008673451467 0.83380216395709472 0.86963792954304997 0.81763297832329318 0.649720003398497 0.64469776547876034 0.88729472434215506 0.84567371653562329 0.89215605470507908 0.84520246868517679 0.89543283748368308 0.82174909248571304 0.92523326531986927 0.93279972149860113 0.9052433095966036 0.92676014397430428 0.90505054474291879 0.89129386991738446 0.88611194022855566 0.92596916820606168 0.89098968662197386 0.94178778188737522 0.9389077094719801 0.90779888095338701 0.84476011476079682 0.89255786030933626 0.84174504667445937 0.89661530907357434 0.8573118111971969 0.93235434789729899 0.89175609023953328 0.92335556447938072 0.89573177412395866 0.92298522758077017 0.90799409747867144 0.89578835060444861 0.91100359996160718 0.8570324479928737 0.92148374684319967 0.90392178026559977 0.89083673486097714 0.86194001567363809 0.85693692908508901 0.86190044325348336 0.83587498124746729 0.85778576618368152 0.88078525832718013 0.86342553527741017 0.77576467816231864 0.72362062837229768 0.88955516128799228 0.62924062323646068 0.83961815711192078 0.64526964644734597 0.63032982380145264 0.44573254067170742 0.64809474304252168 0.64045416256043752 0.93920464089901767 0.93342296595135932 0.84231748692986141 0.85972280830475001 0.79525086224291641 0.62459665082407401 0.67384857566703549 0.86364123190255204 0.78702911353996141 0.83625924718749423 0.62528601024718777 0.43590394810547639 0.68037628376611747 0.44647988056972238 0.42384653741641309 0.6421564393205611 0.33623087449423417 0.75690768477032022 0.97973377764864522 0.90961457050760797 0.90774348477117051 0.32251451288558453 0.98762071246736882 0.89370329613473343 0.69252980212937076 0.6887927828464373 0.88283310386971925 0.90778115919247959 0.90392118235575658 0.69251784851634524 0.83601577802136418 0.88067887195081385 0.68744013298243378 0.8849655590223261 0.72106076431729538 0.82786691891291964 0.88415909933151393 0.82243792574588725 0.82801053265527014 0.82318587570255219 0.80462408103995142 0.72229716848107495 0.89152672471770067 0.76061585767012407 0.79895470994220252 0.87900075725885418 0.86104462168057994 0.81008192355946684 0.87469690492207453 0.72364265561930396 0.7786400831009983 0.8143895209407479 0.82396340750536468 0.8044114366382128 0.79692179143823816 0.82086740099143296 0.78532556346139737 0.76574590443744073 0.81703688835502164 0.79041200522423882 0.77834355350105722 0.80469466738013418 0.7973573875371488 0.7764098673317531 0.24832113069515019 0.23725897602430504 0.15873077573981059 0.72767767153479535 0.7197456200213822 0.48149604073960312 0.44849110339916759 0.47920653880487812 0.43640116580360372 0.88774940792263402 0.71977988036342266 0.71669238304792726 0.85550395206462615 0.81997498070990138 0.76599785183453395 0.45030924519862242 0.40166456519878757 0.35103875621974689 0.48903792964186843 0.44941737593587111 0.40136616432843814 0.80196983547755962 0.82490370339824426 0.81892530292927868 0.85551782437788071 0.81272722305257372 0.59987957106079259 0.84099804344222284 0.54922840437882203 0.90686657118215741 0.42367241041643378 0.31924503619591127 0.89590421840150147 0.85632328706145144 0.4243844826893855 0.82116834930548832 0.77605010194630208 0.84319357138021112 0.83139608003724841 0.83873978903442059 0.83379272264932558 0.83868300935851459 0.51046289249551369 0.35285627201850356 0.45487545944872543 0.81282825177492835 0.81815216753084319 0.83948512387589747 0.7838250336811452 0.84397687656918641 0.50991003619997866 0.45414354370742777 0.71514468190991942 0.73994682608226925 0.79369844774223686 0.50138378287499119 0.14035258477286705 0.90449706878800762 0.89723287088618187 0.68936095199168912 0.72265730694089936 0.64269989890758261 0.44692325312781356 0.49254892216040169 0.70597441885266043 0.86266984237318645 0.33866143087188599 0.77153868249516444 0.74228124069133916 0.3646422982561307 0.79171287690027037 0.14399947095051177 0.13107130538953909 0.12165966811013296 0.11116404626085064 0.19702593227754381 0.077440147032301565 0.7549168196056234 0.70523216459290383 0.38130917523183266 0.49520459317991983 0.70715028253416889 0.38277549996047 0.29494902822743119 0.14615086504487146 0.18501630665722418 0.30265521340360291 0.13827737640831061 0.13903935762499672 0.15826055131909153 0.082987500637063519 0.15567518371316133 0.095079806308552881 0.08508594035536593 0.43485525181652929 0.8399813643743399 0.18087761964379009 0.87890723145302874 0.49501892059738772 0.75339491916161871 0.19277987713155953 0.75373750067877987 -0.015923768715473997 0.8177985774963269 0.21730506543967815 0.74893569894674827 0.84974024338007503 0.61935411223647741 0.86239841058831768 0.61850655196685722 0.58022187277295589 0.86861683322898708 0.83166232782063898 0.82332348490606555 0.8190462787830699 0.82207828964797269 0.75726785364087235 0.62421536489202556 0.85187953953971918 0.86442257571051051 0.82380744574009135 0.81347334678067551 0.82324245674871022 0.75641144433382113 0.78670492735225117 0.81507978870855702 0.79903938986721312 0.78993590281783743 0.82882601662829347 0.79651242899764285 0.7942591197188309 0.81469220737094961 0.7990458929111216 0.62127899081808413 0.86802755990391955 0.76354449544371295 0.6740679068659402 0.81117574588682861 0.32628347056705009 0.62995931718184905 0.56307356624078531 0.65749376855650821 0.73739021401360638 0.62858934399577548 0.65608050880771418 0.45528461290956324 0.45297384272237601 0.63315763884653087 0.44130488840277482 0.56371512811208069 0.56930337558126887 0.13362554260950937 0.37912451449055995 0.7935068997399467 0.77672325589163349 0.75749165447838196 0.71908071857305855 0.70716567446084733 0.70831582816487226 0.69100586323912949 0.80674332017201178 0.80860556671965422 0.77704067622387152 0.80972964424752258 0.77717343216265389 0.7548026015863194 0.75800935998776486 0.66691285558425573 0.66288158353340199 0.82056262144667069 0.81268643558380993 0.81136743529788646 0.75466120176890006 0.66712104105230818 0.81262504983412875 0.75666293123869399 0.66606215215787312 0.83403921676027826 0.8204406900114376 0.78564308499518043 0.73717178256937932 0.76903568043095383 0.75253726352672168 0.70298514064696982 0.78097333557980964 0.63070205776091237 0.81792899174384937 0.82581463658670407 0.74773082209639463 0.71550555435283447 0.7788418561719096 0.59325276579368413 0.83471572987818332 0.56347667634487197 0.50818891386569798 0.65953794982800074 0.81124893379712415 0.76459080394297441 0.83227644973367387 0.81429050079468612 0.83001377628900908 0.78752815048143809 0.78524549414831524 0.76937130039150647 0.83194623639385368 0.81811279781437152 0.84222375587622311 0.82912467932205591 0.80953424868252255 0.84161138212294018 0.82895366387437452 0.7828171345176772 0.78003423136462435 0.80971568052703613 0.75334386992978064 0.74169333894285505 0.80858778361270545 0.75338043864471882 0.81838811400319533 0.76938530021888629 0.74860123626444808 0.81950022671826683 0.78529802753345335 0.78276804577705361 0.77744265036113169 0.78151879902959243 0.6344164182020352 0.78306065351971088 0.63393020077144302 0.68097535132650011 0.70422963204762834 0.79136913012249188 0.78670983110668047 0.65509572325966869 0.77536125567029601 0.63890791683467951 0.70293796105678807 0.69669798239692193 0.78197342730073172 0.70417456386102806 0.69450176841804379 0.78824068208629872 0.66729552055433683 0.68054419360717489 0.6353760931650132 0.666131343728253 0.64225580349096978 0.62989003109982844 0.67952335278854381 0.67586962585831412 0.78404627601481425 0.77201047533685718 0.67335608102376254 0.78386910970479662 0.78317209759764428 0.6795582234778994 0.78253831881743818 0.80393422199376863 0.81210343044545874 0.66331120486305639 0.81231806351221236 0.52059454837537256 0.32760464309806681 0.8046324741538825 0.80152968742641617 0.75839554092595862 0.80624410954707582 0.80142870448431769 0.75839136995036582 0.8105916901102389 0.74725206899984076 0.80193596033454551 0.75833952694013607 0.76401343913370912 0.75867234634088143 0.76443687824003637 0.7379469760999714 0.70473267011867979 0.78340133894698505 0.76041944936057138 0.81428588207945851 0.67457079590828339 0.66311397271107275 0.80064815776438603 0.76165526368098335 0.69516839836449296 0.75519949543682374 0.52327593995547983 -0.13515941382765162 0.47069418321662454 -0.094867901848448663 -0.1067299812580256 0.4775135700848096 -0.10165447482586713 0.19120110065346493 0.066651711970154945 0.051231294427547591 0.076281351207318965 0.09513818529334192 0.066264380831968922 0.076904140301302909 0.012022115751548051 0.10810968976761236 0.025937281267602353 0.74490400356255582 -0.00914769893802099 0.21472512912459596 0.045120006452674118 0.1100881653662303 0.024928836014648556 0.092017393546276652 0.24673120403593854 0.17741759057053375 0.087061327846001679 0.25166981855889392 0.14878440795132442 0.095296627166895784 0.14112154629714829 0.07619593700756383 0.094952465300771643 0.17207050880599994 0.046387614632028881 0.3117648266082591 0.25678389542891944 0.14561867140497201 0.31374985309143982 0.14093353129828845 0.35896160320674686 0.2380003078506823 0.1153444639844714 0.4056464982829498 0.23442784120037696 0.41468181303767815 0.49717885290301173 0.37078718623897494 0.49615820386709164 0.57013521067813189 0.20195168806139968 0.50386444647928696 0.37478273399990902 0.4952067852981763 0.71642035149923744 0.56973059948055282 0.50807848410684386 0.73382710670876705 0.37309797971567449 0.71072483303649725 0.84625674411947804 0.94866927062447493 0.73583222642286727 0.602276419969344 0.3688979087795