<?xml version="1.0"?>
<VTKFile type="UnstructuredGrid" version="0.1" byte_order="LittleEndian">
<UnstructuredGrid>
<Piece NumberOfPoints="2028" NumberOfCells="724">
<Points>
<DataArray type="Float64" NumberOfComponents="3" format="ascii">
0 0.69999999999999996 0 0.59999999999999998 0.69999999999999996 0 0 1.6319639930219929 0 0.59999999999999998 0.69999999999999996 0 0 1.6319639930219929 0 0.94999999999923723 1.2749999999987469 0 0.59999999999999998 0.69999999999999996 0 0.94999999999923723 1.2749999999987469 0 0 1.6319639930219929 0 0.68142292217753131 2.106313194182027 0 0.94999999999923723 1.2749999999987469 0 0 1.6319639930219929 0 0.68142292217753131 2.106313194182027 0 0 2.430303940964651 0 1.299999999998378 1.8499999999973351 0 0.94999999999923723 1.2749999999987469 0 0.68142292217753131 2.106313194182027 0 1.299999999998378 1.8499999999973351 0 0.94999999999923723 1.2749999999987469 0 0.68142292217753131 2.106313194182027 0 1.299999999998378 1.8499999999973351 0 1.186467289461244 2.488259157846338 0 1.299999999998378 1.8499999999973351 0 1.649999999999066 2.4249999999984651 0 1.299999999998378 1.8499999999973351 0 1.186467289461244 2.488259157846338 0 1.649999999999066 2.4249999999984651 0 1.299999999998378 1.8499999999973351 0 0.94999999999923723 1.2749999999987469 0 1.626949751997165 1.3978044304614949 0 1.243750000001385 0.69999999999999996 0 0.94999999999923723 1.2749999999987469 0 1.626949751997165 1.3978044304614949 0 1.243750000001385 0.69999999999999996 0 1.887500000003292 0.69999999999999996 0 1.626949751997165 1.3978044304614949 0 0.59999999999999998 0.69999999999999996 0 1.243750000001385 0.69999999999999996 0 0.94999999999923723 1.2749999999987469 0 0.45714634023723411 3.4614941897304652 0 1.013301616169622 3.6128741719811099 0 0.56249999999824107 3.9749999999991399 0 0 3.7000000000000002 0 0.56249999999824107 3.9749999999991399 0 0 3.7000000000000002 0 0.45714634023723411 3.4614941897304652 0 0.56249999999824107 3.9749999999991399 0 0 3.1141786369756268 0 0.45714634023723411 3.4614941897304652 0 0.70993008501830757 2.9054181396964478 0 0 3.7000000000000002 0 0 3.1141786369756268 0 0.45714634023723411 3.4614941897304652 0 0.45714634023723411 3.4614941897304652 0 0.70993008501830757 2.9054181396964478 0 1.013301616169622 3.6128741719811099 0 0.68142292217753131 2.106313194182027 0 0.70993008501830757 2.9054181396964478 0 0 2.430303940964651 0 0 3.1141786369756268 0 0.70993008501830757 2.9054181396964478 0 0 2.430303940964651 0 0.68142292217753131 2.106313194182027 0 0.70993008501830757 2.9054181396964478 0 1.186467289461244 2.488259157846338 0 1.186467289461244 2.488259157846338 0 1.451787781083937 3.11022608666643 0 1.649999999999066 2.4249999999984651 0 0.70993008501830757 2.9054181396964478 0 1.186467289461244 2.488259157846338 0 1.451787781083937 3.11022608666643 0 0.70993008501830757 2.9054181396964478 0 1.451787781083937 3.11022608666643 0 1.013301616169622 3.6128741719811099 0 1.451787781083937 3.11022608666643 0 1.013301616169622 3.6128741719811099 0 1.593428957229921 3.8897035774451321 0 2.08333333333292 3.599999999997022 0 2.4236693135559251 3.5256579194055688 0 2.1666666666662731 4.1999999999971616 0 1.451787781083937 3.11022608666643 0 2.08333333333292 3.599999999997022 0 1.593428957229921 3.8897035774451321 0 1.451787781083937 3.11022608666643 0 2.08333333333292 3.599999999997022 0 2 3 0 2 3 0 2.6000000000000818 2.8399999999999781 0 2.4236693135559251 3.5256579194055688 0 2.08333333333292 3.599999999997022 0 2 3 0 2.08333333333292 3.599999999997022 0 2 3 0 2.4236693135559251 3.5256579194055688 0 2 3 0 2.2687831884271348 2.397628317379688 0 2.6000000000000818 2.8399999999999781 0 2 3 0 2.6000000000000818 2.8399999999999781 0 2 3 0 1.649999999999066 2.4249999999984651 0 1.451787781083937 3.11022608666643 0 2 3 0 1.649999999999066 2.4249999999984651 0 2 3 0 1.649999999999066 2.4249999999984651 0 2.2687831884271348 2.397628317379688 0 2.2687831884271348 2.397628317379688 0 2.8857059848027808 2.304389417342541 0 2.6000000000000818 2.8399999999999781 0 2.8857059848027808 2.304389417342541 0 2.6000000000000818 2.8399999999999781 0 3.2000000000001432 2.679999999999962 0 2.6000000000000818 2.8399999999999781 0 3.2000000000001432 2.679999999999962 0 3.2848100522576571 3.06994577157805 0 2.6000000000000818 2.8399999999999781 0 3.2000000000001432 2.679999999999962 0 2.6000000000000818 2.8399999999999781 0 2.9420158813362729 3.5139475164392531 0 2.4236693135559251 3.5256579194055688 0 2.6000000000000818 2.8399999999999781 0 2.9420158813362729 3.5139475164392531 0 3.2848100522576571 3.06994577157805 0 2.9420158813362729 3.5139475164392531 0 3.412636880282601 3.6134558579332841 0 3.1249999999889848 4 0 2.9420158813362729 3.5139475164392531 0 2.75 4 0 3.1249999999889848 4 0 2.9420158813362729 3.5139475164392531 0 2.4236693135559251 3.5256579194055688 0 2.75 4 0 2.23284951060374 1.369095413116082 0 1.887500000003292 0.69999999999999996 0 2.5312500000049418 0.69999999999999996 0 2.23284951060374 1.369095413116082 0 1.887500000003292 0.69999999999999996 0 1.626949751997165 1.3978044304614949 0 1.299999999998378 1.8499999999973351 0 1.626949751997165 1.3978044304614949 0 1.942890303101708 1.90249985684108 0 2.23284951060374 1.369095413116082 0 1.626949751997165 1.3978044304614949 0 1.942890303101708 1.90249985684108 0 1.649999999999066 2.4249999999984651 0 2.2687831884271348 2.397628317379688 0 1.942890303101708 1.90249985684108 0 1.299999999998378 1.8499999999973351 0 1.649999999999066 2.4249999999984651 0 1.942890303101708 1.90249985684108 0 2.2687831884271348 2.397628317379688 0 1.942890303101708 1.90249985684108 0 2.5341028426591712 1.9138806300960609 0 2.23284951060374 1.369095413116082 0 1.942890303101708 1.90249985684108 0 2.5341028426591712 1.9138806300960609 0 2.23284951060374 1.369095413116082 0 2.5341028426591712 1.9138806300960609 0 2.730231246675086 1.4599417336750831 0 2.2687831884271348 2.397628317379688 0 2.8857059848027808 2.304389417342541 0 2.5341028426591712 1.9138806300960609 0 2.8857059848027808 2.304389417342541 0 3.16379900756549 1.750659825629856 0 3.5028943452390711 2.1825773809523441 0 2.8857059848027808 2.304389417342541 0 2.5341028426591712 1.9138806300960609 0 3.16379900756549 1.750659825629856 0 2.5341028426591712 1.9138806300960609 0 3.16379900756549 1.750659825629856 0 2.730231246675086 1.4599417336750831 0 3.16379900756549 1.750659825629856 0 3.047698899035677 1.175177397439602 0 2.730231246675086 1.4599417336750831 0 3.047698899035677 1.175177397439602 0 2.730231246675086 1.4599417336750831 0 2.5312500000049418 0.69999999999999996 0 2.23284951060374 1.369095413116082 0 2.730231246675086 1.4599417336750831 0 2.5312500000049418 0.69999999999999996 0 3.047698899035677 1.175177397439602 0 2.5312500000049418 0.69999999999999996 0 3.1750000000065048 0.69999999999999996 0 3.047698899035677 1.175177397439602 0 3.1750000000065048 0.69999999999999996 0 3.638214240926366 1.265285427893069 0 3.1750000000065048 0.69999999999999996 0 3.638214240926366 1.265285427893069 0 3.8187500000045098 0.69999999999999996 0 3.16379900756549 1.750659825629856 0 3.047698899035677 1.175177397439602 0 3.638214240926366 1.265285427893069 0 3.638214240926366 1.265285427893069 0 3.8187500000045098 0.69999999999999996 0 4.2198317920941601 1.108273596938623 0 3.8187500000045098 0.69999999999999996 0 4.2198317920941601 1.108273596938623 0 4.4625000000026009 0.69999999999999996 0 3.638214240926366 1.265285427893069 0 4.2198317920941601 1.108273596938623 0 4.25 1.5 0 4.2198317920941601 1.108273596938623 0 4.7733688274428578 1.2511819424194319 0 4.25 1.5 0 4.2198317920941601 1.108273596938623 0 4.7733688274428578 1.2511819424194319 0 4.4625000000026009 0.69999999999999996 0 4.7733688274428578 1.2511819424194319 0 4.4625000000026009 0.69999999999999996 0 5.1062500000012143 0.69999999999999996 0 4.4000000000001336 2.3599999999999639 0 5 2.2000000000000002 0 4.6250000000004974 1.8500000000004651 0 4.4000000000001336 2.3599999999999639 0 5 2.2000000000000002 0 4.7733688274428578 1.2511819424194319 0 4.6250000000004974 1.8500000000004651 0 4.25 1.5 0 4.6250000000004974 1.8500000000004651 0 4.25 1.5 0 4.6250000000004974 1.8500000000004651 0 4.25 1.5 0 4.0559490150232032 2.028653202947901 0 4.25 1.5 0 4.0559490150232032 2.028653202947901 0 3.757799744899315 1.759341836734688 0 4.6250000000004974 1.8500000000004651 0 4.0559490150232032 2.028653202947901 0 4.4000000000001336 2.3599999999999639 0 4.0559490150232032 2.028653202947901 0 3.757799744899315 1.759341836734688 0 3.5028943452390711 2.1825773809523441 0 4.0559490150232032 2.028653202947901 0 3.5028943452390711 2.1825773809523441 0 3.8000000000002032 2.5199999999999458 0 3.638214240926366 1.265285427893069 0 4.25 1.5 0 3.757799744899315 1.759341836734688 0 3.16379900756549 1.750659825629856 0 3.638214240926366 1.265285427893069 0 3.757799744899315 1.759341836734688 0 3.16379900756549 1.750659825629856 0 3.757799744899315 1.759341836734688 0 3.5028943452390711 2.1825773809523441 0 2.8857059848027808 2.304389417342541 0 3.5028943452390711 2.1825773809523441 0 3.2000000000001432 2.679999999999962 0 3.2000000000001432 2.679999999999962 0 3.8000000000002032 2.5199999999999458 0 3.5028943452390711 2.1825773809523441 0 3.2000000000001432 2.679999999999962 0 3.8000000000002032 2.5199999999999458 0 3.2000000000001432 2.679999999999962 0 3.2848100522576571 3.06994577157805 0 3.8000000000002032 2.5199999999999458 0 3.2848100522576571 3.06994577157805 0 3.8000000000002032 2.5199999999999458 0 3.8190056356267248 3.2454749759848052 0 3.412636880282601 3.6134558579332841 0 3.5 4 0 3.1249999999889848 4 0 3.2848100522576571 3.06994577157805 0 3.412636880282601 3.6134558579332841 0 3.8190056356267248 3.2454749759848052 0 2.9420158813362729 3.5139475164392531 0 3.2848100522576571 3.06994577157805 0 3.412636880282601 3.6134558579332841 0 3.412636880282601 3.6134558579332841 0 3.874999999992375 3.7500000000050839 0 3.5 4 0 3.412636880282601 3.6134558579332841 0 3.819005635626
[...]
<PointData Scalars="A_conc,B_conc,region_id," Vectors="" Tensors="">
<DataArray type="Float64" Name="A_conc" format="ascii">
0.45527043171247317 0.46415525493063564 0.87674553861629978 0.46191576662468675 0.87458340428116932 0.82301405996979404 0.41996862181204492 0.84094328521375394 0.80143838602466899 0.88097414117112327 0.77877661681115162 0.81159862126592608 0.87560633361439855 0.87777050246141286 0.880670373659034 0.77211616920146586 0.88015110757641835 0.87742473915008234 0.77869745290741399 0.86324485589706623 0.86456621026427216 0.8911680499934892 0.86494514291332059 0.89725945388073702 0.8646477674070121 0.89077289748969912 0.89739971865478485 0.6218827601062451 0.23879486311949261 0.41386277565419283 -0.040896440402853715 0.24666406438664484 0.40240091941648859 -0.043551926816361705 -0.0097943083997122805 0.40779265676905735 -0.059264705562879355 -0.036291011906714563 0.24465922937381684 0.88502734864071231 0.89112579395997304 0.86433572984458584 0.88275307001060066 0.88403342059357681 0.86015237724328719 0.88534164936475901 0.86429654720370486 0.88082960731740545 0.8818461989282832 0.8936712635322096 0.86446385643909807 0.88396974738473322 0.88371316606712114 0.88188472753204628 0.89353809932601458 0.888512852701273 0.86623162630823969 0.89221166595139489 0.86630774237325847 0.88629713818408873 0.89280695842634061 0.86785660670367148 0.86637483594618825 0.89181888226069961 0.88944283225541887 0.8874401274134347 0.90430390959673512 0.89420516783407522 0.88962280909705715 0.88730162562795623 0.90449876979177712 0.89343315952842495 0.90284423092722477 0.88846975714835408 0.90188217682508742 0.88759752491954691 0.89420027675804181 0.85513430792288192 0.85951464828204738 0.81327436586101132 0.90173636442511129 0.90654948822013659 0.8941791511203746 0.90072463330859331 0.90629959774097535 0.91003887704189401 0.8937840183395912 0.9166556549736512 0.85798039652049729 0.90628282587008924 0.90996193422229765 0.85583749559136202 0.89482988574229427 0.85767726224653396 0.81389348628695135 0.80576818547470708 0.86915533493323394 0.90970735081786858 0.91208347787582933 0.91123205038393962 0.89408042275220012 0.90416916523588886 0.91128203487017923 0.89416163610767119 0.8146212874841563 0.73300372368115774 0.80683773919975976 0.80688573437750888 0.84437569069140117 0.86702031197835305 0.84201483804467303 0.86779063182161453 0.89679266010651404 0.9138424199732974 0.91548692463305503 0.87292172087222142 0.91196349697697865 0.91347415976217672 0.91544853272260618 0.84649937586216517 0.86202030705640009 0.91411603071908265 0.84737448706249141 0.8734578243236415 0.85359763405032418 0.83595515474185256 0.81550399574153865 0.8545886856908459 0.81548764432335752 0.81505499065462783 0.84955168686973648 0.86029990799503042 0.81409942886787889 0.47653946192560553 -0.014617030455747852 0.026272629814697936 0.4724369999300751 -0.014286783348673575 0.40859724992699981 0.61693365375292897 0.41685549913093572 0.76725202910933699 0.49235202305629877 0.41641524003584762 0.76824516575984347 0.7446117041818594 0.8019090535394674 0.77154070633392158 0.65554925850565804 0.7621242766808255 0.77059769446122395 0.79832917564980144 0.77386199180407034 0.81695939906931925 0.48987430289471345 0.76437185145804276 0.88709864105027381 0.4906898822066651 0.88702202296898713 0.63938352040320767 0.81063378187472601 0.85472784538824997 0.79825345274263049 0.84977237051041643 0.83463739500557288 0.87695584478327004 0.85217865183877606 0.80025881184065506 0.83430349405029003 0.86677128979476536 0.90788177945389248 0.64715386971484046 0.92120813747082508 0.45216589925261824 0.62677080841316979 0.40328730815520841 0.61288835781387974 0.02264819691170189 0.47422930713211686 0.6122713045069198 0.022512904480416377 0.37749519204554571 0.065130698616533145 0.11043343215330237 0.37481039597162125 0.10872310632496757 0.49446476617927504 0.11051841197514685 0.49543818909612453 0.16021995018636634 0.91981777615150362 0.45287942472084375 0.66793368859700397 0.49238776705982396 0.16027532943510728 0.35309332935442078 0.23856077959375038 0.32311612959293123 0.29539729885396987 0.60104395792303855 0.42694708143065707 1.0201718696307644 0.43142296459994023 0.39862360750649456 1.0166335428770432 0.32137683490122126 0.33733086941371437 0.29605583458336532 0.32715326385190313 0.32245376785578134 0.42133354368184439 0.91607486356002765 0.91734129616959625 0.89772873429487932 0.91154246062424915 0.91852919471426631 0.39893734811821441 0.93925151461086254 1.0094435671943405 0.92042319231806546 0.82226631044934739 0.91724158389991317 0.82884820490741262 0.90477407589025272 0.82811924868745146 0.90625211846876452 0.84361525413145977 0.89777481289638572 0.88510497215278749 0.91194774249142208 0.90228651877216959 0.85017859794228334 0.8828322993438219 0.88167207701539119 0.86952711795752402 0.9071074218550601 0.71570345465990781 0.93972915815235514 0.89941748047217918 0.84185409044854298 0.71542751479720834 0.90090145895984886 0.83677151802964 0.85895585906399075 0.875064311629835 0.84317105390010916 0.86721569679881616 0.89559007640069754 0.91344607386556997 0.91479052925142879 0.86697072757322935 0.89464527043299757 0.90819752898172368 0.91583734605353018 0.87227604817764037 0.91048669285668238 0.87616690139076758 0.90548457598425114 0.84643529208061419 0.83369263573116292 0.84688964216494667 0.80448571149104953 0.87701908469539647 0.83657489927830386 0.84630354680749043 0.85275442671232882 0.87779654440738419 0.83584715268464171 0.83254868420055239 0.90865082011321952 0.8491036978250196 0.83298747502624981 0.87018574540738414 0.90786749981980153 0.87779319083810758 0.89974147170680319 0.9401870341492129 0.89369841663714 0.88110374523666413 0.93280759202645724 0.93086199755919763 0.83916646715200016 0.86044143954943375 0.93330030285484478 0.83928899410148483 0.89767557875323389 0.92821082909322983 0.87810475647139263 0.93973938806324098 0.91372378012164435 0.92575608302335 0.92498661172563212 0.94066987132297308 0.92196735631868132 0.92583086919840396 0.92500111469348756 0.92267502858317851 0.92683877761725353 0.88810787533878721 0.93142694028108475 0.87231269775958842 0.83832761273964396 0.91477907370729561 0.91608632949540569 0.90356060040575392 0.85390515125981481 0.90027818633046797 0.88170434614702464 0.90646521475101294 0.91310626100395431 0.90460154182618813 0.84741511781807766 0.85355693555164935 0.86074482125281071 0.82619653628882139 0.8966869217542377 0.91435552971247247 0.91112213704316958 0.93849070861273898 0.79165301479676708 0.95286445340019388 0.94921416158813332 0.76600064893867803 0.96145192069060703 0.8379144466875682 0.96763438552358094 0.95124161313991362 0.94496554183623249 0.94374934566146607 0.91143326597418206 0.94721114838950171 0.94829358191222257 0.91125457076339589 0.93814383974366766 0.94844367985044031 0.94595198833024308 0.93930302489624173 0.94582270028148208 0.94322865293500502 0.93834844714047216 0.93860232612762173 0.96142228177638178 0.91017437384379007 0.94794655542628758 0.93666227032729887 0.96126431708427917 0.94552615567197418 0.94484639004062443 0.066038960594014789 0.24416754765084464 0.0078195527698895761 0.92728082604379758 0.88735841094910806 0.91779477821247113 0.92224009960594955 0.94190769822715692 0.92222922463864132 0.9416916289185604 0.94256128453967991 0.9230242957554291 0.94099029450684091 0.077377753436992366 0.38807861957915818 0.43531944566152397 0.86400530660060348 0.4055756988753681 0.44473138954521824 0.61014260527354036 0.38780284661400716 0.21395429967694207 0.060015411336268212 0.49043627250239985 0.26767587094044948 0.61523938666990508 0.6333581975613215 0.38817045463963956 0.95668177586289194 0.95059860401923568 0.84410846602245648 0.41731876942853796 0.89528952224831415 0.61224091460199592 0.87635289953817386 0.62919825547198138 0.86311128882675459 0.86788858410291381 0.91392248049817437 0.88940416013542212 0.94064113223618273 0.85693529176991146 0.87285782940771761 0.63640091132076815 0.95636007770794296 0.95993531281755107 0.85151197327192019 0.69126172353144733 0.8625647517213515 0.9557059189062066 0.95680468415383091 0.91033618617326317 0.91195489702294075 0.92484353284553766 0.85899826120723399 0.86290727996852534 0.9120695768602245 0.92453644060397366 0.93044619750030499 0.92872166049381111 0.94657295024099186 0.92607987374613332 0.95677516177459698 0.95779160000695085 0.96190105926128078 0.89161133917170943 0.89575446640460876 0.95941522773992038 0.96236735800483941 0.89042422766969453 0.96058194382454054 0.88955369355064462 0.91118599830890823 0.88942200866141208 0.53600105428440026 0.82640934258366672 0.56336412685560844 0.68250668266279968 0.73859280546972661 0.60059758754393788 0.49313375919037272 0.56361286269926691 0.68585589301826155 0.50682357302732806 0.898341932838011 0.53374173516947487 0.48817043779128422 0.45173989073714338 0.52912167400246901 0.60171148610019887 0.49278532388153828 0.42057847326958936 0.32448143529693069 0.47059264698083353 0.42245035150049692 0.34617613459142188 0.44613491687920537 0.53227663635451805 0.26976563487994709 0.94951700421982832 0.42990982520770216 0.62465378757490742 0.53333850412454908 0.90028142147246204 0.91885144867855584 0.95431263579481151 0.75137027841972748 0.42119682366676636 0.91088357915046136 0.92124420720835098 0.83170277294998129 0.9395977930558278 0.90083716700426852 0.90988949268229136 0.90158484198965294 0.48094524993844728 0.80195554960296556 0.89255403153412771 0.92138723986790616 0.83117992226452964 0.73721957801899696 0.54819325844449973 0.60076410119852708 0.74002624808855255 0.73557450533533542 0.55758235777155074 0.73958489344409295 0.5562378135568905 0.57596584782431115 0.90823460256184319 0.67432504277490934 0.70920151449888924 0.67690472625890263 0.70899310349359146 0.53610416308672038 0.69200787406881648 0.89579841685460881 0.66764599245213641 0.890715125174807 0.90074149369155754 0.89730183635682281 0.68054642023040335 0.90147986879202702 0.90050165982979125 0.90728175346307238 0.88404217577628885 0.88373331052713788 0.67497922217200035 0.87376623497410111 0.69427351483438116 0.80622245314620467 0.90690295046160718 0.91122954482230578 0.73798617542877765 0.75679179939864782 0.87062430250313216 0.73204227630108953 0.60150777842916281 0.77263681955536045 0.60846150158723611 0.74151894859082801 0.76127492719055834 0.72579202919063779 0.77134422612004461 0.85319091791360058 0.772711686203152 0.85224167769783266 0.88643373671847692 0.7729150920335951 0.85274040190920164 0.84609166482160258 0.92373377732553386 0.92626870107137893 0.93317441715757332 0.91776996546652045 0.92958256007192863 0.91309388868239461 0.8499411825056985 0.84320112705805372 0.93628653073802992 0.92217166842584952 0.93806634734272121 0.92198598684772348 0.93882129682068427 0.91500063550565058 0.95337219394149175 0.9567667494305323 0.94456942735620664 0.95364100720751865 0.94453477138241104 0.93898026481618391 0.93613102909959034 0.95091475101640077 0.93778272180533873 0.96140985648129362 0.96001085607409797 0.94509646568348804 0.92196265502300667 0.93920791460324804 0.92191310617057465 0.94091801238526807 0.92417870155628723 0.95639173880495942 0.93910000137464866 0.95132386946884118 0.94137506974542784 0.95132324175446648 0.94172922476053555 0.94153966946700907 0.94217707501824588 0.92293390223892291 0.95111758697682014 0.93954052008711864 0.93045546038801752 0.92290145684925695 0.91250725265233112 0.92298210157144478 0.90786360302434599 0.91259282840008249 0.92535891467353915 0.91761950235029444 0.86237186407379485 0.83176685471398082 0.93394200188818388 0.7746581889054559 0.89929334395115557 0.84324818412750224 0.83298433496168522 0.74050760884223044 0.84887363843454222 0.84088457698612473 0.96010119483716461 0.95763948895191908 0.92211540778562973 0.92472166137142509 0.90399943677085859 0.82098953252885132 0.8318419468376963 0.92424436558792344 0.90200601635388356 0.90665280084424571 0.82347452215177175 0.72269228910626448 0.83781405929264563 0.73859141616914492 0.71839729800200647 0.84678039318279963 0.68608373218750007 0.89167334699832668 0.98251194462756908 0.94768256043967392 0.94678602593184713 0.67553080028609047 0.9888153980308968 0.94265331089302684 0.83975143370067717 0.83841917885657824 0.92941275957396452 0.94679597668004178 0.94491995025280739 0.84023005259290784 0.90504286757744179 0.927985047680005 0.83716585782978592 0.93113291487749283 0.85539483173351605 0.9064947751720378 0.92743616047870769 0.89337769956514212 0.90657056598453278 0.8935185581457038 0.89363274616620314 0.83138759731174972 0.93444929074535643 0.85945354680632891 0.89173439969301849 0.92345488002777798 0.91586531172605401 0.89623348497908617 0.9211543347925254 0.84060757282915044 0.86828705332501355 0.89421906964676201 0.89375549309379509 0.89366323550414362 0.88564664783643843 0.90225684048977317 0.88902880778327076 0.88119580965179289 0.90007371158079896 0.89208525590593046 0.88363454391409335 0.89370630283776764 0.88567729139679685 0.8820959835377572 0.46934250036244823 0.51169922698562442 0.44595360896772085 0.85456327375466845 0.85069878674721466 0.71931960678209428 0.69811188048111872 0.70380379203069077 0.66631250603650938 0.93295649507857403 0.85432436644540966 0.85691896180970495 0.91870459494556866 0.90201475887206073 0.88127923616060877 0.67710801620995387 0.65655779030060901 0.60588912592003097 0.71255797944769672 0.67506466064144588 0.65658249701734794 0.89979497878462988 0.90974845888205003 0.90718140154936089 0.92672690523258983 0.90790277573251077 0.80465150241501637 0.92226979121731945 0.7777960998283997 0.97326199668576963 0.68823232759335784 0.61647442540901243 0.95970395476500792 0.93972122486947296 0.691632958156435 0.90812584295701626 0.8887327802498024 0.91757806177317069 0.91258216468132514 0.91576381366627435 0.91344291949869516 0.91575793510813464 0.73013461556057357 0.620605472364953 0.69232175679016661 0.90443760908316917 0.90688815351828067 0.91603520102402491 0.89206684267492653 0.91792728700794524 0.72753042121215394 0.69151838587865166 0.8617088125929192 0.87408810548431481 0.91396441400739625 0.73140724877418761 0.52958320964646977 0.94525032943380827 0.94169292275004701 0.83748364120882079 0.85646269462614599 0.81705963662842296 0.75374693969030271 0.75937441252873228 0.89559633004461936 0.95208011184877539 0.63474518363687937 0.89063221793557845 0.87546387226368838 0.69954632589084564 0.90709192239211089 0.53694493993516623 0.32947673482272766 0.38227752923566155 0.40510792370802806 0.45232312361916749 0.2958225737641752 0.90965631635655919 0.87918262948778625 0.70080249158049157 0.7644048116143356 0.88444306430441533 0.69746564564177049 0.61248064036397654 0.37823076243605297 0.48353485447602235 0.61348885760363359 0.37511903802236579 0.35458285511533139 0.41008895831497966 0.31735987385115649 0.41016564535022448 0.31383480630409155 0.31694325452824418 0.66301767269258305 0.98761531542297165 0.43125464047829232 0.9533159643607233 0.7199676342671546 0.89471067189932929 0.42470929756763875 0.96306663047144037 0.2079861764083491 0.97466573773165277 0.45300660434188544 0.94380885546973126 0.92340025051767627 0.81493330052442536 0.92903469033910091 0.81394312902749211 0.7952565967012738 0.93271898721971136 0.91267508394017338 0.90907642726415649 0.90728246645184552 0.90846824051423825 0.88067754293323086 0.81735193517440308 0.92425838702857499 0.92979400295243786 0.90925927970458498 0.90481338806730827 0.90895375465997208 0.88025786125265792 0.89326842772534132 0.9054521890561229 0.89856941914902733 0.89466115305415006 0.91238947008871474 0.89676913315599283 0.89878181181519701 0.90530378137853573 0.89858635746142201 0.81514565481899726 0.93193825230513061 0.88422251889989045 0.88227635189543607 0.95086960819584576 0.58214841807022566 0.81354129921834784 0.78384364220057134 0.82880249242851045 0.86175056834665986 0.8130899911085212 0.82771902100070394 0.70005686558259883 0.69945821872458946 0.81834180412733504 0.71673762732731061 0.78512511707404409 0.82150864715384719 0.41753986599302972 0.67570460605959892 0.89401097150883579 0.8817047833583197 0.88340955428140855 0.85016791682512471 0.8464228080547519 0.84702200303823516 0.84048894911191474 0.90180887592608094 0.90293906737744534 0.88849664909246373 0.90342134807506391 0.88848228344545965 0.87937743607987207 0.88612025990230436 0.82777833345033169 0.83749545774888101 0.90585694624198132 0.90231512830723193 0.90641101324260265 0.87386566800871901 0.8289463573194833 0.90719123682490044 0.88515158322626097 0.82788475969093422 0.91363790672115619 0.9058671246925446 0.89187115331235733 0.87212209017312958 0.88368993821370101 0.87936388475488203 0.8535272971964305 0.89217407197312015 0.81422910969703899 0.90266818809211946 0.9063160550511562 0.87822074404820671 0.85658312649233326 0.88778178699803501 0.79580529645364806 0.91083949166508782 0.78362292182310256 0.75722703925083623 0.83125888010830484 0.89357011083215077 0.87473184526958225 0.90112855518059687 0.89436819771910381 0.90143405991408532 0.88738529502323793 0.88638397113111755 0.87612346343630554 0.90132997502564383 0.89500815861663252 0.90677841850395913 0.90098744041236334 0.89193469728741359 0.90661653168188372 0.90095558896378747 0.8852835648831141 0.8840198620731855 0.89144250942448877 0.86856351026637102 0.86359737137887982 0.89105916019185527 0.86863032952969998 0.89523296059263413 0.8760698603738134 0.86690336876671958 0.89547255027897554 0.88640170745745528 0.88526787884980751 0.88178360227525554 0.8835592634256314 0.8212887102462707 0.88431810630063046 0.82084284036037847 0.84000833223650628 0.85621059641233521 0.89614281773446958 0.8939793830545929 0.82720218611666929 0.88042648434784265 0.82381357157741064 0.85341233262090743 0.85164654633982162 0.89270592485261757 0.85604902734717814 0.85213508095708668 0.89471262145869546 0.83741194285980813 0.8465820968721568 0.8181180908164587 0.83976074013842661 0.8212878871216015 0.81418991161823295 0.83891507571415158 0.83707548675611676 0.88564916596339438 0.88077026149487048 0.83592344504138705 0.88574834739454633 0.88479734052053682 0.83911080247182201 0.88491573899705844 0.91507503325383499 0.9059609676338044 0.84092799622302739 0.95411336316789519 0.73787910112186461 0.58088815083686174 0.9006360824718479 0.90087257638488072 0.88046471310576235 0.90166348424404086 0.89960266830347246 0.88099889800060616 0.90352051118690968 0.87615740924498764 0.89979771336767389 0.88093091846141658 0.88341202952245246 0.88102265628699661 0.88355244083182705 0.87202540901359771 0.85690129599688347 0.89251812942494035 0.88242951893035593 0.90729767578095133 0.84494837891485164 0.84053078383530877 0.90110951473211653 0.88340217183174163 0.85461884199365046 0.96960060230472755 0.75649759223581792 0.030987073104661374 0.72398691476503774 0.060956406623130843 0.02517374969725801 0.72069893714270505 0.059416230609859594 0.41395659890603398 0.27817570231045419 0.26517382165843539 0.33500448445487957 0.33163750778776901 0.27621776886872795 0.33651628736078854 0.18210901797486551 0.31232008175060955 0.22909282970616837 0.96654087890169671 0.20521464707518058 0.43223084605641549 0.25729551044226834 0.31104147696336049 0.22966855294269842 0.36936174021200374 0.6260038859665803 0.5227644001521482 0.36877379697998508 0.6268383236512266 0.47191890223229976 0.32971178533998652 0.45355630744018799 0.33698806302264595 0.37167656848881242 0.52218730533818603 0.26260879369255835 0.68682512107432736 0.62521365227294057 0.47023403025014732 0.68563364816900074 0.4700890208538171 0.7384034479968038 0.59838568653231539 0.44802048158352542 0.76542119214338999 0.59775817079140181 0.75858672811294059 0.81643686042023134 0.72138457610332807 0.80141483675362313 0.84011621523157498 0.57603124133269479 0.81896745025161655 0.72648537965448334 0.80001079775956307 0.89796789870391525 0.83482816901186396 0.8101113739831759 0.92121078337133011 0.72468317223380918 0.88896393915736382 0.92648414540548463 0.95302299465412255 0.90839493083789291 0.85288826928541528 0.73510064890240157 0.89688953632756729 0.85020024059564825 0.931442386818138