<?xml version="1.0"?>
<VTKFile type="UnstructuredGrid" version="0.1" byte_order="LittleEndian">
<UnstructuredGrid>
<Piece NumberOfPoints="2028" NumberOfCells="724">
<Points>
<DataArray type="Float64" NumberOfComponents="3" format="ascii">
0 3.7000000000000002 0 0.56249999999824107 3.9749999999991399 0 0 0.69999999999999996 0 0 1.6319639930219929 0 0.59999999999999998 0.69999999999999996 0 0.59999999999999998 0.69999999999999996 0 0 1.6319639930219929 0 0.94999999999923723 1.2749999999987469 0 1.243750000001385 0.69999999999999996 0 0.59999999999999998 0.69999999999999996 0 0.94999999999923723 1.2749999999987469 0 1.626949751997165 1.3978044304614949 0 1.887500000003292 0.69999999999999996 0 1.243750000001385 0.69999999999999996 0 0.94999999999923723 1.2749999999987469 0 1.626949751997165 1.3978044304614949 0 1.243750000001385 0.69999999999999996 0 0.68142292217753131 2.106313194182027 0 1.299999999998378 1.8499999999973351 0 0.94999999999923723 1.2749999999987469 0 1.299999999998378 1.8499999999973351 0 1.626949751997165 1.3978044304614949 0 0.94999999999923723 1.2749999999987469 0 1.299999999998378 1.8499999999973351 0 1.186467289461244 2.488259157846338 0 1.649999999999066 2.4249999999984651 0 1.299999999998378 1.8499999999973351 0 0.68142292217753131 2.106313194182027 0 1.186467289461244 2.488259157846338 0 0 1.6319639930219929 0 0.68142292217753131 2.106313194182027 0 0.94999999999923723 1.2749999999987469 0 0 2.430303940964651 0 0.68142292217753131 2.106313194182027 0 0 1.6319639930219929 0 0.68142292217753131 2.106313194182027 0 0 2.430303940964651 0 0.70993008501830757 2.9054181396964478 0 0 3.1141786369756268 0 0.70993008501830757 2.9054181396964478 0 0 2.430303940964651 0 0.45714634023723411 3.4614941897304652 0 0.70993008501830757 2.9054181396964478 0 0 3.1141786369756268 0 0 3.7000000000000002 0 0.45714634023723411 3.4614941897304652 0 0 3.1141786369756268 0 0.45714634023723411 3.4614941897304652 0 0 3.7000000000000002 0 0.56249999999824107 3.9749999999991399 0 0.45714634023723411 3.4614941897304652 0 0.56249999999824107 3.9749999999991399 0 1.013301616169622 3.6128741719811099 0 0.70993008501830757 2.9054181396964478 0 0.45714634023723411 3.4614941897304652 0 1.013301616169622 3.6128741719811099 0 1.013301616169622 3.6128741719811099 0 1.451787781083937 3.11022608666643 0 0.70993008501830757 2.9054181396964478 0 1.451787781083937 3.11022608666643 0 1.013301616169622 3.6128741719811099 0 1.593428957229921 3.8897035774451321 0 1.186467289461244 2.488259157846338 0 0.70993008501830757 2.9054181396964478 0 1.451787781083937 3.11022608666643 0 0.70993008501830757 2.9054181396964478 0 1.186467289461244 2.488259157846338 0 0.68142292217753131 2.106313194182027 0 1.649999999999066 2.4249999999984651 0 1.186467289461244 2.488259157846338 0 1.451787781083937 3.11022608666643 0 0.59999999999999998 0.69999999999999996 0 0.94999999999923723 1.2749999999987469 0 2.2687831884271348 2.397628317379688 0 1.649999999999066 2.4249999999984651 0 2 3 0 2.6000000000000818 2.8399999999999781 0 2.2687831884271348 2.397628317379688 0 2 3 0 1.649999999999066 2.4249999999984651 0 1.451787781083937 3.11022608666643 0 2 3 0 1.451787781083937 3.11022608666643 0 2.08333333333292 3.599999999997022 0 2 3 0 1.593428957229921 3.8897035774451321 0 2.08333333333292 3.599999999997022 0 1.451787781083937 3.11022608666643 0 2.4236693135559251 3.5256579194055688 0 2.1666666666662731 4.1999999999971616 0 2.08333333333292 3.599999999997022 0 2.4236693135559251 3.5256579194055688 0 2 3 0 2.6000000000000818 2.8399999999999781 0 2.08333333333292 3.599999999997022 0 2 3 0 2.4236693135559251 3.5256579194055688 0 2.6000000000000818 2.8399999999999781 0 2.9420158813362729 3.5139475164392531 0 2.4236693135559251 3.5256579194055688 0 2.4236693135559251 3.5256579194055688 0 2.9420158813362729 3.5139475164392531 0 2.75 4 0 2.9420158813362729 3.5139475164392531 0 3.412636880282601 3.6134558579332841 0 3.1249999999889848 4 0 3.1249999999889848 4 0 2.75 4 0 2.9420158813362729 3.5139475164392531 0 2.6000000000000818 2.8399999999999781 0 3.2848100522576571 3.06994577157805 0 2.9420158813362729 3.5139475164392531 0 3.2848100522576571 3.06994577157805 0 2.6000000000000818 2.8399999999999781 0 3.2000000000001432 2.679999999999962 0 2.2687831884271348 2.397628317379688 0 2.6000000000000818 2.8399999999999781 0 2.8857059848027808 2.304389417342541 0 2.8857059848027808 2.304389417342541 0 2.6000000000000818 2.8399999999999781 0 3.2000000000001432 2.679999999999962 0 3.5028943452390711 2.1825773809523441 0 3.16379900756549 1.750659825629856 0 2.8857059848027808 2.304389417342541 0 2.8857059848027808 2.304389417342541 0 3.16379900756549 1.750659825629856 0 2.5341028426591712 1.9138806300960609 0 2.5341028426591712 1.9138806300960609 0 3.16379900756549 1.750659825629856 0 2.730231246675086 1.4599417336750831 0 2.730231246675086 1.4599417336750831 0 2.23284951060374 1.369095413116082 0 2.5341028426591712 1.9138806300960609 0 2.5341028426591712 1.9138806300960609 0 2.2687831884271348 2.397628317379688 0 2.8857059848027808 2.304389417342541 0 2.5341028426591712 1.9138806300960609 0 1.942890303101708 1.90249985684108 0 2.2687831884271348 2.397628317379688 0 1.942890303101708 1.90249985684108 0 1.649999999999066 2.4249999999984651 0 2.2687831884271348 2.397628317379688 0 1.649999999999066 2.4249999999984651 0 1.942890303101708 1.90249985684108 0 1.299999999998378 1.8499999999973351 0 1.942890303101708 1.90249985684108 0 1.626949751997165 1.3978044304614949 0 1.299999999998378 1.8499999999973351 0 2.23284951060374 1.369095413116082 0 1.626949751997165 1.3978044304614949 0 1.942890303101708 1.90249985684108 0 2.23284951060374 1.369095413116082 0 1.942890303101708 1.90249985684108 0 2.5341028426591712 1.9138806300960609 0 2.23284951060374 1.369095413116082 0 1.887500000003292 0.69999999999999996 0 1.626949751997165 1.3978044304614949 0 1.887500000003292 0.69999999999999996 0 2.23284951060374 1.369095413116082 0 2.5312500000049418 0.69999999999999996 0 2.5312500000049418 0.69999999999999996 0 2.730231246675086 1.4599417336750831 0 3.047698899035677 1.175177397439602 0 2.23284951060374 1.369095413116082 0 2.730231246675086 1.4599417336750831 0 2.5312500000049418 0.69999999999999996 0 3.047698899035677 1.175177397439602 0 2.730231246675086 1.4599417336750831 0 3.16379900756549 1.750659825629856 0 2.5312500000049418 0.69999999999999996 0 3.047698899035677 1.175177397439602 0 3.1750000000065048 0.69999999999999996 0 0.94999999999923723 1.2749999999987469 0 1.299999999998378 1.8499999999973351 0 3.047698899035677 1.175177397439602 0 3.638214240926366 1.265285427893069 0 3.1750000000065048 0.69999999999999996 0 3.1750000000065048 0.69999999999999996 0 3.638214240926366 1.265285427893069 0 3.8187500000045098 0.69999999999999996 0 0.56249999999824107 3.9749999999991399 0 1.1249999999964171 4.2499999999982494 0 3.8187500000045098 0.69999999999999996 0 3.638214240926366 1.265285427893069 0 4.2198317920941601 1.108273596938623 0 3.638214240926366 1.265285427893069 0 3.047698899035677 1.175177397439602 0 3.16379900756549 1.750659825629856 0 3.638214240926366 1.265285427893069 0 3.16379900756549 1.750659825629856 0 3.757799744899315 1.759341836734688 0 3.757799744899315 1.759341836734688 0 3.16379900756549 1.750659825629856 0 3.5028943452390711 2.1825773809523441 0 4.0559490150232032 2.028653202947901 0 3.5028943452390711 2.1825773809523441 0 3.8000000000002032 2.5199999999999458 0 3.757799744899315 1.759341836734688 0 3.5028943452390711 2.1825773809523441 0 4.0559490150232032 2.028653202947901 0 3.757799744899315 1.759341836734688 0 4.25 1.5 0 3.638214240926366 1.265285427893069 0 4.0559490150232032 2.028653202947901 0 4.6250000000004974 1.8500000000004651 0 4.25 1.5 0 3.757799744899315 1.759341836734688 0 4.0559490150232032 2.028653202947901 0 4.25 1.5 0 4.6250000000004974 1.8500000000004651 0 4.0559490150232032 2.028653202947901 0 4.4000000000001336 2.3599999999999639 0 4.6250000000004974 1.8500000000004651 0 4.4000000000001336 2.3599999999999639 0 5 2.2000000000000002 0 4.7733688274428578 1.2511819424194319 0 4.25 1.5 0 4.6250000000004974 1.8500000000004651 0 4.2198317920941601 1.108273596938623 0 4.25 1.5 0 4.7733688274428578 1.2511819424194319 0 4.25 1.5 0 4.2198317920941601 1.108273596938623 0 3.638214240926366 1.265285427893069 0 3.8187500000045098 0.69999999999999996 0 4.2198317920941601 1.108273596938623 0 4.4625000000026009 0.69999999999999996 0 5.1062500000012143 0.69999999999999996 0 4.4625000000026009 0.69999999999999996 0 4.7733688274428578 1.2511819424194319 0 4.4625000000026009 0.69999999999999996 0 4.2198317920941601 1.108273596938623 0 4.7733688274428578 1.2511819424194319 0 4.7733688274428578 1.2511819424194319 0 5.5000000000008269 1.1999999999983459 0 5.1062500000012143 0.69999999999999996 0 5.5000000000008269 1.1999999999983459 0 4.7733688274428578 1.2511819424194319 0 5.2500000000007052 1.6999999999985891 0 5.1062500000012143 0.69999999999999996 0 5.5000000000008269 1.1999999999983459 0 5.75 0.69999999999999996 0 5.75 0.69999999999999996 0 5.5000000000008269 1.1999999999983459 0 6.1230253171455891 1.2440604005832661 0 6.4375000000000027 0.69999999999999996 0 5.75 0.69999999999999996 0 6.1230253171455891 1.2440604005832661 0 5.8758020027701336 1.829281458631685 0 6.1230253171455891 1.2440604005832661 0 5.5000000000008269 1.1999999999983459 0 6.6325887022434813 1.7109098098422979 0 6.1230253171455891 1.2440604005832661 0 5.8758020027701336 1.829281458631685 0 6.3749999999999796 2.350000000000005 0 6.6325887022434813 1.7109098098422979 0 5.8758020027701336 1.829281458631685 0 6.3749999999999796 2.350000000000005 0 5.8758020027701336 1.829281458631685 0 5.75 2.5 0 5.4251604005540912 2.1458562917259631 0 5.75 2.5 0 5.8758020027701336 1.829281458631685 0 5.4251604005540912 2.1458562917259631 0 5.2500000000007052 1.6999999999985891 0 5 2.2000000000000002 0 5.2499999999996163 2.499999999999539 0 5.4251604005540912 2.1458562917259631 0 5 2.2000000000000002 0 5.875802002770
[...]
<PointData Scalars="A_conc,B_conc,region_id," Vectors="" Tensors="">
<DataArray type="Float64" Name="A_conc" format="ascii">
0.86045136480519402 0.86207424280321099 0.41657706233060343 0.83716152823646395 0.42633440453480698 0.42384878469414855 0.83519568963715107 0.78374287991113822 -0.060521500435541775 -0.070116306411834264 0.18946860207704938 0.3399511594906009 -0.049977448377975124 -0.071138252720681167 0.1937014303350712 0.33274106617989058 -0.066172016710792342 0.8531606646719927 0.85008986447638268 0.74117876808745664 0.53376402805166046 0.34590209321832499 0.18153127939582178 0.83735488974557126 0.87207739481173474 0.88028050285864534 0.83730504470956413 0.83637837173413376 0.87258657179226629 0.76484955579466785 0.85402529937205018 0.74138122945617047 0.85304833622880161 0.84898504148672205 0.77465980380141519 0.84023185112361243 0.8411161391440195 0.87474246022461399 0.86756087538261406 0.87551503396096697 0.84311702476933392 0.86175732636533242 0.87662091235515327 0.8604403537061095 0.83928805624207314 0.86433511326385704 0.86462168907219172 0.86657051401373242 0.83353689802903608 0.83880244372974777 0.8660966803144805 0.83885295427810858 0.87382744300005 0.87640434550622648 0.86182426257043587 0.87016005093545656 0.87009749031759909 0.88800194084797102 0.87623755244580714 0.886747260171736 0.86897039046518698 0.87712043228606973 0.86769674439700673 0.87130801307960981 0.89004783980509716 0.87423142917042584 0.87040038314896162 0.8403773641306459 0.87619226025082686 0.86788330109864176 0.88977147200967222 0.38344735458621099 0.80110308192788127 0.76334431646233558 0.66567213651366242 0.77180578056988347 0.84560313229080875 0.76146624414020059 0.7715822610053914 0.87612159573533954 0.88957187951729433 0.89812687625361087 0.88525317966652028 0.8919217199889784 0.89649685674901447 0.87709100068387769 0.892290462307889 0.88651675908588989 0.83323930987027384 0.77175384018375814 0.82693029153487119 0.83092764233116168 0.87714076061793311 0.9062711674826156 0.82788227820701199 0.87868030953449439 0.83053719101193391 0.90437775732723646 0.81676286724950065 0.83622352564511993 0.83447640703144332 0.8205662808703601 0.77328113540704091 0.82528151583458276 0.80077751884737569 0.77412418917179904 0.77351726896970352 0.77482303394593433 0.82663131636572107 0.90232328194508316 0.85167386480393714 0.81809612221297989 0.85106415922375211 0.90142058360385102 0.90346632931290338 0.76318816481718266 0.84247417531493995 0.8134979432617121 0.80993367741964073 0.84350870295877245 0.88128875100324122 0.86005889360680943 0.7904690074884404 0.82326373478789217 0.82657456410507912 0.79012263675353256 0.74558223052219152 0.81026962086789089 0.86615375438080222 0.58990810380867631 0.58103703934276762 0.42392784048970039 0.82975510791821872 0.74306758318621846 0.76815288675773075 0.82978079145436801 0.76113166516922659 0.6967467543612692 0.75642322029350983 0.69414150128710272 0.68028708308950592 0.76037920430267725 0.69452430631253248 0.69328252457794959 0.56149911959212273 0.69094154243733397 0.34913348710439401 0.5327566099550296 0.42864535739630338 0.34673232691303174 0.69357777428386336 0.42517398110862359 0.69180223800131302 0.82843474470832124 0.40441671814600827 -0.056282517606747073 0.3440210673773253 -0.059642499537461285 0.41047338825683471 -0.031591782600927959 -0.040090101722122566 0.55087734431147328 0.33628679605653644 0.41157237559830628 0.54832452651100094 -0.037474410496344514 0.38808222232973805 0.56812095402940188 0.88078761452069598 0.003671880299752987 0.30941120690682572 0.036205240677677712 0.73472667250705948 0.85333980006470311 0.30869312690132839 0.42587101581131737 0.033220271441067109 0.033461996449716688 0.42844418398799228 0.072253927278905464 0.86205459485822178 0.86365347102414158 0.070991795899473228 0.42782735599546012 0.27260929174444409 0.6185242406289817 0.38762910328540606 0.88054159013372491 0.6706741327848883 0.79851978834162785 0.86973685372996334 0.82902010906384049 0.79355808732020883 0.85732764348046542 0.8617864967680724 0.84624558457797627 0.89337216210674952 0.82038382041741531 0.86373674464447248 0.888997789668447 0.86847661030688972 0.91842410503372074 0.66989454971566087 0.89197804211988185 0.90759736079579101 0.79236910783108105 0.81187957740794492 0.89410332555647254 0.7913690823891818 0.88176303513747067 0.86608681882845795 0.89902144773856596 0.88169714231954577 0.89836817351252374 0.90675413205980326 0.31125160577407784 1.002603578873563 0.92922312365103865 0.35210700422475355 1.0090089766736627 0.31233897272083039 1.0108745408753419 0.3485544253130623 0.54305159669036485 0.15159862888587264 0.24201774205805718 0.19817958641127564 0.3127680022931173 0.22575709479648254 0.2350743252791514 0.19860898440961383 0.24100587698333784 0.24578008113901345 0.23216276036444702 0.35754881935909466 0.31482256213053728 0.33118511086177382 0.25922345947233383 0.43932138578638436 0.31624549832595444 0.38339819007269532 0.49613396974905244 0.59187460540144776 0.39213710101021515 0.4534495150771396 0.65474629725012101 0.58901419237249719 0.45274990945622101 0.87652615565367742 0.41974496475222167 0.37172731759189487 0.78821419714415775 0.42100556802736883 0.86816548346099898 0.96288505212618114 0.87530291316300124 0.86832091324774363 0.96361362652692761 0.86652634904798898 0.95990871208050921 0.89443333971236672 0.96194832803162178 0.86504421744486104 0.90645223722521229 0.78765146411191678 0.89130649330619705 0.93437184247644134 0.89231589891312035 0.87979586458322268 0.87835424958479857 0.36535764209091015 0.75690653611663938 0.78742545358446614 0.9064193710525511 0.86824284547559893 0.32614002902791239 0.15986784466942902 0.93958758301739098 0.31516332582454093 0.95141048785606053 0.70610940668499911 0.83772905836076794 0.88011970536968476 0.86363133665200864 0.86507421546170571 0.84887347846351624 0.88477558392038991 0.96694770792398854 0.80368537112884963 0.947711628895477 0.94289586508753331 0.89629318753219855 0.94127241638323644 0.930204663158262 0.8960176901766278 0.94313222080859738 0.93925259775945369 0.93021479796194795 0.93617868998155995 0.96300908687882514 0.9311589815730188 0.94475461282402695 0.89271696532837108 0.93273420181781652 0.96337223839641561 0.94312782392857519 0.91605205647676391 0.91972159045054969 0.91396468159330824 0.92253746394731917 0.89680853745271139 0.91458893204413994 0.89653899505392909 0.893947537681553 0.84629258750114567 0.79155970727338654 0.29927560447688401 0.51761205245860953 0.53776339929767525 0.82860087306430108 0.86631538176687717 0.89968651487877205 0.93692361782073807 0.54201281574873184 0.83406794127492034 0.81454852420949975 0.80650102038760274 0.61264823244097932 0.82626841846626964 0.51811997492156514 0.28614537802136369 0.53837592078825691 0.18918054707391516 0.37338156941049361 0.016695937013579746 0.13468046624778957 0.28753731153573492 0.5028434772064605 0.29825470506910345 0.79369436597686893 0.34972527341045179 0.27818568860462545 0.33362716852809726 0.028404334541914295 0.93429352534805221 0.93527061320611182 0.91144146055809816 0.90585432905786245 0.93458780151814347 0.91146883011646085 0.024933482482403447 -0.0039826386731681949 0.16619282606238867 0.9169472698189346 0.87403076809299762 0.91138068582042786 0.81617939000171269 0.92160451902359941 0.85611264109834695 0.92349312343692624 0.81705390562897728 0.84027879972582631 0.81696617060594912 0.92284204718128959 0.92107105455609051 0.8989840393709867 0.93318828032855827 0.85374921681396865 0.93324402350622482 0.91566404265885049 0.91316018575879732 0.91578126398921 0.91077646338340246 0.91316082519325203 0.88075835492716215 0.79001086322276204 0.83218057864601136 0.89994757502371658 0.89582335125634149 0.9307471979894002 0.94625564976652776 0.74694007550610975 0.9509181558322316 0.82375429328503036 0.8893781583330419 0.88510560401813787 0.90050769564620481 0.86185423803786165 0.89233408984199813 0.89098595488203958 0.82322995324257053 0.81560078282470838 0.81410915381533921 0.85438137360141575 0.8922971056062684 0.84284552297413617 0.87791403509651211 0.89492251404902867 0.81175651989791942 0.87938779912989251 0.84322746693517314 0.85027924059460236 0.90389518789965351 0.89775714679770569 0.85676943434333208 0.80059890277122447 0.82407713806046945 0.85565925314535862 0.81393166223208213 0.80165960590064911 0.8533142219317279 0.93382602668303161 0.88160280887801556 0.84386580903861796 0.89167878372988485 0.79634678726900887 0.89274024944682628 0.81634307945708828 0.79578198837636627 0.79745620964365005 0.81327628979140787 0.75945828047401853 0.8782452644601606 0.88697424520453616 0.86845604782734065 0.86166012809041104 0.87665450960425495 0.86504961557481364 0.86633328271050314 0.87604434756204075 0.89804430812596225 0.3978371691444158 0.34996720796632264 0.42386346239996214 0.87655607571336525 0.88002230254013436 0.86834902462190744 0.81758503202514177 0.85060250071941246 0.87860360683315097 0.86953660230504859 0.85952795433852625 0.88713138941840697 0.86337392481870467 0.87316391556169581 0.88454073636422959 0.5333154623946299 0.58610678650053216 0.61653264267122043 0.61445672654229644 0.58615856741405181 0.65397400183526255 0.85966831751471962 0.90842008313077938 0.88673526966996152 0.92795038951146791 0.82814775553956743 0.82529918605024521 0.82661410503585508 0.80268367212270542 0.92560103888863476 0.9234659740026101 0.80421294936384513 0.80559992846654194 0.58303811348726708 0.93508656390775347 0.99420210779312523 0.89140007786166786 0.92162866413023448 0.80611291506383342 0.91221236244563819 0.87974893340795823 0.90544307090547593 0.87966996042685419 0.87657173833133883 0.89173442420949278 0.91914725785345552 0.87941633781205608 0.89164065360505507 0.80965852254593096 0.83992274391424593 0.92614457689264595 0.84447162776547713 0.81021300035027888 0.92535029357206788 0.91203391506245313 0.92283915329837163 0.90157422066177462 0.90178296078847986 0.89442142361692267 0.91211293739289079 0.93637183310365313 0.91146994647891444 0.93417600654998922 0.93403070481289174 0.94652263114260349 0.93545582916698478 0.94658592325926771 0.93139948484180701 0.95264100782267624 0.9311843619450586 0.9382288580933964 0.94941443534176018 0.94892099707172606 0.93828992387962917 0.95307660712172904 0.92808352342024314 0.93067011927565746 0.94725922519185057 0.93381477233526522 0.91267881813362928 0.90850752722340777 0.9316102687501705 0.90901397331390443 0.93921553586366158 0.90982968347732618 0.93115334595925292 0.92841460982524082 0.9324834264058488 0.90955186285629885 0.89994732283325884 0.89721227350378718 0.92000976181562932 0.90391212793303477 0.9154093275798697 0.92433393929199625 0.9119287251196444 0.80640570353026142 0.66524301200572566 0.79737489408428053 0.91365213969547676 0.8848675664844321 0.90879332437805194 0.91375468889212175 0.89343969508533316 0.88178324679449005 0.80394735967252018 0.6501583908695916 0.77972457257253758 0.64044988124156321 0.8034309925556129 0.66342612836613724 0.59608533911038575 0.98649673643115454 0.86383998426869013 0.89665402354089052 0.74813762674957729 0.88590428013321965 0.87695282712944644 0.89234068859241766 0.88526606467886326 0.89896895036730218 0.8960424414256799 0.89637420684492686 0.89189713709177632 0.65872160068634433 0.66140488429671707 0.45075636327241736 0.45080962597619717 0.47655202066732233 0.66101714626615371 0.65669295644455394 0.49553193212516855 0.44136530949974673 0.81175241757824734 0.70127641583213896 0.64668768197747484 0.85869529171185544 0.70254919555129436 0.8113835964818088 0.70336115131044752 0.80408398872430498 0.81165451124418431 0.6819689914208219 0.83311380109563238 0.65937678728367188 0.68518606191828657 0.6625969582963217 0.50400187269643459 0.65334510054951944 0.69911552991270454 0.49551770522547034 0.85752726398512835 0.56344122393657514 0.85353952712781589 0.58854843794597966 0.73613431282514774 0.84067795651142019 0.55569235916966142 0.86984673756090447 0.60163061557114261 0.58676807093229011 0.87669153007761658 0.87236564923988014 0.58145498847375032 0.88290691049213044 0.63023099101019475 0.42340163237528544 0.58263306458676434 0.62993030120141746 0.28965823276537528 0.25825236367776477 0.29859556354868788 0.27879740304154355 0.32497289039815874 0.22776677599165435 0.38507148878754016 0.29753373715541398 0.5180713461388452 0.84654981533808227 0.61639164897265508 0.88519462473359389 0.85203734579190982 0.69806569133224483 0.61347025107953612 0.41889898297744282 0.88407540511456062 0.61187773542856161 0.89079429714285929 0.4113093690984933 0.66719164825833766 0.7770124120780133 0.80330972065957229 0.82796605789092192 0.67641536632204025 0.69322891030608536 0.86246433805676348 0.53031246243282737 0.61485784535334476 0.96723759500460182 0.61822769064472138 0.92566209108551656 0.95258026734318135 0.88584524371361861 0.88897229464667504 0.90078630515480118 0.67391954320618785 0.54467765348234898 0.62883257656747304 0.9029077270100937 0.8906312597556888 0.86538917522014536 0.87982672747241786 0.88936777570778758 0.89268705314913988 0.91446428461455687 0.75647784182098332 0.8898872306409632 0.96381838346274096 0.34702677061374071 0.59701438909188642 0.86753067878746803 0.65795736839133767 0.94382327079122397 0.32401251052051505 0.23237723781748765 0.22820435369411951 0.88631810632014574 0.89206189426783888 0.34436651283131559 0.92351009508613358 0.11681139321451775 0.81757864401261016 0.80861218245674538 0.88379900960091895 0.88827283291963699 0.94785768257059499 0.90652661507463128 0.37368736373966804 0.50839184610847299 0.83737381259812305 0.92560297195879071 0.85920389104110362 0.76989265088575976 0.92141302273982451 0.87601176121594582 0.87808587719949671 0.89614249106896848 0.87313831404772779 0.87822533095502542 0.88719237489705793 0.89184797746211153 0.85420391015158315 0.87134897203639383 0.85478534496515668 0.89115061172885668 0.8895408814907283 0.77262858254369138 0.91133847977857863 0.91862601376436459 0.74426868334027751 0.76846803284541843 0.92229996619378962 0.91019369480307277 0.91752069563387839 0.76962788333248167 0.86524068459823289 0.8838308210706548 0.88246009069449072 0.85935306457836214 0.84348515214062003 0.8697865632177747 0.86524791614063334 0.8531312500574969 0.8845128415457264 0.86280300843461921 0.80151208809808594 0.79343067078921492 0.89018856274816427 0.79461334942788686 0.85085491349146303 0.86161328068329424 0.79336934164696871 0.89122042901991516 0.861288501501972 0.86009994004786805 0.87552662420857208 0.77837296715372395 0.64723578017242112 0.73461028263048633 0.32010955406177 0.59494856913726357 0.7649217212776902 0.77275440437283516 0.73329302218927639 0.79251684036118286 0.77203209730612188 0.79115862935176717 0.83645376328280063 0.79548603402640516 0.73311969925220366 0.69815450479172403 0.88611027893669081 0.85135227353276854 0.875748008266236 0.89259477640843543 0.8743037641929271 0.88531789650850767 0.87854117465568315 0.85340359140201083 0.88621244236880403 0.89079433141890896 0.77184484651013696 0.88607154340761773 0.82543101536891583 0.85081244056403305 0.86498557223367878 0.85270507743990009 0.82042235699966493 0.86937370211823695 0.63563746468970517 0.63452909445840178 0.88825862079486173 0.8976693726402637 0.90060226869737858 0.89880555103153881 0.87007440263206315 0.82029751277308371 0.81752574350800378 0.87482758978530539 0.82302640384421855 0.87207661778503753 0.82222870045506025 0.81681563715021999 0.89181273012781925 0.8964383982170594 0.78794635838261173 0.85830068713270846 0.78172824868966961 0.85987910470879092 0.86228941632019251 0.77867780987046209 0.87925725331493298 0.84181418985093126 0.853324526591973 0.8788268467158159 0.87366704182488897 0.84421195306795738 0.87425042817742693 0.83788708549332269 0.84411724322150239 0.86333798131301664 0.80432843599256387 0.77812040376221592 0.8637016215282034 0.86369942822136259 0.80342128800918045 0.85814958258046481 0.79955114543726613 0.86473502360796928 0.8647091011259217 0.80096748347190061 0.80320242859466129 0.80088240239744724 0.78019047209229253 0.77153282649757726 0.81751889987923609 0.87307752213345469 0.82284805632742641 0.77601508165152921 0.80978881285100435 0.79923328143333328 0.87022810236833048 0.82367302507594942 0.85698878928865241 0.85528284817699296 0.85862417976560101 0.84345226980455923 0.87963881054913895 0.85521724703059832 0.88232275672926719 0.8799227822203135 0.85841221053761807 0.85513586492967197 0.88793624211091848 0.80044935962355079 0.89364674764037477 0.85462961442572138 0.88105824234294428 0.88104882445571053 0.92862798607845154 0.68216670340097041 0.50765849779839856 0.88966431513589661 0.80645528951692569 0.79999288119948797 0.88150936971810734 0.85849506063504144 0.81913134170306601 0.9021521092681718 0.90056454785284512 0.63246733509702924 0.657882837317045 0.65905028769008911 -0.047270227775101106 -0.019486308492149589 0.90834227978321425 0.72222244350737597 0.82759180495395346 0.82285348083587073 -0.048906404316237585 0.69765645112321328 0.92680360143372365 -0.023029317627353114 0.3387271742468676 0.65912892567371695 0.23618979629654532 0.1028931746781378 0.13913607034464612 0.1716060637131567 0.23623424326572717 0.13907286167157537 0.11666126417456787 0.92358277110234854 0.35861528370412465 0.23190897369558097 0.24368071825241958 0.19226508879708146 0.23054951357555978 0.19373108637569561 0.17368058699218178 0.89630839712352139 0.90037809009233893 0.67142616681799849 0.62794606463058478 0.6041034419333261 0.64418958285713945 0.89745471333401461 0.90036349182386977 0.90331899584395758 0.86972905469296424 0.86075486704945758 0.87673949759923053 0.29228565311611693 0.52149730003792438 0.83165789103571963 0.84768280829164588 0.93325029412528471 0.93772511803411007 0.90367589234696322 0.90213655933864656 0.5504864506769932 0.9381605352672252 0.8811963395941752 0.91759334673070614 0.90514772372084373 0.90366044485582553 0.93731323997005278 0.93962652051303552 0.21211085015362025 0.36861980482074058 0.87399903999077466 0.91496067789745039 0.84939562280325764 0.86881261944938304 0.91161319526999041 0.78399893645966745 0.90722654515882961 0.91671552222576935 0.93961124130201934 0.94069944939047778 0.77718142565583226 0.79650776904437537 0.90708417075027747 0.88477361969845747 0.88880872653634535 0.74386849047272163 0.91741392013953926 0.87320812548610793 0.93315685224150424 0.912669900616351 0.44369452459478753 0.5548610454830043 0.96193438466048231 0.71431849250170831 0.93676421300214985 0.93827492214909014 0.86889724126319023 0.88195686381115934 0.33677857695666702 0.43877510634978317 0.78767613338090603 0.80024763914031261 0.93938611788249682 0.93137800188517972 0.953881917343262 0.95691050145721701 0.93810495725728615 0.93888165624873854 0.94609210057117332 0.9328895596864677 0.49848481752679269 0.38334355379994972 0.95254892967216476 0.95387100865463192 0.88167469598334858 0.89083714242397027 0.82272278063958704 0.82816773326312432 0.9528135399330615 0.94557202283876229 0.80020984730887457 0.80839920976136037 0.95382667461452797 0.95497085431701534 0.82841170213019144 0.83442056535542619 0.9567816370957728 0.95842246337393266 0.89036540326072933 0.89640627387673166 0.26456117919611583 0.40309500268115772 0.16938943106770782 0.24255073458246046 0.23186306494345668 0.34345215166352838 0.26158438778357584 0.50933672959825649 0.40650304622832772 0.25871887629496193 0.35765461750201871 0.51228552587274612 0.95245715795539065 0.95673173608846107 0.355135358296501 0.58071042509231718 0.51355273454171901 0.58063067172387384 0.353080397017145 0.6382244975642245 0.4846011004079831 0.74444194937729702 0.67178039449379656 0.48603146593811836 0.67376894981694746 0.32724542756199693 0.73179187729152584 0.78429346625133955 0.62816696530852356 0.77914633789273735 0.7303978767324425 0.87013355092317823 0.95655234036352554 0.95956993489183628 0.95494206965077355 0.95586932968550098 0.8388719464365143 0.90153942694899158 0.80870533527547617 0.85092075356007635 0.91319461382009026 0.91186795578882263 0.95836298882426574 0.95954591832502256 0.74191333554491357 0.63245666917262278 0.89634302371694452 0.6