<?xml version="1.0"?>
<VTKFile type="UnstructuredGrid" version="0.1" byte_order="LittleEndian">
<UnstructuredGrid>
<Piece NumberOfPoints="2028" NumberOfCells="724">
<Points>
<DataArray type="Float64" NumberOfComponents="3" format="ascii">
0 0.69999999999999996 0 0.59999999999999998 0.69999999999999996 0 0 1.6319639930219929 0 0.59999999999999998 0.69999999999999996 0 0 1.6319639930219929 0 0.94999999999923723 1.2749999999987469 0 0.59999999999999998 0.69999999999999996 0 0.94999999999923723 1.2749999999987469 0 0 1.6319639930219929 0 0.68142292217753131 2.106313194182027 0 0.94999999999923723 1.2749999999987469 0 0 1.6319639930219929 0 0.68142292217753131 2.106313194182027 0 0 2.430303940964651 0 1.299999999998378 1.8499999999973351 0 0.94999999999923723 1.2749999999987469 0 0.68142292217753131 2.106313194182027 0 1.299999999998378 1.8499999999973351 0 0.94999999999923723 1.2749999999987469 0 0.68142292217753131 2.106313194182027 0 1.299999999998378 1.8499999999973351 0 1.186467289461244 2.488259157846338 0 1.299999999998378 1.8499999999973351 0 1.649999999999066 2.4249999999984651 0 1.299999999998378 1.8499999999973351 0 1.186467289461244 2.488259157846338 0 1.649999999999066 2.4249999999984651 0 1.299999999998378 1.8499999999973351 0 0.94999999999923723 1.2749999999987469 0 1.626949751997165 1.3978044304614949 0 1.243750000001385 0.69999999999999996 0 0.94999999999923723 1.2749999999987469 0 1.626949751997165 1.3978044304614949 0 1.243750000001385 0.69999999999999996 0 1.887500000003292 0.69999999999999996 0 1.626949751997165 1.3978044304614949 0 0.59999999999999998 0.69999999999999996 0 1.243750000001385 0.69999999999999996 0 0.94999999999923723 1.2749999999987469 0 0.45714634023723411 3.4614941897304652 0 1.013301616169622 3.6128741719811099 0 0.56249999999824107 3.9749999999991399 0 0 3.7000000000000002 0 0.56249999999824107 3.9749999999991399 0 0 3.7000000000000002 0 0.45714634023723411 3.4614941897304652 0 0.56249999999824107 3.9749999999991399 0 0 3.1141786369756268 0 0.45714634023723411 3.4614941897304652 0 0.70993008501830757 2.9054181396964478 0 0 3.7000000000000002 0 0 3.1141786369756268 0 0.45714634023723411 3.4614941897304652 0 0.45714634023723411 3.4614941897304652 0 0.70993008501830757 2.9054181396964478 0 1.013301616169622 3.6128741719811099 0 0.68142292217753131 2.106313194182027 0 0.70993008501830757 2.9054181396964478 0 0 2.430303940964651 0 0 3.1141786369756268 0 0.70993008501830757 2.9054181396964478 0 0 2.430303940964651 0 0.68142292217753131 2.106313194182027 0 0.70993008501830757 2.9054181396964478 0 1.186467289461244 2.488259157846338 0 1.186467289461244 2.488259157846338 0 1.451787781083937 3.11022608666643 0 1.649999999999066 2.4249999999984651 0 0.70993008501830757 2.9054181396964478 0 1.186467289461244 2.488259157846338 0 1.451787781083937 3.11022608666643 0 0.70993008501830757 2.9054181396964478 0 1.451787781083937 3.11022608666643 0 1.013301616169622 3.6128741719811099 0 1.451787781083937 3.11022608666643 0 1.013301616169622 3.6128741719811099 0 1.593428957229921 3.8897035774451321 0 2.08333333333292 3.599999999997022 0 2.4236693135559251 3.5256579194055688 0 2.1666666666662731 4.1999999999971616 0 1.451787781083937 3.11022608666643 0 2.08333333333292 3.599999999997022 0 1.593428957229921 3.8897035774451321 0 1.451787781083937 3.11022608666643 0 2.08333333333292 3.599999999997022 0 2 3 0 2 3 0 2.6000000000000818 2.8399999999999781 0 2.4236693135559251 3.5256579194055688 0 2.08333333333292 3.599999999997022 0 2 3 0 2.08333333333292 3.599999999997022 0 2 3 0 2.4236693135559251 3.5256579194055688 0 2 3 0 2.2687831884271348 2.397628317379688 0 2.6000000000000818 2.8399999999999781 0 2 3 0 2.6000000000000818 2.8399999999999781 0 2 3 0 1.649999999999066 2.4249999999984651 0 1.451787781083937 3.11022608666643 0 2 3 0 1.649999999999066 2.4249999999984651 0 2 3 0 1.649999999999066 2.4249999999984651 0 2.2687831884271348 2.397628317379688 0 2.2687831884271348 2.397628317379688 0 2.8857059848027808 2.304389417342541 0 2.6000000000000818 2.8399999999999781 0 2.8857059848027808 2.304389417342541 0 2.6000000000000818 2.8399999999999781 0 3.2000000000001432 2.679999999999962 0 2.6000000000000818 2.8399999999999781 0 3.2000000000001432 2.679999999999962 0 3.2848100522576571 3.06994577157805 0 2.6000000000000818 2.8399999999999781 0 3.2000000000001432 2.679999999999962 0 2.6000000000000818 2.8399999999999781 0 2.9420158813362729 3.5139475164392531 0 2.4236693135559251 3.5256579194055688 0 2.6000000000000818 2.8399999999999781 0 2.9420158813362729 3.5139475164392531 0 3.2848100522576571 3.06994577157805 0 2.9420158813362729 3.5139475164392531 0 3.412636880282601 3.6134558579332841 0 3.1249999999889848 4 0 2.9420158813362729 3.5139475164392531 0 2.75 4 0 3.1249999999889848 4 0 2.9420158813362729 3.5139475164392531 0 2.4236693135559251 3.5256579194055688 0 2.75 4 0 2.23284951060374 1.369095413116082 0 1.887500000003292 0.69999999999999996 0 2.5312500000049418 0.69999999999999996 0 2.23284951060374 1.369095413116082 0 1.887500000003292 0.69999999999999996 0 1.626949751997165 1.3978044304614949 0 1.299999999998378 1.8499999999973351 0 1.626949751997165 1.3978044304614949 0 1.942890303101708 1.90249985684108 0 2.23284951060374 1.369095413116082 0 1.626949751997165 1.3978044304614949 0 1.942890303101708 1.90249985684108 0 1.649999999999066 2.4249999999984651 0 2.2687831884271348 2.397628317379688 0 1.942890303101708 1.90249985684108 0 1.299999999998378 1.8499999999973351 0 1.649999999999066 2.4249999999984651 0 1.942890303101708 1.90249985684108 0 2.2687831884271348 2.397628317379688 0 1.942890303101708 1.90249985684108 0 2.5341028426591712 1.9138806300960609 0 2.23284951060374 1.369095413116082 0 1.942890303101708 1.90249985684108 0 2.5341028426591712 1.9138806300960609 0 2.23284951060374 1.369095413116082 0 2.5341028426591712 1.9138806300960609 0 2.730231246675086 1.4599417336750831 0 2.2687831884271348 2.397628317379688 0 2.8857059848027808 2.304389417342541 0 2.5341028426591712 1.9138806300960609 0 2.8857059848027808 2.304389417342541 0 3.16379900756549 1.750659825629856 0 3.5028943452390711 2.1825773809523441 0 2.8857059848027808 2.304389417342541 0 2.5341028426591712 1.9138806300960609 0 3.16379900756549 1.750659825629856 0 2.5341028426591712 1.9138806300960609 0 3.16379900756549 1.750659825629856 0 2.730231246675086 1.4599417336750831 0 3.16379900756549 1.750659825629856 0 3.047698899035677 1.175177397439602 0 2.730231246675086 1.4599417336750831 0 3.047698899035677 1.175177397439602 0 2.730231246675086 1.4599417336750831 0 2.5312500000049418 0.69999999999999996 0 2.23284951060374 1.369095413116082 0 2.730231246675086 1.4599417336750831 0 2.5312500000049418 0.69999999999999996 0 3.047698899035677 1.175177397439602 0 2.5312500000049418 0.69999999999999996 0 3.1750000000065048 0.69999999999999996 0 3.047698899035677 1.175177397439602 0 3.1750000000065048 0.69999999999999996 0 3.638214240926366 1.265285427893069 0 3.1750000000065048 0.69999999999999996 0 3.638214240926366 1.265285427893069 0 3.8187500000045098 0.69999999999999996 0 3.16379900756549 1.750659825629856 0 3.047698899035677 1.175177397439602 0 3.638214240926366 1.265285427893069 0 3.638214240926366 1.265285427893069 0 3.8187500000045098 0.69999999999999996 0 4.2198317920941601 1.108273596938623 0 3.8187500000045098 0.69999999999999996 0 4.2198317920941601 1.108273596938623 0 4.4625000000026009 0.69999999999999996 0 3.638214240926366 1.265285427893069 0 4.2198317920941601 1.108273596938623 0 4.25 1.5 0 4.2198317920941601 1.108273596938623 0 4.7733688274428578 1.2511819424194319 0 4.25 1.5 0 4.2198317920941601 1.108273596938623 0 4.7733688274428578 1.2511819424194319 0 4.4625000000026009 0.69999999999999996 0 4.7733688274428578 1.2511819424194319 0 4.4625000000026009 0.69999999999999996 0 5.1062500000012143 0.69999999999999996 0 4.4000000000001336 2.3599999999999639 0 5 2.2000000000000002 0 4.6250000000004974 1.8500000000004651 0 4.4000000000001336 2.3599999999999639 0 5 2.2000000000000002 0 4.7733688274428578 1.2511819424194319 0 4.6250000000004974 1.8500000000004651 0 4.25 1.5 0 4.6250000000004974 1.8500000000004651 0 4.25 1.5 0 4.6250000000004974 1.8500000000004651 0 4.25 1.5 0 4.0559490150232032 2.028653202947901 0 4.25 1.5 0 4.0559490150232032 2.028653202947901 0 3.757799744899315 1.759341836734688 0 4.6250000000004974 1.8500000000004651 0 4.0559490150232032 2.028653202947901 0 4.4000000000001336 2.3599999999999639 0 4.0559490150232032 2.028653202947901 0 3.757799744899315 1.759341836734688 0 3.5028943452390711 2.1825773809523441 0 4.0559490150232032 2.028653202947901 0 3.5028943452390711 2.1825773809523441 0 3.8000000000002032 2.5199999999999458 0 3.638214240926366 1.265285427893069 0 4.25 1.5 0 3.757799744899315 1.759341836734688 0 3.16379900756549 1.750659825629856 0 3.638214240926366 1.265285427893069 0 3.757799744899315 1.759341836734688 0 3.16379900756549 1.750659825629856 0 3.757799744899315 1.759341836734688 0 3.5028943452390711 2.1825773809523441 0 2.8857059848027808 2.304389417342541 0 3.5028943452390711 2.1825773809523441 0 3.2000000000001432 2.679999999999962 0 3.2000000000001432 2.679999999999962 0 3.8000000000002032 2.5199999999999458 0 3.5028943452390711 2.1825773809523441 0 3.2000000000001432 2.679999999999962 0 3.8000000000002032 2.5199999999999458 0 3.2000000000001432 2.679999999999962 0 3.2848100522576571 3.06994577157805 0 3.8000000000002032 2.5199999999999458 0 3.2848100522576571 3.06994577157805 0 3.8000000000002032 2.5199999999999458 0 3.8190056356267248 3.2454749759848052 0 3.412636880282601 3.6134558579332841 0 3.5 4 0 3.1249999999889848 4 0 3.2848100522576571 3.06994577157805 0 3.412636880282601 3.6134558579332841 0 3.8190056356267248 3.2454749759848052 0 2.9420158813362729 3.5139475164392531 0 3.2848100522576571 3.06994577157805 0 3.412636880282601 3.6134558579332841 0 3.412636880282601 3.6134558579332841 0 3.874999999992375 3.7500000000050839 0 3.5 4 0 3.412636880282601 3.6134558579332841 0 3.819005635626
[...]
<PointData Scalars="A_conc,B_conc,region_id," Vectors="" Tensors="">
<DataArray type="Float64" Name="A_conc" format="ascii">
0.060764042591931161 0.074183678914465395 0.21839168196516934 0.071217745108705613 0.21948593457748458 0.22066980689456889 0.055936401040889552 0.22619280673271261 0.1930829052538971 0.27775138242032588 0.21257034060697885 0.19852928963910096 0.27600686315628353 0.25200778344823305 0.30291074534583795 0.20678917148632814 0.27871407672628951 0.30134168496087937 0.21068114628161494 0.2683389267869386 0.29933409953077256 0.33830918987060943 0.29722650756495061 0.37651606183720304 0.29805719566816341 0.33833660902402557 0.37574676084441883 0.014605952205447531 0.0022180961920205133 0.010143769331977134 -0.0036399828515343755 0.0037406930169277355 0.0091582214144714635 -0.0045546385007480894 -0.005190511833272105 0.010188158719952788 -0.0014928766584717053 -0.0023783861593209455 0.0038712628177926512 0.26256742230705582 0.29384223275169802 0.19894714195159388 0.30604017899866165 0.31240878381939491 0.18184127462250174 0.26227669719857288 0.20057223267056337 0.25217707891867691 0.25599598188245382 0.32001527436046273 0.19116288720641703 0.26035403540449692 0.25900580711762544 0.25505580833418379 0.32084560105238774 0.29086525249999301 0.27540060558900264 0.31262106453771671 0.24364341257187172 0.26551742468943579 0.31369394397300993 0.24817610380343141 0.27426876905496844 0.3129768353141838 0.33557869841360205 0.33187348008034212 0.3821152489198622 0.37572494577816123 0.30833056932805958 0.3328583851973283 0.3815131705398 0.32045881397772741 0.37399477390686936 0.2897686955553731 0.3722639233556162 0.28621328525732026 0.328421066528852 0.15998540464968045 0.17974626617291989 0.086847270141383257 0.37230566356034672 0.41049456887061264 0.32724445716041739 0.36541012063630623 0.41071992162622167 0.43723615472007854 0.28594739623033327 0.40373990375369029 0.18024328562138134 0.41032498023628627 0.43745251315261818 0.16230422800186636 0.28340310577270228 0.18441303813967252 0.091404651123225183 0.060807227142057635 0.18658952466867684 0.43606904418557735 0.45199175866725633 0.43857082568576983 0.3730339618054857 0.38173777316332203 0.4378705942874544 0.37483840493413961 0.082404781650653847 0.023003267673481036 0.062973015963431411 0.05511456522658309 0.11993916009589708 0.19385923809265621 0.11569566503478297 0.20369599285160592 0.31044198717455618 0.43940864591140283 0.45657919938649183 0.22472181167412966 0.45153558239089342 0.46441494849310316 0.41250011544280685 0.13806073471735159 0.19617738349530817 0.4218385284346533 0.13101074730889914 0.23290754487825352 0.18469843258159216 0.14022642735287319 0.10217282424157155 0.18166704864178199 0.10876539220694577 0.10437121579690282 0.15322756392348236 0.17706477916078092 0.096899512291308179 0.019033407795124364 -0.0079997529305525471 -0.0087738966257345716 0.017412780031400732 -0.006311780578287257 0.011514633078878657 0.015465533857595797 0.010536595260648542 0.031401629130650768 0.021313917387503722 0.0092804222427365218 0.032992525488426419 0.037551699059447177 0.069969408535182104 0.03038091319055479 0.012524257676712598 0.035533485200202261 0.030498781291925289 0.072745223272274298 0.028130716293087773 0.059345275793034571 0.020909711797563627 0.033965728478888978 0.059950579609229802 0.018720723721152861 0.062349363771093229 0.044574874606655664 0.075766646156804771 0.12935962076835292 0.058954693983755059 0.13637007289058745 0.088892782259485464 0.20323473473613585 0.13372482717833983 0.055523868738929241 0.090923801001533397 0.061366970959442949 0.095104783236211965 0.046854534695792996 0.099791199696767002 0.027993625117398731 0.042903782776408543 0.019501735232259156 0.038328790459395176 -0.013208408537847272 0.021113827203050356 0.036300027341536006 -0.010678432117504822 0.015523950411765994 -0.0072151999879558875 -0.0083087504238101087 0.016756926030345985 -0.010085588188071056 0.03090303348660561 -0.01184807731281382 0.032944479864690825 -0.012073562163786916 0.10221585257618405 0.025505278782933793 0.085514212401462703 0.036107567582856798 -0.014072001198550722 0.0096134832651809127 -0.0013505072667842506 0.0051070809819872944 -0.0011469820334777722 0.060560032848906029 0.018427725406804697 0.23871492530933475 0.011816546936255874 0.0081542118022471504 0.24997661415789771 0.0055655693664347552 0.0028609052347567526 -0.0014413747063635916 0.0017548870894736183 0.00063032960962324555 0.0016330863697135414 0.48726044932335821 0.49883836800234416 0.3393940642665248 0.44608603414176978 0.50203874623389222 -0.0009422550543125071 0.33934998763518198 0.25696345218037586 0.39502696067292375 0.088959203909302342 0.37777072531207262 0.11744281471338602 0.30405996647000633 0.12361077651511007 0.3003933680253742 0.14686633953116235 0.34153661587638162 0.26178439183904439 0.44424471903013613 0.28475354267226316 0.16378799840107483 0.2073838887832968 0.24449213861616054 0.18961747854179981 0.40200456991246558 0.099828950953793405 0.1868030458263315 0.13491230334166018 0.086368161610568248 0.101702855356275 0.13354250870886331 0.083055986539938675 0.15960104481887386 0.20907280491562957 0.10822526510227398 0.18620168484959546 0.31861352132243764 0.46406843387376029 0.47603078639367119 0.18204519383939421 0.32477001310696274 0.40027344817393024 0.45676897837489167 0.22677434822725753 0.4346482168087592 0.26882879471497417 0.39985539740959303 0.15051426076152322 0.12534114757508788 0.13560497642752301 0.086020433073739438 0.26748113677262886 0.13517985210574468 0.15463427314004394 0.1857928061015591 0.26311356274740805 0.13839402670529791 0.12049926910463218 0.26686785177560579 0.1433684772166583 0.11785752480275706 0.20021867294918627 0.2694725092726018 0.21252999839814796 0.26163814953043812 0.39820915364470449 0.24035096240015336 0.21609680744737181 0.37139114777766269 0.3841471666875938 0.17694167013890857 0.21072325306404169 0.37123757560474158 0.17993828714131449 0.25114436464884543 0.32100568588693884 0.21010516592127321 0.39998281586242085 0.32572435935292365 0.3910258711371668 0.35558490284279198 0.46014404893656197 0.35592625137429679 0.39163496979534806 0.35676706022883087 0.37723908042916854 0.42511529126412828 0.29838437143628194 0.38574156690924566 0.26515324532422363 0.1751695539802107 0.47574226808236192 0.48754377873599553 0.41099283801153852 0.15011290068248787 0.39889548718347617 0.24073946252718814 0.40537717703464676 0.44901010543741882 0.40691123800965884 0.14563384741596608 0.15550614337408655 0.17861384351962539 0.14290532635032163 0.38563878355611303 0.31719139338832891 0.32393560825560819 0.45442900661307301 0.058767209457508449 0.52274143317581911 0.51606843077235265 0.016607883006107677 0.53669583180341407 0.068775822686902133 0.52938152853518594 0.51517096942663665 0.55282079216256486 0.53930133533505442 0.31853265317503404 0.5297581425669271 0.52915974400171073 0.3207048247657644 0.45496671253501775 0.52855574952737361 0.56437237482922165 0.49854061009897332 0.56361137740963363 0.53111607448114784 0.48538726137994637 0.35468294791888416 0.52180125498178276 0.23960198407546784 0.43147788333193898 0.28200929041155293 0.53461739045603118 0.56228549539568595 0.55212785212527482 -0.00077347758817695826 0.00090107526924677655 -9.961984980379848e-05 0.4275675454188464 0.2944041532076101 0.36144765027081993 0.41657752304343554 0.46630942741093628 0.41516402773198224 0.46630802734870674 0.50787291799604395 0.41626831495078898 0.50354341952277359 0.001303467080692477 -0.0044531746149127967 0.0031497075342203189 0.049213506045726586 -0.0089893390548501286 0.0045476201636892458 0.0084146766955379721 0.00067685941303967736 -0.00073042646327222457 -0.0013373236455069715 0.0021066881164222024 0.0014882237608130175 0.011507726013881416 0.0090134181222711381 -0.00066129258632480583 0.63991417414969709 0.59366717226323606 0.071469154291654624 -0.026051406760673853 0.08164921143269413 0.012585821554960125 0.079722236009627939 0.0094518661818356331 0.12638929688354261 0.15160614414071324 0.18964295365136924 0.16978161337537973 0.29380576411247988 0.099462026149730223 0.11495414808040517 -0.0026948844830915961 0.63881906267820587 0.68050513639138965 0.097773697745836136 0.02827100728429148 0.20350448689119027 0.61482144559808782 0.62877255334886062 0.18837231891596923 0.16891067990406528 0.27148485423779778 0.11176641833347643 0.12408841559404372 0.16600243968880343 0.27335384197857038 0.28743196919215941 0.2842541409663063 0.43727765487474868 0.28837771877703172 0.62834328849232379 0.64402865941343679 0.57047439436597247 0.10935921566315519 0.099619323338353952 0.53697692516531559 0.5684356823754233 0.096884015723480016 0.53115111093328982 0.10711348597778857 0.2354958231020271 0.10863038543564986 0.0050069835716254896 0.12682046867501195 -0.0053951595997692361 0.018078689610372681 0.024234970189085055 0.010159839105187592 0.00090663798567801952 -0.0042184306404031025 0.016849780164520708 -0.0046597157432535525 0.10301822061626564 0.0097749963669811826 0.00020964189441716511 -0.0012933732295243596 0.017538889094262253 0.008827715830893066 0.0017865318452988336 0.0030098124799570508 0.0018086200079000167 0.0015115691701711909 0.0016899988869652717 0.0038190000236853665 0.00078510229023929937 0.014778601852603917 -0.10104025935553765 0.32203419017142326 -0.068697899325904269 0.046479612715484828 0.0096994501536395179 0.35919149066696648 0.50705995788609748 0.39972485315004369 0.23669880710562535 -0.10805532929333035 0.19565381631002232 0.221675310665919 0.031690917935034875 0.35261662008688094 0.18986704966496176 0.24424980706154825 0.09798903338181493 0.004641139132174666 0.060653338378076294 0.1084474195119767 0.22427218188937048 0.027799191730518598 0.025707343476430826 0.0050098110801338582 0.0054600773366720642 0.028283417748467321 0.029830207919777956 0.0036950682710247835 0.027845335086980047 0.0053655853666532164 0.0093469899458820255 0.12269991198025942 0.012097468077782326 0.028868993918387032 0.012876776685486431 0.02706495821373886 -0.00049092354193592007 0.021608620597164584 0.12543692345546548 -0.021783496863314791 0.18216731635034444 0.19759786072414431 0.13415377780683768 0.0028992507045135767 0.1344173626520484 0.19730467287505016 0.21269683694713065 0.13790042880381156 0.11992188084682998 -0.033284249509054717 0.10863552467317408 -0.015675063585083079 0.011737525224434685 0.21228163940676359 0.23059498579153226 0.028075445820946791 0.024949917698616327 0.086212132268237096 0.028064223960489434 0.0038769244409791502 0.02947863683124631 0.0064568053384225369 0.027019058812451396 0.024418500518908426 0.028432142365811215 0.034041746360454372 0.095004596223700027 0.027085902828114478 0.093933660403619834 0.11266960805488199 0.029160563146229404 0.096106143203736463 0.1036626558586641 0.2736946516202412 0.28689225876672586 0.352204550290103 0.23422331004017347 0.30809777024588281 0.21971398119508537 0.10022309346306803 0.10647096820636591 0.38026257280832354 0.26036739115575869 0.36587470716789522 0.26338877163968977 0.36059420580987422 0.21087546710794253 0.59680420862378281 0.63629610366489575 0.47385682495557668 0.59576218937822556 0.47552684962155428 0.42091982059985183 0.38045562575078978 0.50672981486938173 0.3658757404040664 0.70133292285239945 0.68256080727507717 0.47170221615173286 0.26854650382536355 0.42086749443171872 0.2679220973803586 0.42082128969908322 0.31723736402934866 0.63137156758909974 0.41152633899397217 0.59932154864388731 0.4264173237587327 0.59686547322885108 0.55535566258976055 0.42819119517289567 0.55093251484331696 0.31600351635427204 0.5948714282430535 0.54361431329843679 0.51858884755079671 0.35054967261880443 0.4340474352362072 0.35251220611393519 0.3195565747359041 0.43402642199273889 0.50956476119249328 0.4319231634520187 0.34220214955397943 0.16703341420099665 0.50805966354304766 0.1066864133142305 0.29986323856496006 0.10883121097575188 0.10252974299079948 0.027740722736236855 0.10115548964889425 0.10052486347369252 0.68320412782687245 0.65496869604270891 0.26931881279556907 0.31480631427481109 0.1922859192490374 0.095532660542320791 0.15466367154570279 0.33540473498350482 0.17063623449698614 0.31665991614965394 0.094144314111740512 0.017177510303543465 0.14224826553206255 0.032141100776938533 0.029908609750078755 0.093823955660111868 -0.13979422482780282 0.31410325929444538 0.63165260475607177 0.61189407388393902 0.60250170315347307 -0.10542242166070556 0.60770206170236807 0.42981670383955739 0.21465667660501198 0.18637038426595556 0.35123643778004232 0.60271385766136387 0.58940385756329083 0.21114594381337332 0.36643983844436162 0.35352058849890727 0.18990290881034425 0.34510274307362687 0.18174257287354867 0.30236969480475606 0.47508426026042982 0.3578378471750791 0.30434941803340615 0.35857597649100192 0.26878198153403809 0.17190244192764004 0.50311137835076014 0.24022595204737707 0.2491773813906677 0.46592935281963105 0.40451241395812748 0.28180047592436674 0.45701508710676364 0.16521793842071969 0.27383799944939258 0.31955581266978167 0.3573678398610487 0.26988844628226477 0.27831407660140456 0.28049329948603929 0.22117867573231773 0.18991376168006918 0.27604961586843046 0.22333221919960924 0.21988142050351783 0.27065413173245934 0.27887319290585061 0.22045491579498896 0.021388275336740693 0.013030715198313378 -0.0011223944905024105 0.19156550082836818 0.18190045282946282 0.057145274648451594 0.045494465439976026 0.069033383036812127 0.052701554845643733 0.33753135111041499 0.18510070598803258 0.15368837150521858 0.31658471446889302 0.28091643461321802 0.18776314474869341 0.055721857767823853 0.038882454744502082 0.027975256104488169 0.069339064572477349 0.057518743755528769 0.038090866181366666 0.34083975737596761 0.39854053987516741 0.38285050986564334 0.38552168064685693 0.30582723990769239 0.080258818241404101 0.32860920028503415 0.057321994176170801 0.35328051036213365 0.038839646130009758 -0.020598239972390131 0.37650411822814739 0.3861142095488056 0.024935049309641528 0.38593207623770281 0.28104139298778341 0.43977256279036314 0.41673893503151133 0.43800070333596541 0.42580588794466301 0.4377316309034352 0.073111791132297543 0.023865059842489378 0.055291580265788287 0.36873141655015701 0.38054657263752439 0.43791063425763072 0.29944572542307268 0.44444138582540155 0.076581271281984387 0.055585695399855632 0.14814925320094591 0.16319721771372117 0.27263752752898335 0.10711593210864349 -0.080016186571218492 0.58995433340527403 0.57221036339486719 0.19056324069806377 0.18252321572249106 0.12568075049975655 0.027600686294017556 0.047224748662625875 0.099471900851551998 0.35740879558138394 -0.021015777027940701 0.18233305012596429 0.16427214992282285 -0.040909560861652046 0.29022237110582699 -0.095570609519843447 0.0058318239732657023 0.00073274864844541062 -0.00083735018467467057 0.0085314739308287139 -0.00041541577540865084 0.1313028580352899 0.1184144945973775 0.0062235329188084811 0.046420124428864805 0.11265919146643372 0.01263110655792035 -0.0020333542943149242 0.0099968473648892123 -0.0028771867036379972 -0.0020721184955316877 0.010916990702458168 0.0071989267354580951 0.0018674184810218855 0.0015713112725059142 0.0017725796548821423 0.00074703198939413064 0.0017129072256919329 0.082420138582406877 0.20773827954544222 0.0014327522489110027 0.33343212350166274 0.096052969640746819 0.19529344100474005 0.022703210785259758 0.12461590159069266 -0.019370651759728231 0.19085858039207171 0.025109691047802828 0.13033703140028702 0.39147948972692664 0.086917895822692992 0.41595276545351567 0.095717906928258573 0.063506988548131735 0.40540131230061582 0.41756953794004847 0.39432466026644186 0.37841901854235466 0.38424633831570271 0.24663183253557253 0.10093167497390959 0.39662113401173305 0.41393430382290602 0.39567035430874803 0.36834870169912826 0.38234998244022039 0.24967583370055402 0.30321262457217391 0.37096315542281594 0.3336111459077864 0.3121207802199687 0.37888517028773622 0.3377681670673307 0.29011437455354555 0.37125627042864584 0.3331658167471287 0.11152362830837152 0.40640234849000972 0.25574736566978606 0.11473937821605588 0.23159036567108687 -0.0035942665371092356 0.10062870332316122 0.064344173756044384 0.10884067052799141 0.17282915459735809 0.10030735064633513 0.10937022939289433 0.050569136995553973 0.049089836040759484 0.093939553882430263 0.029570623966636317 0.064756419403529691 0.058185551767007737 -0.0026157982070234859 0.022907217714793177 0.22342117409607745 0.22045997993415359 0.1680736560012025 0.18214445254047071 0.16601498578956964 0.16658437141270743 0.14918359646853985 0.35257481775750976 0.3536836062361739 0.29392222711431515 0.35221576599555615 0.29514203906719211 0.24690823978806825 0.16537547754171522 0.12383501776573608 0.1059042517869288 0.40741613253280229 0.38938180492335711 0.22827021384950577 0.18587771900564395 0.11854041875065169 0.22504107258750738 0.16628946539921508 0.12196087009718415 0.42605518563094275 0.40705525213829991 0.31388741384734742 0.2104221239211515 0.29733803433743705 0.23853038043958436 0.18751716424976911 0.28311131432121117 0.12229735128601921 0.34710732138219624 0.35718890970165446 0.22409412066063511 0.22284802970316978 0.30488685564074497 0.088568103109775656 0.36159747053302055 0.065811967341949468 0.044947949937886186 0.10512175643256311 0.34554033301722081 0.25092054113863566 0.36927412934945308 0.3482062376308408 0.38047703058518789 0.32915575370481825 0.32407512030114288 0.2558200097495395 0.37176252386013675 0.32580767123912496 0.41100864422068994 0.37977496843320779 0.31381007877352579 0.41166042849142626 0.37935883492535888 0.31865675083802247 0.31223475076124735 0.2961690808050722 0.21988911596241867 0.1958841031952252 0.2968945386167447 0.21793470346844215 0.32469592291024402 0.25788547314922394 0.21312276928769727 0.32477031114048399 0.32425271680604728 0.31847743139020401 0.30345784801306619 0.30681319137469709 0.10891816390516995 0.3052135976877412 0.11241702721927095 0.17497487999358269 0.1793448390641971 0.30317882226010945 0.29334686465831583 0.14760752598444224 0.30230053495163178 0.11380091992180098 0.1890690115154203 0.17695448972748151 0.28161598678789135 0.18196338642107884 0.1683462301556081 0.29161062538013949 0.14633906532804022 0.15367890771574264 0.1307080393032542 0.14082033364557048 0.13725313867741054 0.12983747215604874 0.17121844497605723 0.16533281678312201 0.30134557733833833 0.28129165308955523 0.15958206404168671 0.3007820527503996 0.30605975931159429 0.1685885422439439 0.3026397920319378 0.29090696424405632 0.31449304581846244 0.15413454603062993 0.22467188261765858 0.083202736966014768 0.0029038297037538132 0.34583992019368298 0.31709504830478547 0.26087013830375561 0.34501669976684984 0.33350492711314278 0.25404675117297193 0.35286235382562875 0.23370806349268256 0.33334501475432787 0.25535345172167712 0.26315073322102461 0.25619186175740427 0.26373793135815854 0.221228970633013 0.18209304130811649 0.28388197176672092 0.2476127022457516 0.31163338969148685 0.16112615684374493 0.15770071310251926 0.29448882280666555 0.23718871383390197 0.18199889219759649 0.15307748864001464 0.080220612686531759 -0.050941411680769176 0.048584041823402299 -0.017692790864161232 -0.017498766336563151 0.052241545164515277 -0.019979456493817979 0.0049347216054486664 0.00048869428202340151 0.00036077587185784978 0.00066803262513569803 0.0008997822882096429 0.00048335220845585202 0.00068291657932920656 -0.0015771797952890759 0.0041504018963721525 -0.0016243051945807896 0.11670961179785044 -0.013619582029576319 0.017467099099148346 -0.0030455284087880824 0.004725932447880569 -0.0016804040390924868 0.0016119344265980711 0.0027173351597643467 0.0014276796915246358 0.0014993051916698526 0.002848979839872751 0.0032322923072132716 0.00092134278871962294 0.0014379571909937518 0.00066286444716308812 0.0015856818060262792 0.0013759509833668922 0.00063987041773551096 0.0046537733371002053 0.0029517177353973636 0.0032625066203378645 0.0047814797352981227 0.0031233701429326409 0.0049119865429399397 0.0050131783452481617 -0.