<?xml version="1.0"?>
<VTKFile type="UnstructuredGrid" version="0.1" byte_order="LittleEndian">
<UnstructuredGrid>
<Piece NumberOfPoints="2028" NumberOfCells="724">
<Points>
<DataArray type="Float64" NumberOfComponents="3" format="ascii">
0 3.7000000000000002 0 0.56249999999824107 3.9749999999991399 0 0 0.69999999999999996 0 0 1.6319639930219929 0 0.59999999999999998 0.69999999999999996 0 0.59999999999999998 0.69999999999999996 0 0 1.6319639930219929 0 0.94999999999923723 1.2749999999987469 0 1.243750000001385 0.69999999999999996 0 0.59999999999999998 0.69999999999999996 0 0.94999999999923723 1.2749999999987469 0 1.626949751997165 1.3978044304614949 0 1.887500000003292 0.69999999999999996 0 1.243750000001385 0.69999999999999996 0 0.94999999999923723 1.2749999999987469 0 1.626949751997165 1.3978044304614949 0 1.243750000001385 0.69999999999999996 0 0.68142292217753131 2.106313194182027 0 1.299999999998378 1.8499999999973351 0 0.94999999999923723 1.2749999999987469 0 1.299999999998378 1.8499999999973351 0 1.626949751997165 1.3978044304614949 0 0.94999999999923723 1.2749999999987469 0 1.299999999998378 1.8499999999973351 0 1.186467289461244 2.488259157846338 0 1.649999999999066 2.4249999999984651 0 1.299999999998378 1.8499999999973351 0 0.68142292217753131 2.106313194182027 0 1.186467289461244 2.488259157846338 0 0 1.6319639930219929 0 0.68142292217753131 2.106313194182027 0 0.94999999999923723 1.2749999999987469 0 0 2.430303940964651 0 0.68142292217753131 2.106313194182027 0 0 1.6319639930219929 0 0.68142292217753131 2.106313194182027 0 0 2.430303940964651 0 0.70993008501830757 2.9054181396964478 0 0 3.1141786369756268 0 0.70993008501830757 2.9054181396964478 0 0 2.430303940964651 0 0.45714634023723411 3.4614941897304652 0 0.70993008501830757 2.9054181396964478 0 0 3.1141786369756268 0 0 3.7000000000000002 0 0.45714634023723411 3.4614941897304652 0 0 3.1141786369756268 0 0.45714634023723411 3.4614941897304652 0 0 3.7000000000000002 0 0.56249999999824107 3.9749999999991399 0 0.45714634023723411 3.4614941897304652 0 0.56249999999824107 3.9749999999991399 0 1.013301616169622 3.6128741719811099 0 0.70993008501830757 2.9054181396964478 0 0.45714634023723411 3.4614941897304652 0 1.013301616169622 3.6128741719811099 0 1.013301616169622 3.6128741719811099 0 1.451787781083937 3.11022608666643 0 0.70993008501830757 2.9054181396964478 0 1.451787781083937 3.11022608666643 0 1.013301616169622 3.6128741719811099 0 1.593428957229921 3.8897035774451321 0 1.186467289461244 2.488259157846338 0 0.70993008501830757 2.9054181396964478 0 1.451787781083937 3.11022608666643 0 0.70993008501830757 2.9054181396964478 0 1.186467289461244 2.488259157846338 0 0.68142292217753131 2.106313194182027 0 1.649999999999066 2.4249999999984651 0 1.186467289461244 2.488259157846338 0 1.451787781083937 3.11022608666643 0 0.59999999999999998 0.69999999999999996 0 0.94999999999923723 1.2749999999987469 0 2.2687831884271348 2.397628317379688 0 1.649999999999066 2.4249999999984651 0 2 3 0 2.6000000000000818 2.8399999999999781 0 2.2687831884271348 2.397628317379688 0 2 3 0 1.649999999999066 2.4249999999984651 0 1.451787781083937 3.11022608666643 0 2 3 0 1.451787781083937 3.11022608666643 0 2.08333333333292 3.599999999997022 0 2 3 0 1.593428957229921 3.8897035774451321 0 2.08333333333292 3.599999999997022 0 1.451787781083937 3.11022608666643 0 2.4236693135559251 3.5256579194055688 0 2.1666666666662731 4.1999999999971616 0 2.08333333333292 3.599999999997022 0 2.4236693135559251 3.5256579194055688 0 2 3 0 2.6000000000000818 2.8399999999999781 0 2.08333333333292 3.599999999997022 0 2 3 0 2.4236693135559251 3.5256579194055688 0 2.6000000000000818 2.8399999999999781 0 2.9420158813362729 3.5139475164392531 0 2.4236693135559251 3.5256579194055688 0 2.4236693135559251 3.5256579194055688 0 2.9420158813362729 3.5139475164392531 0 2.75 4 0 2.9420158813362729 3.5139475164392531 0 3.412636880282601 3.6134558579332841 0 3.1249999999889848 4 0 3.1249999999889848 4 0 2.75 4 0 2.9420158813362729 3.5139475164392531 0 2.6000000000000818 2.8399999999999781 0 3.2848100522576571 3.06994577157805 0 2.9420158813362729 3.5139475164392531 0 3.2848100522576571 3.06994577157805 0 2.6000000000000818 2.8399999999999781 0 3.2000000000001432 2.679999999999962 0 2.2687831884271348 2.397628317379688 0 2.6000000000000818 2.8399999999999781 0 2.8857059848027808 2.304389417342541 0 2.8857059848027808 2.304389417342541 0 2.6000000000000818 2.8399999999999781 0 3.2000000000001432 2.679999999999962 0 3.5028943452390711 2.1825773809523441 0 3.16379900756549 1.750659825629856 0 2.8857059848027808 2.304389417342541 0 2.8857059848027808 2.304389417342541 0 3.16379900756549 1.750659825629856 0 2.5341028426591712 1.9138806300960609 0 2.5341028426591712 1.9138806300960609 0 3.16379900756549 1.750659825629856 0 2.730231246675086 1.4599417336750831 0 2.730231246675086 1.4599417336750831 0 2.23284951060374 1.369095413116082 0 2.5341028426591712 1.9138806300960609 0 2.5341028426591712 1.9138806300960609 0 2.2687831884271348 2.397628317379688 0 2.8857059848027808 2.304389417342541 0 2.5341028426591712 1.9138806300960609 0 1.942890303101708 1.90249985684108 0 2.2687831884271348 2.397628317379688 0 1.942890303101708 1.90249985684108 0 1.649999999999066 2.4249999999984651 0 2.2687831884271348 2.397628317379688 0 1.649999999999066 2.4249999999984651 0 1.942890303101708 1.90249985684108 0 1.299999999998378 1.8499999999973351 0 1.942890303101708 1.90249985684108 0 1.626949751997165 1.3978044304614949 0 1.299999999998378 1.8499999999973351 0 2.23284951060374 1.369095413116082 0 1.626949751997165 1.3978044304614949 0 1.942890303101708 1.90249985684108 0 2.23284951060374 1.369095413116082 0 1.942890303101708 1.90249985684108 0 2.5341028426591712 1.9138806300960609 0 2.23284951060374 1.369095413116082 0 1.887500000003292 0.69999999999999996 0 1.626949751997165 1.3978044304614949 0 1.887500000003292 0.69999999999999996 0 2.23284951060374 1.369095413116082 0 2.5312500000049418 0.69999999999999996 0 2.5312500000049418 0.69999999999999996 0 2.730231246675086 1.4599417336750831 0 3.047698899035677 1.175177397439602 0 2.23284951060374 1.369095413116082 0 2.730231246675086 1.4599417336750831 0 2.5312500000049418 0.69999999999999996 0 3.047698899035677 1.175177397439602 0 2.730231246675086 1.4599417336750831 0 3.16379900756549 1.750659825629856 0 2.5312500000049418 0.69999999999999996 0 3.047698899035677 1.175177397439602 0 3.1750000000065048 0.69999999999999996 0 0.94999999999923723 1.2749999999987469 0 1.299999999998378 1.8499999999973351 0 3.047698899035677 1.175177397439602 0 3.638214240926366 1.265285427893069 0 3.1750000000065048 0.69999999999999996 0 3.1750000000065048 0.69999999999999996 0 3.638214240926366 1.265285427893069 0 3.8187500000045098 0.69999999999999996 0 0.56249999999824107 3.9749999999991399 0 1.1249999999964171 4.2499999999982494 0 3.8187500000045098 0.69999999999999996 0 3.638214240926366 1.265285427893069 0 4.2198317920941601 1.108273596938623 0 3.638214240926366 1.265285427893069 0 3.047698899035677 1.175177397439602 0 3.16379900756549 1.750659825629856 0 3.638214240926366 1.265285427893069 0 3.16379900756549 1.750659825629856 0 3.757799744899315 1.759341836734688 0 3.757799744899315 1.759341836734688 0 3.16379900756549 1.750659825629856 0 3.5028943452390711 2.1825773809523441 0 4.0559490150232032 2.028653202947901 0 3.5028943452390711 2.1825773809523441 0 3.8000000000002032 2.5199999999999458 0 3.757799744899315 1.759341836734688 0 3.5028943452390711 2.1825773809523441 0 4.0559490150232032 2.028653202947901 0 3.757799744899315 1.759341836734688 0 4.25 1.5 0 3.638214240926366 1.265285427893069 0 4.0559490150232032 2.028653202947901 0 4.6250000000004974 1.8500000000004651 0 4.25 1.5 0 3.757799744899315 1.759341836734688 0 4.0559490150232032 2.028653202947901 0 4.25 1.5 0 4.6250000000004974 1.8500000000004651 0 4.0559490150232032 2.028653202947901 0 4.4000000000001336 2.3599999999999639 0 4.6250000000004974 1.8500000000004651 0 4.4000000000001336 2.3599999999999639 0 5 2.2000000000000002 0 4.7733688274428578 1.2511819424194319 0 4.25 1.5 0 4.6250000000004974 1.8500000000004651 0 4.2198317920941601 1.108273596938623 0 4.25 1.5 0 4.7733688274428578 1.2511819424194319 0 4.25 1.5 0 4.2198317920941601 1.108273596938623 0 3.638214240926366 1.265285427893069 0 3.8187500000045098 0.69999999999999996 0 4.2198317920941601 1.108273596938623 0 4.4625000000026009 0.69999999999999996 0 5.1062500000012143 0.69999999999999996 0 4.4625000000026009 0.69999999999999996 0 4.7733688274428578 1.2511819424194319 0 4.4625000000026009 0.69999999999999996 0 4.2198317920941601 1.108273596938623 0 4.7733688274428578 1.2511819424194319 0 4.7733688274428578 1.2511819424194319 0 5.5000000000008269 1.1999999999983459 0 5.1062500000012143 0.69999999999999996 0 5.5000000000008269 1.1999999999983459 0 4.7733688274428578 1.2511819424194319 0 5.2500000000007052 1.6999999999985891 0 5.1062500000012143 0.69999999999999996 0 5.5000000000008269 1.1999999999983459 0 5.75 0.69999999999999996 0 5.75 0.69999999999999996 0 5.5000000000008269 1.1999999999983459 0 6.1230253171455891 1.2440604005832661 0 6.4375000000000027 0.69999999999999996 0 5.75 0.69999999999999996 0 6.1230253171455891 1.2440604005832661 0 5.8758020027701336 1.829281458631685 0 6.1230253171455891 1.2440604005832661 0 5.5000000000008269 1.1999999999983459 0 6.6325887022434813 1.7109098098422979 0 6.1230253171455891 1.2440604005832661 0 5.8758020027701336 1.829281458631685 0 6.3749999999999796 2.350000000000005 0 6.6325887022434813 1.7109098098422979 0 5.8758020027701336 1.829281458631685 0 6.3749999999999796 2.350000000000005 0 5.8758020027701336 1.829281458631685 0 5.75 2.5 0 5.4251604005540912 2.1458562917259631 0 5.75 2.5 0 5.8758020027701336 1.829281458631685 0 5.4251604005540912 2.1458562917259631 0 5.2500000000007052 1.6999999999985891 0 5 2.2000000000000002 0 5.2499999999996163 2.499999999999539 0 5.4251604005540912 2.1458562917259631 0 5 2.2000000000000002 0 5.875802002770
[...]
<PointData Scalars="A_conc,B_conc,region_id," Vectors="" Tensors="">
<DataArray type="Float64" Name="A_conc" format="ascii">
0.7045377848046529 0.70830964941247732 0.27003013803745768 0.63198662308959852 0.28522686787069934 0.28224828479165931 0.63100248105599877 0.59393648628045215 -0.03419238978521319 -0.026851822069928592 0.061044211855141771 0.12898470371705179 -0.050602206134163073 -0.050349274069412427 0.060549164519362229 0.12197482358118157 -0.044138070492279233 0.69098720047435369 0.69227806862027075 0.56144375063707774 0.20476692484735368 0.13133835524816004 0.048090404626794724 0.6822407998624298 0.74556456526454407 0.76413796137921186 0.68277207127988648 0.67706371045686853 0.74619259620887524 0.57685508877258806 0.69150900389866377 0.56255876718659836 0.69039852879675612 0.68859926880662869 0.58405087288292878 0.68354751158827709 0.67892975611735717 0.74804387619716706 0.72582428661803311 0.75044362412023469 0.6827009611871826 0.71427414812346557 0.75490975774832858 0.71103926949552654 0.65640666911398016 0.72015041835376947 0.72098727235596727 0.72536918613525703 0.64321935578894696 0.6578476873953768 0.72435443104151853 0.65754524989443486 0.74570310034855802 0.75419989186446701 0.71446869992465911 0.73690738720152382 0.73666015014857422 0.78371921731525918 0.75357581112456429 0.78102624080424865 0.73408799054393414 0.75571539983830449 0.73898023153418491 0.74271460392069377 0.787412825727282 0.74750090898267751 0.74304249725058835 0.68312227941886305 0.75910167465191369 0.73902980981840627 0.78693147263722651 0.25108395913500214 0.60720664324946783 0.46869933484660387 0.31666892717211409 0.49196531674389854 0.66362619768178965 0.46737249260535696 0.50056302325415947 0.75863895648970947 0.78659367354945997 0.80791011812410551 0.77700803680072139 0.7935548663158225 0.80532866587654484 0.75555016996708779 0.79475054595063521 0.78022333312847125 0.64296056098035892 0.50376408901425807 0.62119128874382346 0.63930618120770388 0.74493983346078774 0.82676400201115807 0.62417665002809808 0.74763933349471468 0.63970880218073856 0.82265803695812079 0.60679509298798828 0.65232556192356228 0.64384069894882567 0.61608020661307028 0.51535149037502304 0.63176517752078343 0.5734497839136139 0.51741523547581758 0.51726479645251289 0.5225958045890895 0.63283315468094892 0.81804672300812908 0.69469003094023141 0.60958673810093778 0.69328087275562966 0.81603226602894641 0.8219045091085303 0.46843351821787149 0.66133688454456618 0.58373781488890353 0.57787499575522483 0.66493942481436097 0.7637462823701735 0.70695323927803877 0.50544143374691897 0.61206313418315483 0.61366887303459572 0.5070629101614551 0.42566457510781491 0.46138525398517122 0.55792350588547079 0.32830490234591503 0.31904182349415272 0.18809293290890203 0.47154564409141642 0.42641761633676495 0.48556372446605539 0.61338460524105987 0.43511600127569827 0.32257234668820572 0.47605201768767974 0.32429456903194853 0.34845283011374506 0.47467914387995158 0.34685763783425916 0.32408440895153884 0.20586366489279093 0.32597861152347563 0.13381780414239078 0.20994667764575686 0.19848532195068525 0.12809022695629935 0.33219677554859511 0.19481759294631995 0.33576071245895484 0.46551314385952131 0.175389025563495 -0.057457882551795278 0.13657337146164805 -0.065246917885826178 0.18308315715864046 -0.063414958041773398 -0.080053577743549334 0.28853577584423762 0.14914333002495478 0.19086464194271022 0.28211868209387847 -0.071767504429952167 0.19015942719218426 0.31012543810192328 0.57265880186824603 -0.047384019868259186 0.12831102628650273 -0.044897669770974438 0.55642670694843255 0.69478248011311272 0.13237394932393937 0.20799091599897152 -0.050025969903376225 -0.053993125705494791 0.21355951163042597 -0.046470229964802913 0.70824130587432699 0.7119352683376422 -0.051218323245309984 0.22000331469018602 0.08744638714642422 0.40022131453801363 0.18535824448150159 0.57694873435972882 0.4512689457458684 0.51061869215651357 0.6175217629388019 0.61555041376995157 0.50656292067640196 0.7053749903502301 0.71421829087787092 0.6716236863066557 0.79846142259964259 0.61375549784420225 0.70295695098737054 0.77155507407640422 0.61826573914891481 0.70363224138922231 0.44661459097041523 0.7809238010575994 0.82511703657863467 0.55332918090403316 0.59522950303339595 0.78389930248551987 0.55335959626882592 0.76793918220926805 0.72585885640842851 0.81261194827714311 0.7677816632382638 0.80998579417386185 0.83103210599316302 0.086580642820785689 0.82726741795568182 0.81557347815685644 0.13541939873038389 0.82540753219853624 0.095044055506234862 0.81708112521891385 0.13917489400501529 0.32210181752285377 0.0098695604740317421 0.065918402057432865 0.020777094155451925 0.062947994588918282 0.036449882196074625 0.046062737921983697 0.019986766416498176 0.067224660069445191 0.05278978041458466 0.045100006136505159 0.073566819765204072 0.064464101609441229 0.056396896979941026 0.069317389327093318 0.16541112466248209 0.071465825879397829 0.089873898289457646 0.15631304276137453 0.22540112402941562 0.074547775992870116 0.10977187345920805 0.27894177481991156 0.2260652964161606 0.10766263530613512 0.63357767829305123 0.092092730857361402 0.058602030900336777 0.56345630393065393 0.083942372026153927 0.63931130419466609 0.94927264176600312 0.65955417733441801 0.6397788377352982 0.95018803900352611 0.63456776171917106 0.93608418140729921 0.72625379716782879 0.94156508078007761 0.63174657145956803 0.7354270666949474 0.46912203566332372 0.69564443323203451 0.84461953221829655 0.72288342736780242 0.68289304118677085 0.62474280560808637 0.064311775944490696 0.47256036321961448 0.4689419339257217 0.73564622658549528 0.62936435879308428 0.025224640509764619 -0.10815294269072018 0.80754041595900394 -0.0017248353900580424 0.86301432887667262 0.52463552830819382 0.68256758074185375 0.76406444812522512 0.71186159806877791 0.71520641776819649 0.66214913018359156 0.74402945960259304 0.92301847073333165 0.56632913339710034 0.89786587323887523 0.88894560448902715 0.76930486074587978 0.88139065648030346 0.8551968746072065 0.7685483104707207 0.88967092265444592 0.88078884177591166 0.85789622388853093 0.87234179549855806 0.94562580407166597 0.82520953499318328 0.87350541634446621 0.72226149844322118 0.84135316286649242 0.94422572156301687 0.88646238600096783 0.79496304244433935 0.79963964299813162 0.78508173894948152 0.80957056004747685 0.7087681213383713 0.78706518520380009 0.70809264086026469 0.71010998339485787 0.51197394826870002 0.46805668289662378 -0.0045555530984738501 0.18791590486018098 0.20397551343759684 0.49992772251705264 0.66365262924087853 0.72607259105073452 0.84086282174900251 0.18987411962450254 0.55342664862683355 0.52421661783720608 0.51146265810936953 0.29341824011227485 0.61014209471061243 0.18366862533674019 0.050461110860281391 0.19595980019330272 0.037066264811059249 0.08436160725734157 -0.01615314549277274 0.0079956961915402733 0.056529293134698969 0.15991648467822575 0.035041536698935789 0.41080731573509244 0.09705531904535912 0.031840190144666089 0.080081549428648383 -0.010472390720855956 0.86303636903285896 0.86972625581389063 0.82212871348752192 0.80330630085766919 0.86381310689332469 0.82238562230414591 -0.0095321882558015332 -0.0035173115713506608 0.027817618679261708 0.83462230337579135 0.75516976962595539 0.81458559992783763 0.63909223541286198 0.83305577331073311 0.72242617759781691 0.83150776784186975 0.64036951143140441 0.67617131803164254 0.64006403694333991 0.83009474502784864 0.83244968879459658 0.7757394096450585 0.85474205588351915 0.67516501238376647 0.86163978443296374 0.82515568859611554 0.80503592139169777 0.82552738379478174 0.80907222947825874 0.8050675619452291 0.77347800899947772 0.56977710933216474 0.63654311227826099 0.77528149747588626 0.76833609119150914 0.8568291269543219 0.90017079430822444 0.48718211548094215 0.9097529737782063 0.61795565033705235 0.79270311337056998 0.78255399469153608 0.81672489746634769 0.71455526452754337 0.79487309190996813 0.7964986547847217 0.61722998506186566 0.60202218291981435 0.5990521375944946 0.70370319068379827 0.79881812893721527 0.66249351443157445 0.756570430733571 0.80272110828055965 0.5811045807435461 0.76026531407733311 0.66338202117890077 0.69285247962133367 0.82225950976019158 0.81017121657868685 0.70761297385651145 0.57255362374366336 0.63000866153364699 0.70626842528141953 0.59942661381866491 0.57393682619471731 0.67467976782059924 0.85582438293137808 0.73382268134884288 0.65725924148619985 0.750473367384345 0.55745479012960575 0.75166201870419203 0.59294244843942223 0.55727660647662836 0.5618967160455921 0.5844020169191545 0.48761367898842201 0.72916174926596466 0.74972233296222912 0.7283286897052883 0.69438288896427958 0.73357896925137889 0.71512917037289503 0.71814568686378644 0.75827808513649442 0.80767907444317366 0.17571700127665676 0.083346181839042105 0.15341154137763427 0.73318482749143377 0.76891644602537257 0.72762585673430102 0.63360098358127404 0.70895082356210237 0.75236765802378458 0.70248136375306691 0.67469575276837923 0.75281793251461149 0.69604141330292546 0.70812695522890723 0.74814432526442365 0.25013163867609411 0.29489910479416326 0.34637233070175338 0.34676160839703324 0.29421619032085861 0.38333742669650278 0.67480613052141125 0.79466432530774367 0.75172453304169906 0.83177346256819518 0.6180062090472036 0.63006859715445807 0.63070640740471784 0.59846100303879946 0.82991857694207727 0.82886252992768328 0.59891972347932476 0.60686144358518224 0.17090088250831575 0.84665776650413005 0.96145760250490186 0.78174590299961411 0.82727196316267138 0.60600174534386142 0.83549234528170024 0.74104094681068133 0.81465613358563105 0.76784254292098375 0.73354220743161624 0.76349527844675191 0.84743849042539998 0.76661375638765383 0.76332831184709193 0.63738449100956462 0.68454294091206924 0.85650104874471933 0.7125745058812849 0.63915852814126284 0.85384798286140218 0.80735843196884638 0.85722238304204579 0.81229748833756232 0.81381142503600323 0.77523874560078943 0.80711828416413567 0.88293783610709153 0.79703188702649752 0.8514784051723614 0.85154409380553986 0.89606077717930877 0.87802281536732829 0.89672123130629966 0.84622597921993647 0.9080298010430411 0.84558953806836068 0.86626979806556925 0.8997626825763807 0.89713591644872681 0.86665093967946571 0.90817826152080849 0.83587507662151628 0.84102450631722525 0.89722772614870061 0.85289681166060149 0.79617955011123309 0.76880104093701906 0.847459179449497 0.77402704221921426 0.87032953059796303 0.77215419908877736 0.84248000197323036 0.83774192049452023 0.84635636882393905 0.77183280873881188 0.73496187126483326 0.73151728543039574 0.80921103344995149 0.75542998270976391 0.79439165431422887 0.82414742634095239 0.78194181350881731 0.52507481217653484 0.31406071003881963 0.51968807191621591 0.79913199687190106 0.70342268879112735 0.76957258294365527 0.80720953925525607 0.77642070873704105 0.69032711408102343 0.57795545460635322 0.30367629324553369 0.50631816761889925 0.29859411629367494 0.51682201287608365 0.31726425821545873 0.18000278542442286 0.95619318922535324 0.67036249307225182 0.77244891166435248 0.48114307800683359 0.77815630528201052 0.7571275616889922 0.79448204659133204 0.77690379796664633 0.81113822758572318 0.80395171669838938 0.80481776065997945 0.79342798152513483 0.30765058694953412 0.30287979407671384 0.12511604967972342 0.13053608465003166 0.15787531289284723 0.30218810766456095 0.29248184143455969 0.14855516130280624 0.12383272400685896 0.52536262358453156 0.34325696734345545 0.29630945961838984 0.59839690044480287 0.33634585641399728 0.52347444657992082 0.34144555679483329 0.52853832809827628 0.52431690215422067 0.31294517277705813 0.53181801197490675 0.2989794435064535 0.30944871940510837 0.29815949080974063 0.1548094086336185 0.29856633193481141 0.3276794385863348 0.14430166834634151 0.61953940409580577 0.11769378222075713 0.58898557472769786 0.15676175803889103 0.3298759403121056 0.56746969319999996 0.12527475675663582 0.61341035635285202 0.24686060952042044 0.21485501216171077 0.62728623596779576 0.62579000776570315 0.22363778751062002 0.61877654675379945 0.29134092587088389 0.099378040836693327 0.2218203357806833 0.28756454436045908 0.062490091675323614 0.081044389897599198 0.050527711951745755 0.084278982978065367 0.090233324049244765 0.039685210523927955 0.10196116817597188 0.087587980823310513 0.18454343538001783 0.58279858562046816 0.2485426258744505 0.63076396658666711 0.58080714837499081 0.36593890668559775 0.25371811857194432 0.018016060174459395 0.71322285627404602 0.22243506416355313 0.71021988121952462 0.019224136696450077 0.40576701891990563 0.53927435666592904 0.6012218177281129 0.63207377252346364 0.3106970399721018 0.3649119368646303 0.57000997823985533 0.20696914380813114 0.31438020695907071 0.83433459752322348 0.31205035711319651 0.78854931658772154 0.82939485126481716 0.74742219831757772 0.75423149193226835 0.78250054260492508 0.40256509342636648 0.24730490688323631 0.34768638884860309 0.78714917062523226 0.7581602060228414 0.69902009884707483 0.73307102893777165 0.75528723265611164 0.763189588412855 0.79511784938595498 0.48655362255418777 0.74031944102082048 0.72613568035307674 0.11072203464377316 0.34389233024587934 0.65397886835654762 0.397425691406949 0.80647972864534923 0.087793196355771597 0.048839558890035543 0.041793996056025663 0.74810557956444113 0.76175781884368821 0.13144159770676703 0.61663938724777456 -0.045791929871262071 0.6137694340116634 0.59127250957431476 0.74948619541805439 0.7599248154345426 0.70177809903170185 0.61946446730133198 0.15005047407492905 0.22374706627887581 0.55067644797327331 0.7102723054717841 0.68160821974461316 0.5123997642332877 0.81136401898380239 0.72716243826436677 0.718783116649784 0.76598154569905885 0.71723178520814246 0.72917544883109409 0.75020138303426087 0.76062387131724796 0.67381875099357258 0.71289740633229726 0.6747182018091803 0.7592570024170624 0.7552178113379131 0.51438695847399363 0.79225439144682164 0.80809640273285777 0.46307451929950316 0.50817578847726519 0.81127739056648374 0.78938528694699961 0.80555002447649182 0.50823395605975696 0.70127425109716113 0.74139670642302147 0.73937112104312996 0.69264224587556855 0.64868842200942478 0.71276205970917139 0.70151937082619276 0.67188518757003146 0.74271010744994326 0.65705562087253111 0.54672657594860541 0.56086888018802705 0.72856689487096438 0.55959819125184262 0.66329095959272932 0.656062848462305 0.55938243542472055 0.72926946411242577 0.6951889182602643 0.65880160096444618 0.71115909962456447 0.51596666179369843 0.31395018279103892 0.43885377345056331 0.064511756889612831 0.25967415826844431 0.43197829073182697 0.5170372739461836 0.43868316631205906 0.54487935919837671 0.51555624464882321 0.54393050970686396 0.64510939745388474 0.54478798214293633 0.43969707325729629 0.3791408416844817 0.78123362014695308 0.68734107812413814 0.75269727412427734 0.79535750875008671 0.74867710783538743 0.77721498588392246 0.76026580964050028 0.69407864648599993 0.78076443432191034 0.76249009613802121 0.52515232831517145 0.75276172891906246 0.62722405263425085 0.66103245970467517 0.70444750045595361 0.66807907400868316 0.60895870852711953 0.7040747256387534 0.34351482586148219 0.34076041707674548 0.75972120744589722 0.77548536977251969 0.8150864891741102 0.81075717430169536 0.70507529559856641 0.60906617082346881 0.600475631423802 0.71786037424639915 0.60874379250060251 0.7118678786241931 0.629065797592537 0.61249272742021899 0.76110287494633 0.77216837699905605 0.5538677369281757 0.70249062150902741 0.53094208727563685 0.70479962551861641 0.70965260020788301 0.5255932432332564 0.76181758686795287 0.66534954447337535 0.69438891538678993 0.76035561445954569 0.74568842352273579 0.67162215573216288 0.74696642578434513 0.65512890964760262 0.67183023021774646 0.71119426998952628 0.58442922550856902 0.52546157441475749 0.71128111458180376 0.71007033834042022 0.5822620546534113 0.69593409012147267 0.5744306708047846 0.7113131263706981 0.71159883517462674 0.57784556219540606 0.58254662369868759 0.56200915798010898 0.53826536518649426 0.52436173572786082 0.59651531608480102 0.71348504970837567 0.60892004426857715 0.52999255308678217 0.57916195795018843 0.56522350068866223 0.70736858100627331 0.60923375708171468 0.67802963315591358 0.67698706802677511 0.68426271515891712 0.65037458426092631 0.73208218485492793 0.67650841343834256 0.73841250361340838 0.73270227808315791 0.68371235494978289 0.67652164442146401 0.74135472784286516 0.56034952990191667 0.72377521318839522 0.67746006392898095 0.73000312294372538 0.73689867204867898 0.7094872777830753 0.41436758368499282 0.22667130466032423 0.74326960943621567 0.57392096253712799 0.56066249146406744 0.72658601673982681 0.67747157046661444 0.59850328946145059 0.81871481518238143 0.8149776140092736 0.33493806972351131 0.36879868931143145 0.35356517193078202 -0.097553924044866652 -0.091316126475618015 0.77280709061779351 0.4301539023575312 0.63977160831071045 0.62956839989318614 -0.14014560096503417 0.41071314165505651 0.62414410041632773 -0.098534199026084068 0.12552836074972043 0.36229915474566365 0.063223735544249343 -0.0030239573643160412 0.0033239761045864413 0.012065679670271674 0.065337380881280022 0.0022672205064482873 -0.036109195287284089 0.60399857596521633 0.14969335828195537 0.034931203637989378 0.047143146280541427 0.030702476828354565 0.034619108534764159 0.030815095895603235 0.021808211239644187 0.77179975293553682 0.78158741054377312 0.40393682395202668 0.3472763932085639 0.33359166883380031 0.37515549763970057 0.77523186634778818 0.78149450244929464 0.78827237477046308 0.70923088866096051 0.69186020816878724 0.72585650721460271 0.080250345022871317 0.19270496645192178 0.61181859872310373 0.64002333008158119 0.86141766920833052 0.87058657613432189 0.82224661843980806 0.81866659110773332 0.22355873225657347 0.78778977728602562 0.73470362950781942 0.80741053972618226 0.82561755991178631 0.82219977355707885 0.86995106392881716 0.8750427207476611 0.035941347693958341 0.12287884470599814 0.72479481445134786 0.84100145734148535 0.64247178836227736 0.67547351304785497 0.83539112334861176 0.53246344882215013 0.81850272905572174 0.84379294562680918 0.87498382245888895 0.87755801824734359 0.50751344892748484 0.57598349284309791 0.83141763038848326 0.77559414532079041 0.78141784606590003 0.52889431563543432 0.83525706277348832 0.75367369069873658 0.86415702689657592 0.82586755465040373 0.17153881637748022 0.29621109104665844 0.93031266481764385 0.42534763883965671 0.87337999257518706 0.87801351205448463 0.67542224554020636 0.6998821093490013 0.052255320824836568 0.17380765758700961 0.51224520692161957 0.52669267262204955 0.88083121390988595 0.86132145801656124 0.90863868117882118 0.91727553836748044 0.87749712351527109 0.87980212423566739 0.89341894227834029 0.87238823108378671 0.1638086762564831 0.087716461597905346 0.91732875673788594 0.92147804204545947 0.69950809431539152 0.72008266909412799 0.56046407043403301 0.57533660515731078 0.90718686596598197 0.89286241012865264 0.52539527010930698 0.52505332519213799 0.92129579045114451 0.92442159198149831 0.57664881398565904 0.59170464279150459 0.9168319921280933 0.92106140524385138 0.71945031400738224 0.73779805539272392 0.04559385967532343 0.088407377519796798 0.018704999018609374 0.047462857013842244 0.034323633882461888 0.071437446840049962 0.043501864993170838 0.13635173491264591 0.092457305258526801 0.039471466816214058 0.077381563444766377 0.14040655822031112 0.90673937034205354 0.91684944875053698 0.074841143701540935 0.18372320626246461 0.14504637946126248 0.18583731692863656 0.070591563626466361 0.21566012350139754 0.13055382861153095 0.3409353803869184 0.27097130634820088 0.13448601981582461 0.26008478693199333 0.049745693649038608 0.34490339108224671 0.41693818429318097 0.23557436565186249 0.41990450417680741 0.34398388971561894 0.57094535565322313 0.91645172394610552 0.92377905669591032 0.92430267087280082 0.92660971488661736 0.59975312251812651 0.75568353501214236 0.52232894053180179 0.60115788056644726 0.79098057217493