<?xml version="1.0"?>
<VTKFile type="UnstructuredGrid" version="0.1" byte_order="LittleEndian">
<UnstructuredGrid>
<Piece NumberOfPoints="2028" NumberOfCells="724">
<Points>
<DataArray type="Float64" NumberOfComponents="3" format="ascii">
0.6000000000 0.7000000000 0.0000000000 0.9500000000 1.2750000000 0.0000000000 0.9500000000 1.2750000000 0.0000000000 1.3000000000 1.8500000000 0.0000000000 1.3000000000 1.8500000000 0.0000000000 1.6500000000 2.4250000000 0.0000000000 1.6500000000 2.4250000000 0.0000000000 2.0000000000 3.0000000000 0.0000000000 5.7500000000 0.7000000000 0.0000000000 5.5000000000 1.2000000000 0.0000000000 5.5000000000 1.2000000000 0.0000000000 5.2500000000 1.7000000000 0.0000000000 5.2500000000 1.7000000000 0.0000000000 5.0000000000 2.2000000000 0.0000000000 5.0000000000 2.2000000000 0.0000000000 4.4000000000 2.3600000000 0.0000000000 4.4000000000 2.3600000000 0.0000000000 3.8000000000 2.5200000000 0.0000000000 3.8000000000 2.5200000000 0.0000000000 3.2000000000 2.6800000000 0.0000000000 3.2000000000 2.6800000000 0.0000000000 2.6000000000 2.8400000000 0.0000000000 2.6000000000 2.8400000000 0.0000000000 2.0000000000 3.0000000000 0.0000000000 2.0000000000 3.0000000000 0.0000000000 2.0833333333 3.6000000000 0.0000000000 2.0833333333 3.6000000000 0.0000000000 2.1666666667 4.2000000000 0.0000000000 2.1666666667 4.2000000000 0.0000000000 2.2500000000 4.8000000000 0.0000000000 2.2500000000 4.8000000000 0.0000000000 1.7500000000 5.0000000000 0.0000000000 2.2500000000 4.8000000000 0.0000000000 2.8333333333 5.1000000000 0.0000000000 2.8333333333 5.1000000000 0.0000000000 3.4166666667 5.4000000000 0.0000000000 3.4166666667 5.4000000000 0.0000000000 4.0000000000 5.7000000000 0.0000000000 4.0000000000 5.7000000000 0.0000000000 3.6250000000 6.0000000000 0.0000000000 3.6250000000 6.0000000000 0.0000000000 3.2500000000 6.3000000000 0.0000000000 4.0000000000 5.7000000000 0.0000000000 4.5000000000 6.0000000000 0.0000000000 4.5000000000 6.0000000000 0.0000000000 5.0000000000 6.3000000000 0.0000000000 6.0000000000 3.8000000000 0.0000000000 6.3750000000 3.9000000000 0.0000000000 6.3750000000 3.9000000000 0.0000000000 6.7500000000 4.0000000000 0.0000000000 6.0000000000 3.8000000000 0.0000000000 5.6250000000 3.9000000000 0.0000000000 5.6250000000 3.9000000000 0.0000000000 5.2500000000 4.0000000000 0.0000000000 4.2500000000 4.8000000000 0.0000000000 4.7500000000 4.4000000000 0.0000000000 4.7500000000 4.4000000000 0.0000000000 5.2500000000 4.0000000000 0.0000000000 4.7500000000 4.0000000000 0.0000000000 5.2500000000 4.0000000000 0.0000000000 3.5000000000 4.0000000000 0.0000000000 3.0833333333 4.2666666667 0.0000000000 3.0833333333 4.2666666667 0.0000000000 2.6666666667 4.5333333333 0.0000000000 2.6666666667 4.5333333333 0.0000000000 2.2500000000 4.8000000000 0.0000000000 3.5000000000 4.0000000000 0.0000000000 3.8750000000 3.7500000000 0.0000000000 3.8750000000 3.7500000000 0.0000000000 4.2500000000 3.5000000000 0.0000000000 1.0000000000 6.2000000000 0.0000000000 1.6000000000 6.1000000000 0.0000000000 1.6000000000 6.1000000000 0.0000000000 2.2000000000 6.0000000000 0.0000000000 2.2000000000 6.0000000000 0.0000000000 2.8000000000 5.9000000000 0.0000000000 2.8000000000 5.9000000000 0.0000000000 3.4000000000 5.8000000000 0.0000000000 3.4000000000 5.8000000000 0.0000000000 4.0000000000 5.7000000000 0.0000000000 4.7500000000 7.2000000000 0.0000000000 4.5000000000 6.7000000000 0.0000000000 4.5000000000 6.7000000000 0.0000000000 4.2500000000 6.2000000000 0.0000000000 4.2500000000 6.2000000000 0.0000000000 4.0000000000 5.7000000000 0.0000000000 2.7500000000 4.0000000000 0.0000000000 3.1250000000 4.0000000000 0.0000000000 3.1250000000 4.0000000000 0.0000000000 3.5000000000 4.0000000000 0.0000000000 5.0000000000 2.2000000000 0.0000000000 4.7500000000 2.8000000000 0.0000000000 5.0000000000 2.2000000000 0.0000000000 5.2500000000 2.5000000000 0.0000000000 5.2500000000 2.5000000000 0.0000000000 5.5000000000 2.8000000000 0.0000000000 5.5000000000 2.8000000000 0.0000000000 5.2500000000 3.2000000000 0.0000000000 5.2500000000 3.2000000000 0.0000000000 5.0000000000 3.6000000000 0.0000000000 5.0000000000 3.6000000000 0.0000000000 4.7500000000 4.0000000000 0.0000000000 5.5000000000 2.8000000000 0.0000000000 5.9166666667 3.2000000000 0.0000000000 5.9166666667 3.2000000000 0.0000000000 6.3333333333 3.6000000000 0.0000000000 6.3333333333 3.6000000000 0.0000000000 6.7500000000 4.0000000000 0.0000000000 5.5000000000 2.8000000000 0.0000000000 5.7500000000 2.5000000000 0.0000000000 5.7500000000 2.5000000000 0.0000000000 6.3750000000 2.3500000000 0.0000000000 6.3750000000 2.3500000000 0.0000000000 7.0000000000 2.2000000000 0.0000000000 7.0000000000 2.2000000000 0.0000000000 7.5000000000 2.3500000000 0.0000000000 7.5000000000 2.3500000000 0.0000000000 8.0000000000 2.5000000000 0.0000000000 7.5000000000 2.0000000000 0.0000000000 7.7500000000 2.2500000000 0.0000000000 7.7500000000 2.2500000000 0.0000000000 8.0000000000 2.5000000000 0.0000000000 8.0000000000 2.5000000000 0.0000000000 8.1666666667 1.9000000000 0.0000000000 8.1666666667 1.9000000000 0.0000000000 8.3333333333 1.3000000000 0.0000000000 8.3333333333 1.3000000000 0.0000000000 8.5000000000 0.7000000000 0.0000000000 8.0000000000 2.5000000000 0.0000000000 8.5000000000 2.6000000000 0.0000000000 8.5000000000 2.6000000000 0.0000000000 9.0000000000 2.7000000000 0.0000000000 9.0000000000 2.7000000000 0.0000000000 9.4666666667 2.5666666667 0.0000000000 9.4666666667 2.5666666667 0.0000000000 9.9333333333 2.4333333333 0.0000000000 9.9333333333 2.4333333333 0.0000000000 10.4000000000 2.3000000000 0.0000000000 10.4000000000 2.3000000000 0.0000000000 10.7833333333 1.9000000000 0.0000000000 10.7833333333 1.9000000000 0.0000000000 11.1666666667 1.5000000000 0.0000000000 11.1666666667 1.5000000000 0.0000000000 11.5500000000 1.1000000000 0.0000000000 8.0000000000 2.5000000000 0.0000000000 8.4375000000 2.8750000000 0.0000000000 8.4375000000 2.8750000000 0.0000000000 8.8750000000 3.2500000000 0.0000000000 8.8750000000 3.2500000000 0.0000000000 9.3125000000 3.6250000000 0.0000000000 9.3125000000 3.6250000000 0.0000000000 9.7500000000 4.0000000000 0.0000000000 9.7500000000 4.0000000000 0.0000000000 9.2500000000 3.9000000000 0.0000000000 9.2500000000 3.9000000000 0.0000000000 8.7500000000 3.8000000000 0.0000000000 8.7500000000 3.8000000000 0.0000000000 8.2500000000 3.7000000000 0.0000000000 7.5000000000 3.7000000000 0.0000000000 7.7500000000 3.1000000000 0.0000000000 7.7500000000 3.1000000000 0.0000000000 8.0000000000 2.5000000000 0.0000000000 6.7500000000 4.0000000000 0.0000000000 7.2500000000 4.3333333333 0.0000000000 7.2500000000 4.3333333333 0.0000000000 7.7500000000 4.6666666667 0.0000000000 7.7500000000 4.6666666667 0.0000000000 8.2500000000 5.0000000000 0.0000000000 7.5000000000 4.8000000000 0.0000000000 7.8750000000 4.9000000000 0.0000000000 7.8750000000 4.9000000000 0.0000000000 8.2500000000 5.0000000000 0.0000000000 8.2500000000 5.0000000000 0.0000000000 8.7500000000 5.1666666667 0.0000000000 8.7500000000 5.1666666667 0.0000000000 9.2500000000 5.3333333333 0.0000000000 9.2500000000 5.3333333333 0.0000000000 9.7500000000 5.5000000000 0.0000000000 8.2500000000 5.0000000000 0.0000000000 8.6250000000 5.2500000000 0.0000000000 8.6250000000 5.2500000000 0.0000000000 9.0000000000 5.5000000000 0.0000000000 7.7500000000 5.5000000000 0.0000000000 8.0000000000 5.2500000000 0.0000000000 8.0000000000 5.2500000000 0.0000000000 8.2500000000 5.0000000000 0.0000000000 9.7500000000 4.0000000000 0.0000000000 9.2500000000 4.3333333333 0.0000000000 9.2500000000 4.3333333333 0.0000000000 8.7500000000 4.6666666667 0.0000000000 8.7500000000 4.6666666667 0.0000000000 8.2500000000 5.0000000000 0.0000000000 9.7500000000 4.0000000000 0.0000000000 10.2500000000 4.1000000000 0.0000000000 10.2500000000 4.1000000000 0.0000000000 10.7500000000 4.2000000000 0.0000000000 10.7500000000 4.2000000000 0.0000000000 11.2500000000 4.3000000000 0.0000000000 11.2500000000 4.3000000000 0.0000000000 10.8750000000 4.5500000000 0.0000000000 10.8750000000 4.5500000000 0.0000000000 10.5000000000 4.8000000000 0.0000000000 11.2500000000 4.3000000000 0.0000000000 11.7500000000 4.4000000000 0.0000000000 11.7500000000 4.4000000000 0.0000000000 12.2500000000 4.5000000000 0.0000000000 12.2500000000 4.5000000000 0.0000000000 12.7500000000 4.6000000000 0.0000000000 11.2500000000 4.3000000000 0.0000000000 11.4125000000 4.9750000000 0.0000000000 11.4125000000 4.9750000000 0.0000000000 11.5750000000 5.6500000000 0.0000000000 11.5750000000 5.6500000000 0.0000000000 11.7375000000 6.3250000000 0.0000000000 11.7375000000 6.3250000000 0.0000000000 11.9000000000 7.0000000000 0.0000000000 10.4000000000 2.3000000000 0.0000000000 10.6125000000 2.8000000000 0.0000000000 10.6125000000 2.8000000000 0.0000000000 10.8250000000 3.3000000000 0.0000000000 10.8250000000 3.3000000000 0.0000000000 11.0375000000 3.8000000000 0.0000000000 11.0375000000 3.8000000000 0.0000000000 11.2500000000 4.3000000000 0.0000000000 12.0000000000 3.7000000000 0.0000000000 11.6250000000 4.0000000000 0.0000000000 11.6250000000 4.0000000000 0.0000000000 11.2500000000 4.3000000000 0.0000000000 4.0000000000 5.7000000000 0.0000000000 4.4166666667 5.4666666667 0.0000000000 4.4166666667 5.4666666667 0.0000000000 4.8333333333 5.2333333333 0.0000000000 4.8333333333 5.2333333333 0.0000000000 5.2500000000 5.0000000000 0.0000000000 5.2500000000 5.0000000000 0.0000000000 5.7500000000 4.6666666667 0.0000000000 5.7500000000 4.6666666667 0.0000000000 6.2500000000 4.3333333333 0.0000000000 6.2500000000 4.3333333333 0.0000000000 6.7500000000 4.0000000000 0.0000000000 5.2500000000 5.0000000000 0.0000000000 4.7500000000 4.7000000000 0.0000000000 3.5000000000 5.0000000000 0.0000000000 3.7500000000 5.3500000000 0.0000000000 3.7500000000 5.3500000000 0.0000000000 4.0000000000 5.7000000000 0.0000000000 5.0000000000 6.3000000000 0.0000000000 5.5000000000 6.3500000000 0.0000000000 5.5000000000 6.3500000000 0.0000000000 6.000000
[...]
<PointData Scalars="A_conc,B_conc,region_id," Vectors="" Tensors="">
<DataArray type="Float64" Name="A_conc" format="ascii">
0.4199686221 0.8409432837 0.7721161680 0.8806703723 0.8649451416 0.8972594527 0.8940804216 0.9112320493 0.6005975541 0.4931337848 0.4517399255 0.5291217536 0.5333384242 0.6246538831 0.9173412985 0.9160748623 0.9160863283 0.9147790725 0.9147905280 0.9134460726 0.9134741585 0.9119634956 0.9120834767 0.9097073493 0.9099619326 0.9062828241 0.9066165299 0.9009555871 0.9014340603 0.8943681986 0.9108394908 0.7958052617 0.9023151352 0.9058569591 0.9058671332 0.9136379040 0.9134429124 0.9157579296 0.9179272978 0.8920668601 0.9222698056 0.7777961294 0.8617088204 0.8740881114 0.8754638774 0.8906322234 0.9563600855 0.9599353214 0.9597982854 0.9624124392 0.9566817835 0.9505986101 0.9511175928 0.9395405244 0.8917344081 0.9234548840 0.9176195072 0.9253589185 0.8992933183 0.7746581883 0.8545632631 0.8506987788 0.8501679092 0.8464228014 0.8470220171 0.8404889449 0.8811037338 0.8936984029 0.8976755681 0.9282108274 0.8761573970 0.9035205018 0.8985863475 0.9053037721 0.9048133787 0.9092592708 0.9090764183 0.9126750754 0.9125821561 0.9157638061 0.2958225806 0.4523231159 0.3751189523 0.6134890930 0.6347455200 0.9520805577 0.7000568623 0.6994582140 0.6981118757 0.7193195999 0.9614519213 0.7660006449 0.9437493366 0.9449655246 0.9448463824 0.9455261488 0.9459519806 0.9393030161 0.9409902857 0.9230242855 0.9272808643 0.8873583408 0.8589982064 0.8629071897 0.8631112305 0.8678885159 0.8712931911 0.9185983050 0.9557059174 0.9568046779 0.9567751603 0.9577915986 0.9577707176 0.9586076547 0.9586066518 0.9592749139 0.9592738814 0.9599276550 0.8946195032 0.9625932385 0.9483329963 0.9608245282 0.7168375961 0.7532940087 0.7803564950 0.8415575154 0.8420855744 0.8602197258 0.9624942846 0.9648998121 0.9647646722 0.9659483009 0.9659015693 0.9668356339 0.9668286520 0.9676266225 0.9676229227 0.9683781057 0.9595003631 0.9625012588 0.9625625117 0.9655047274 0.9658320833 0.9681377122 0.9634773857 0.9668819087 0.9668185659 0.9704747833 0.9704290479 0.9742605501 0.9742285484 0.9779413532 0.9780861054 0.9721519670 0.9727635605 0.9637999641 0.9713933016 0.9313495759 0.8785316869 0.9587824392 0.9417742029 0.9636561448 0.9623903222 0.9656816035 0.9654926462 0.9676410748 0.9674797801 0.9689279303 0.9359573933 0.9675527510 0.9617809449 0.9694019734 0.9248797033 0.9295988830 0.9296724682 0.9335706851 0.9337488357 0.9348646889 0.9862107009 0.8816722536 0.9189295573 0.4480175037 0.9357744171 0.9677527951 0.9619035618 0.9694345323 0.9779015430 0.9770373113 0.9770492383 0.9760765730 0.9761076488 0.9747926975 0.9778870624 0.9784630765 0.9784501821 0.9788694750 0.9788702025 0.9792844826 0.9796568421 0.9736675027 0.9775045036 0.9549978704 0.9816596537 0.9822065660 0.9821935401 0.9825877552 0.9825832785 0.9829249459 0.9584462885 0.9610791021 0.9611859238 0.9631986202 0.9632918861 0.9652285191 0.9653198276 0.9655622450 0.9713080700 0.9732626770 0.9732880367 0.9753358988 0.9753375054 0.9773725162 0.9774011042 0.9792375375 0.9706416625 0.9687838210 0.9686599730 0.9654763702 0.9416929173 0.9452503459 0.9449199490 0.9467959730 0.9467860222 0.9476825454 0.9576394885 0.9601012028 0.9600108559 0.9614098563 0.9613664441 0.9623964155 0.8209894197 0.8318430893 0.6663120618 0.7038051853 0.7275327596 0.6915172564 0.8907151313 0.9007415015 0.9005016677 0.9072817626 0.9069029595 0.9112295542 0.9110598981 0.9144098315 0.9295242037 0.9369315000 0.9362532527 0.9465579230 0.9461441538 0.9520324940 0.9508562580 0.9529800839 0.9252956518 0.9285625977 0.9252433131 0.9240454839 0.8329843156 0.8432483101 0.8432011013 0.8499411484 0.8501349903 0.8796489843 0.8798643106 0.9159805110 0.8208737002 0.8421254407 0.9188514482 0.9002814205 0.9204231915 0.8222663083 0.8827530729 0.8840334236 0.8840198651 0.8852835679 0.8852678819 0.8864017106 0.8863839742 0.8873852981 0.4552704315 0.8767455367 0.4641552549 0.4619157666 0.8745834024 0.8230140585 0.9011285551 0.8747318471 0.8935701120 0.8914425061 0.8635973711 0.8685635110 0.8862971361 0.8928069569 0.8678566052 0.8801511061 0.8774247378 0.7786974517 0.8014383846 0.8809741397 0.7787766156 0.8950081559 0.8761234657 0.9013299743 0.9067784168 0.8919346951 0.9009874386 0.8954725475 0.8669033701 0.8760698626 0.8952329580 0.8910591569 0.8686303302 0.8777705009 0.8756063322 0.8115986198 0.8662316249 0.8663077407 0.8922116644 0.8918188807 0.8894428310 0.8663748345 0.9018821749 0.8875975226 0.8942002747 0.9007246314 0.9062995960 0.9100388754 0.8941791490 0.9065494865 0.9017363625 0.8646477661 0.8907728962 0.8973997174 0.8645662090 0.8632448545 0.8911680487 0.8941616350 0.9041691638 0.9112820337 0.8942051667 0.8874401261 0.9043039081 0.8884697547 0.9028442292 0.8934331579 0.8873016244 0.8896228075 0.9044987683 0.8850273452 0.8643357293 0.8911257908 0.8935380977 0.8818847250 0.8885128502 0.8853416459 0.8601523760 0.8642965467 0.8644638543 0.8837131630 0.8839697447 0.8818461963 0.8936712619 0.8808296051 0.4205784433 0.4927853489 0.6017114529 -0.0362910052 -0.0592647006 0.2446592307 0.4211968052 0.9543126657 0.7513703350 0.8977287331 0.9115424609 0.9185291953 0.2466640660 0.4024009229 -0.0408964339 0.4077926606 -0.0097943003 -0.0435519207 0.6218827595 0.4138627791 0.2387948643 0.2385607634 0.3231161872 0.2953972826 0.4299098200 0.2697656543 0.9495170134 0.8669707265 0.8946452692 0.9081975282 0.1602753335 0.4923877959 0.3530933747 0.8589558567 0.8367715150 0.8750643106 0.9131062611 0.8817043453 0.9064652140 0.8431710525 0.8955900751 0.8672156957 0.8816720762 0.8695271168 0.9071074211 0.8501785959 0.8828322981 0.9022865176 0.3989373690 1.0094435615 0.9392515199 0.4314229813 1.0166335374 0.3986236281 0.8521786502 0.8343034912 0.8002588093 0.8769558436 0.8346373921 0.8497723690 0.8977748117 0.8851049709 0.9119477428 0.8994174760 0.9397291547 0.7157034594 1.0201718648 0.4269470979 0.6010439657 0.9047740747 0.9172415830 0.8288482029 0.8436152522 0.9062521172 0.8281192467 0.8420148367 0.8677906301 0.8967926588 0.8667712843 0.9078817731 0.6471538739 0.1105184158 0.4954382173 0.1602199551 0.7154275193 0.8418540876 0.9009014546 0.2960558171 0.3213768930 0.3373309376 0.4213335123 0.3224537371 0.3271533399 0.6679336979 0.4528794424 0.9198177682 0.3748104156 0.4944647938 0.1087231107 0.4521659165 0.6267708141 0.9212081300 0.6393835261 0.4906898913 0.8870220163 0.0651307027 0.3774952110 0.1104334372 0.0226482054 0.6128883697 0.4032873261 0.7621242747 0.7705976921 0.6555492577 0.7672520275 0.4168555031 0.6169336528 0.4898743111 0.7643718483 0.8870986351 0.4724370076 -0.0142867755 0.4085972542 0.4923520306 0.4164152447 0.7682451635 0.4742293156 0.6122713161 0.0225129135 -0.0146170231 0.4765394699 0.0262726392 0.8691553332 0.8057681837 0.8138934844 0.8068857326 0.8670203103 0.8443756892 0.7982534504 0.8106337799 0.8547278436 0.8169593960 0.7738619887 0.7983291741 0.8068377374 0.7330037220 0.8146212856 0.7715407035 0.7446117026 0.8019090518 0.3244815121 0.4705926750 0.4224503192 0.4461349491 0.3461762095 0.5322767190 0.8462053624 0.8524007085 0.9342372875 0.8515118694 0.6912613514 0.8625644693 0.0660389445 0.0078195543 0.2441674859 0.4055756046 0.8640051910 0.4447312875 0.8952894290 0.8441083679 0.4173186666 0.6364005831 0.8728577421 0.8569352920 0.6122408573 0.6291979181 0.8763528964 0.6152393315 0.3881701869 0.6333578487 0.3880785232 0.4353193419 0.0773777208 0.2676758006 0.4904361889 0.0600153977 0.2139541981 0.3878025839 0.6101425354 0.9059152831 0.9238244603 0.9226581755 0.9223385352 0.9234102159 0.9363699904 0.9359410478 0.9236085303 0.9359116459 0.9753494533 0.9749780908 0.9792548389 0.9732902699 0.9653610002 0.9753452299 0.9680660042 0.9673091437 0.9750022852 0.9753475402 0.9681439747 0.9749742545 0.9499208376 0.9616496686 0.9495275005 0.9754295740 0.9669286182 0.9770880657 0.9669909892 0.9672833993 0.9754291647 0.9670075225 0.9564796918 0.9672988971 0.9677554110 0.9572193733 0.9575080464 0.9677171110 0.9679059828 0.9572521543 0.9572741332 0.9460485557 0.9575653791 0.9466304368 0.9449555302 0.9571428411 0.9568339076 0.9665145675 0.9577750248 0.9578294361 0.9470389883 0.9568701156 0.9467824503 0.9344147649 0.9450560043 0.9357189633 0.9469334701 0.9357746730 0.9535499717 0.9455384393 0.9465135458 0.9466298109 0.9456210783 0.9355165942 0.9700819440 0.9615135338 0.9500084491 0.9506027104 0.9734504786 0.9701285783 0.9653496640 0.9733525876 0.9581068356 0.9139644278 0.5295833070 0.7314073009 0.8634473190 0.9225907088 0.8670749106 0.6755308907 0.9426532952 0.9888153742 0.5369450344 0.9070919384 0.6995464192 0.7567917258 0.8706242710 0.7379861145 0.8765938777 0.8613213836 0.7601893420 0.8864337050 0.7727116299 0.8522416440 0.7612748521 0.7415188874 0.6084614201 0.7320422400 0.7726367552 0.6015076905 0.7729150375 0.8460916411 0.8527403675 0.8531908945 0.7713441700 0.7257919879 0.8488737243 0.7405076393 0.8408846273 0.7372195415 0.6007640126 0.5481931926 0.6860838176 0.9825119234 0.8916733683 0.5562377304 0.5759658843 0.7395849888 0.7355745978 0.7400262460 0.5575822787 0.7183973622 0.8467804427 0.7385914462 0.8807702669 0.8359234387 0.8857483524 0.9063160659 0.8142290773 0.9026681886 0.8884966455 0.9029390549 0.9018088687 0.9044376022 0.9068881442 0.9160351943 0.8997949708 0.9071813918 0.9097484499 0.7537469420 0.7593744161 0.8955963356 0.9175780646 0.9081258292 0.8887328033 0.9267269010 0.8046515365 0.9079027940 0.9234002447 0.9290346731 0.8149333335 0.8791826342 0.7008024971 0.9096563232 0.8844430693 0.7644048154 0.6974656510 0.9523828134 0.9180873533 0.9546798910 0.9083949309 0.7351006489 0.8528882693 0.8521350681 0.8947126097 0.8560490160 0.8925181177 0.8569012830 0.8824295064 0.8946611427 0.8985694092 0.9054521798 0.8181180758 0.8465820829 0.8374119268 0.8397607243 0.8212878729 0.8141898991 0.8843181094 0.8400083222 0.8208428202 0.8884822799 0.8793774251 0.9034213356 0.8806775304 0.9084682316 0.9072824563 0.8817836011 0.8835592664 0.8212886902 0.8272021623 0.8804264824 0.8238135528 0.8807672846 0.7954912332 0.9066968092 0.8847973436 0.8849157442 0.8391107929 0.8856491713 0.8370754797 0.8389150661 0.8836899427 0.8721220756 0.8918711527 0.8565831208 0.8782207348 0.8877817908 0.9089537458 0.8802578486 0.8932684173 0.8793638738 0.8535272905 0.8921740588 0.8927059117 0.8534123259 0.8516465369 0.8996026585 0.8809988863 0.9016634746 0.8997977036 0.8834120181 0.8809309067 0.8961428061 0.8562105851 0.8939793712 0.6916334639 0.9397214829 0.9597039281 0.3693617374 0.6260038937 0.5227644064 0.3822775358 0.3294767282 0.4051079315 0.8905535645 0.9529126163 0.9398029414 0.8801224576 0.8991752085 0.8120106491 0.9002108979 0.8879200109 0.9451980742 0.8899201675 0.9041297291 0.8363066684 0.8173519561 0.9242583720 0.9297939819 0.8967691254 0.8987817950 0.9123894576 0.3350044841 0.2781757026 0.2651738223 0.8842225055 0.8151456767 0.9319382306 0.7952566279 0.8139431626 0.9327189685 0.3123201658 0.1821089888 0.2290928004 0.9312390853 0.8950226697 0.8778517943 0.9413839449 0.9322706061 0.8834700906 0.9746657574 0.9438088656 0.4530068548 0.4247094858 0.9630667322 0.2079862672 0.8502002406 0.9314423868 0.8968895363 0.9258338745 0.8492935166 0.9202129639 0.9264841454 0.9530229947 0.8889639392 0.6164749435 0.6882328311 0.9732619730 0.7239870223 0.0251737385 0.0609563967 0.0309871064 0.7564976700 0.9696006373 0.8947105706 0.7199680481 0.9533159589 0.9876153298 0.4312548953 0.6630180214 0.4835350199 0.3782306905 0.6124808694 0.3545828223 0.4100890321 0.3173598406 0.4101657134 0.3138348325 0.3169432274 0.9532311697 0.9466949778 0.9254120567 0.9158890658 0.9560367153 0.9207499914 0.2572955381 0.3110415622 0.2296685224 0.5821485414 0.8822764119 0.9508695802 0.2052147366 0.9665409838 0.4322309381 0.3365162864 0.3316375117 0.2762177699 0.3297117900 0.3369880613 0.4535563035 0.3716765659 0.5221873113 0.2626087912 0.8804647030 0.9008725630 0.9006360738 0.5361041693 0.6769047355 0.7089931092 0.6743250520 0.9082346097 0.7092015204 0.6805464295 0.9014798778 0.8973018432 0.7264853797 0.8189674503 0.5760312413 0.8101113740 0.7246831722 0.9212107834 0.8348281742 0.8000107952 0.8979678962 0.8840421850 0.6749792327 0.8837333212 0.6676460031 0.8957984261 0.6920078830 0.6942735247 0.8062224693 0.8737662459 0.8014148341 0.8401162205 0.7213845788 0.5977581704 0.8164368595 0.7585867285 0.9059609461 0.8409280062 0.9150750161 0.9541133350 0.7378791506 0.5808882744 0.0594162200 0.4139566967 0.7206990439 0.6856336570 0.4700890175 0.7384034514 0.4702340270 0.6868251298 0.6252136604 0.3687737940 0.4719188992 0.6268383316 0.5983856862 0.7654211925 0.4480204813 0.9072976539 0.8449483787 0.8405307939 0.9011094955 0.8834021526 0.8546188373 0.8810226446 0.8835524294 0.8720253964 0.8629908751 0.7985225508 0.8428233260 0.6551992407 0.9178944987 0.7926374232 0.9084574649 0.9668310871 0.9559700099 0.9086661949 0.9637063204 0.9666393932 0.9476363491 0.9575598995 0.9605825358 0.9612642609 0.9366621916 0.9479465258 0.7193343488 0.6661716541 0.7731570092 0.9015849481 0.4809453600 0.8019556703 0.9623672811 0.8904242697 0.9594151610 0.6675854943 0.6868866734 0.7718501204 0.7372000799 0.5653790812 0.6512778364 0.7385927732 0.6825066502 0.5633641891 0.8983420366 0.5337418427 0.4881705509 0.6858558581 0.5068236402 0.5636129254 0.9206044761 0.9176799695 0.9527078864 0.9619009730 0.8957545450 0.8916113979 0.8264094567 0.5360011638 0.8894221092 0.9579557697 0.8965219646 0.9599586714 0.6440033010 0.9142045612 0.9880120391 0.5824143069 0.9076608891 0.6470177963 0.7726164677 0.8577433561 0.6788058368 0.6718569977 0.9770792297 0.9340413657 0.6688432710 0.6495567972 0.9853351404 0.7972892039 0.7883788413 0.8457895027 0.6737450707 0.8048260892 0.6452149854 0.8011867379 0.6739483490 0.8616843084 0.7401140819 0.7892526961 0.7988655174 0.7700332158 0.6867546787 0.7972955635 0.8033415536 0.5741295737 0.5686475507 0.6054970883 0.5767333621 0.7982711596 0.9170137338 0.8977171776 0.9570368656 0.8574606323 0.9109733922 0.5754071680 0.8311800474 0.9213872180 0.8925540913 0.9111859952 0.9605818747 0.8895537375 0.9101743726 0.9386022719 0.9614222115 0.9212441865 0.8317028970 0.9108835562 0.9395977372 0.9098894922 0.9008371603 0.9758897009 0.9752137165 0.9710112258 0.9829205618 0.9829205616 0.9773728445 0.9744107449 0.9752706303 0.9711101482 0.9829207204 0.9829207217 0.9789142830 0.9211732300 0.8767831012 0.9125899069 0.9606534038 0.9682270000 0.9569145261 0.9410460229 0.9573761904 0.9401321378 0.9622883720 0.9662478984 0.9723690382 0.9567123343 0.9710581280 0.9609682010 0.9710036748 0.9752137180 0.9685064636 0.9710044543 0.9685002179 0.9609933390 0.8954265489 0.8759908540 0.9201403008 0.9404575804 0.9568729210 0.9488268807 0.9488261338 0.9567262155 0.9610230596 0.9731785923 0.9680747982 0.9724031206 0.9251645038 0.9419726837 0.9488739820 0.9731842210 0.9724098495 0.9774502091 0.9150090430 0.9662459918 0.9634457028 0.9178597584 0.9429482939 0.9249063032 0.9577832848 0.9272723382 0.9032897924 0.9176715973 0.9230358736 0.8955228553 0.9611731597 0.9678193298 0.9629398466 0.9659439157 0.9678013832 0.9616401116 0.9182798209 0.8681796770 0.8542370301 0.9001386534 0.9154877224 0.8561267810 0.9772817308 0.9775100962 0.9728206513 0.9783545661 0.9829206089 0.9829206091 0.9774169983 0.9829203358 0.9782967854 0.9784953095 0.9829202287 0.9774811476 0.9740335110 0.9784887188 0.9774733457 0.9740271007 0.9774707761 0.9723708544 0.9723641681 0.9662589222 0.9740239444 0.9758934693 0.9779194036 0.9752184432 0.9779352296 0.9829205657 0.9829205654 0.9829215395 0.9779262060 0.9759013115 0.9735193917 0.9774089916 0.9782898543 0.9783682141 0.9730812586 0.9728397767 0.9724735772 0.9678042906 0.9659507644 0.9755191901 0.9778315868 0.9712152721 0.9772825817 0.9728127543 0.9699001422 0.9669109009 0.9698910393 0.9728083622 0.9829205557 0.9829205557 0.9775780713 0.9829207935 0.9775178436 0.9772897537 0.9254304550 0.9482893161 0.9454814504 0.9353123573 0.9652288132 0.9171645128 0.9735059211 0.9653284745 0.9645559240 0.9647361851 0.9562774383 0.9339578511 0.9061304777 0.9144091928 0.9364019351 0.9350861811 0.9559587444 0.9050220973 0.9355321201 0.9144766241 0.9639898009 0.9685393126 0.9730751752 0.9657036265 0.9679826250 0.9678228744 0.9730379336 0.9728325840 0.9730743846 0.9685461804 0.9683815807 0.9655361004 0.9622508929 0.9678171944 0.9679772494 0.9630707223 0.9351930448 0.9611255083 0.9641628497 0.9609974748 0.9454978410 0.9470154242 0.9569403782 0.9456959056 0.9607442997 0.9603994335 0.9580060439 0.9398736954 0.9319500349 0.9189498544 0.9103110370 0.9426849842 0.9190885316 0.9311091630 0.9234680844 0.9420651883 0.9292502304 0.9305158327 0.9119395279 0.9236725473 0.9294597756 0.9412203829 0.9402267581 0.9829201041 0.9789430230 0.9774308708 0.9774234857 0.9789371497 0.9752791692 0.9744156835 0.9774201073 0.9752746135 0.9774745357 0.9795234208 0.9729992374 0.9685024196 0.9744498945 0.9708258848 0.9701393192 0.9685081965 0.9427825889 0.9388212964 0.9219859862 0.9150006349 0.9652666217 0.9692836123 0.9607874509 0.9687903487 0.9650337269 0.9405466936 0.9534796803 0.9454475004 0.9420274349 0.9635299836 0.9694391253 0.9638897081 0.7746501626 0.9233572003 0.9020704119 0.9098844359 0.9369473821 0.9316721444 0.9096897163 0.9332616202 0.8940474213 0.9342466976 0.9069457176 0.9156938424 0.9335290530 0.9158303337 0.9237225737 0.9091046589 0.8538002953 0.9191959572 0.8969941211 0.8870182829 0.9332835209 0.9829213662 0.9829213662 0.9747631343 0.9747500130 0.9829238267 0.9751231832 0.9623584992 0.9718606140 0.9641734585 0.9487289206 0.9455555175 0.9540850616 0.9539374435 0.9454895057 0.9533566486 0.9669590475 0.9705801000 0.9644461718 0.9341232841 0.9705275044 0.9426433575 0.9774076474 0.9722606135 0.9703000617 0.9539099786 0.9533199691 0.9620351195 0.9619876419 0.9642090609 0.9539518297 0.9564023111 0.9492235135 0.9539893098 0.9641753502 0.9547041516 0.9546818686 0.9829200501 0.9778383848 0.9787450703 0.9829205633 0.9779024210 0.9829205636 0.9712832588 0.9655221188 0.9527968405 0.9641762804 0.9718563985 0.9758273681 0.9777907744 0.9772521162 0.9736468310 0.9558628938 0.9750942572 0.9701837807 0.9429757943 0.9394318285 0.9564748612 0.9778038109 0.9741685347 0.9718859274 0.9829233694 0.9741929600 0.9778068792 0.9722695151 0.9774069240 0.9778793525 0.9665541318 0.9413965218 0.9660898984 0.9558188607 0.9634785685 0.9650931304 0.9511266770 0.9445874543 0.9564013852 0.9566462377 0.9391884365 0.9322097481 0.9561384924 0.9531233776 0.9483671213 0.9829205820 0.9829205820 0.9781395047 0.9829205333 0.9778865316 0.9774148448 0.9612110542 0.9632444812 0.9518993389 0.9509473995 0.9516177105 0.9557189868 0.9417588886 0.9483688940 0.9669285049 0.9477353778 0.9590288356 0.9401267881 0.9436836364 0.9409191870 0.9427900612 0.9470303556 0.9526454942 0.9508421373 0.9470271485 0.9509044737 0.9422406096 0.9540225914 0.9491884224 0.9487193680 0.9758113544 0.9534070263 0.9555450243 0.9456349179 0.9523239130 0.9542147765 0.9705898553 0.9736398917 0.9772520250 0.9669674255 0.9736364694 0.9705811445 0.9418710520 0.9667968982 0.9662517333 0.9635292456 0.9638912299 0.9599158489 0.9361310286 0.9377827214 0.9509147507 0.9262862569 0.9329044641 0.9330902168 0.9635416985 0.9557897525 0.9528515676 0.9634156802 0.9541836627 0.9523163064 0.9622254116 0.9669559415 0.9644393211 0.9585479381 0.9691000436 0.9641706386 0.9552277771 0.9401872931 0.9589620748 0.9513077927 0.9444803370 0.9509216049 0.9557536302 0.9585223825 0.9641890672 0.9630385278 0.9588306618 0.9633157488 0.9577398032 0.9599556559 0.9560195024 0.9644393516 0.9594132290 0.9622201048 0.9577449257 0.9630208446 0.9599592007 0.9262687006 0.9331744177 0.9237337773 0.9579095263 0.9591832102 0.9413467279 0.9319876453 0.9579232101 0.9386917440 0.9570641944 0.9428475925 0.9572687795 0.9423331982 0.9576241530 0.9322132165 0.9729167433 0.9756735113 0.9609779267 0.9609467178 0.9757180302 0.9555919587 0.9558079287 0.9614196729 0.9318899501 0.9777770501 0.9708347825 0.9744535184 0.9743292848 0.9787387795 0.9778309620 0.9221716678 0.9380663469 0.9362865303 0.9130938879 0.9295825596 0.9177699654 0.9543421596 0.9363487331 0.9506164859 0.9336095246 0.9330616572 0.9542465078 0.9566912351 0.95