<?xml version="1.0"?>
<VTKFile type="UnstructuredGrid" version="0.1" byte_order="LittleEndian">
<UnstructuredGrid>
<Piece NumberOfPoints="2028" NumberOfCells="724">
<Points>
<DataArray type="Float64" NumberOfComponents="3" format="ascii">
0 0.69999999999999996 0 0 1.6319639930219929 0 0.59999999999999998 0.69999999999999996 0 0.59999999999999998 0.69999999999999996 0 0 1.6319639930219929 0 0.94999999999923723 1.2749999999987469 0 0.59999999999999998 0.69999999999999996 0 0.94999999999923723 1.2749999999987469 0 0 1.6319639930219929 0 0.68142292217753131 2.106313194182027 0 0.94999999999923723 1.2749999999987469 0 0 2.430303940964651 0 0.68142292217753131 2.106313194182027 0 0 1.6319639930219929 0 0.94999999999923723 1.2749999999987469 0 1.299999999998378 1.8499999999973351 0 0.68142292217753131 2.106313194182027 0 1.299999999998378 1.8499999999973351 0 0.94999999999923723 1.2749999999987469 0 1.299999999998378 1.8499999999973351 0 0.68142292217753131 2.106313194182027 0 1.186467289461244 2.488259157846338 0 1.299999999998378 1.8499999999973351 0 1.649999999999066 2.4249999999984651 0 1.299999999998378 1.8499999999973351 0 1.186467289461244 2.488259157846338 0 1.649999999999066 2.4249999999984651 0 1.299999999998378 1.8499999999973351 0 1.626949751997165 1.3978044304614949 0 0.94999999999923723 1.2749999999987469 0 0.94999999999923723 1.2749999999987469 0 1.626949751997165 1.3978044304614949 0 1.243750000001385 0.69999999999999996 0 1.626949751997165 1.3978044304614949 0 1.887500000003292 0.69999999999999996 0 1.243750000001385 0.69999999999999996 0 1.243750000001385 0.69999999999999996 0 0.59999999999999998 0.69999999999999996 0 0.94999999999923723 1.2749999999987469 0 0.45714634023723411 3.4614941897304652 0 0.56249999999824107 3.9749999999991399 0 1.013301616169622 3.6128741719811099 0 0 3.7000000000000002 0 0.56249999999824107 3.9749999999991399 0 0.45714634023723411 3.4614941897304652 0 0 3.7000000000000002 0 0.56249999999824107 3.9749999999991399 0 0.45714634023723411 3.4614941897304652 0 0.70993008501830757 2.9054181396964478 0 0 3.1141786369756268 0 0 3.7000000000000002 0 0.45714634023723411 3.4614941897304652 0 0 3.1141786369756268 0 0.70993008501830757 2.9054181396964478 0 0.45714634023723411 3.4614941897304652 0 1.013301616169622 3.6128741719811099 0 0.68142292217753131 2.106313194182027 0 0 2.430303940964651 0 0.70993008501830757 2.9054181396964478 0 0 3.1141786369756268 0 0.70993008501830757 2.9054181396964478 0 0 2.430303940964651 0 0.70993008501830757 2.9054181396964478 0 1.186467289461244 2.488259157846338 0 0.68142292217753131 2.106313194182027 0 1.649999999999066 2.4249999999984651 0 1.186467289461244 2.488259157846338 0 1.451787781083937 3.11022608666643 0 1.186467289461244 2.488259157846338 0 0.70993008501830757 2.9054181396964478 0 1.451787781083937 3.11022608666643 0 1.013301616169622 3.6128741719811099 0 1.451787781083937 3.11022608666643 0 0.70993008501830757 2.9054181396964478 0 1.451787781083937 3.11022608666643 0 1.013301616169622 3.6128741719811099 0 1.593428957229921 3.8897035774451321 0 2.4236693135559251 3.5256579194055688 0 2.1666666666662731 4.1999999999971616 0 2.08333333333292 3.599999999997022 0 1.593428957229921 3.8897035774451321 0 2.08333333333292 3.599999999997022 0 1.451787781083937 3.11022608666643 0 1.451787781083937 3.11022608666643 0 2.08333333333292 3.599999999997022 0 2 3 0 2.4236693135559251 3.5256579194055688 0 2 3 0 2.6000000000000818 2.8399999999999781 0 2 3 0 2.08333333333292 3.599999999997022 0 2.08333333333292 3.599999999997022 0 2 3 0 2.4236693135559251 3.5256579194055688 0 2.6000000000000818 2.8399999999999781 0 2.2687831884271348 2.397628317379688 0 2 3 0 2.6000000000000818 2.8399999999999781 0 2 3 0 1.649999999999066 2.4249999999984651 0 2 3 0 1.649999999999066 2.4249999999984651 0 1.451787781083937 3.11022608666643 0 2 3 0 2.2687831884271348 2.397628317379688 0 1.649999999999066 2.4249999999984651 0 2 3 0 2.2687831884271348 2.397628317379688 0 2.6000000000000818 2.8399999999999781 0 2.8857059848027808 2.304389417342541 0 2.8857059848027808 2.304389417342541 0 2.6000000000000818 2.8399999999999781 0 3.2000000000001432 2.679999999999962 0 3.2848100522576571 3.06994577157805 0 2.6000000000000818 2.8399999999999781 0 3.2000000000001432 2.679999999999962 0 3.2000000000001432 2.679999999999962 0 2.6000000000000818 2.8399999999999781 0 2.6000000000000818 2.8399999999999781 0 2.9420158813362729 3.5139475164392531 0 2.4236693135559251 3.5256579194055688 0 2.6000000000000818 2.8399999999999781 0 3.2848100522576571 3.06994577157805 0 2.9420158813362729 3.5139475164392531 0 2.9420158813362729 3.5139475164392531 0 3.412636880282601 3.6134558579332841 0 3.1249999999889848 4 0 3.1249999999889848 4 0 2.75 4 0 2.9420158813362729 3.5139475164392531 0 2.4236693135559251 3.5256579194055688 0 2.9420158813362729 3.5139475164392531 0 2.75 4 0 1.887500000003292 0.69999999999999996 0 2.23284951060374 1.369095413116082 0 2.5312500000049418 0.69999999999999996 0 2.23284951060374 1.369095413116082 0 1.887500000003292 0.69999999999999996 0 1.626949751997165 1.3978044304614949 0 1.942890303101708 1.90249985684108 0 1.626949751997165 1.3978044304614949 0 1.299999999998378 1.8499999999973351 0 2.23284951060374 1.369095413116082 0 1.626949751997165 1.3978044304614949 0 1.942890303101708 1.90249985684108 0 1.942890303101708 1.90249985684108 0 1.649999999999066 2.4249999999984651 0 2.2687831884271348 2.397628317379688 0 1.649999999999066 2.4249999999984651 0 1.942890303101708 1.90249985684108 0 1.299999999998378 1.8499999999973351 0 2.5341028426591712 1.9138806300960609 0 1.942890303101708 1.90249985684108 0 2.2687831884271348 2.397628317379688 0 2.23284951060374 1.369095413116082 0 1.942890303101708 1.90249985684108 0 2.5341028426591712 1.9138806300960609 0 2.730231246675086 1.4599417336750831 0 2.23284951060374 1.369095413116082 0 2.5341028426591712 1.9138806300960609 0 2.5341028426591712 1.9138806300960609 0 2.2687831884271348 2.397628317379688 0 2.8857059848027808 2.304389417342541 0 3.5028943452390711 2.1825773809523441 0 3.16379900756549 1.750659825629856 0 2.8857059848027808 2.304389417342541 0 2.8857059848027808 2.304389417342541 0 3.16379900756549 1.750659825629856 0 2.5341028426591712 1.9138806300960609 0 2.5341028426591712 1.9138806300960609 0 3.16379900756549 1.750659825629856 0 2.730231246675086 1.4599417336750831 0 3.047698899035677 1.175177397439602 0 2.730231246675086 1.4599417336750831 0 3.16379900756549 1.750659825629856 0 2.5312500000049418 0.69999999999999996 0 2.730231246675086 1.4599417336750831 0 3.047698899035677 1.175177397439602 0 2.23284951060374 1.369095413116082 0 2.730231246675086 1.4599417336750831 0 2.5312500000049418 0.69999999999999996 0 2.5312500000049418 0.69999999999999996 0 3.047698899035677 1.175177397439602 0 3.1750000000065048 0.69999999999999996 0 3.047698899035677 1.175177397439602 0 3.638214240926366 1.265285427893069 0 3.1750000000065048 0.69999999999999996 0 3.1750000000065048 0.69999999999999996 0 3.638214240926366 1.265285427893069 0 3.8187500000045098 0.69999999999999996 0 3.638214240926366 1.265285427893069 0 3.047698899035677 1.175177397439602 0 3.16379900756549 1.750659825629856 0 3.8187500000045098 0.69999999999999996 0 3.638214240926366 1.265285427893069 0 4.2198317920941601 1.108273596938623 0 3.8187500000045098 0.69999999999999996 0 4.2198317920941601 1.108273596938623 0 4.4625000000026009 0.69999999999999996 0 4.25 1.5 0 4.2198317920941601 1.108273596938623 0 3.638214240926366 1.265285427893069 0 4.2198317920941601 1.108273596938623 0 4.25 1.5 0 4.7733688274428578 1.2511819424194319 0 4.4625000000026009 0.69999999999999996 0 4.2198317920941601 1.108273596938623 0 4.7733688274428578 1.2511819424194319 0 5.1062500000012143 0.69999999999999996 0 4.4625000000026009 0.69999999999999996 0 4.7733688274428578 1.2511819424194319 0 5 2.2000000000000002 0 4.4000000000001336 2.3599999999999639 0 4.6250000000004974 1.8500000000004651 0 4.4000000000001336 2.3599999999999639 0 5 2.2000000000000002 0 4.7733688274428578 1.2511819424194319 0 4.25 1.5 0 4.6250000000004974 1.8500000000004651 0 4.6250000000004974 1.8500000000004651 0 4.25 1.5 0 4.0559490150232032 2.028653202947901 0 4.6250000000004974 1.8500000000004651 0 4.25 1.5 0 3.757799744899315 1.759341836734688 0 4.0559490150232032 2.028653202947901 0 4.25 1.5 0 4.6250000000004974 1.8500000000004651 0 4.0559490150232032 2.028653202947901 0 4.4000000000001336 2.3599999999999639 0 3.757799744899315 1.759341836734688 0 3.5028943452390711 2.1825773809523441 0 4.0559490150232032 2.028653202947901 0 4.0559490150232032 2.028653202947901 0 3.5028943452390711 2.1825773809523441 0 3.8000000000002032 2.5199999999999458 0 3.757799744899315 1.759341836734688 0 4.25 1.5 0 3.638214240926366 1.265285427893069 0 3.638214240926366 1.265285427893069 0 3.16379900756549 1.750659825629856 0 3.757799744899315 1.759341836734688 0 3.757799744899315 1.759341836734688 0 3.16379900756549 1.750659825629856 0 3.5028943452390711 2.1825773809523441 0 2.8857059848027808 2.304389417342541 0 3.2000000000001432 2.679999999999962 0 3.5028943452390711 2.1825773809523441 0 3.8000000000002032 2.5199999999999458 0 3.2000000000001432 2.679999999999962 0 3.5028943452390711 2.1825773809523441 0 3.2000000000001432 2.679999999999962 0 3.8000000000002032 2.5199999999999458 0 3.2848100522576571 3.06994577157805 0 3.2000000000001432 2.679999999999962 0 3.8000000000002032 2.5199999999999458 0 3.8190056356267248 3.2454749759848052 0 3.2848100522576571 3.06994577157805 0 3.8000000000002032 2.5199999999999458 0 3.412636880282601 3.6134558579332841 0 3.5 4 0 3.1249999999889848 4 0 3.2848100522576571 3.06994577157805 0 3.8190056356267248 3.2454749759848052 0 3.412636880282601 3.6134558579332841 0 3.2848100522576571 3.06994577157805 0 3.412636880282601 3.6134558579332841 0 2.9420158813362729 3.5139475164392531 0 3.874999999992375 3.7500000000050839 0 3.5 4 0 3.412636880282601 3.6134558579332841 0 3.8190056356267248 3.2454749759848052 0 3.87499999999
[...]
<PointData Scalars="A_conc,B_conc,region_id," Vectors="" Tensors="">
<DataArray type="Float64" Name="A_conc" format="ascii">
0.27003013543869109 0.63198661682506818 0.28522686436613232 0.28224828142506814 0.63100247475052096 0.59393647664126759 0.25108395789120341 0.60720663302006561 0.576855086372148 0.69150900727828635 0.56255875851681569 0.69039854121833832 0.68859927342989724 0.58405086891954328 0.55642669900392716 0.69478247850220987 0.69098720396576319 0.6922780673064286 0.56144374182362566 0.68277207119729977 0.67706371587514502 0.74619261188950736 0.68256758040071297 0.76406446362338676 0.68224079957802819 0.7455645810005197 0.76413797675268635 0.20476683016569766 0.13133830010549857 0.048090383714288261 0.060549136193099325 0.12197476841381252 -0.044138053861236169 0.12898464586953481 -0.050602188640109985 -0.050349255095330198 -0.0341923754689228 -0.026851809397840522 0.061044184866763329 0.7243544541322251 0.65754526422859483 0.74570312303472153 0.70453778580156334 0.70830965029576609 0.72536920931774862 0.64321937167233068 0.65784770172488494 0.71427416912426356 0.75490977756805522 0.71103928973525876 0.65640668735017416 0.72015044046770638 0.72098729406503181 0.75419991165003974 0.71446872093668767 0.73690740833697166 0.68354751853064222 0.67892976865572663 0.74804389650398806 0.72582430832252631 0.75044364420647725 0.6827009744045951 0.74750092937242218 0.74304251250416853 0.68312228623021076 0.75910168925897226 0.73902982473291579 0.78693149332024293 0.73898024643605964 0.74271462284242185 0.7874128463834712 0.73666017128852967 0.78371923787608555 0.75357583091431291 0.78102626126657249 0.7340880113154381 0.75571542038721229 0.64296059474632472 0.50376412028703321 0.62119130803147682 0.75555019053825889 0.79475056593917837 0.7802233535616564 0.77700805729977562 0.79355488627727133 0.80532868570056459 0.63930621482324568 0.7449398425638738 0.82676400897480595 0.8048177804592509 0.7934280014901538 0.62417667037900437 0.74763934298980461 0.63970883525423017 0.66362626570891914 0.46737244484028329 0.50056304895531945 0.81113824586324423 0.80395173632247285 0.75827809968367299 0.80767909443669117 0.75863897104048994 0.78659369423153547 0.80791013809790924 0.4686992792913664 0.31666884458939221 0.49196534963510008 0.46843346974357886 0.66133695358115163 0.58373780190763225 0.57787499087883143 0.66493948043372297 0.76374634919373641 0.69328094220650449 0.81603226860780764 0.82190451836781442 0.81508650757669809 0.81075719300963967 0.82265804079879545 0.60679516773897701 0.65232559956489167 0.81804672573195369 0.69469010039807055 0.60958681338255716 0.63176525040827192 0.57344988568849298 0.51741532544027113 0.51726488606906018 0.52259587745727654 0.6328332284279482 0.64384073898787542 0.61608028081984512 0.51535156796805448 -0.065246895207786745 0.18308307784623468 -0.063414938152944564 0.17538894897405921 -0.057457862549213617 0.13657331090519831 0.32597846364697214 0.13381774986073941 0.20994657843071315 0.19848524371635276 0.12809017441099502 0.33219662584324772 0.32429439477896616 0.34845274608847465 0.47467905860901172 0.34685753782386203 0.32408424296710625 0.20586354135321538 0.43511580959554302 0.32257216948841005 0.47605193608979668 0.194817516421047 0.33576056145046806 0.46551294544060717 0.31904170408247573 0.1880928576086098 0.47154544460935655 0.42641742388738946 0.48556365142383678 0.61338454608052462 0.70695318909039617 0.50544119770650831 0.61206308240415996 0.61366881825730002 0.50706267720311193 0.42566437991047334 0.46138505376841676 0.55792329520972128 0.32830478323620577 0.19015934922950847 0.31012531622604578 0.5726585946332905 -0.080053552306207254 0.28853565634874101 0.14914325593176975 0.19086456016645983 0.2821185645140325 -0.071767481689810342 -0.047383997361604056 0.12831095290511166 -0.044897649314452073 0.13237387377798376 0.20799079901098755 -0.050025946656847155 -0.053993100326827165 0.21355939164655552 -0.046470208997574494 0.40022118948569135 0.1853581665610898 0.57694852713695322 -0.051218299195437085 0.22000319163084414 0.087446289516676892 0.0098695887017965535 0.065918300365513272 0.020777120821179534 0.81708093134019011 0.13917479776994202 0.32210169717955917 0.13541930032064278 0.82540734135491811 0.095043955783343168 0.019986797196025766 0.067224554090789868 0.05278966903465724 0.062948033013224325 0.036449920721272747 0.046062620107900354 0.82561757786157541 0.82219979166383172 0.76778159027717696 0.80998590177774654 0.83103226945823394 0.086580540702117986 0.8272672297824506 0.81557339852162147 0.83539090564045226 0.53246324463368688 0.78092368151798464 0.82511684406012731 0.55332893252148074 0.5952293091701143 0.78389918101968181 0.5533593496893372 0.76793910924869468 0.72585881657526174 0.81261205873065645 0.61375527335465208 0.70295691299059671 0.77155497154374553 0.71421827977167063 0.67162368522825755 0.79846149652874576 0.6182655061422585 0.70363202507723677 0.44661446564833912 0.45126881975508493 0.51061848940931553 0.61752152969700258 0.61555018900108638 0.5065626814475569 0.70537494439232384 0.58110457651594749 0.76026538079421424 0.66338202448697337 0.81871483343375384 0.81497763241176713 0.66249351855304717 0.75657049471340798 0.80272117895573092 0.69285255916478261 0.82225951495822935 0.81017125541954504 0.59905225858997135 0.70370326195268085 0.79881818700700113 0.56189682311004852 0.58440209937347098 0.48761377462133015 0.70626849703593442 0.59942673384697542 0.57393692902860705 0.70761304679599313 0.57255372603277588 0.63000873390080769 0.75166205743221293 0.59294252826534621 0.55727671539869128 0.6572593348663196 0.7504734055097404 0.55745489937410164 0.67467985337173964 0.85582437926600807 0.73382272638752 0.69186023200964553 0.72585655227089596 0.64006409737470271 0.83009474226691049 0.83244968526917273 0.83150776497705536 0.6403695712816283 0.67617136032490555 0.7347036505449156 0.80741053827119047 0.77573945582116122 0.85474205187199048 0.67516509824370241 0.86163980385151262 0.82515570883582223 0.80503595021541341 0.82552740403875724 0.80907225036599895 0.80506759071503098 0.83462224123479056 0.75516989304059368 0.81458554538148764 0.63909229979522619 0.83305576667051418 0.72242627547679128 0.82224663653991981 0.81866660936465985 0.61795579143174706 0.79270316848674527 0.78255409068016546 0.81672498992142717 0.71455525352283444 0.7948731643649708 0.79649871102749059 0.6172301250109089 0.60202230479103647 0.77347811897021379 0.56977732657207669 0.63654322985724765 0.77528153414742884 0.7683361405703466 0.8568291464176041 0.90017089912898496 0.48718240458986994 0.90975297826578982 0.93031280270994321 0.42534789893762387 0.92301846222856943 0.56632927817790102 0.89786592770723195 0.87338001867546455 0.87801355485917343 0.88894561714619291 0.76930491057369799 0.88139067643172808 0.8551968940600122 0.76854836016786088 0.88967093539831887 0.88083123844464839 0.86132148266561903 0.88078886629565578 0.857896248499735 0.87234182029665741 0.72226149655598759 0.84135321927102313 0.94422580483448992 0.94562587371032036 0.82520960808811128 0.87350545326364193 0.87749714838815274 0.8798021486734966 -0.0095321922806066578 -0.0035173116332474822 0.027817614955992602 0.83525699027100564 0.75367383190982151 0.80330632634311749 0.86381312596931381 0.82238564881101883 0.86303638806993621 0.86972627811800529 0.82212874005086944 0.86415705159636025 0.82586757889685281 0.03184016770956985 0.080081548612717934 -0.010472391838438995 0.035041510362912705 0.41080734639678257 0.097055321936562647 0.0079956975144499093 0.056529366382702353 0.15991646941671128 0.037066262194441542 0.084361589895959155 -0.016153151056063925 0.18366860145021846 0.05046119693294325 0.19596003676974955 0.90718684138953554 0.89286238558411413 0.51197398406089678 0.46805672507994056 -0.0045555889940883526 0.18791586014026224 0.20397577425201188 0.49992771824046145 0.57664887432846379 0.59170475401251321 0.66365260402008963 0.72607258397729568 0.8408628250095046 0.18987441144420555 0.55342684933439112 0.52421659803101406 0.90673934562527803 0.91684942330737895 0.51146296231049337 0.29341858222247558 0.61014266620510693 0.91732877931513901 0.92147806455053471 0.78706521612129898 0.70809263192527006 0.71010999998082791 0.56046411115803352 0.57533666289938823 0.78508176971907384 0.8095705661776037 0.70876811268805551 0.88646242180267532 0.79496304981141996 0.79963967205394082 0.92129581292800433 0.92442161422991664 0.94927274795920802 0.65955408308704999 0.63977876483898022 0.95018813412964842 0.63456770565495024 0.93608426288233326 0.72625379647802724 0.94156516403453583 0.63174651464349274 0.56345593323566145 0.083941935800490072 0.63931112647960409 0.27894189109875533 0.22606540869409655 0.10766240810903198 0.16380876526798271 0.087716379169377273 0.22540123869796791 0.074547554267733629 0.10977164862991803 0.63357749132670094 0.092092300037970198 0.058601648397163766 0.05225519199869496 0.17380748231228352 0.07146588515906406 0.089873828266565897 0.15631312368928579 0.0450998792297541 0.073566725581734882 0.064464146495219379 0.056396767418465214 0.06931729895159712 0.16541095137498341 0.02522435578353413 -0.10815316300044338 0.80754044170770056 0.17153842088294585 0.29621102004623306 0.83141788213859724 0.77559393228380125 -0.0017251464140052037 0.86301440553164455 0.52463559456611231 0.73542710046938531 0.46912185592919514 0.69564447202783342 0.84461958940710058 0.7228834255975346 0.68289304332166456 0.62474261080995741 0.064311399416758924 0.47256015951026487 0.46894174480615397 0.73564626659264221 0.62936426669623691 0.29248182999152966 0.14855514668232361 0.12383271322830344 0.30765053575499807 0.30287976293040836 0.12511604612644009 0.13053608072887518 0.1578752855084522 0.30218805655125669 0.22363779013440729 0.61877655325011494 0.29134093134224881 0.099378041904004566 0.22182033824244876 0.28756455026849159 0.1252747502768099 0.6134103628335571 0.24686061078150645 0.67542224732550116 0.69988211084855911 0.21485501508273783 0.62728624155638124 0.6257900136965947 0.69950809586321139 0.7200826699784374 0.6195394101900521 0.11769377592282945 0.58898557859132783 0.15676175078550608 0.32987592796244442 0.56746969757404653 0.71945031483330446 0.73779805523371478 0.31294514517905281 0.5318180567757711 0.29897947209153991 0.29856632057099786 0.32767941728877603 0.14430165393206137 0.30944869256627017 0.29815951867947177 0.15480940645901384 0.52536261926463368 0.34325694907944998 0.29630945103407952 0.59839688766615751 0.33634583745192875 0.523474435574102 0.34144553882593137 0.52853832402901446 0.52431689090166067 0.79439166071821843 0.82414743223809683 0.78194181998559953 0.73151729213333916 0.80921103973132458 0.75542998947156348 0.52539526520459701 0.52505331433590408 0.77215420555523095 0.84248000728907935 0.83774192619586152 0.84635637422799981 0.77183281516890934 0.73496187776967159 0.8971358789751116 0.8666509737183834 0.90817825287092069 0.84558950454344106 0.86626983387310597 0.89976264419915786 0.83587508232451824 0.84102451161893066 0.89722773027698299 0.91683199504709179 0.92106140791192492 0.84745914429868907 0.77402705423969498 0.87032956747055568 0.85289677819769694 0.79617950859304565 0.76880103892576479 0.89672120894554541 0.84622594453922861 0.90802977397797757 0.85154406208004441 0.89606075649607864 0.87802279404918793 0.882937814598309 0.7970318582862298 0.85147837350474687 0.89341892336585227 0.87238820492152347 0.80735840482653942 0.85722235846785533 0.81229746103401346 0.81381139766112409 0.77523871709959957 0.80711825711952423 0.81850270236061839 0.84379292006921713 0.71257448396367462 0.63915856575777674 0.85384793315689278 0.78141790947873557 0.52889429835442736 0.51224521364302833 0.52669256243398732 0.5250747294392174 0.31406066322288789 0.51968803466799418 0.90863868287401284 0.91727555193872279 0.79913195502519074 0.70342265994976139 0.76957258107384197 0.50751382004813395 0.57598211151131973 0.80720950691535509 0.77642068182779056 0.69032707939429738 0.57795404056779054 0.30367672258720235 0.5063185508949799 0.29859407629069196 0.51682197514212813 0.31726421054534898 0.18000272943384907 0.95619322719968658 0.67036249010829951 0.8749838322692145 0.8775580619544805 0.1709008260269923 0.84665780316110628 0.96145764049351468 0.82886258756801257 0.59891951938276211 0.60686120058473614 0.86995107184693554 0.87504273073261674 0.78174567943496487 0.82727202222725471 0.60600150153488586 0.63070630394274962 0.59846079953001785 0.82991863151940004 0.84743845596937295 0.76661373756787832 0.76332827786294877 0.76784252393398766 0.73354217785330766 0.76349524454208895 0.63738452832067927 0.68454294528318571 0.85650099899642751 0.7247947850653409 0.84100143095701974 0.83549231859768136 0.74104091796969185 0.81465610593730187 0.63360104878211909 0.70895084139925235 0.75236761635902172 0.73318479794701197 0.76891642683290973 0.72762583317373497 0.7024813395094559 0.67469574161742596 0.752817903354704 0.6960413829331723 0.70812693061422527 0.74814429604605193 0.72832866614492975 0.69438286004946914 0.73357893981208322 0.17571741452637468 0.083346054686622206 0.15341201909342059 0.63977153914901075 0.62956841211579351 0.33493950977380238 0.36879861220228538 0.33359020631602726 0.37515866890473987 0.83177351409015243 0.61800615027410044 0.63006849398854936 0.67480611911140953 0.79466432874129711 0.75172450371156818 0.25013149307388022 0.29490214999009617 0.34637200088035902 0.3467612018742473 0.29421927035323392 0.38334208503686873 0.7330709969376128 0.7552872218295168 0.7631895740683996 0.79511773620148729 0.48655375712343862 0.74031943179124693 0.77280715764090668 0.43015399663778198 0.20696914449747131 0.31438020122085242 0.83433447772147373 0.31205035451276375 0.78854915013061422 0.82939472875015474 0.78714896151526847 0.75816014507332952 0.69901999194514097 0.77179973484722186 0.78158739191699667 0.77523183493053394 0.78149444992013783 0.40257322114397465 0.24730236163905206 0.34768020301555491 0.74742215694532432 0.75423148119370964 0.78250051072096671 0.78827202177490452 0.70923095890148069 0.40394505649280316 0.34727010808781955 0.61181859964121355 0.64002333141058454 0.71021989764961679 0.019224081455650879 0.40576701425125222 0.86141767539634317 0.87058658402976541 0.53927420442724783 0.60122161612430525 0.63207366961990241 0.31069704663702102 0.36491194303555263 0.57000998438538075 0.22355873445580032 0.78778976062060446 0.6424717900404151 0.67547351494418395 0.018016004959076307 0.71322287322789091 0.22243501016352685 0.062490091685782262 0.081044393215381733 0.050527710571816022 0.035941348045676516 0.12287884807016915 0.58279859042805404 0.24854263301415633 0.63076397219386837 0.58080715360719692 0.3659389129269961 0.25371812531626603 0.10196117041483933 0.087587983948982512 0.18454343851161156 0.080250348292195434 0.19270496944947127 0.08427898612139946 0.090233327265821853 0.039685210193290937 0.087793199480101836 0.048839560582583576 0.041793995865002723 0.72613574696395977 0.1107219828285388 0.34389226283094754 0.65397896177889758 0.39742560832071888 0.80647969024601607 0.13144155733928822 0.61663944969563922 -0.045791964536171459 0.70177816702070062 0.61946455265787048 0.15005042005585922 0.78938520296434878 0.80554995176090249 0.50823403881454488 0.46307459315610794 0.50817587080768079 0.8112773164547411 0.76110285743933093 0.77216835888979829 0.67471818790934035 0.75925698547449438 0.75521779453292393 0.51438699377500552 0.79225434005304463 0.80809635814803171 0.74810556275521001 0.76175780130054804 0.76062385434150592 0.67381873710502238 0.71289739176128164 0.71723177001375693 0.72917543300900112 0.75020136612672261 0.7271624276314449 0.71878308761657073 0.76598152161845523 0.72916173345105717 0.74972231606734141 0.68160819659359051 0.51239979965471516 0.81136397401699667 0.22374710738262321 0.55067649555686804 0.71027230193806967 0.51703735001730844 0.43868322258293768 0.54487939607716818 0.51555632137445062 0.54393054595107415 0.64510943858388525 0.34351487446941575 0.34076047258839298 0.51596673751005095 0.31395023101139163 0.43885383002772921 0.06451176778582321 0.25967419803739522 0.43197835514418531 0.69518888534420431 0.65880158247119802 0.71115907657706123 0.62906580858659444 0.61249273489603639 0.61376940599206231 0.59127251155913763 0.70127422959246122 0.7413966909477977 0.73937109067267659 0.70151934915608305 0.67188517256507485 0.74271009192807746 0.65705560859690282 0.5467265504221035 0.56086884041379093 0.74948619564403096 0.7599248123197373 0.72856688485053267 0.55959815132232349 0.66329093754827639 0.6560628361636085 0.55938239553445768 0.72926945389578912 0.75972120685819089 0.77548534913895972 0.69264223722424367 0.64868840207657774 0.7127620412165111 0.6680790392170618 0.60895874058321353 0.70407468977138754 0.76249005143048876 0.52515257270744642 0.75276177503565589 0.62722413022977108 0.66103240175357025 0.70444750290065128 0.77244898353918745 0.48114331931244003 0.54478802006811022 0.43969712913117576 0.37914087942794378 0.78123362896498294 0.68734109269380539 0.75269729485348047 0.77815630867034369 0.75712758565404092 0.71512917116366415 0.71814568582507532 0.7602658298489654 0.69407865619450682 0.78076444749675666 0.79535752869242748 0.74867712856347757 0.77721500622878803 0.79448206648084774 0.77690381831516508 0.70824130676156638 0.71193526912504812 0.74696644876396379 0.6551289234377683 0.67183024191038043 0.76035563489401037 0.74568844637182574 0.67162216745652081 0.76181760721621938 0.66534955545964991 0.69438892503511385 0.71186159886060596 0.71520641854024869 0.70479967716940606 0.70965262125674256 0.52559334384870038 0.71119429100577669 0.58442928723372745 0.52546167494205209 0.71786034762167583 0.60874379216731322 0.71186785649963547 0.55386790940548847 0.70249068293913375 0.53094217172922997 0.70507525955946715 0.60906620243271725 0.60047564682358578 0.59651531107928479 0.71348502753693122 0.60892004371974295 0.52999265286630814 0.57916194141564792 0.56522355402707314 0.56200915371045834 0.53826545946551463 0.5243618261761428 0.71159883185100814 0.5778456117487607 0.58254668975755985 0.6959340812499365 0.57443071790897038 0.71131312427317517 0.71128113112430991 0.71007033512502427 0.58226212099320807 0.74135470573466133 0.56034953433781343 0.72377519587000116 0.70948727470167339 0.41436760456055721 0.22667134572229924 0.67746005376258589 0.73000310011532454 0.73689865809252464 0.73208216896098033 0.6765084001554672 0.73841248738402732 0.66214911757163364 0.74402944311239683 0.73270226217378731 0.68371234135119252 0.67652163111781982 0.67698705469756382 0.68426270153780433 0.65037457214780403 0.70736856080392685 0.60923374894612259 0.67802961594421085 0.74326958727208259 0.57392096064653875 0.5606624957712153 0.72658599697587944 0.67747155381136814 0.59850328388916019 -0.14014559931315396 0.41071316377995981 0.62414411229140376 0.3535652019664669 -0.097553935823815219 -0.091316138511449374 -0.098534211107204686 0.12552836805173656 0.36229918455821919 0.034619108142759161 0.030815096169392538 0.021808210916232734 0.03493120321598759 0.04714314687951162 0.0307024771301357 0.063223722385236228 -0.003023953824109474 0.0033239795156982735 -0.036109230671215659 0.60399863886637717 0.14969336021822596 0.012065669035051792 0.065337367536052113 0.0022672241682839584 0.043501865305057591 0.13635173366371217 0.092457304366398804 0.039471467189659784 0.077381563814796786 0.14040655690693293 0.047462857650537857 0.03432363342904713 0.0714374462720751 0.045593859927845343 0.088407376697690762 0.018704999274313579 0.07484114415594946 0.18372320457100608 0.14504637804806494 0.18583731518745858 0.070591564164550882 0.2156601216144402 0.13448601988060843 0.26008478689147851 0.049745693688656153 0.13055382868098156 0.34093538080319397 0.27097130628927679 0.34490339236039869 0.41693818143104383 0.23557436466975828 0.23704271140144209 0.34795716186852965 0.10231710041673969 0.4199045009958608 0.34398389128622309 0.57094535748057584 0.35647130801625132 0.23486449390165756 0.57760439618302506 0.75083507280904871 0.90701166158918478 0.56973819082887078 0