<?xml version="1.0"?>
<VTKFile type="UnstructuredGrid" version="0.1" byte_order="LittleEndian">
<UnstructuredGrid>
<Piece NumberOfPoints="2028" NumberOfCells="724">
<Points>
<DataArray type="Float64" NumberOfComponents="3" format="ascii">
0 0.69999999999999996 0 0.59999999999999998 0.69999999999999996 0 0 1.6319639930219929 0 0.59999999999999998 0.69999999999999996 0 0 1.6319639930219929 0 0.94999999999923723 1.2749999999987469 0 0.59999999999999998 0.69999999999999996 0 0.94999999999923723 1.2749999999987469 0 0 1.6319639930219929 0 0.68142292217753131 2.106313194182027 0 0.94999999999923723 1.2749999999987469 0 0 1.6319639930219929 0 0.68142292217753131 2.106313194182027 0 0 2.430303940964651 0 1.299999999998378 1.8499999999973351 0 0.94999999999923723 1.2749999999987469 0 0.68142292217753131 2.106313194182027 0 1.299999999998378 1.8499999999973351 0 0.94999999999923723 1.2749999999987469 0 0.68142292217753131 2.106313194182027 0 1.299999999998378 1.8499999999973351 0 1.186467289461244 2.488259157846338 0 1.299999999998378 1.8499999999973351 0 1.649999999999066 2.4249999999984651 0 1.299999999998378 1.8499999999973351 0 1.186467289461244 2.488259157846338 0 1.649999999999066 2.4249999999984651 0 1.299999999998378 1.8499999999973351 0 0.94999999999923723 1.2749999999987469 0 1.626949751997165 1.3978044304614949 0 1.243750000001385 0.69999999999999996 0 0.94999999999923723 1.2749999999987469 0 1.626949751997165 1.3978044304614949 0 1.243750000001385 0.69999999999999996 0 1.887500000003292 0.69999999999999996 0 1.626949751997165 1.3978044304614949 0 0.59999999999999998 0.69999999999999996 0 1.243750000001385 0.69999999999999996 0 0.94999999999923723 1.2749999999987469 0 0.45714634023723411 3.4614941897304652 0 1.013301616169622 3.6128741719811099 0 0.56249999999824107 3.9749999999991399 0 0 3.7000000000000002 0 0.56249999999824107 3.9749999999991399 0 0 3.7000000000000002 0 0.45714634023723411 3.4614941897304652 0 0.56249999999824107 3.9749999999991399 0 0 3.1141786369756268 0 0.45714634023723411 3.4614941897304652 0 0.70993008501830757 2.9054181396964478 0 0 3.7000000000000002 0 0 3.1141786369756268 0 0.45714634023723411 3.4614941897304652 0 0.45714634023723411 3.4614941897304652 0 0.70993008501830757 2.9054181396964478 0 1.013301616169622 3.6128741719811099 0 0.68142292217753131 2.106313194182027 0 0.70993008501830757 2.9054181396964478 0 0 2.430303940964651 0 0 3.1141786369756268 0 0.70993008501830757 2.9054181396964478 0 0 2.430303940964651 0 0.68142292217753131 2.106313194182027 0 0.70993008501830757 2.9054181396964478 0 1.186467289461244 2.488259157846338 0 1.186467289461244 2.488259157846338 0 1.451787781083937 3.11022608666643 0 1.649999999999066 2.4249999999984651 0 0.70993008501830757 2.9054181396964478 0 1.186467289461244 2.488259157846338 0 1.451787781083937 3.11022608666643 0 0.70993008501830757 2.9054181396964478 0 1.451787781083937 3.11022608666643 0 1.013301616169622 3.6128741719811099 0 1.451787781083937 3.11022608666643 0 1.013301616169622 3.6128741719811099 0 1.593428957229921 3.8897035774451321 0 2.08333333333292 3.599999999997022 0 2.4236693135559251 3.5256579194055688 0 2.1666666666662731 4.1999999999971616 0 1.451787781083937 3.11022608666643 0 2.08333333333292 3.599999999997022 0 1.593428957229921 3.8897035774451321 0 1.451787781083937 3.11022608666643 0 2.08333333333292 3.599999999997022 0 2 3 0 2 3 0 2.6000000000000818 2.8399999999999781 0 2.4236693135559251 3.5256579194055688 0 2.08333333333292 3.599999999997022 0 2 3 0 2.08333333333292 3.599999999997022 0 2 3 0 2.4236693135559251 3.5256579194055688 0 2 3 0 2.2687831884271348 2.397628317379688 0 2.6000000000000818 2.8399999999999781 0 2 3 0 2.6000000000000818 2.8399999999999781 0 2 3 0 1.649999999999066 2.4249999999984651 0 1.451787781083937 3.11022608666643 0 2 3 0 1.649999999999066 2.4249999999984651 0 2 3 0 1.649999999999066 2.4249999999984651 0 2.2687831884271348 2.397628317379688 0 2.2687831884271348 2.397628317379688 0 2.8857059848027808 2.304389417342541 0 2.6000000000000818 2.8399999999999781 0 2.8857059848027808 2.304389417342541 0 2.6000000000000818 2.8399999999999781 0 3.2000000000001432 2.679999999999962 0 2.6000000000000818 2.8399999999999781 0 3.2000000000001432 2.679999999999962 0 3.2848100522576571 3.06994577157805 0 2.6000000000000818 2.8399999999999781 0 3.2000000000001432 2.679999999999962 0 2.6000000000000818 2.8399999999999781 0 2.9420158813362729 3.5139475164392531 0 2.4236693135559251 3.5256579194055688 0 2.6000000000000818 2.8399999999999781 0 2.9420158813362729 3.5139475164392531 0 3.2848100522576571 3.06994577157805 0 2.9420158813362729 3.5139475164392531 0 3.412636880282601 3.6134558579332841 0 3.1249999999889848 4 0 2.9420158813362729 3.5139475164392531 0 2.75 4 0 3.1249999999889848 4 0 2.9420158813362729 3.5139475164392531 0 2.4236693135559251 3.5256579194055688 0 2.75 4 0 2.23284951060374 1.369095413116082 0 1.887500000003292 0.69999999999999996 0 2.5312500000049418 0.69999999999999996 0 2.23284951060374 1.369095413116082 0 1.887500000003292 0.69999999999999996 0 1.626949751997165 1.3978044304614949 0 1.299999999998378 1.8499999999973351 0 1.626949751997165 1.3978044304614949 0 1.942890303101708 1.90249985684108 0 2.23284951060374 1.369095413116082 0 1.626949751997165 1.3978044304614949 0 1.942890303101708 1.90249985684108 0 1.649999999999066 2.4249999999984651 0 2.2687831884271348 2.397628317379688 0 1.942890303101708 1.90249985684108 0 1.299999999998378 1.8499999999973351 0 1.649999999999066 2.4249999999984651 0 1.942890303101708 1.90249985684108 0 2.2687831884271348 2.397628317379688 0 1.942890303101708 1.90249985684108 0 2.5341028426591712 1.9138806300960609 0 2.23284951060374 1.369095413116082 0 1.942890303101708 1.90249985684108 0 2.5341028426591712 1.9138806300960609 0 2.23284951060374 1.369095413116082 0 2.5341028426591712 1.9138806300960609 0 2.730231246675086 1.4599417336750831 0 2.2687831884271348 2.397628317379688 0 2.8857059848027808 2.304389417342541 0 2.5341028426591712 1.9138806300960609 0 2.8857059848027808 2.304389417342541 0 3.16379900756549 1.750659825629856 0 3.5028943452390711 2.1825773809523441 0 2.8857059848027808 2.304389417342541 0 2.5341028426591712 1.9138806300960609 0 3.16379900756549 1.750659825629856 0 2.5341028426591712 1.9138806300960609 0 3.16379900756549 1.750659825629856 0 2.730231246675086 1.4599417336750831 0 3.16379900756549 1.750659825629856 0 3.047698899035677 1.175177397439602 0 2.730231246675086 1.4599417336750831 0 3.047698899035677 1.175177397439602 0 2.730231246675086 1.4599417336750831 0 2.5312500000049418 0.69999999999999996 0 2.23284951060374 1.369095413116082 0 2.730231246675086 1.4599417336750831 0 2.5312500000049418 0.69999999999999996 0 3.047698899035677 1.175177397439602 0 2.5312500000049418 0.69999999999999996 0 3.1750000000065048 0.69999999999999996 0 3.047698899035677 1.175177397439602 0 3.1750000000065048 0.69999999999999996 0 3.638214240926366 1.265285427893069 0 3.1750000000065048 0.69999999999999996 0 3.638214240926366 1.265285427893069 0 3.8187500000045098 0.69999999999999996 0 3.16379900756549 1.750659825629856 0 3.047698899035677 1.175177397439602 0 3.638214240926366 1.265285427893069 0 3.638214240926366 1.265285427893069 0 3.8187500000045098 0.69999999999999996 0 4.2198317920941601 1.108273596938623 0 3.8187500000045098 0.69999999999999996 0 4.2198317920941601 1.108273596938623 0 4.4625000000026009 0.69999999999999996 0 3.638214240926366 1.265285427893069 0 4.2198317920941601 1.108273596938623 0 4.25 1.5 0 4.2198317920941601 1.108273596938623 0 4.7733688274428578 1.2511819424194319 0 4.25 1.5 0 4.2198317920941601 1.108273596938623 0 4.7733688274428578 1.2511819424194319 0 4.4625000000026009 0.69999999999999996 0 4.7733688274428578 1.2511819424194319 0 4.4625000000026009 0.69999999999999996 0 5.1062500000012143 0.69999999999999996 0 4.4000000000001336 2.3599999999999639 0 5 2.2000000000000002 0 4.6250000000004974 1.8500000000004651 0 4.4000000000001336 2.3599999999999639 0 5 2.2000000000000002 0 4.7733688274428578 1.2511819424194319 0 4.6250000000004974 1.8500000000004651 0 4.25 1.5 0 4.6250000000004974 1.8500000000004651 0 4.25 1.5 0 4.6250000000004974 1.8500000000004651 0 4.25 1.5 0 4.0559490150232032 2.028653202947901 0 4.25 1.5 0 4.0559490150232032 2.028653202947901 0 3.757799744899315 1.759341836734688 0 4.6250000000004974 1.8500000000004651 0 4.0559490150232032 2.028653202947901 0 4.4000000000001336 2.3599999999999639 0 4.0559490150232032 2.028653202947901 0 3.757799744899315 1.759341836734688 0 3.5028943452390711 2.1825773809523441 0 4.0559490150232032 2.028653202947901 0 3.5028943452390711 2.1825773809523441 0 3.8000000000002032 2.5199999999999458 0 3.638214240926366 1.265285427893069 0 4.25 1.5 0 3.757799744899315 1.759341836734688 0 3.16379900756549 1.750659825629856 0 3.638214240926366 1.265285427893069 0 3.757799744899315 1.759341836734688 0 3.16379900756549 1.750659825629856 0 3.757799744899315 1.759341836734688 0 3.5028943452390711 2.1825773809523441 0 2.8857059848027808 2.304389417342541 0 3.5028943452390711 2.1825773809523441 0 3.2000000000001432 2.679999999999962 0 3.2000000000001432 2.679999999999962 0 3.8000000000002032 2.5199999999999458 0 3.5028943452390711 2.1825773809523441 0 3.2000000000001432 2.679999999999962 0 3.8000000000002032 2.5199999999999458 0 3.2000000000001432 2.679999999999962 0 3.2848100522576571 3.06994577157805 0 3.8000000000002032 2.5199999999999458 0 3.2848100522576571 3.06994577157805 0 3.8000000000002032 2.5199999999999458 0 3.8190056356267248 3.2454749759848052 0 3.412636880282601 3.6134558579332841 0 3.5 4 0 3.1249999999889848 4 0 3.2848100522576571 3.06994577157805 0 3.412636880282601 3.6134558579332841 0 3.8190056356267248 3.2454749759848052 0 2.9420158813362729 3.5139475164392531 0 3.2848100522576571 3.06994577157805 0 3.412636880282601 3.6134558579332841 0 3.412636880282601 3.6134558579332841 0 3.874999999992375 3.7500000000050839 0 3.5 4 0 3.412636880282601 3.6134558579332841 0 3.819005635626
[...]
<PointData Scalars="A_conc,B_conc,region_id," Vectors="" Tensors="">
<DataArray type="Float64" Name="A_conc" format="ascii">
0.49284109087428285 0.50118211961295323 0.90539881463136329 0.49924490817507849 0.90309467289681766 0.85298942162736702 0.45703643713386816 0.87094317774056573 0.8293718207524321 0.89983153232670088 0.80814524127868592 0.83947579260076488 0.89439942679507889 0.8949488268508331 0.89991404748651993 0.80167477910608209 0.89908125999862998 0.89678495382344858 0.80814344270361083 0.88260800318554444 0.88431516692217871 0.90425227296433786 0.88461285279638791 0.90938421429338501 0.88439475542309343 0.90396581949597365 0.90949525850001078 0.69118619697391981 0.29933184399084561 0.47677147256781405 0.0064417684079305544 0.30234836103624974 0.46796130590732443 0.0063164253177651133 0.053210738534481494 0.47113978500179454 -0.028267625261701533 0.0096155407994851123 0.30289089519611084 0.8983601248395825 0.90345056110050515 0.88189972115245041 0.89784360517778117 0.89889385382164377 0.87842144485195639 0.89856429210478583 0.88187488100356637 0.89511656839261611 0.89593707677667944 0.90586940310188169 0.88178504183241946 0.89757336105352303 0.89733394909819708 0.89596005162495418 0.90578542903011516 0.90151544789335847 0.88486526177081104 0.90453570737372124 0.88421419208958507 0.89939019736047532 0.90505270111078662 0.88540319205412799 0.88498006908732707 0.90425407152221482 0.90293002508466069 0.9013769746013397 0.9148450380475992 0.90711293067916665 0.90266808334533588 0.90128191533065016 0.91497652451827327 0.90571762711735582 0.91361433315700069 0.90148596232755762 0.91285588582512667 0.90078227106453468 0.90640233571880569 0.87419409304913342 0.87755359137576971 0.84136674975623127 0.91276198897880612 0.91694618904480507 0.90638718762467518 0.91191341842361484 0.91677025793510414 0.91997761300615544 0.90543100402213006 0.9245068706004318 0.87658304615298499 0.91675860224357186 0.91992766587810082 0.87477007585325328 0.90612437354731534 0.8763685028095054 0.84230507578017599 0.83495707619120541 0.88528420958808707 0.91972288968081328 0.92174231240132753 0.92090411520656201 0.90699231171322436 0.91475898568429781 0.92093058578404074 0.90708252711915471 0.84297408641925575 0.77943055235283598 0.83514749299843394 0.83563878577333373 0.8649856731111305 0.88391872673108762 0.86355551445772172 0.88445648957235223 0.90798344261640407 0.9230029474774416 0.92440930787525954 0.88833250870309699 0.92165099238159121 0.9229733825289701 0.92372746451568344 0.86695383643451451 0.87981048850961807 0.92286265987446492 0.86752904068009229 0.88880729112322254 0.87322617318201101 0.86011532862026696 0.84399025263463634 0.87391007947199506 0.84358853903744702 0.8436868591916401 0.869499680076259 0.87795120530524617 0.84216649456167902 0.53667506185032232 0.053175381129880996 0.10607506880237495 0.53464584561460304 0.050676949004357978 0.46867220159343981 0.68275015705952313 0.47927430349527972 0.82018986844667341 0.5494277069089174 0.48052588605071167 0.81985954891842228 0.78955261423931 0.8290074346354972 0.82493130513582225 0.72751924276008262 0.8084196454536301 0.82399867818776829 0.82628910684523182 0.82653854161511375 0.85340545845527083 0.54795299295023159 0.81445109738532728 0.92185766647873779 0.55032287777119926 0.92077947130249749 0.68680265813117414 0.8387333078281296 0.87095856990625042 0.835198461614304 0.86767165540357838 0.86311840499529713 0.88897308059635194 0.86917897551695289 0.83653882185482942 0.86291327833200038 0.90085193919441831 0.93074908693158143 0.69348190301529289 0.94244872943619562 0.51458741574939137 0.67521492142552175 0.47065679547449851 0.66381803657332772 0.1067888767882989 0.53145101991557864 0.66490364373346 0.10432438821581999 0.44695869808044542 0.14658129645097387 0.20244172673268104 0.44275449264328515 0.20181496488014214 0.55902731474888845 0.20475565335537357 0.55857580671190199 0.26213727776239765 0.94029557516085682 0.51609561986212293 0.71040548429177797 0.55381834950499398 0.26312349042379807 0.43596472289954313 0.33583771281430363 0.40811514468475446 0.39834300749757628 0.65326165286491988 0.50388034360523504 1.0174956235669326 0.50865897985733999 0.48335744102193157 1.0130403575246996 0.40605713656290532 0.43131703166904944 0.3989547570206502 0.4223317939856519 0.42282368599507636 0.52464437624351445 0.92526957351057504 0.92638791530942177 0.90928032397166203 0.92124707896555402 0.92732443864842007 0.48455810962947765 0.94415975318588574 1.0058150158928136 0.92711279601855956 0.84841470948763564 0.92447277924548354 0.85383839779521464 0.91392101484196719 0.85334316474255245 0.91491171347885869 0.86534578223751946 0.90931096650002463 0.8985359509873444 0.92150776643723209 0.91170965327189912 0.87057976601802156 0.89583031365614285 0.89564193105767953 0.88559797996883804 0.91719976348214549 0.75324108231795306 0.94911718439469561 0.91658085896602925 0.86919419831805311 0.75225581030649424 0.91813358197764194 0.86437221645568496 0.87877511986175982 0.88779660188390941 0.86427796572590476 0.88371150498675144 0.90723320461252555 0.92295164411327346 0.92413445996226184 0.88356374787854119 0.90661308020242337 0.91801212884950933 0.92468631680362157 0.88782561664147541 0.91996742952603183 0.89157557224040729 0.91534091954990648 0.86849203569449662 0.8584275496471786 0.86936217925607784 0.83555129853143262 0.89211978390444568 0.86051228550264947 0.86841027318523567 0.87266746283559238 0.8926395206175316 0.86004217399961258 0.85762405849851819 0.91857923544071085 0.87106201094733982 0.85795077452995705 0.88778469246042824 0.9180183867481454 0.89400029723124541 0.91145087605277531 0.94388219752329861 0.9045128444627768 0.8941943323438285 0.93926634953069421 0.93734425924002418 0.85423997919833727 0.87391825465852202 0.93965920886301524 0.85437296432245624 0.90818634088580452 0.93472077168024692 0.89421718496742542 0.94357478875963596 0.92311012028794437 0.93234629509843392 0.93228023726250209 0.94524866556226661 0.92917573116510788 0.93239233669386967 0.93230140350905932 0.93016746451792764 0.93355536777294401 0.89782011171556875 0.93792327546870802 0.88350658245367442 0.8533565852716265 0.92412591119211884 0.9252782007450836 0.9141197391673388 0.87433147383383691 0.91149244494567128 0.89565931400813381 0.91679193244572077 0.92246477557495787 0.91476853784578194 0.86910718702060918 0.87411640165561011 0.88002410165861933 0.85177848939230194 0.90845337024234862 0.92343889117220401 0.9208829261998962 0.94330909778048888 0.82365739304160868 0.95423416504203107 0.9513060795561159 0.80316713873561307 0.96099664655510464 0.86107082292976722 0.96702970170623082 0.95331566969482051 0.94919242340344334 0.94813723146254891 0.92109265163064702 0.95078611726936102 0.95162013358321518 0.92097467054622506 0.94308725764062484 0.95171574915514279 0.950092525233866 0.94434478269255695 0.94997327391476816 0.94766311661175973 0.94350526909820753 0.94173837010353578 0.96037819933566038 0.91996276709446845 0.94938932649770869 0.93928240933484775 0.96043109283636852 0.94973147421642157 0.94910274029903041 0.12400821352199812 0.33212671256341753 0.03165650383092105 0.93397326172058781 0.89712040426039596 0.92567330311228802 0.92948670539687606 0.94638677549950867 0.92948745633061902 0.94622298765861124 0.94715753769555833 0.93000512479357722 0.9459438013368161 0.14463785027639264 0.4939611554785 0.53129414459991842 0.90722571635561611 0.50539323611654274 0.53296023651599744 0.69829130119160776 0.48500834525992842 0.30367354436330696 0.12075173330860531 0.599375825112753 0.35289410653065145 0.69359825008295894 0.70865862472874364 0.48637366746262822 0.95888223117824101 0.95365908933678867 0.87655538103458364 0.5231052248172301 0.92198499759642449 0.68875486749295045 0.90257560760216948 0.70215621873858647 0.88449001480270295 0.8883819976698224 0.92145067137295977 0.90332075202468887 0.94216382282595401 0.88221684009617762 0.89494784904525393 0.71027850446744967 0.95860269729472625 0.96175097687762767 0.87860750136317656 0.75217000875356155 0.88653614264570091 0.95777614549724632 0.95875818944341717 0.91908947239650018 0.91986746752443094 0.93055810596309252 0.88133952379172897 0.88429182820484331 0.91990838889527449 0.93041938043676176 0.9347800162870421 0.93360684770935032 0.94865009915264786 0.93177688901899536 0.95873617889535889 0.95968277513303302 0.96156145580129193 0.90446955490441894 0.90698858984207098 0.95927231739334651 0.96186547238535192 0.90364234093538354 0.95990803389337997 0.90315420898554055 0.92052628216513022 0.90090284742827487 0.63197096537180042 0.85409306510554439 0.65403816577967455 0.75207568733088137 0.79662993816480021 0.6834337265179693 0.59013168194367316 0.65398143210142567 0.75540876536763668 0.60557827953215748 0.90889267477145341 0.62961348398989692 0.58947101067999952 0.55563553703036395 0.61076767308424595 0.68727668961729993 0.58964075627210777 0.52008912400925544 0.42036397646416573 0.57275222947394977 0.52454552801411203 0.4363475684383416 0.5515797500512345 0.61554448924460603 0.37714480398461214 0.95266683180031919 0.52490650600393085 0.6852295831194275 0.61383085293633943 0.91149439378843566 0.92763430230168464 0.95348861674365681 0.78993090590289738 0.51761460149235106 0.92108924033790396 0.92852220067157598 0.85874501619845856 0.94230288930833872 0.91266637679276152 0.91978201111691649 0.91245942614379905 0.58273327756626403 0.83318132537287382 0.90553203520064152 0.92875502252887154 0.85809891402709826 0.79381432964807563 0.63866963784277442 0.68501944762350198 0.795462099252636 0.79047907543670204 0.64696359658613534 0.79510373836860526 0.64496687618695769 0.65899492736083065 0.91894092030959251 0.74485201181580929 0.76806811143345821 0.74824920695952546 0.76754816722690711 0.63209535697119135 0.75964275277953297 0.9081513940649657 0.74805560366016144 0.90394455114764372 0.91165232235406746 0.90941407412404851 0.75051821838524702 0.91300552679660285 0.91145985997491352 0.91659836850009468 0.89870743758662897 0.89957933395285061 0.75371788403944062 0.89197098988913737 0.76814679756615556 0.84832067694310664 0.9163093672376168 0.91965114088148259 0.79310418839508623 0.80748286923813706 0.89077773748813605 0.78816181325829171 0.68599656435887146 0.82116419721656586 0.69154189581941206 0.79638532662773465 0.81211504960723913 0.78290517160500805 0.81829863040771211 0.87823012075344398 0.81925048983942284 0.8768301430066705 0.90098628585212837 0.81926363744139952 0.87740915017519838 0.87255831480414292 0.93035504365615629 0.93236895990801272 0.93816737482577439 0.92553867211166319 0.93495988763038362 0.92195413602103427 0.87532117624242223 0.87054893981519366 0.94075825198231633 0.92902379428085646 0.94183107998711402 0.92890177020508125 0.94224752243635623 0.92321176829438034 0.95589623126014489 0.95884573815969043 0.94805334443148104 0.95603635052425562 0.94803255676382991 0.94334531127958887 0.94069186130835514 0.95294489421891293 0.94167022475350592 0.96311917557464732 0.9618503464891528 0.94834211067766194 0.92920309466677786 0.94345916804041607 0.92932743257837513 0.94482876681642292 0.9309045274262695 0.95852051198258292 0.94338164662867141 0.95422228599430836 0.94538983141088118 0.95424722167728926 0.94593510754510424 0.94555756312476136 0.94611696956146518 0.92975998998953524 0.95415848226142297 0.94402010243724233 0.93569939348772868 0.92958965134363181 0.9199799023322448 0.92966650849768895 0.91644445592283919 0.91999760211093318 0.9313060660071899 0.92457110445251411 0.87504799344827866 0.84675797837243805 0.93961594100489276 0.7967046731794537 0.9062349588904286 0.87064626161155434 0.86274856231700903 0.79393784053707428 0.87514876842539358 0.86874964475135386 0.96191795876986741 0.95976994324116593 0.92947320635295672 0.93118543360671635 0.91500121192088069 0.85044661537415933 0.85621202705739707 0.9305712148010723 0.91359283450918571 0.9152051783090106 0.85256959736392801 0.77490733282307489 0.8605714238089972 0.79231222939437551 0.77572799851764351 0.87370375500423181 0.75091646748574836 0.90870338057120015 0.97802453283278501 0.95196939905485423 0.95119149940737946 0.74301792606790407 0.98278657169468941 0.9464168409711966 0.86370631235331918 0.86224890640458152 0.93227639060284073 0.95119805594648366 0.94961654882320312 0.86409340887018982 0.91415230706383865 0.93123797000552666 0.86130492972055184 0.93356219932052775 0.87480606861634513 0.91590719533851384 0.9330628711749418 0.90282276779537185 0.91597416945120536 0.90289174488469504 0.9045506562647867 0.84647471051600642 0.93996474429154919 0.87262456105317565 0.90303008352931036 0.92926749410134279 0.92281447179213683 0.90679052889534784 0.92727697016061561 0.85606583780268608 0.88026754242694083 0.90441810367017916 0.90305061581837998 0.9046085789221523 0.89694463193210439 0.91176126878229014 0.90112736267298177 0.8945514556364319 0.90988546468836273 0.90374032516698211 0.89648172963769834 0.90461954893969554 0.8969307164383864 0.89509708253920039 0.5359399025827265 0.58906109367812909 0.53234379164756518 0.87305008149477703 0.86976129907748012 0.76574411514601981 0.74824530090393793 0.75020480742309492 0.71567741995835077 0.93489368585407195 0.87400022695207913 0.87570657728319401 0.92464996503730557 0.91161656846312789 0.89459836683826 0.72477034030159515 0.71247656024174699 0.6651481320236533 0.75770784999481156 0.72297463096449477 0.71241048901933868 0.91273726083759854 0.92079048607879932 0.91870956275924853 0.93368053664317308 0.91878926866285626 0.8382154040439751 0.92994924985068705 0.81733541694025036 0.97237048803355053 0.74572329072045584 0.68640622260853057 0.96085842338527305 0.946579803349202 0.74870927319167924 0.91943317464377616 0.90388743842597341 0.92704222435731809 0.92312263252691329 0.92573731319899499 0.92382836080401765 0.92573521804090197 0.77263052026043699 0.68189106025003676 0.7417382262935367 0.91649234006962943 0.91847998505515427 0.92591095687671965 0.90656304652562036 0.92736350950492064 0.77023475213022519 0.74105361398623526 0.88149176827662579 0.89102595698678444 0.92665454299806782 0.78174425892901012 0.62576941042885015 0.94987566465135431 0.94698144914422067 0.86145573129241648 0.87559616009908559 0.84503402349204315 0.80705643903039515 0.80591353468286475 0.91154174634628071 0.95756798992811687 0.70198124752726232 0.90386999466497042 0.89211138198604445 0.76291371393905716 0.92051249995838469 0.63212446646352849 0.40154823126090144 0.46988918463024165 0.50500797622924987 0.52812876334764536 0.38152178773728607 0.92028231783930436 0.8973080232732753 0.76243257966865496 0.81064439279379874 0.9016970084255258 0.75937903959735875 0.68967694650573796 0.45525535225555086 0.57170015010358366 0.68870755592826072 0.45423547306509432 0.42873076115171321 0.48964268892896057 0.40719207737940588 0.49047357588310775 0.39611593256854227 0.40629872839430414 0.71766224918035371 0.99610935851488491 0.50970307973549289 0.95592503476284019 0.7690862959771384 0.91021279408347011 0.50122801170679365 0.98179491162856114 0.30419709301611864 0.98573543389613005 0.52722689526979905 0.96263410755449597 0.931185466585701 0.84618313907173182 0.93565881961487307 0.84541410499228198 0.83092126624959672 0.9383370535491905 0.92319182120966736 0.92025220907029504 0.91873061460376404 0.91964340426997071 0.89754727467728046 0.84819247322382352 0.93186230186259111 0.93617301128727848 0.92039216297528614 0.91678487827279798 0.91996455264658694 0.89726212653781134 0.90746743477167713 0.91726342079727163 0.91174934948043362 0.90861326033252365 0.9226243389383868 0.91036585105009593 0.91173378096685553 0.91716636178478028 0.91176236728044913 0.8465376427894461 0.93772577178898109 0.90035713855956978 0.90953283671245466 0.96300560619673514 0.64395644263683094 0.84169771883758715 0.81875239450602355 0.85319261880875585 0.87895003926914295 0.84142691657982283 0.85239286850740426 0.74938694198095857 0.74915945636428727 0.84535351544127446 0.76695644278346975 0.8198384952992549 0.85749915451392311 0.50688801573581244 0.73685062358490683 0.90528375395875393 0.89480682750458651 0.89733069861966164 0.86932382320872426 0.86654182810829794 0.86701421808581725 0.86202806875152682 0.91434544543447493 0.91527110608577544 0.90370084379855109 0.91559632172515693 0.90367912224559632 0.89652654355685291 0.89969755879334767 0.85096803122920728 0.860553548889464 0.91751544304444188 0.91457635473953391 0.91554499722823213 0.88842063897156198 0.85200481825623253 0.91611199363277085 0.89894003217759122 0.85114740729799288 0.92400267768154964 0.91753764390071757 0.90632378170737748 0.89083874364417426 0.899820216863783 0.89668825078180359 0.87577766560599835 0.90680050753803432 0.84374647283999016 0.91348245764014313 0.91636650248228868 0.89595291928599408 0.87775802558175176 0.90281359285678542 0.82928720276888568 0.91983710011362196 0.81855260952494557 0.79839159172896135 0.85502222755229951 0.90621468547160122 0.89079180189057094 0.9121118467844308 0.90682085291822279 0.91263276388343806 0.90164033130620991 0.90082476824327928 0.891837207343816 0.91233864172508639 0.90687431803931984 0.91712354035460997 0.91229168877261269 0.90449624197252854 0.91701861533772633 0.91227070094682328 0.89992210106329029 0.89888419996950697 0.90370386753484488 0.8854642032766632 0.8813031609358567 0.90345731279891395 0.88550554184345576 0.9070297704857101 0.89180861774250064 0.88418242343960252 0.90716656930099315 0.90083808809629928 0.89991055916731277 0.89661415033000713 0.89792976616759224 0.85043797689866774 0.89844554399399323 0.85011462670579163 0.86443995009521701 0.87829576866604819 0.90981138798503214 0.90804951066018413 0.85430266426269386 0.89544795659301335 0.8525432100980922 0.87568314485505316 0.87452530683454011 0.90718663804007882 0.87816708661016063 0.87521700776480049 0.90856065124015406 0.86327953799074086 0.87117269717239654 0.8473037715939542 0.86590016844154727 0.84973347076884786 0.84390424481076476 0.86337938509755963 0.86180792309332477 0.89965509693680434 0.89589454698940485 0.86081925613673738 0.89980090412684999 0.89899232284127573 0.86353186275922311 0.89914977012280428 0.92755202196123299 0.91707940281795297 0.8683111216198226 0.96615753619979416 0.78004462243241102 0.64243818312792411 0.91335434188609266 0.91342613239872672 0.8974376182420073 0.91415316670058566 0.91249914838937041 0.89783248585844566 0.91560574887483592 0.89400910493017882 0.91262701843237071 0.89778168751055698 0.89970744493337718 0.89783707118139067 0.89979700282222252 0.8907766282842382 0.87899179934703808 0.9068272125957938 0.89891468592855817 0.9180453105122337 0.87092698876456009 0.86801036932435038 0.91328402964708166 0.89931367923478323 0.87836269914207621 0.99020899400441376 0.79872290933097412 0.12843271414769264 0.77076797544592002 0.16165413092703029 0.11985189148049599 0.76490026617097584 0.16186469845222223 0.48567459141935237 0.36734913139580028 0.36779650581117912 0.4446467456064857 0.41831875534999918 0.36519783265556383 0.44604470765695203 0.27778379173560103 0.38976557896137898 0.33218991749457666 0.9874574174262819 0.29977184282109465 0.50298851742665196 0.34813092490515485 0.38740416419724838 0.33326870857463575 0.47727914609376054 0.71764077274770799 0.62369635550771196 0.47879339263357695 0.71655171517252125 0.57600985165463414 0.41584102925113864 0.55385497054237409 0.44685656874372454 0.47882819907284158 0.62604116668970466 0.36642420817489263 0.7642072725626855 0.71265766418922039 0.57510199945704343 0.762321617817179 0.5764179290872854 0.80610160797907982 0.68882440812815826 0.55902901508252845 0.82547105840912594 0.68859533463532374 0.81613047614955225 0.85901711600573838 0.78657432889092893 0.84444934874153688 0.87174254407364404 0.67249164054551314 0.86064052549535253 0.7903762759775147 0.84323608756211121 0.91010111776135882 0.86731850076831951 0.85162878023633937 0.92821977344610895 0.78857744595201373 0.9034003146904922 0.93010278013996361 0.95096867619771386 0.91768826682259275 0.8797402507283455 0.79766679311300304 0.90912329697013394 0.87747634181950251 0.93289168252506194 0.96074057151341186 0.9636