<?xml version="1.0"?>
<VTKFile type="UnstructuredGrid" version="0.1" byte_order="LittleEndian">
<UnstructuredGrid>
<Piece NumberOfPoints="2028" NumberOfCells="724">
<Points>
<DataArray type="Float64" NumberOfComponents="3" format="ascii">
0 3.7000000000000002 0 0.56249999999824107 3.9749999999991399 0 0 0.69999999999999996 0 0 1.6319639930219929 0 0.59999999999999998 0.69999999999999996 0 0.59999999999999998 0.69999999999999996 0 0 1.6319639930219929 0 0.94999999999923723 1.2749999999987469 0 1.243750000001385 0.69999999999999996 0 0.59999999999999998 0.69999999999999996 0 0.94999999999923723 1.2749999999987469 0 1.626949751997165 1.3978044304614949 0 1.887500000003292 0.69999999999999996 0 1.243750000001385 0.69999999999999996 0 0.94999999999923723 1.2749999999987469 0 1.626949751997165 1.3978044304614949 0 1.243750000001385 0.69999999999999996 0 0.68142292217753131 2.106313194182027 0 1.299999999998378 1.8499999999973351 0 0.94999999999923723 1.2749999999987469 0 1.299999999998378 1.8499999999973351 0 1.626949751997165 1.3978044304614949 0 0.94999999999923723 1.2749999999987469 0 1.299999999998378 1.8499999999973351 0 1.186467289461244 2.488259157846338 0 1.649999999999066 2.4249999999984651 0 1.299999999998378 1.8499999999973351 0 0.68142292217753131 2.106313194182027 0 1.186467289461244 2.488259157846338 0 0 1.6319639930219929 0 0.68142292217753131 2.106313194182027 0 0.94999999999923723 1.2749999999987469 0 0 2.430303940964651 0 0.68142292217753131 2.106313194182027 0 0 1.6319639930219929 0 0.68142292217753131 2.106313194182027 0 0 2.430303940964651 0 0.70993008501830757 2.9054181396964478 0 0 3.1141786369756268 0 0.70993008501830757 2.9054181396964478 0 0 2.430303940964651 0 0.45714634023723411 3.4614941897304652 0 0.70993008501830757 2.9054181396964478 0 0 3.1141786369756268 0 0 3.7000000000000002 0 0.45714634023723411 3.4614941897304652 0 0 3.1141786369756268 0 0.45714634023723411 3.4614941897304652 0 0 3.7000000000000002 0 0.56249999999824107 3.9749999999991399 0 0.45714634023723411 3.4614941897304652 0 0.56249999999824107 3.9749999999991399 0 1.013301616169622 3.6128741719811099 0 0.70993008501830757 2.9054181396964478 0 0.45714634023723411 3.4614941897304652 0 1.013301616169622 3.6128741719811099 0 1.013301616169622 3.6128741719811099 0 1.451787781083937 3.11022608666643 0 0.70993008501830757 2.9054181396964478 0 1.451787781083937 3.11022608666643 0 1.013301616169622 3.6128741719811099 0 1.593428957229921 3.8897035774451321 0 1.186467289461244 2.488259157846338 0 0.70993008501830757 2.9054181396964478 0 1.451787781083937 3.11022608666643 0 0.70993008501830757 2.9054181396964478 0 1.186467289461244 2.488259157846338 0 0.68142292217753131 2.106313194182027 0 1.649999999999066 2.4249999999984651 0 1.186467289461244 2.488259157846338 0 1.451787781083937 3.11022608666643 0 0.59999999999999998 0.69999999999999996 0 0.94999999999923723 1.2749999999987469 0 2.2687831884271348 2.397628317379688 0 1.649999999999066 2.4249999999984651 0 2 3 0 2.6000000000000818 2.8399999999999781 0 2.2687831884271348 2.397628317379688 0 2 3 0 1.649999999999066 2.4249999999984651 0 1.451787781083937 3.11022608666643 0 2 3 0 1.451787781083937 3.11022608666643 0 2.08333333333292 3.599999999997022 0 2 3 0 1.593428957229921 3.8897035774451321 0 2.08333333333292 3.599999999997022 0 1.451787781083937 3.11022608666643 0 2.4236693135559251 3.5256579194055688 0 2.1666666666662731 4.1999999999971616 0 2.08333333333292 3.599999999997022 0 2.4236693135559251 3.5256579194055688 0 2 3 0 2.6000000000000818 2.8399999999999781 0 2.08333333333292 3.599999999997022 0 2 3 0 2.4236693135559251 3.5256579194055688 0 2.6000000000000818 2.8399999999999781 0 2.9420158813362729 3.5139475164392531 0 2.4236693135559251 3.5256579194055688 0 2.4236693135559251 3.5256579194055688 0 2.9420158813362729 3.5139475164392531 0 2.75 4 0 2.9420158813362729 3.5139475164392531 0 3.412636880282601 3.6134558579332841 0 3.1249999999889848 4 0 3.1249999999889848 4 0 2.75 4 0 2.9420158813362729 3.5139475164392531 0 2.6000000000000818 2.8399999999999781 0 3.2848100522576571 3.06994577157805 0 2.9420158813362729 3.5139475164392531 0 3.2848100522576571 3.06994577157805 0 2.6000000000000818 2.8399999999999781 0 3.2000000000001432 2.679999999999962 0 2.2687831884271348 2.397628317379688 0 2.6000000000000818 2.8399999999999781 0 2.8857059848027808 2.304389417342541 0 2.8857059848027808 2.304389417342541 0 2.6000000000000818 2.8399999999999781 0 3.2000000000001432 2.679999999999962 0 3.5028943452390711 2.1825773809523441 0 3.16379900756549 1.750659825629856 0 2.8857059848027808 2.304389417342541 0 2.8857059848027808 2.304389417342541 0 3.16379900756549 1.750659825629856 0 2.5341028426591712 1.9138806300960609 0 2.5341028426591712 1.9138806300960609 0 3.16379900756549 1.750659825629856 0 2.730231246675086 1.4599417336750831 0 2.730231246675086 1.4599417336750831 0 2.23284951060374 1.369095413116082 0 2.5341028426591712 1.9138806300960609 0 2.5341028426591712 1.9138806300960609 0 2.2687831884271348 2.397628317379688 0 2.8857059848027808 2.304389417342541 0 2.5341028426591712 1.9138806300960609 0 1.942890303101708 1.90249985684108 0 2.2687831884271348 2.397628317379688 0 1.942890303101708 1.90249985684108 0 1.649999999999066 2.4249999999984651 0 2.2687831884271348 2.397628317379688 0 1.649999999999066 2.4249999999984651 0 1.942890303101708 1.90249985684108 0 1.299999999998378 1.8499999999973351 0 1.942890303101708 1.90249985684108 0 1.626949751997165 1.3978044304614949 0 1.299999999998378 1.8499999999973351 0 2.23284951060374 1.369095413116082 0 1.626949751997165 1.3978044304614949 0 1.942890303101708 1.90249985684108 0 2.23284951060374 1.369095413116082 0 1.942890303101708 1.90249985684108 0 2.5341028426591712 1.9138806300960609 0 2.23284951060374 1.369095413116082 0 1.887500000003292 0.69999999999999996 0 1.626949751997165 1.3978044304614949 0 1.887500000003292 0.69999999999999996 0 2.23284951060374 1.369095413116082 0 2.5312500000049418 0.69999999999999996 0 2.5312500000049418 0.69999999999999996 0 2.730231246675086 1.4599417336750831 0 3.047698899035677 1.175177397439602 0 2.23284951060374 1.369095413116082 0 2.730231246675086 1.4599417336750831 0 2.5312500000049418 0.69999999999999996 0 3.047698899035677 1.175177397439602 0 2.730231246675086 1.4599417336750831 0 3.16379900756549 1.750659825629856 0 2.5312500000049418 0.69999999999999996 0 3.047698899035677 1.175177397439602 0 3.1750000000065048 0.69999999999999996 0 0.94999999999923723 1.2749999999987469 0 1.299999999998378 1.8499999999973351 0 3.047698899035677 1.175177397439602 0 3.638214240926366 1.265285427893069 0 3.1750000000065048 0.69999999999999996 0 3.1750000000065048 0.69999999999999996 0 3.638214240926366 1.265285427893069 0 3.8187500000045098 0.69999999999999996 0 0.56249999999824107 3.9749999999991399 0 1.1249999999964171 4.2499999999982494 0 3.8187500000045098 0.69999999999999996 0 3.638214240926366 1.265285427893069 0 4.2198317920941601 1.108273596938623 0 3.638214240926366 1.265285427893069 0 3.047698899035677 1.175177397439602 0 3.16379900756549 1.750659825629856 0 3.638214240926366 1.265285427893069 0 3.16379900756549 1.750659825629856 0 3.757799744899315 1.759341836734688 0 3.757799744899315 1.759341836734688 0 3.16379900756549 1.750659825629856 0 3.5028943452390711 2.1825773809523441 0 4.0559490150232032 2.028653202947901 0 3.5028943452390711 2.1825773809523441 0 3.8000000000002032 2.5199999999999458 0 3.757799744899315 1.759341836734688 0 3.5028943452390711 2.1825773809523441 0 4.0559490150232032 2.028653202947901 0 3.757799744899315 1.759341836734688 0 4.25 1.5 0 3.638214240926366 1.265285427893069 0 4.0559490150232032 2.028653202947901 0 4.6250000000004974 1.8500000000004651 0 4.25 1.5 0 3.757799744899315 1.759341836734688 0 4.0559490150232032 2.028653202947901 0 4.25 1.5 0 4.6250000000004974 1.8500000000004651 0 4.0559490150232032 2.028653202947901 0 4.4000000000001336 2.3599999999999639 0 4.6250000000004974 1.8500000000004651 0 4.4000000000001336 2.3599999999999639 0 5 2.2000000000000002 0 4.7733688274428578 1.2511819424194319 0 4.25 1.5 0 4.6250000000004974 1.8500000000004651 0 4.2198317920941601 1.108273596938623 0 4.25 1.5 0 4.7733688274428578 1.2511819424194319 0 4.25 1.5 0 4.2198317920941601 1.108273596938623 0 3.638214240926366 1.265285427893069 0 3.8187500000045098 0.69999999999999996 0 4.2198317920941601 1.108273596938623 0 4.4625000000026009 0.69999999999999996 0 5.1062500000012143 0.69999999999999996 0 4.4625000000026009 0.69999999999999996 0 4.7733688274428578 1.2511819424194319 0 4.4625000000026009 0.69999999999999996 0 4.2198317920941601 1.108273596938623 0 4.7733688274428578 1.2511819424194319 0 4.7733688274428578 1.2511819424194319 0 5.5000000000008269 1.1999999999983459 0 5.1062500000012143 0.69999999999999996 0 5.5000000000008269 1.1999999999983459 0 4.7733688274428578 1.2511819424194319 0 5.2500000000007052 1.6999999999985891 0 5.1062500000012143 0.69999999999999996 0 5.5000000000008269 1.1999999999983459 0 5.75 0.69999999999999996 0 5.75 0.69999999999999996 0 5.5000000000008269 1.1999999999983459 0 6.1230253171455891 1.2440604005832661 0 6.4375000000000027 0.69999999999999996 0 5.75 0.69999999999999996 0 6.1230253171455891 1.2440604005832661 0 5.8758020027701336 1.829281458631685 0 6.1230253171455891 1.2440604005832661 0 5.5000000000008269 1.1999999999983459 0 6.6325887022434813 1.7109098098422979 0 6.1230253171455891 1.2440604005832661 0 5.8758020027701336 1.829281458631685 0 6.3749999999999796 2.350000000000005 0 6.6325887022434813 1.7109098098422979 0 5.8758020027701336 1.829281458631685 0 6.3749999999999796 2.350000000000005 0 5.8758020027701336 1.829281458631685 0 5.75 2.5 0 5.4251604005540912 2.1458562917259631 0 5.75 2.5 0 5.8758020027701336 1.829281458631685 0 5.4251604005540912 2.1458562917259631 0 5.2500000000007052 1.6999999999985891 0 5 2.2000000000000002 0 5.2499999999996163 2.499999999999539 0 5.4251604005540912 2.1458562917259631 0 5 2.2000000000000002 0 5.875802002770
[...]
<PointData Scalars="A_conc,B_conc,region_id," Vectors="" Tensors="">
<DataArray type="Float64" Name="A_conc" format="ascii">
0.88275306234313122 0.8840334128824634 0.45527046211186495 0.87674557428279398 0.4641552865657248 0.46191579825334839 0.87458343979963193 0.82301410157810895 -0.036291021122240461 -0.059264721483985025 0.24465931977510741 0.40779279911739119 -0.0097943122314912839 -0.043551938237325206 0.24666415517886675 0.40240106034637202 -0.040896451286678327 0.8801511193611552 0.87742475717534019 0.77869749050568549 0.62188293096887093 0.41386291942542558 0.23879496383092735 0.86464778499542105 0.89077289409607974 0.8973997155410981 0.8645662277994306 0.86324486674800027 0.89116804649073811 0.80143841314160269 0.88097415299518689 0.77877665426545084 0.87777050222347952 0.87560634414298499 0.81159864942098259 0.8662316341402132 0.8663077437217549 0.89221165907014166 0.88629713059780479 0.89280695236104035 0.86785660660385655 0.8818461935111892 0.89367125912601819 0.88082960163623525 0.86446385016517235 0.88371316062025151 0.88396974168588927 0.88534164390714876 0.86015237102610664 0.86429654173281245 0.88502734320312482 0.86433572432252004 0.8911257894033644 0.89353809490132263 0.88188472211511093 0.88851284805352637 0.88846975249305393 0.90284422740816184 0.89343315508248178 0.90188217359837619 0.88759752014161186 0.89420027274510194 0.8873016242520404 0.88962280500560165 0.90449876561655085 0.89181887544374361 0.88944282980997214 0.86637484375934282 0.89420516703447095 0.88744012598969957 0.90430390542887429 0.41996864861269528 0.84094332846394459 0.80683776295590093 0.73300379225875378 0.81462124493140597 0.86915528987277746 0.80576820076036837 0.81389346010618346 0.89416163531359505 0.9041691610678797 0.91128203152157117 0.90072462992714808 0.90629959508248148 0.91003887472699474 0.89417914709453494 0.90654948561516957 0.90173636117841593 0.85951463100127512 0.81327434235357732 0.85513429999459067 0.85798037935208626 0.8937840230915558 0.91665566281312172 0.85583748729981646 0.89482989080484632 0.8576772449345027 0.91544854163483214 0.84649933630502272 0.86202028847984513 0.86029989180006639 0.84955164629900848 0.8140993678216899 0.85359759162534021 0.83595507668358704 0.81550391722927429 0.81505491199203051 0.81548758264765753 0.85458864319311267 0.9141160390099301 0.8734577966389705 0.84737444814669782 0.87292169394339614 0.91384242603898391 0.91548692851820823 0.80688574819068537 0.86702026807897503 0.84437568323357559 0.84201482717390497 0.86779059810714487 0.89679262739535071 0.87695584856338704 0.83463757443546893 0.84977238254434884 0.85217866125320396 0.83430367377296899 0.800258981909032 0.86677145244382048 0.90788191928825146 0.64715401254641847 0.63938367616574254 0.49069004735447475 0.88702217648469828 0.79825362477422224 0.81063382468897716 0.85472785469594581 0.81695956789161728 0.77386218500118042 0.79832922687469143 0.77154090092584038 0.74461179055155302 0.80190910477911681 0.76212437842869563 0.77059788358295322 0.65554945406513143 0.76725219887496865 0.41685564555104587 0.61693381511446654 0.49235218261963953 0.41641538934507955 0.76824533269408801 0.48987446439711713 0.76437201435740998 0.88709879750345488 0.47243715868456559 -0.014286788842725554 0.40859739236315001 -0.01461703582214942 0.47653962184559129 0.026272631633631176 0.022648196712061967 0.61288855859204316 0.40328747775415175 0.47422946637507929 0.61227150534777031 0.022512904665972173 0.45216606783526775 0.62677096177411828 0.92120826842475134 0.065130673705050823 0.37749536455128252 0.11043341106541478 0.7721162063076551 0.8806703917067138 0.37481056843017935 0.49446500160132545 0.10872308260352685 0.11051838835895671 0.4954384264511198 0.1602199302043682 0.88401985436212149 0.88528355711746953 0.16027530683380695 0.49238800412766293 0.35309356734251929 0.66793382957141978 0.45287959524296734 0.91981790503457639 0.71542763049742708 0.84185424267860787 0.90090160667876484 0.85895600442310605 0.83677169471813351 0.87506431591752187 0.88167207351011645 0.86952710874593453 0.90710738845852235 0.85017874257763915 0.88283230211543806 0.90228655738830088 0.89941762737758346 0.93972927407067242 0.7157035721913767 0.90477412504476684 0.91724167453714023 0.82884837739957573 0.84361538321372231 0.90625216670577657 0.82811942146799022 0.89777484320397472 0.88510498525302084 0.91194768791785874 0.89772876404138136 0.91154240788361285 0.91852910364865559 0.39893754841398649 1.0094436371583955 0.93925153126959737 0.43142314944942328 1.0166336136975942 0.39862380552018567 1.0201719431413312 0.42694726498567237 0.60104410535481612 0.23856070064152077 0.32311639290429672 0.29539721936611679 0.42133343625060043 0.32245366393118791 0.32715353289199722 0.29605575111743576 0.32137709917788099 0.33733112622262396 0.32448170675122534 0.47059278538562621 0.42245024050943386 0.4461350960805604 0.34617634150700716 0.53227685726452467 0.42057834484481998 0.49278542708827699 0.60171134973698504 0.68585575728159121 0.50682383775389594 0.56361310486150795 0.73859268296391867 0.68250655876054322 0.5633643659148373 0.89834199531245496 0.5337421922531439 0.48817090358054382 0.82640960105534778 0.53600151133174179 0.88942207403734408 0.96190100922945676 0.89575442088365353 0.89161129504142655 0.9623673126284632 0.89042417472910196 0.95941519439891887 0.91118595435101712 0.96058190971147051 0.88955364152479044 0.92124411574238407 0.83170284694551944 0.91088348828680321 0.93959775278278534 0.90988944979574549 0.90083712460663712 0.90158490603308739 0.48094571820043247 0.80195568866490718 0.83118000499381872 0.92138714365414531 0.89255400910912541 0.42991013355973673 0.26976595404020137 0.94951695679506409 0.42119714317886542 0.95431256227308048 0.75137027860140848 0.86494516041192815 0.89725945071871616 0.88526787108378391 0.88640169964961268 0.87615742817628572 0.90352052944242112 0.96763439710459664 0.83791435738620024 0.95124160403254154 0.94829358003996922 0.91143323796957332 0.94721114217336788 0.93814383264018286 0.91125454266412587 0.94844367805056662 0.94582269126632679 0.9383484371477181 0.9432286434015168 0.9612642882496194 0.93666221933075489 0.94794653726408251 0.91017433040438389 0.93860228639576448 0.96142224676887478 0.94657293769139583 0.92607986695729583 0.92872164679360714 0.9245364260580502 0.93044619090011604 0.91206957200118577 0.92484351816844679 0.91195489236969551 0.91033617378432674 0.89528949180548645 0.84410841350858457 0.41731876417065056 0.61224090151610044 0.62919793186775475 0.87635293285613558 0.88940416362779184 0.9139224763409648 0.94064112600219929 0.63640060041163027 0.87285776444555452 0.85693532452975307 0.85151189373890379 0.69126135751435003 0.86256446874779491 0.61523937744434465 0.3881702027010519 0.63335786276585315 0.2676758130411081 0.49043625720564954 0.060015442605103012 0.21395421704387771 0.38780259897422154 0.61014258368362517 0.40557569752463785 0.86400524775073662 0.44473135647216999 0.38807861986675196 0.43531941425631665 0.077377760143928734 0.94169162240471405 0.94256127630702147 0.92222921220069254 0.9177947655978701 0.94190769177319655 0.92224008717315076 0.066038984878354579 0.0078195621917348471 0.24416750171832524 0.92683881062119799 0.88810781292969165 0.92267505808485006 0.83832757198982777 0.93142694729858544 0.87231264648200457 0.93330030851965695 0.83928895559743133 0.86044141235091487 0.83916642860285873 0.93280759739603902 0.93086200315029466 0.91372375276875561 0.93973939689314567 0.87810469783960776 0.94066986468366776 0.92575607455195386 0.92498659689253482 0.92583086076044296 0.9219673468127102 0.92500109984997003 0.89668688762402793 0.82619640064412725 0.86074473573220434 0.9143555087660592 0.91112210891372991 0.93849070172613103 0.9492141579262624 0.79165283477137616 0.95286448952565173 0.85390505678342843 0.90356059027974345 0.90027815750855966 0.91310621652369006 0.88170434232020256 0.90646518213830185 0.90460153256942955 0.85355684106322283 0.84741503249740091 0.8464352059966983 0.87616686941417965 0.90548456674407884 0.86697071515685364 0.89464523968020349 0.90819749728828081 0.84317104211433069 0.89559004415774324 0.86721568495266943 0.87227601698303914 0.91583735168582592 0.91048668754059314 0.87779651299193318 0.83584707449362061 0.85275438385591162 0.87701905338401076 0.84630346088062325 0.83657482152474827 0.87779313198632836 0.94018704325023572 0.8997414419360551 0.87018568009556119 0.90786747541582413 0.83298738976133568 0.90865079601517107 0.84910363213829998 0.83254859870547793 0.83369255181689417 0.84688957327335568 0.80448562355122299 0.89858637581299938 0.90530379943743167 0.88567729487913927 0.88209599196701083 0.89370631068158735 0.88638396332125369 0.88738528776128756 0.89408042201543569 0.91123204698213855 0.46934201541770421 0.44595364764233358 0.5116988865122678 0.89366324336003877 0.89375549315012104 0.885646651411792 0.84060753248444886 0.86828703523939421 0.89421908071523593 0.88902881086491725 0.88119580491403682 0.90225684556897068 0.8836345532324239 0.89208525844388253 0.90007371737977515 0.60588906704185652 0.65655479557174412 0.67710826873439534 0.67506491389343415 0.65657956092194436 0.71255392405976381 0.88127923160692156 0.91870457185803667 0.90201476405306458 0.93295643070159262 0.85691900159745504 0.85432444188419199 0.85539490578441124 0.83716600700806298 0.93113285115413724 0.92941269701205464 0.838419326229769 0.83975160368811452 0.67553082993948832 0.94265329903017614 0.98881538473598163 0.90504297559392199 0.92798498685318265 0.84023022200842545 0.92115433869266006 0.89623349233364791 0.91586531649356406 0.89351855824581738 0.8936327539326967 0.90657057598820423 0.92743616792828376 0.89337769978939163 0.90649478510551984 0.8313875742598168 0.85945353701168303 0.93444930497637757 0.86237186479339212 0.8317668320706797 0.93394201559535706 0.92290146304827092 0.93045546366462706 0.91250725706909652 0.91259283277945735 0.90786360951899114 0.92298210775440348 0.94217707704104114 0.92293391001384739 0.94153967959020501 0.94137507986960067 0.95132324519603917 0.94172922694139471 0.95132387401741603 0.93910001258777431 0.95639174639946445 0.9389802754223745 0.94453476214445842 0.95364101863175221 0.95337220498538744 0.94456941885544388 0.95676675324501048 0.93613102752004118 0.93778272045873345 0.95091474990833658 0.94091802322513429 0.92417871433465593 0.9219131085967438 0.93920792609693804 0.92196265223365459 0.94509645578078016 0.92217166661870231 0.93806634601251526 0.93628652916347754 0.93882129551856985 0.92198598503142415 0.91500063367168538 0.91309388665320923 0.92958255837110104 0.91776996351296469 0.92626869929643529 0.93317441553809244 0.92373377550685287 0.84887366540453679 0.74050762743147835 0.84088459273623117 0.92472167450189624 0.90399944822156608 0.92211540970323713 0.9242443741267764 0.90665280624768141 0.90200603076014363 0.83781478900433137 0.72269222948078959 0.82347443736832937 0.71839731981498556 0.84678040870374705 0.73859143479013345 0.68608376041782504 0.98251193198880105 0.89167335002917714 0.91083947396424947 0.79580514969960992 0.90143406242229951 0.89436819205880447 0.90661652912359025 0.90095558551968535 0.91208347644985366 0.90970734849925172 0.90996193189498664 0.90628282320478826 0.73557453135012707 0.74002626142197736 0.55758236347364265 0.5562378184914184 0.57596586844418041 0.73958492008256183 0.73721958551650846 0.60076410876199982 0.54819326690758419 0.85319092078943914 0.77134423589655143 0.72579203423963468 0.88643374971374922 0.77271169606674717 0.85224168599556871 0.772915101761527 0.84609166786849122 0.85274040975213705 0.75679181307560617 0.87062429791923568 0.73798616692942176 0.7612749420724001 0.74151893860327223 0.60846150068426563 0.73204228380032887 0.77263683083818913 0.6015077860355954 0.88404218416991487 0.67497923207214539 0.88373331980086689 0.69427352465364123 0.80622246880588577 0.87376624429093652 0.66764600255708473 0.89579842518674369 0.69200788205845098 0.6805464276036659 0.90147987733968393 0.8973018441594669 0.67432505012519783 0.90823461059215083 0.70920151976031787 0.53610416775842262 0.67690473372941884 0.70899310840337837 0.38227753250428564 0.32947673282027912 0.40510792867021955 0.35458285301575371 0.41008895744902629 0.31735987582105812 0.48353485753264314 0.37823076009903644 0.6124806462664395 0.87918263767683635 0.70080249556036933 0.90965632488326531 0.88444307272240852 0.76440481673114091 0.69746564947655687 0.53694497469003122 0.90709191945976764 0.69954635467022142 0.91396441047824717 0.52958324528227718 0.7314072599409619 0.81705976564618121 0.83748379015483909 0.85646276700002177 0.75374694394033237 0.75937441749031642 0.89559633885435541 0.61647443304246663 0.68823233505967285 0.97326209943797337 0.69163296637472838 0.93972132508047346 0.95970405472557829 0.90443764171055674 0.90688816781249537 0.91603522558897132 0.7301286356292831 0.62060695334711313 0.69232565187282802 0.91757818307910943 0.90812588318552989 0.88873287286160318 0.89979500667178058 0.90718141570744293 0.90974847476662335 0.92672698729810787 0.80465146505519025 0.90790281861104594 0.98761532263571572 0.43125467570605119 0.66301772571461559 0.89471065998278509 0.7199676984696658 0.95331602493903711 0.41016564437380076 0.31383480524877089 0.31694325657126843 0.9048134061498484 0.9092592975599717 0.42470932764407965 0.96306663936379666 0.20798619332035703 0.84702198763169567 0.84048892440279555 0.90231512196238839 0.90585694091097979 0.97466574333420208 0.94380885143732829 0.4530066427493053 0.58214842261858224 0.88227636196899439 0.95086963081567599 0.8842225448605161 0.81514566746084072 0.93193828169419535 0.89676914856024204 0.89878183847117343 0.91238949113525791 0.89466117155441538 0.89856943749587681 0.90545220712464203 0.90895377226779039 0.8802578814760722 0.89326844586653176 0.88067756320775692 0.90846825806989628 0.90728248495017449 0.81735194874902883 0.92425842519293311 0.92979403156599527 0.79525659156625728 0.81394312229264476 0.93271903788712818 0.92340031376852016 0.92903473884135046 0.81493329458135455 0.88849666822808582 0.90293908693556313 0.9018089022593806 0.88368994287989511 0.8721221170075284 0.89187116841811087 0.88848230271143402 0.87937745620956764 0.90342136761193459 0.88612025898735658 0.83749546460491364 0.82777834343684265 0.90641101029233528 0.82894636666192822 0.87386567209888555 0.88515158261923943 0.82788476944425871 0.90719123364975796 0.88170479368880839 0.88340955553970246 0.89401097337252067 0.81834174173371388 0.71673755748975443 0.78512506231114942 0.41753980771438004 0.67570453678554865 0.8215085745011359 0.8135412376505966 0.78384358721452196 0.82880246992120032 0.81308992962312765 0.82771899801419202 0.86175055219928509 0.8312588574474451 0.78362286658499725 0.75722699488157752 0.90112855780476875 0.87473183653612518 0.89357010491043187 0.90677841596655617 0.89193469293160088 0.9009874369773675 0.89500815609014428 0.87612345815504233 0.90132997534482762 0.90631607835454764 0.81422897430468422 0.90266817439028235 0.85658308360110524 0.8782207915263458 0.88778178873050606 0.87936391805508951 0.85352728511215259 0.89217410615177883 0.70005680085875421 0.69945814511013027 0.90586711842776557 0.91363792259147469 0.91347415845813718 0.91196349539441235 0.89270595945367559 0.85341232050537985 0.85164654580870303 0.89614284496904184 0.85621060750763323 0.8939794075192421 0.85016788694342638 0.84642278072362265 0.90907644513655772 0.91267510160825915 0.82720209163644243 0.88042644575991769 0.82381352920134343 0.88178356892199228 0.88355924312101097 0.8212886591080063 0.89547254768784135 0.86690336317383709 0.87606985521100111 0.89523295747893494 0.89105915572936512 0.86863032461415368 0.89144250492546184 0.86359736580795843 0.86856350542509564 0.88431808633685594 0.84000829430586066 0.82084278891370133 0.88479732356472751 0.88491573210696317 0.83911076115262784 0.88077025873839743 0.83592341103963064 0.88574834074799114 0.88564915948625567 0.83707545207452627 0.83891503421515512 0.83976075696271346 0.82128782863770522 0.81418985019111467 0.85213509584802172 0.89471264610765733 0.85604903840999924 0.8181180294202709 0.84658212057140192 0.83741192042372781 0.89251815281310709 0.8569013129414742 0.88242954123626449 0.88102267508049015 0.88355245961134721 0.87202542797109717 0.89960268668665178 0.88099891682312925 0.90166350254260819 0.8997977317593161 0.88341204830436348 0.8809309372626497 0.90596098726596996 0.84092801468506662 0.915075056023543 0.88046473003216474 0.90087259899739591 0.90063609947843437 0.95411338625862141 0.73787911223399127 0.58088815504670399 0.90729769569029017 0.84494839731816018 0.84053080210602782 0.90110953450194353 0.88340219155552335 0.85461886079744787 0.91479052809192685 0.9134460725571989 0.69811104968091531 0.71931952180169245 0.72398692513864815 0.025173750174144825 0.060956407266869961 0.92226979439054468 0.77779607215237712 0.85456328199113785 0.85069875647503912 0.030987071322966186 0.75649760463413684 0.96960062086400478 0.059416230699136138 0.41395660962878711 0.72069894825916669 0.31232009652084403 0.18210901380381889 0.22909282554791091 0.25729551666614747 0.31104149164252237 0.22966854875109097 0.20521466509367198 0.96654088664469562 0.43223085847386783 0.33651628781670073 0.33163750931150637 0.27621776976217227 0.33500448497989693 0.27817570312014755 0.26517382213325635 0.91258218235800348 0.9157638311490488 0.72752468039293317 0.69152213019760589 0.66631386493474742 0.70380061416670603 0.91344294547771032 0.91575797069372389 0.91792748529341528 0.89206683807193021 0.88110372668999226 0.89369839333183732 0.37511903541438052 0.61348886374039413 0.8617088221441328 0.87408811463079816 0.94169292367169655 0.94525032893759697 0.91608632847860028 0.91477907254498325 0.63474519203181301 0.95208013147730675 0.89767556742016941 0.92821083585384734 0.91734129528820951 0.91607486253973036 0.94491994975661919 0.94679597468703292 0.29582257570936227 0.45232312330321944 0.89173440764866907 0.9234548838011889 0.87546388123992114 0.89063222667861652 0.92042329682228752 0.8222664587057863 0.91761950690995187 0.92535891853227226 0.94678602393989553 0.9476825471140764 0.82098946978934106 0.83184262408380416 0.91885130423160899 0.90028153497882124 0.89929331417690828 0.77465818506822648 0.92728086368748275 0.88735834018557791 0.94099028461034417 0.92302428487551347 0.53333884091561101 0.62465389876343769 0.96145191530945606 0.76600045818373219 0.94374933458710253 0.94496552290965896 0.89071513399464508 0.90074150256909369 0.45174006761410601 0.52912189170306756 0.83298433646775871 0.84324821986304521 0.94595197929476016 0.93930301499545932 0.95763948818427025 0.9601011903009522 0.94484638061439274 0.94552614667337154 0.95111758937573865 0.93954052464099747 0.60059745198937697 0.49313386148090066 0.95570591251916803 0.95680467793738766 0.90050166868513348 0.90728176249804648 0.85899822946658699 0.86290724457240853 0.95668178269718485 0.95059860942168029 0.84320113046297995 0.84994119022058734 0.95677515556202508 0.95779159396605795 0.86311125279504619 0.86788853556768031 0.96001085500724692 0.9614098554628131 0.90690295952012667 0.91122955392987315 0.37167656615864336 0.52218731076020375 0.26260879146425586 0.32971178693394748 0.33698806333821918 0.45355631164669685 0.36936173765482849 0.6260038930573677 0.52276440580668493 0.36877379428378876 0.47191889950172133 0.62683833091966412 0.95636008459883981 0.95993532065128295 0.47023402730677055 0.68682512912544302 0.62521365972556509 0.68563365631547457 0.47008901781239248 0.73840345131774654 0.59775817040894819 0.8164368595373207 0.75858672862693677 0.59838568615328758 0.76542119262902031 0.44802048124164479 0.80141483425364368 0.84011622045578582 0.72138457886872998 0.83482817422228117 0.80001079530869579 0.89796789632954988 0.95979828460732741 0.96241243833534484 0.95777071298781391 0.95860765019610683 0.87129320876354532 0.91859830717048307 0.85013503328848061 0.87964902787062116 0.92524332177879764 0.92404547546849414 0.96136644327010989 0.9623964146003533 0.81011137399600541 0.72468317222795975 0.921