<?xml version="1.0"?>
<VTKFile type="UnstructuredGrid" version="0.1" byte_order="LittleEndian">
<UnstructuredGrid>
<Piece NumberOfPoints="2028" NumberOfCells="724">
<Points>
<DataArray type="Float64" NumberOfComponents="3" format="ascii">
0 0.69999999999999996 0 0.59999999999999998 0.69999999999999996 0 0 1.6319639930219929 0 0.59999999999999998 0.69999999999999996 0 0 1.6319639930219929 0 0.94999999999923723 1.2749999999987469 0 0.59999999999999998 0.69999999999999996 0 0.94999999999923723 1.2749999999987469 0 0 1.6319639930219929 0 0.68142292217753131 2.106313194182027 0 0.94999999999923723 1.2749999999987469 0 0 1.6319639930219929 0 0.68142292217753131 2.106313194182027 0 0 2.430303940964651 0 1.299999999998378 1.8499999999973351 0 0.94999999999923723 1.2749999999987469 0 0.68142292217753131 2.106313194182027 0 1.299999999998378 1.8499999999973351 0 0.94999999999923723 1.2749999999987469 0 0.68142292217753131 2.106313194182027 0 1.299999999998378 1.8499999999973351 0 1.186467289461244 2.488259157846338 0 1.299999999998378 1.8499999999973351 0 1.649999999999066 2.4249999999984651 0 1.299999999998378 1.8499999999973351 0 1.186467289461244 2.488259157846338 0 1.649999999999066 2.4249999999984651 0 1.299999999998378 1.8499999999973351 0 0.94999999999923723 1.2749999999987469 0 1.626949751997165 1.3978044304614949 0 1.243750000001385 0.69999999999999996 0 0.94999999999923723 1.2749999999987469 0 1.626949751997165 1.3978044304614949 0 1.243750000001385 0.69999999999999996 0 1.887500000003292 0.69999999999999996 0 1.626949751997165 1.3978044304614949 0 0.59999999999999998 0.69999999999999996 0 1.243750000001385 0.69999999999999996 0 0.94999999999923723 1.2749999999987469 0 0.45714634023723411 3.4614941897304652 0 1.013301616169622 3.6128741719811099 0 0.56249999999824107 3.9749999999991399 0 0 3.7000000000000002 0 0.56249999999824107 3.9749999999991399 0 0 3.7000000000000002 0 0.45714634023723411 3.4614941897304652 0 0.56249999999824107 3.9749999999991399 0 0 3.1141786369756268 0 0.45714634023723411 3.4614941897304652 0 0.70993008501830757 2.9054181396964478 0 0 3.7000000000000002 0 0 3.1141786369756268 0 0.45714634023723411 3.4614941897304652 0 0.45714634023723411 3.4614941897304652 0 0.70993008501830757 2.9054181396964478 0 1.013301616169622 3.6128741719811099 0 0.68142292217753131 2.106313194182027 0 0.70993008501830757 2.9054181396964478 0 0 2.430303940964651 0 0 3.1141786369756268 0 0.70993008501830757 2.9054181396964478 0 0 2.430303940964651 0 0.68142292217753131 2.106313194182027 0 0.70993008501830757 2.9054181396964478 0 1.186467289461244 2.488259157846338 0 1.186467289461244 2.488259157846338 0 1.451787781083937 3.11022608666643 0 1.649999999999066 2.4249999999984651 0 0.70993008501830757 2.9054181396964478 0 1.186467289461244 2.488259157846338 0 1.451787781083937 3.11022608666643 0 0.70993008501830757 2.9054181396964478 0 1.451787781083937 3.11022608666643 0 1.013301616169622 3.6128741719811099 0 1.451787781083937 3.11022608666643 0 1.013301616169622 3.6128741719811099 0 1.593428957229921 3.8897035774451321 0 2.08333333333292 3.599999999997022 0 2.4236693135559251 3.5256579194055688 0 2.1666666666662731 4.1999999999971616 0 1.451787781083937 3.11022608666643 0 2.08333333333292 3.599999999997022 0 1.593428957229921 3.8897035774451321 0 1.451787781083937 3.11022608666643 0 2.08333333333292 3.599999999997022 0 2 3 0 2 3 0 2.6000000000000818 2.8399999999999781 0 2.4236693135559251 3.5256579194055688 0 2.08333333333292 3.599999999997022 0 2 3 0 2.08333333333292 3.599999999997022 0 2 3 0 2.4236693135559251 3.5256579194055688 0 2 3 0 2.2687831884271348 2.397628317379688 0 2.6000000000000818 2.8399999999999781 0 2 3 0 2.6000000000000818 2.8399999999999781 0 2 3 0 1.649999999999066 2.4249999999984651 0 1.451787781083937 3.11022608666643 0 2 3 0 1.649999999999066 2.4249999999984651 0 2 3 0 1.649999999999066 2.4249999999984651 0 2.2687831884271348 2.397628317379688 0 2.2687831884271348 2.397628317379688 0 2.8857059848027808 2.304389417342541 0 2.6000000000000818 2.8399999999999781 0 2.8857059848027808 2.304389417342541 0 2.6000000000000818 2.8399999999999781 0 3.2000000000001432 2.679999999999962 0 2.6000000000000818 2.8399999999999781 0 3.2000000000001432 2.679999999999962 0 3.2848100522576571 3.06994577157805 0 2.6000000000000818 2.8399999999999781 0 3.2000000000001432 2.679999999999962 0 2.6000000000000818 2.8399999999999781 0 2.9420158813362729 3.5139475164392531 0 2.4236693135559251 3.5256579194055688 0 2.6000000000000818 2.8399999999999781 0 2.9420158813362729 3.5139475164392531 0 3.2848100522576571 3.06994577157805 0 2.9420158813362729 3.5139475164392531 0 3.412636880282601 3.6134558579332841 0 3.1249999999889848 4 0 2.9420158813362729 3.5139475164392531 0 2.75 4 0 3.1249999999889848 4 0 2.9420158813362729 3.5139475164392531 0 2.4236693135559251 3.5256579194055688 0 2.75 4 0 2.23284951060374 1.369095413116082 0 1.887500000003292 0.69999999999999996 0 2.5312500000049418 0.69999999999999996 0 2.23284951060374 1.369095413116082 0 1.887500000003292 0.69999999999999996 0 1.626949751997165 1.3978044304614949 0 1.299999999998378 1.8499999999973351 0 1.626949751997165 1.3978044304614949 0 1.942890303101708 1.90249985684108 0 2.23284951060374 1.369095413116082 0 1.626949751997165 1.3978044304614949 0 1.942890303101708 1.90249985684108 0 1.649999999999066 2.4249999999984651 0 2.2687831884271348 2.397628317379688 0 1.942890303101708 1.90249985684108 0 1.299999999998378 1.8499999999973351 0 1.649999999999066 2.4249999999984651 0 1.942890303101708 1.90249985684108 0 2.2687831884271348 2.397628317379688 0 1.942890303101708 1.90249985684108 0 2.5341028426591712 1.9138806300960609 0 2.23284951060374 1.369095413116082 0 1.942890303101708 1.90249985684108 0 2.5341028426591712 1.9138806300960609 0 2.23284951060374 1.369095413116082 0 2.5341028426591712 1.9138806300960609 0 2.730231246675086 1.4599417336750831 0 2.2687831884271348 2.397628317379688 0 2.8857059848027808 2.304389417342541 0 2.5341028426591712 1.9138806300960609 0 2.8857059848027808 2.304389417342541 0 3.16379900756549 1.750659825629856 0 3.5028943452390711 2.1825773809523441 0 2.8857059848027808 2.304389417342541 0 2.5341028426591712 1.9138806300960609 0 3.16379900756549 1.750659825629856 0 2.5341028426591712 1.9138806300960609 0 3.16379900756549 1.750659825629856 0 2.730231246675086 1.4599417336750831 0 3.16379900756549 1.750659825629856 0 3.047698899035677 1.175177397439602 0 2.730231246675086 1.4599417336750831 0 3.047698899035677 1.175177397439602 0 2.730231246675086 1.4599417336750831 0 2.5312500000049418 0.69999999999999996 0 2.23284951060374 1.369095413116082 0 2.730231246675086 1.4599417336750831 0 2.5312500000049418 0.69999999999999996 0 3.047698899035677 1.175177397439602 0 2.5312500000049418 0.69999999999999996 0 3.1750000000065048 0.69999999999999996 0 3.047698899035677 1.175177397439602 0 3.1750000000065048 0.69999999999999996 0 3.638214240926366 1.265285427893069 0 3.1750000000065048 0.69999999999999996 0 3.638214240926366 1.265285427893069 0 3.8187500000045098 0.69999999999999996 0 3.16379900756549 1.750659825629856 0 3.047698899035677 1.175177397439602 0 3.638214240926366 1.265285427893069 0 3.638214240926366 1.265285427893069 0 3.8187500000045098 0.69999999999999996 0 4.2198317920941601 1.108273596938623 0 3.8187500000045098 0.69999999999999996 0 4.2198317920941601 1.108273596938623 0 4.4625000000026009 0.69999999999999996 0 3.638214240926366 1.265285427893069 0 4.2198317920941601 1.108273596938623 0 4.25 1.5 0 4.2198317920941601 1.108273596938623 0 4.7733688274428578 1.2511819424194319 0 4.25 1.5 0 4.2198317920941601 1.108273596938623 0 4.7733688274428578 1.2511819424194319 0 4.4625000000026009 0.69999999999999996 0 4.7733688274428578 1.2511819424194319 0 4.4625000000026009 0.69999999999999996 0 5.1062500000012143 0.69999999999999996 0 4.4000000000001336 2.3599999999999639 0 5 2.2000000000000002 0 4.6250000000004974 1.8500000000004651 0 4.4000000000001336 2.3599999999999639 0 5 2.2000000000000002 0 4.7733688274428578 1.2511819424194319 0 4.6250000000004974 1.8500000000004651 0 4.25 1.5 0 4.6250000000004974 1.8500000000004651 0 4.25 1.5 0 4.6250000000004974 1.8500000000004651 0 4.25 1.5 0 4.0559490150232032 2.028653202947901 0 4.25 1.5 0 4.0559490150232032 2.028653202947901 0 3.757799744899315 1.759341836734688 0 4.6250000000004974 1.8500000000004651 0 4.0559490150232032 2.028653202947901 0 4.4000000000001336 2.3599999999999639 0 4.0559490150232032 2.028653202947901 0 3.757799744899315 1.759341836734688 0 3.5028943452390711 2.1825773809523441 0 4.0559490150232032 2.028653202947901 0 3.5028943452390711 2.1825773809523441 0 3.8000000000002032 2.5199999999999458 0 3.638214240926366 1.265285427893069 0 4.25 1.5 0 3.757799744899315 1.759341836734688 0 3.16379900756549 1.750659825629856 0 3.638214240926366 1.265285427893069 0 3.757799744899315 1.759341836734688 0 3.16379900756549 1.750659825629856 0 3.757799744899315 1.759341836734688 0 3.5028943452390711 2.1825773809523441 0 2.8857059848027808 2.304389417342541 0 3.5028943452390711 2.1825773809523441 0 3.2000000000001432 2.679999999999962 0 3.2000000000001432 2.679999999999962 0 3.8000000000002032 2.5199999999999458 0 3.5028943452390711 2.1825773809523441 0 3.2000000000001432 2.679999999999962 0 3.8000000000002032 2.5199999999999458 0 3.2000000000001432 2.679999999999962 0 3.2848100522576571 3.06994577157805 0 3.8000000000002032 2.5199999999999458 0 3.2848100522576571 3.06994577157805 0 3.8000000000002032 2.5199999999999458 0 3.8190056356267248 3.2454749759848052 0 3.412636880282601 3.6134558579332841 0 3.5 4 0 3.1249999999889848 4 0 3.2848100522576571 3.06994577157805 0 3.412636880282601 3.6134558579332841 0 3.8190056356267248 3.2454749759848052 0 2.9420158813362729 3.5139475164392531 0 3.2848100522576571 3.06994577157805 0 3.412636880282601 3.6134558579332841 0 3.412636880282601 3.6134558579332841 0 3.874999999992375 3.7500000000050839 0 3.5 4 0 3.412636880282601 3.6134558579332841 0 3.819005635626
[...]
<PointData Scalars="A_conc,B_conc,region_id," Vectors="" Tensors="">
<DataArray type="Float64" Name="A_conc" format="ascii">
0.015289076931000265 0.020989046091479439 0.072560389498488781 0.019486258883725321 0.073317925647646193 0.0772318663554874 0.013342059680442983 0.07927846421832499 0.062590206983350938 0.10107646389105444 0.075946596789223636 0.065477187035304543 0.099987837037739988 0.08508694949279727 0.11800658090214598 0.072741580572130038 0.1018490302905852 0.11703231549976384 0.074929762317953133 0.096330932041188186 0.11720793728228301 0.13243473847210535 0.11562605982140355 0.15786404872339013 0.1164941279110718 0.13255722728149025 0.15699007410848762 0.0022832915031282463 0.00028808938505657961 0.0016466102846807718 -0.00059276655219231346 0.00056055881323984998 0.0014800352969893227 -0.00076697587512461723 -0.00091466405383162875 0.0016816399289562461 -0.00021427751106958633 -0.00036812628994795549 0.0005824038010175419 0.086293064169131392 0.1015556814173828 0.059688192422845496 0.12935493206894458 0.13387021858307666 0.052237064129498301 0.085922496107190507 0.06064685939809461 0.082278210731929549 0.084037665375947437 0.11672499138624355 0.055557209223611854 0.085494779856977343 0.08485708625246588 0.083188386107946918 0.11772279068222288 0.10173389662462785 0.10028890171920116 0.11383342382919399 0.080936090707021291 0.088133929009588149 0.11364719196790135 0.083387112253322834 0.09973533390191601 0.11413088628374318 0.13082054176326535 0.12902670474948838 0.15470703493115814 0.15803692624789201 0.11135522578190056 0.12978511736192405 0.15390528411386328 0.11770269553141655 0.14831040012629479 0.10090269758020752 0.14803785652937862 0.098740977343235892 0.12320035120302478 0.043866529363606563 0.050895299629003299 0.018691891847953994 0.14859163673119208 0.17495856747906888 0.12216189370279221 0.1437524906978383 0.17638158456541833 0.1944063393745174 0.10015315057574939 0.15849162636601427 0.050435986142830819 0.17614852828376876 0.19547087044123262 0.044621644034347104 0.097711322985814572 0.053428898503976287 0.021535979142307215 0.010275966546233235 0.05336081437211336 0.19458085597037481 0.20625423623437245 0.1957099081156406 0.15617655638102274 0.15420483519227401 0.19446891416413248 0.15769767387031652 0.018336027435995335 0.002686484598591186 0.011558588775307431 0.0073425977370536726 0.027563264096595239 0.057180696345595111 0.025100369803956381 0.062307516943320054 0.10992078135163204 0.19141492403755983 0.20406179406967959 0.063234999594333791 0.20587987088510654 0.21645709153750819 0.16606891081452591 0.030192212645268182 0.058949893624333338 0.17545056135499992 0.023503229592815526 0.070834217174860867 0.055314211693705845 0.038154412542939595 0.02437386142823332 0.053552500103078195 0.027283048176322589 0.025578356857409647 0.03880481965314736 0.049433333475834278 0.022201684121801853 0.0035175044566883701 -0.0015143227451601996 -0.0017311619852193325 0.0031547643252460853 -0.001144743038272741 0.0019487360096438748 0.0024432982948950238 0.0017239927489685516 0.0055277130484511546 0.0039593234043661992 0.001450580108703856 0.0058890375272464685 0.0068112883592783844 0.014317184443223866 0.005278700557327232 0.0017805417268949375 0.006325654655123877 0.0053130713709687149 0.015149970006658292 0.0046244976940496363 0.012107830575732902 0.0038973561992461884 0.00609931336678032 0.011914945117710289 0.0033494875234378542 0.012552728562231016 0.0092513804150830097 0.015915712119074971 0.030757576553705274 0.012111665315555662 0.033345274610619195 0.020608583066545328 0.05585985111078523 0.032360761069986727 0.010906377888418027 0.021261327318047869 0.012382934155672631 0.021387669688222727 0.0098081898933016082 0.022688158540165183 0.0061498937038578358 0.0088536237416263954 0.0040763995190479397 0.007856441904871626 -0.0028095156298134621 0.0040018810179598303 0.0073350813692892401 -0.0021739537051738951 0.0031480696713331539 -0.0014276547819946463 -0.0017204148893385073 0.0034344623531901469 -0.0022066969733812274 0.0067842191706753846 -0.0027025320082878926 0.0073572399547842627 -0.0028156181920209675 0.0234119871073185 0.0054033369412573671 0.021834215924948872 0.0082867358603712794 -0.0033929958219301006 0.0020537733172044143 -0.0002953623797241167 0.00090374832886135591 -0.00028925302096742539 0.014302354709904555 0.0040055867470018738 0.070213672460718579 0.0011891803316486757 0.0018383703249966275 0.075077226149489182 0.0010100127922396942 0.00057750381490409173 -0.00036045760494340815 0.00028364319363144587 2.9511871058441362e-05 0.00014803700827990932 0.23637710159462447 0.24724438168636745 0.12486957263365281 0.20133147466510062 0.24218953198744009 -0.0020954471922041912 0.12153703844053006 0.078130546381335625 0.14939783669432691 0.013637922482320066 0.13975717993757397 0.028185160463783325 0.10138724624739051 0.031769748501867284 0.098944636464922367 0.039242734106410583 0.1279589974747751 0.082446876212599107 0.1964475000825934 0.091247113117627107 0.0468387478949151 0.057800442628262623 0.074150165510868768 0.049510044046661726 0.16669755708731737 0.026244306752352956 0.052482468417057428 0.033918323117157104 0.019085460943068924 0.026665248400383011 0.033459363228468327 0.018090012077195662 0.044745420837271524 0.058544822872916118 0.019460945518764483 0.050604876885780553 0.11635079857632089 0.21608353323118343 0.22647693230523869 0.046918917485980906 0.12230428546733187 0.16326469492048673 0.20482820769128768 0.064109674904327327 0.1913355678298633 0.095019176160314078 0.16544891877401058 0.038739006983311008 0.031294186541754768 0.034777940215167051 0.019345677876571456 0.093488135291279473 0.034779400704341122 0.04182476055702445 0.056138893220644484 0.090229725701318375 0.037140271165088841 0.029025556124487307 0.0858683281895634 0.037820231429619613 0.027439689967661791 0.05998380289702207 0.087613539571739535 0.064420989813589805 0.085412875174093253 0.14991502400673196 0.074855821424670219 0.066009012948911788 0.13663887856097559 0.14440359515665727 0.048518426115282301 0.063807105090836314 0.13614589333345881 0.050574963386045314 0.079833066103708772 0.11019634961412005 0.062481711198477508 0.15155852478960424 0.11891435728890472 0.15160362407334765 0.13315958172693534 0.19410006002390651 0.13105814229218418 0.15200693723686309 0.13416352305067528 0.14417348101705779 0.173279312092499 0.10286012767043136 0.14543683643061533 0.088350484698131962 0.04748625028239023 0.22610680068713235 0.23676081247460926 0.17840409305250485 0.029539544212145039 0.172318009693779 0.069627015738281617 0.17232467234391274 0.19838411056852434 0.17263141841005364 0.033588250284025817 0.035192850440607194 0.046333013857923634 0.034527052186394701 0.16464086450175619 0.11326125647543717 0.12077607947256619 0.19182765730614801 -0.0092138801486958341 0.23440670511056155 0.23296144156878781 -0.0239401217396722 0.24017928788073753 -0.016848863156702074 0.23887914228346815 0.23210354309768527 0.27949352346526196 0.26817002648465377 0.11472318344577782 0.25242941142478814 0.24288744952263422 0.11770722102509115 0.19326368740772606 0.24176166622749193 0.28934725227053482 0.2302293161735311 0.28773625204033382 0.25886955579273474 0.21867649896872987 0.12806231705193091 0.22112621069570376 0.079928061213088542 0.18223888580024378 0.078532697613207372 0.23159866012927041 0.28864192720731063 0.27896588233435993 -0.00011543285691446665 0.00012556399104663254 -1.013113413216589e-05 0.17528446671997303 0.10003838351792475 0.13572353876801396 0.17283405270982707 0.19881524241375301 0.17173548837460945 0.19926137275768854 0.23333167151509202 0.17026339247399164 0.23315174065041094 0.00054023321218916456 -0.0010563545161484079 0.00051612130395924322 0.0096662285870936504 -0.0025299646406845987 0.00058794704755236755 0.0011213687795827666 -1.5710275478808083e-05 -0.00012312822634621056 -0.00021156632724465726 0.00012066919160298061 0.00022387193748824906 0.0016456990383041398 0.00032337199326987307 -0.0002568643523728492 0.36207824101285541 0.31144565523271678 0.015472062506088465 -0.0071447292137822669 0.018082007759430592 0.0019830210901945304 0.017891622467960739 -5.790841119396469e-05 0.032063870464193199 0.04329806410131401 0.04955720855016197 0.046580612238716443 0.087727879626572608 0.024376658484558049 0.028841143223093318 -0.0045120408156678147 0.36080405000871341 0.41558092818194697 0.02210246066180694 0.0027776805892034944 0.071281028961364207 0.31888721996554226 0.3313173344029619 0.051784931344984374 0.041410815122848096 0.0855082175412097 0.026884566971948427 0.031092181220545283 0.039407894954603208 0.08710782877132299 0.090382160331715325 0.090819457945942261 0.17024395979161372 0.093542500583750562 0.33077537127385775 0.34729360694663125 0.25811607809473075 0.010799473620789516 -0.003261986467723747 0.23752048834676068 0.25719485487484572 7.5499264146688602e-05 0.23012280441682192 0.010007903028734909 0.075450048657816543 0.014650253839477583 0.0060674320462608617 0.028507862986103381 -0.002517163973918584 0.0033011402439817278 0.0044199772655001404 0.0015682981879047578 -0.00020160142842214659 -0.0018005763070792265 0.0030840469813084252 -0.0012834706742291988 0.014238514800543133 0.00658401259423634 0.003238916895929693 0.00019844631648244167 0.0027779795555783826 0.0012974994581742029 1.8560826443704933e-05 0.00042758679307519735 0.00031033017793137422 0.00023996237737276092 0.00014356413319466759 0.00042773421601022851 0.00045688171598012276 0.0023016306035038947 -0.039349296306770865 0.11529511340435214 -0.031644734896987756 0.010413409841327628 -0.00045702087369879944 0.13865835408909563 0.24831173744286436 0.15556617514823431 0.10368331201861074 -0.053428617534140681 0.0574773184310403 0.06611019417754907 -0.0047631803602194919 0.12633786341887537 0.055142668529090791 0.082725548917249841 0.013636620269616848 0.0037568123197038155 0.0081013566610634823 0.014573005273167928 0.067315614562255099 -0.0066359038119492026 0.0043144122008383287 0.00058337067644586584 0.00050097561734087142 0.0048390289112691838 0.0052069777344659019 0.00022859139845572484 0.0047534018270370491 0.00060279646432229096 0.001351081023925095 0.030061302586599593 0.00077253431058382804 0.0050498405755395846 0.0012392008827796536 0.0045958711100831679 -0.00066243612193187668 0.0037066011471058287 0.031336885967418487 -0.0079214344899606864 0.051487020990113187 0.057182660032414005 0.034246133155767272 -0.002481396546054167 0.034417136127936024 0.057055118703891509 0.063025791415742716 0.03591697420959223 0.030379978173064613 -0.012055470385139475 0.026525784636881718 -0.0063016165475044189 -0.0012938029083312305 0.062842797143042375 0.070503187257553612 0.0049878156178030748 0.0036068275271004908 0.019235368796537502 0.0048564662807097057 0.00012871778309201602 0.0048898049556887219 0.00072663031001204753 0.0046846864450747639 0.0036505552388160375 0.0049370636089702807 0.0058774835341578865 0.022132609484989491 0.0035899542424463644 0.022120312649633739 0.026295247900516665 0.004071424605477718 0.022743131661055096 0.02524923541117623 0.084630437090709124 0.086382460583231735 0.12717569270086743 0.065358747758113678 0.098852679231726442 0.065621044748822507 0.024228972373131832 0.026686760032971008 0.14336077568730915 0.08033348919869783 0.13040895066678107 0.082523695641239597 0.12590734510518542 0.058742994279122086 0.31732672885342539 0.35662181897721024 0.20084394601148856 0.30820958859116199 0.20656062790828328 0.16900956431685452 0.14487997251338827 0.21605062877099518 0.13019774951864976 0.44919914753078494 0.42237564321178633 0.19998353373058408 0.080788474866694299 0.16854672799445081 0.084477611299745334 0.16525087406249525 0.10773373308841597 0.34286957357379216 0.15423956007068806 0.31120392278590953 0.16784426259693541 0.30839641732867229 0.27261320924164623 0.17198201945702596 0.26063482199684324 0.10394742633810716 0.31258668266434031 0.2653305338205173 0.2439444330830573 0.12553570339973577 0.18762827965260756 0.12845017252546653 0.11296402226194731 0.1858271404243993 0.24680017311652175 0.1845819065595406 0.1534486708820644 0.038760268721493608 0.23342130676047124 0.024039093562450146 0.099349133440729528 0.027750819970189741 0.025557163620099143 0.0040021809043835673 0.024678722987715267 0.024494505964949242 0.42317957978845988 0.39167099257329469 0.085376278686881094 0.10557512534891939 0.052134596631206231 0.022196090920111555 0.044995844443700729 0.11717040513383249 0.041382428808819767 0.11055190788172602 0.022109437857708209 -8.1123267170446684e-05 0.038962118549672284 0.0055996384793031958 0.0053185137042431772 0.022053887102236779 -0.10443223107823235 0.16409386291822417 0.33458881310462663 0.36369217091253725 0.35087527567606525 -0.068989400121437935 0.30552664630458304 0.17884923609828943 0.07503205381766552 0.058523229100375565 0.12588731679903573 0.35133335791971526 0.33624732502401677 0.073104060022648618 0.14376221244690693 0.12739709760847129 0.060670762233578604 0.12176027309768078 0.052609029495009466 0.10415179932995827 0.20613358869872711 0.14186674306893712 0.10612294407269669 0.14150643384039002 0.088800025634518026 0.044568466185442739 0.22716728081223631 0.08022093827449589 0.076568835251109274 0.20153537252471743 0.16225375003906112 0.09600169357303763 0.19589385709677326 0.043117545486610599 0.09742569958305243 0.1173083359336618 0.13974403160141116 0.09007761551480481 0.095864244819489991 0.092860081995997448 0.067023611935919089 0.054009628857790981 0.090960482020039604 0.067455979253736281 0.066778103061966354 0.090614578819734795 0.096007222479068136 0.067018822753470333 0.0043419404113115463 0.0023609114824092768 -0.00085135754755827884 0.058005922504258144 0.053865725631869789 0.012647326039094567 0.0094807922993734965 0.017053927137485343 0.011819031115054635 0.11653362270123964 0.054818025271876326 0.040124049568095434 0.10891600030599242 0.093375214035645263 0.052591784578744437 0.012612884212168062 0.0081388956173425956 0.0053273435616202763 0.016818989372748335 0.013272248958262345 0.0078613312257551672 0.14587036256818403 0.19276093721701548 0.17938719452327337 0.16592253148900282 0.11390281748200624 0.0068147870133329728 0.12383610947079172 0.0055774941270408645 0.13655396950864732 0.0030215763497545914 -0.020194564834731143 0.15407646319272511 0.17662988552034531 -0.007345925964147489 0.18121069440611462 0.10268427008545518 0.22326915223714605 0.20953484113105497 0.23137169452286196 0.21912344544881496 0.2312223733884477 0.017588756443684586 0.0039653071575780014 0.012564225529037701 0.16834564190086179 0.17743271372036085 0.22791237530087438 0.1160239685042153 0.22958028659504964 0.018949422272269239 0.012677455993564105 0.039722883781610353 0.044875623819356357 0.098316472153470974 0.032538619944151234 -0.032962170673880076 0.33682482542621611 0.31968249230708867 0.060352787382827407 0.053231859525369796 0.032924517648781119 0.0045056047303935328 0.0097448029899605149 0.02288715333212734 0.15585650101045204 -0.026053700053446857 0.051562575346262102 0.04523481648735396 -0.030423222717471735 0.10898306484200523 -0.041947102760682878 0.00098638359873684978 -0.00012498908022733377 -0.00037265686689903017 0.0014104756946674859 -0.00026216327430243677 0.032950363699631613 0.029538279442418013 -0.0020103809764230483 0.0094546920609808374 0.027359208603679797 0.00031701415594940368 -0.0039711977478151823 0.0048714781463678174 -0.00090028039855263517 -0.0057503539880157627 0.0057503539880157627 0.0015285901429994938 -0.00082473032880866495 0.0005839821050887845 -0.00054724676878532721 -8.8690053068005441e-05 0.0006359368218533326 0.024696578783049591 0.063255668450705821 -0.0022603838474015061 0.12468080532696732 0.028360079556786443 0.060746967232657573 0.0067615933809191493 0.030056369559990241 -0.0047738906900893436 0.055729010239425926 0.0075946969536137051 0.031341694409993265 0.1748005645070852 0.0039918025002760905 0.19050893017345666 0.01319100904656639 0.0014154602780675563 0.17776203758425635 0.21041912525254511 0.18871088752126208 0.17356391785962658 0.17618636785020431 0.083866963284718751 0.015722276163433205 0.17723457519983413 0.18475136357862676 0.18990220592880533 0.16678629056553607 0.17230371841867501 0.088465520532533926 0.11945810834399161 0.16765607785654496 0.14090305772902534 0.12543180536883713 0.16853862342139114 0.14446504778180733 0.10798340482493402 0.16890880318025561 0.14021911451466285 0.025898836540511946 0.1761096582578896 0.092165565435845254 0.02811740072442279 0.076994330241450248 -0.010050823643295417 0.023806322147660014 0.013233961134640643 0.025958849952994575 0.047289827632216438 0.023734944799514403 0.026189749815962563 0.011141000769521571 0.010648727931606696 0.021398405989455964 0.0048521481017311475 0.013473321237043064 0.011834453751573472 -0.0010084947811430888 0.003866406862929073 0.067234256606259743 0.066949984978514912 0.044929222489891139 0.054000915695812612 0.047409057717083973 0.047588444837133079 0.041075446785570256 0.15558639169998381 0.15506989244536235 0.11754213636678437 0.15223562686928921 0.11857257581952269 0.086707318060558675 0.044279665440205909 0.031330522815761361 0.024951561567525427 0.20463078758595163 0.19013276141326688 0.068494051531550942 0.052955039338077062 0.028774490094977873 0.066684015685820691 0.044765035930190725 0.03055307398542375 0.21946918246877339 0.20423496133191571 0.13161909589316068 0.063167411343982099 0.12594380930529972 0.08193038616062509 0.060451272967121272 0.10627332493240253 0.028897800833015387 0.14936708214246835 0.15463629067330642 0.072333084046540846 0.082792992557097989 0.12761482252196865 0.014403831414799829 0.15526941931818494 0.013779769876209933 0.0083624110215421727 0.024547925945336477 0.13809066927883543 0.088630237018580138 0.14501222140427572 0.13768557001596518 0.15694580642947839 0.14636308518947874 0.14241134521014001 0.08937794057955524 0.14753188758989905 0.11935599643459241 0.1753732359708986 0.15634358075850421 0.11351680934836188 0.17698857911057536 0.15629368837285768 0.13838711266788434 0.13370383516995868 0.10284458665457349 0.069742822804284871 0.058156533879242356 0.10363503615346943 0.068478830818588701 0.11881670684497894 0.090578844104312994 0.066762219816994733 0.11835341665193873 0.14258242348552896 0.13821589414744503 0.12589407271588876 0.12700109014201522 0.020632712815131241 0.12480794018792787 0.024024008896245418 0.056940844922858315 0.054173947971007254 0.11790577991879031 0.11166086839983003 0.042396208714131252 0.125643672711958 0.023268535991921215 0.061574270736147504 0.054786496689568344 0.10473344381964672 0.056307137879551661 0.049818421331635949 0.10966592477268637 0.04023420221820935 0.043817087456432251 0.037245264410078305 0.038646875704060668 0.039926355468182753 0.0375630180023186 0.053995124778396623 0.050851917838898045 0.12173240639013887 0.11036016129627296 0.046987752987933708 0.12134861964596436 0.12582416245459965 0.051627300751937506 0.1236250435913028 0.11104299802353078 0.1210030070519926 0.046732395475251307 0.072973136631396013 0.021562348051180621 -0.0065686322228721145 0.14747761979731394 0.12621681247228439 0.09641778315018236 0.14662043519204765 0.13843708997896967 0.091454988919175681 0.15112583250969008 0.079458169749966445 0.13782990432782929 0.092846465651190049 0.096412320109039537 0.093383643769131178 0.096747481062714122 0.074190637977943244 0.05668292118784455 0.10540611188545798 0.086381848149779741 0.11835280971879754 0.04872233131206663 0.04930866336470608 0.10953811833829409 0.080115890776922868 0.058340466353013543 0.044466355129617899 0.021374907339492349 -0.016208712241062698 0.0096459746767175569 -0.0039068245433289848 -0.0037260415407054199 0.010620422788658995 -0.0044603291587506748 -0.0013983352829598798 1.5940107080749514e-05 4.5217306620291343e-05 7.8612241470086858e-05 1.1973340625238643e-05 1.1063024468565578e-05 8.4601618929717413e-05 -0.000308158853804132 0.00072677971129180398 -0.00033810495238866016 0.027607251949080452 -0.0030264795845648287 0.0033948424396500754