<?xml version="1.0"?>
<VTKFile type="UnstructuredGrid" version="0.1" byte_order="LittleEndian">
<UnstructuredGrid>
<Piece NumberOfPoints="2028" NumberOfCells="724">
<Points>
<DataArray type="Float64" NumberOfComponents="3" format="ascii">
0 3.7000000000000002 0 0.56249999999824107 3.9749999999991399 0 0 0.69999999999999996 0 0 1.6319639930219929 0 0.59999999999999998 0.69999999999999996 0 0.59999999999999998 0.69999999999999996 0 0 1.6319639930219929 0 0.94999999999923723 1.2749999999987469 0 1.243750000001385 0.69999999999999996 0 0.59999999999999998 0.69999999999999996 0 0.94999999999923723 1.2749999999987469 0 1.626949751997165 1.3978044304614949 0 1.887500000003292 0.69999999999999996 0 1.243750000001385 0.69999999999999996 0 0.94999999999923723 1.2749999999987469 0 1.626949751997165 1.3978044304614949 0 1.243750000001385 0.69999999999999996 0 0.68142292217753131 2.106313194182027 0 1.299999999998378 1.8499999999973351 0 0.94999999999923723 1.2749999999987469 0 1.299999999998378 1.8499999999973351 0 1.626949751997165 1.3978044304614949 0 0.94999999999923723 1.2749999999987469 0 1.299999999998378 1.8499999999973351 0 1.186467289461244 2.488259157846338 0 1.649999999999066 2.4249999999984651 0 1.299999999998378 1.8499999999973351 0 0.68142292217753131 2.106313194182027 0 1.186467289461244 2.488259157846338 0 0 1.6319639930219929 0 0.68142292217753131 2.106313194182027 0 0.94999999999923723 1.2749999999987469 0 0 2.430303940964651 0 0.68142292217753131 2.106313194182027 0 0 1.6319639930219929 0 0.68142292217753131 2.106313194182027 0 0 2.430303940964651 0 0.70993008501830757 2.9054181396964478 0 0 3.1141786369756268 0 0.70993008501830757 2.9054181396964478 0 0 2.430303940964651 0 0.45714634023723411 3.4614941897304652 0 0.70993008501830757 2.9054181396964478 0 0 3.1141786369756268 0 0 3.7000000000000002 0 0.45714634023723411 3.4614941897304652 0 0 3.1141786369756268 0 0.45714634023723411 3.4614941897304652 0 0 3.7000000000000002 0 0.56249999999824107 3.9749999999991399 0 0.45714634023723411 3.4614941897304652 0 0.56249999999824107 3.9749999999991399 0 1.013301616169622 3.6128741719811099 0 0.70993008501830757 2.9054181396964478 0 0.45714634023723411 3.4614941897304652 0 1.013301616169622 3.6128741719811099 0 1.013301616169622 3.6128741719811099 0 1.451787781083937 3.11022608666643 0 0.70993008501830757 2.9054181396964478 0 1.451787781083937 3.11022608666643 0 1.013301616169622 3.6128741719811099 0 1.593428957229921 3.8897035774451321 0 1.186467289461244 2.488259157846338 0 0.70993008501830757 2.9054181396964478 0 1.451787781083937 3.11022608666643 0 0.70993008501830757 2.9054181396964478 0 1.186467289461244 2.488259157846338 0 0.68142292217753131 2.106313194182027 0 1.649999999999066 2.4249999999984651 0 1.186467289461244 2.488259157846338 0 1.451787781083937 3.11022608666643 0 0.59999999999999998 0.69999999999999996 0 0.94999999999923723 1.2749999999987469 0 2.2687831884271348 2.397628317379688 0 1.649999999999066 2.4249999999984651 0 2 3 0 2.6000000000000818 2.8399999999999781 0 2.2687831884271348 2.397628317379688 0 2 3 0 1.649999999999066 2.4249999999984651 0 1.451787781083937 3.11022608666643 0 2 3 0 1.451787781083937 3.11022608666643 0 2.08333333333292 3.599999999997022 0 2 3 0 1.593428957229921 3.8897035774451321 0 2.08333333333292 3.599999999997022 0 1.451787781083937 3.11022608666643 0 2.4236693135559251 3.5256579194055688 0 2.1666666666662731 4.1999999999971616 0 2.08333333333292 3.599999999997022 0 2.4236693135559251 3.5256579194055688 0 2 3 0 2.6000000000000818 2.8399999999999781 0 2.08333333333292 3.599999999997022 0 2 3 0 2.4236693135559251 3.5256579194055688 0 2.6000000000000818 2.8399999999999781 0 2.9420158813362729 3.5139475164392531 0 2.4236693135559251 3.5256579194055688 0 2.4236693135559251 3.5256579194055688 0 2.9420158813362729 3.5139475164392531 0 2.75 4 0 2.9420158813362729 3.5139475164392531 0 3.412636880282601 3.6134558579332841 0 3.1249999999889848 4 0 3.1249999999889848 4 0 2.75 4 0 2.9420158813362729 3.5139475164392531 0 2.6000000000000818 2.8399999999999781 0 3.2848100522576571 3.06994577157805 0 2.9420158813362729 3.5139475164392531 0 3.2848100522576571 3.06994577157805 0 2.6000000000000818 2.8399999999999781 0 3.2000000000001432 2.679999999999962 0 2.2687831884271348 2.397628317379688 0 2.6000000000000818 2.8399999999999781 0 2.8857059848027808 2.304389417342541 0 2.8857059848027808 2.304389417342541 0 2.6000000000000818 2.8399999999999781 0 3.2000000000001432 2.679999999999962 0 3.5028943452390711 2.1825773809523441 0 3.16379900756549 1.750659825629856 0 2.8857059848027808 2.304389417342541 0 2.8857059848027808 2.304389417342541 0 3.16379900756549 1.750659825629856 0 2.5341028426591712 1.9138806300960609 0 2.5341028426591712 1.9138806300960609 0 3.16379900756549 1.750659825629856 0 2.730231246675086 1.4599417336750831 0 2.730231246675086 1.4599417336750831 0 2.23284951060374 1.369095413116082 0 2.5341028426591712 1.9138806300960609 0 2.5341028426591712 1.9138806300960609 0 2.2687831884271348 2.397628317379688 0 2.8857059848027808 2.304389417342541 0 2.5341028426591712 1.9138806300960609 0 1.942890303101708 1.90249985684108 0 2.2687831884271348 2.397628317379688 0 1.942890303101708 1.90249985684108 0 1.649999999999066 2.4249999999984651 0 2.2687831884271348 2.397628317379688 0 1.649999999999066 2.4249999999984651 0 1.942890303101708 1.90249985684108 0 1.299999999998378 1.8499999999973351 0 1.942890303101708 1.90249985684108 0 1.626949751997165 1.3978044304614949 0 1.299999999998378 1.8499999999973351 0 2.23284951060374 1.369095413116082 0 1.626949751997165 1.3978044304614949 0 1.942890303101708 1.90249985684108 0 2.23284951060374 1.369095413116082 0 1.942890303101708 1.90249985684108 0 2.5341028426591712 1.9138806300960609 0 2.23284951060374 1.369095413116082 0 1.887500000003292 0.69999999999999996 0 1.626949751997165 1.3978044304614949 0 1.887500000003292 0.69999999999999996 0 2.23284951060374 1.369095413116082 0 2.5312500000049418 0.69999999999999996 0 2.5312500000049418 0.69999999999999996 0 2.730231246675086 1.4599417336750831 0 3.047698899035677 1.175177397439602 0 2.23284951060374 1.369095413116082 0 2.730231246675086 1.4599417336750831 0 2.5312500000049418 0.69999999999999996 0 3.047698899035677 1.175177397439602 0 2.730231246675086 1.4599417336750831 0 3.16379900756549 1.750659825629856 0 2.5312500000049418 0.69999999999999996 0 3.047698899035677 1.175177397439602 0 3.1750000000065048 0.69999999999999996 0 0.94999999999923723 1.2749999999987469 0 1.299999999998378 1.8499999999973351 0 3.047698899035677 1.175177397439602 0 3.638214240926366 1.265285427893069 0 3.1750000000065048 0.69999999999999996 0 3.1750000000065048 0.69999999999999996 0 3.638214240926366 1.265285427893069 0 3.8187500000045098 0.69999999999999996 0 0.56249999999824107 3.9749999999991399 0 1.1249999999964171 4.2499999999982494 0 3.8187500000045098 0.69999999999999996 0 3.638214240926366 1.265285427893069 0 4.2198317920941601 1.108273596938623 0 3.638214240926366 1.265285427893069 0 3.047698899035677 1.175177397439602 0 3.16379900756549 1.750659825629856 0 3.638214240926366 1.265285427893069 0 3.16379900756549 1.750659825629856 0 3.757799744899315 1.759341836734688 0 3.757799744899315 1.759341836734688 0 3.16379900756549 1.750659825629856 0 3.5028943452390711 2.1825773809523441 0 4.0559490150232032 2.028653202947901 0 3.5028943452390711 2.1825773809523441 0 3.8000000000002032 2.5199999999999458 0 3.757799744899315 1.759341836734688 0 3.5028943452390711 2.1825773809523441 0 4.0559490150232032 2.028653202947901 0 3.757799744899315 1.759341836734688 0 4.25 1.5 0 3.638214240926366 1.265285427893069 0 4.0559490150232032 2.028653202947901 0 4.6250000000004974 1.8500000000004651 0 4.25 1.5 0 3.757799744899315 1.759341836734688 0 4.0559490150232032 2.028653202947901 0 4.25 1.5 0 4.6250000000004974 1.8500000000004651 0 4.0559490150232032 2.028653202947901 0 4.4000000000001336 2.3599999999999639 0 4.6250000000004974 1.8500000000004651 0 4.4000000000001336 2.3599999999999639 0 5 2.2000000000000002 0 4.7733688274428578 1.2511819424194319 0 4.25 1.5 0 4.6250000000004974 1.8500000000004651 0 4.2198317920941601 1.108273596938623 0 4.25 1.5 0 4.7733688274428578 1.2511819424194319 0 4.25 1.5 0 4.2198317920941601 1.108273596938623 0 3.638214240926366 1.265285427893069 0 3.8187500000045098 0.69999999999999996 0 4.2198317920941601 1.108273596938623 0 4.4625000000026009 0.69999999999999996 0 5.1062500000012143 0.69999999999999996 0 4.4625000000026009 0.69999999999999996 0 4.7733688274428578 1.2511819424194319 0 4.4625000000026009 0.69999999999999996 0 4.2198317920941601 1.108273596938623 0 4.7733688274428578 1.2511819424194319 0 4.7733688274428578 1.2511819424194319 0 5.5000000000008269 1.1999999999983459 0 5.1062500000012143 0.69999999999999996 0 5.5000000000008269 1.1999999999983459 0 4.7733688274428578 1.2511819424194319 0 5.2500000000007052 1.6999999999985891 0 5.1062500000012143 0.69999999999999996 0 5.5000000000008269 1.1999999999983459 0 5.75 0.69999999999999996 0 5.75 0.69999999999999996 0 5.5000000000008269 1.1999999999983459 0 6.1230253171455891 1.2440604005832661 0 6.4375000000000027 0.69999999999999996 0 5.75 0.69999999999999996 0 6.1230253171455891 1.2440604005832661 0 5.8758020027701336 1.829281458631685 0 6.1230253171455891 1.2440604005832661 0 5.5000000000008269 1.1999999999983459 0 6.6325887022434813 1.7109098098422979 0 6.1230253171455891 1.2440604005832661 0 5.8758020027701336 1.829281458631685 0 6.3749999999999796 2.350000000000005 0 6.6325887022434813 1.7109098098422979 0 5.8758020027701336 1.829281458631685 0 6.3749999999999796 2.350000000000005 0 5.8758020027701336 1.829281458631685 0 5.75 2.5 0 5.4251604005540912 2.1458562917259631 0 5.75 2.5 0 5.8758020027701336 1.829281458631685 0 5.4251604005540912 2.1458562917259631 0 5.2500000000007052 1.6999999999985891 0 5 2.2000000000000002 0 5.2499999999996163 2.499999999999539 0 5.4251604005540912 2.1458562917259631 0 5 2.2000000000000002 0 5.875802002770
[...]
<PointData Scalars="A_conc,B_conc,region_id," Vectors="" Tensors="">
<DataArray type="Float64" Name="A_conc" format="ascii">
0.30604017955245477 0.31240878446283976 0.060764041141550804 0.21839167664213666 0.074183677158982247 0.071217743420392735 0.21948592922806248 0.22066980174737913 -0.0023783875166002145 -0.0014928775255539555 0.0038712650421541708 0.010188164558086193 -0.0051905147244744728 -0.0045546410687122944 0.0037406951806738952 0.0091582266750940382 -0.0036399849065482802 0.27871406881909788 0.30134167686825453 0.2106811413805664 0.014605962004182776 0.010143774554528657 0.0022180968879530597 0.29805718751451565 0.33833659780861852 0.37574674841044098 0.29933409128773336 0.26833891894063733 0.33830917868455196 0.19308290029570144 0.27775137456841953 0.2125703356217104 0.25200777552109394 0.27600685522432311 0.19852928470582001 0.27540059743603285 0.24364340481526053 0.31262105352879321 0.26551741472251161 0.313693932851765 0.24817609599751239 0.2559959713083369 0.32001526278793724 0.25217706938893919 0.19116288052852426 0.25900579602127294 0.26035402469895841 0.26227668549759509 0.18184126951912158 0.20057222801826707 0.2625674105357107 0.19894713746423001 0.29384222015162215 0.32084558947936659 0.2550557977847881 0.29086524029205385 0.28976868336692846 0.37399475925824072 0.32045880244382396 0.37226390833150452 0.2862132737205218 0.32842105327068305 0.33285837429754439 0.3083305584242117 0.38151315650861928 0.312976824252022 0.33557868737363367 0.27426876098129754 0.37572493339287366 0.33187346924023076 0.38211523482577514 0.055936399591969638 0.22619280148502896 0.062973035027939217 0.023003284241758161 0.082404777411150099 0.18658950502359023 0.060807246383276531 0.091404645837872681 0.37483839261121893 0.3817377590642525 0.43787057840581084 0.36541010589298489 0.41071990501432953 0.43723613704321651 0.32724444395036534 0.41049455227435905 0.37230564853401116 0.17974625641595224 0.086847264452815223 0.15998539866006498 0.18024327570275747 0.28594738774780404 0.40373989212281963 0.16230422165472963 0.28340309719988516 0.18441302834751416 0.41250010470494147 0.13806071145417759 0.19617737152086218 0.1770647661816207 0.15322754110820389 0.096899495319189149 0.18469840909021915 0.14022640117346311 0.10217280574001297 0.10437119716645479 0.10876537691240462 0.18166702530337275 0.42183851845785919 0.23290751447406605 0.1310107234704081 0.22472178050713165 0.439408636866088 0.45657918628406552 0.055114586667606033 0.19385921619289345 0.11993917430888268 0.11569567680825241 0.20369597294913386 0.310441956523207 0.20323478963855623 0.088892857522405791 0.13637010722270318 0.13372486347507814 0.090923874047368569 0.055523914713609304 0.061367017118473491 0.095104847571564385 0.046854561265033776 0.044574900137309845 0.018720732136562546 0.062349409391420064 0.05895473922646155 0.075766669554165153 0.12935965770120611 0.059345319443740718 0.028130743918999584 0.072745248690790548 0.03038094046487002 0.037551713832402051 0.069969434036341357 0.035533501919712732 0.030498806546802908 0.012524270391445892 0.031401651645151726 0.010536600237833749 0.015465544877093975 0.021313928323183694 0.0092804261764983693 0.032992549269897864 0.020909722034287731 0.033965753374179487 0.059950623303304681 0.017412789921851236 -0.006311784090924622 0.011514639654507386 -0.0079997573741067227 0.019033418577929541 -0.0087739014245221299 -0.013208415730674244 0.038328811890766187 0.019501745568312155 0.021113839119893542 0.036300047674291659 -0.01067843795171879 0.027993637510866243 0.042903808721791267 0.099791265259978251 -0.0072152043368903457 0.015523959573388113 -0.0083087552364977686 0.20678916658372601 0.30291073726027357 0.016756936194233189 0.03090305211571992 -0.010085593743860402 -0.011848083896522574 0.032944499684530899 -0.012073568616279326 0.31223475140106333 0.31865675156176088 -0.014072008826813002 0.036107589197118158 0.0096134919271563118 0.085514255639453987 0.025505289554277531 0.10221591990946745 0.10170290495329358 0.086368223721255549 0.13354260400443974 0.15960115269879505 0.083056063536495098 0.20907285848785245 0.24449216920965267 0.18961749648533013 0.40200452252144925 0.16378811146302821 0.20738393323973228 0.28475364857486318 0.13491240036227065 0.18680316059917876 0.099828998113218451 0.30406009001378048 0.37777093101066328 0.11744292209335497 0.14686642943003897 0.30039349249720138 0.12361088446333063 0.34153671495988147 0.26178444738565421 0.44424463812737891 0.33939416926779625 0.44608594864904655 0.50203863006800553 -0.00094225067115581533 0.2569635842243484 0.33935009786528225 0.011816556079273398 0.249976742726294 0.0081542194685927383 0.23871504899486734 0.018427737418530953 0.060560066595729725 -0.0013505093308524038 0.0051070881595184706 -0.0011469839457319149 0.0016330836099501048 0.00063032667188520921 0.0017548965025213554 -0.0014413771574029539 0.0055655772210957428 0.0028609139946259758 0.0018086308194165237 0.0015115802800769707 0.0016899951750955207 0.00078511856738080706 0.0038190067717656061 0.014778630963376935 0.0030098070052105236 0.0017865403887760102 0.0088277064630404509 0.016849760685719799 -0.0046596810435487728 -0.004218388411053914 0.024234947308257267 0.018078668733889001 -0.0053951153741166177 0.10301832463149929 0.0097750793625492535 0.00020969676199922142 0.12682062596142213 0.0050070660111448829 0.10863048959643536 0.57047435375184774 0.099619462320207075 0.1093592988512232 0.56843564856463491 0.096884089995182582 0.53697688573448521 0.23549584242517455 0.53115107374041437 0.10711355694574612 0.22167532760569394 0.031690988811967954 0.1956538210278905 0.3526166040719444 0.24424982399523193 0.18986705986154859 0.097989135914465328 0.0046411953018850993 0.060653408018082625 0.027799265196731468 0.22427219699376771 0.1084474957935463 -0.068697807569931352 -0.10104022011738503 0.32203421375220065 -0.1080552178244673 0.39972485516544315 0.23669871310234966 0.29722649946956509 0.37651604934583321 0.31847743210974938 0.32425271758070434 0.23370806282925868 0.35286235351296313 0.52938152570705754 0.068775772155097933 0.51517091041778329 0.52915973283928164 0.31853263389080783 0.52975812809881961 0.45496670104845233 0.32070480559145598 0.52855573825453339 0.56361135999100065 0.48538724682219286 0.53111605818984498 0.53461736023441819 0.28200927245586888 0.43147786681976552 0.23960200245286722 0.3546829309814436 0.52180122027429254 0.4372776346921588 0.28837772446445076 0.28425412955052559 0.2733538297444375 0.28743197710878449 0.16600245382866738 0.27148484274469914 0.16891069339445725 0.18837231577026023 0.081649235497036135 0.071469166261265815 -0.026051403508663241 0.012585841537841196 0.0094518309845359888 0.079722277827601828 0.16978163065305454 0.18964296577020623 0.29380578052572204 -0.0026949348471558303 0.11495410454900702 0.099462077586314021 0.097773520496692606 0.028270996383397501 0.20350429148806037 0.011507738498076564 -0.00066129972733610764 0.0090133911191759893 0.0014882248664112054 0.0021066918699778839 -0.0013373244243976856 -0.00073042689198813868 0.00067685500627391083 0.0084146850977390702 -0.0089893362265806038 0.049213516663520425 0.0045476208674200902 -0.0044531736867285589 0.0031497076991732985 0.00130346598755526 0.46630801559773938 0.50787290361171522 0.41516401460594915 0.36144763928247953 0.46630941560535322 0.41657750993066656 -0.00077347801882888753 -9.9619952972218413e-05 0.0009010760030204861 0.42511529564590095 0.29838433766171785 0.37723908400733763 0.17516954602517334 0.38574155681536054 0.26515321964259958 0.37123756588089052 0.17993827906434384 0.21072324542711127 0.17694166199985378 0.37139113812554364 0.38414715631996255 0.32572434241435227 0.39998281343705105 0.21010514014278434 0.46014403714603419 0.39102586105680531 0.35558489101020846 0.39163495967902112 0.3559262420844474 0.35676704840671092 0.38563869484808333 0.14290524388522249 0.17861381746502594 0.31719138002294056 0.32393558931434974 0.45442899499102946 0.5160682602069635 0.058767100145692211 0.52274137778439766 0.15011285620877118 0.41099279320129989 0.398895411163464 0.44901004044363541 0.24073949583816096 0.40537712748223304 0.40691119269915432 0.15550609882375135 0.14563381257150562 0.15051422581944351 0.26882876203454842 0.39985535220224078 0.18204520683562661 0.32476997936736729 0.40027340495665076 0.1082252788786722 0.31861348866194178 0.1862016966815345 0.22677431087185443 0.45676896792044125 0.43464818538025196 0.26311353002382853 0.13839400039799699 0.18579278275498085 0.26748110389225699 0.15463423828798903 0.13517982593469832 0.21252997294785883 0.39820915082364822 0.26163813587025253 0.20021864562604072 0.26947249749559954 0.11785749782068722 0.26686783958106836 0.14336845919900723 0.12049924236333565 0.12534112141842035 0.13560495817976476 0.086020414391769884 0.33316581639735687 0.37125627031832292 0.27887321185631381 0.22045493205209005 0.27065415149563282 0.32407512106547426 0.32915575435197164 0.37303394940516138 0.43857080985321722 0.021388213323576946 -0.0011223524858426774 0.013030568421788995 0.26988846605042294 0.35736786276452059 0.27831409549215497 0.16521792458210446 0.27383800772430006 0.31955584060216147 0.22117869051741984 0.18991376723408365 0.28049332068860122 0.21988143730152002 0.22333223452120654 0.27604963647398273 0.027975397136410486 0.038881403255978282 0.055722010262579912 0.057518974198737839 0.038089728634168804 0.069337166740729872 0.18776315013693873 0.31658472437465729 0.28091645607085447 0.33753134338160773 0.15368839132154322 0.18510074468533205 0.18174261263415031 0.1899029959162131 0.34510273253575952 0.35123642312565878 0.18637047369470283 0.21465679364240614 -0.10542239844992771 0.42981667208931201 0.60770201913544075 0.36643998702461961 0.35352057001156584 0.21114606238704584 0.45701511875770384 0.2818004962767055 0.40451244247293333 0.35857599935072404 0.26878200128320306 0.30434944135952174 0.47508429544933017 0.35783786983975785 0.3023697180862811 0.17190243260066651 0.2402259595437225 0.50311142044438806 0.34220217060718405 0.16703340402239802 0.50805970638559972 0.35054969615909348 0.51858888179862883 0.4340474659811388 0.43402645274881063 0.31955659754109489 0.35251222976226837 0.55093254793447843 0.31600353843034401 0.42819122743359944 0.42641735638638412 0.59686550702302033 0.55535569532661155 0.59932158421248738 0.41152637404047637 0.63137160984137664 0.4209198594231921 0.47552680676938014 0.59576224203991823 0.59680426347594806 0.47385677871613008 0.63629611598295277 0.3804556182936068 0.36587573329876155 0.50672980553740765 0.42082132247644161 0.3172373943106766 0.26792209950538737 0.42086752988960652 0.26854649445285089 0.47170217726163399 0.26036738581588675 0.36587470005745432 0.38026256534470726 0.36059419875922416 0.26338876626177876 0.21087546276155736 0.2197139766546069 0.30809776392803478 0.23422330508319303 0.28689225278838992 0.35220454327904238 0.27369464596337767 0.10115558773577214 0.027740754743834105 0.10052488253887747 0.31480634348994779 0.19228593365145633 0.26931881632795324 0.33540476022442678 0.3166599375788014 0.17063624959474033 0.14224916664015935 0.017177127674456016 0.094143842172198067 0.02990862096155357 0.093823975387533343 0.032141132400937009 -0.13979419797936191 0.63165255991581981 0.31410324155411856 0.36159736397081521 0.08856800516971973 0.38047703676924538 0.34820621952128838 0.41166041185620766 0.37935881956023604 0.45199174176965734 0.43606902703142747 0.43745249546574527 0.41032496364013538 0.029830227733410222 0.028283435031962668 0.003695066191832453 0.0053655846316671609 0.0093469958482425303 0.027845353551257612 0.025707345858855646 0.005460081362946922 0.0050098125421951991 0.095004599621888702 0.034041755369965759 0.028432143857874834 0.1126696397897935 0.027085911739343257 0.093933675075288353 0.029160572994527033 0.10366265882251291 0.096106155602755372 0.024949933351475509 0.086212114647085641 0.028075438335039473 0.024418513490286748 0.027019053237331572 0.0064568064514150779 0.02806422621167393 0.02947864616318141 0.003876928623519009 0.13790042154445714 -0.033284246476637268 0.11992187487607832 -0.015675061224174815 0.011737527777097499 0.10863551915227934 -0.02178349450611055 0.12543691686529806 0.021608619673742276 0.0028992505586206514 0.13441735571934987 0.13415377089622027 0.012097467491162937 0.12269990559686907 0.028868992320700799 -0.00049092341665663063 0.012876776081903197 0.027064956685014175 0.00073274869875974524 0.0058318235956091617 -0.00083734999129540311 0.0071989264344787928 0.0018674182312833762 0.0015713113268877193 -0.0028771868923615608 0.0099968471154688217 -0.0020333548767646134 0.11841448858194899 0.0062235323460136712 0.13130285128667413 0.1126591856951787 0.046420121930554864 0.012631105707823794 -0.095570590252086196 0.29022235210331299 -0.040909541203688338 0.27263751027378347 -0.08001616889521812 0.10711592740553591 0.12568079799563006 0.19056332504804871 0.18252325630046742 0.027600684755662172 0.047224746120950505 0.099471895677869127 -0.020598234225932675 0.038839658208314448 0.35328052529010051 0.024935059736667209 0.38611431045977962 0.37650413423724177 0.3687314316625887 0.38054656838652728 0.43791064540524383 0.073107834332131305 0.023866345019122187 0.055295120946693831 0.43977269344313474 0.38593211142957667 0.28104139589772592 0.34083976659442172 0.38285050603459198 0.39854053799489508 0.38552171027727034 0.080258715586104243 0.30582716426169582 0.20773820865248427 0.0014327779564790753 0.082420160772532378 0.19529335476671528 0.096053000309581485 0.33343207262097663 0.0017725794250118144 0.00074703190409754856 0.0017129072572364199 0.36834870157241123 0.3956703544099382 0.022703224725868557 0.12461585542095729 -0.019370634375070875 0.16658442683277239 0.14918360750099452 0.3893818006978213 0.40741612989278286 0.19085851258371633 0.13033697205393996 0.025109712365614201 -0.0035942877156282514 0.11473934322770898 0.231590358416009 0.2557473691934336 0.11152359737737148 0.40640236128641777 0.33776816439949592 0.29011438002648604 0.37888517333248345 0.31212077976104874 0.333611145568741 0.37096315528769253 0.38234998223787092 0.24967583304945551 0.30321262403410465 0.24663183182162635 0.38424633818020015 0.37841901811740414 0.10093164174159013 0.39662114686692318 0.41393431806135822 0.063506935922910485 0.095717832112605775 0.40540133590713434 0.39147950797960807 0.41595279320874262 0.086917817040763956 0.29392223132558032 0.35368360474476229 0.35257482568624227 0.29733803362909883 0.21042212584227615 0.31388741659232805 0.29514204314174364 0.24690823977272358 0.35221576471476418 0.1653754825076385 0.10590426103029524 0.1238350371471062 0.22827021972958342 0.11854043916518107 0.18587772978770473 0.16628947001781122 0.12196088999743748 0.22504107878580434 0.22045999819625778 0.1680736644267399 0.22342118842876965 0.093939539021861584 0.029570619204015526 0.06475641026901803 -0.0026157977255562527 0.02290721401693575 0.058185542710082111 0.1006286871878876 0.064344164787526831 0.10884066251494148 0.10030733401865789 0.10937022176240366 0.17282914147381992 0.10512174838592155 0.06581195848584076 0.044947945418135814 0.3692741310055882 0.2509205320402752 0.34554031794458784 0.4110086276118799 0.31381006610546069 0.37977495305237502 0.3258076596461526 0.25582000750936618 0.371762518999387 0.35718892025218052 0.12229722071556903 0.34710725381912289 0.22284798144935694 0.22409414427379332 0.3048868404056001 0.23853039089350644 0.18751714100635938 0.28311132473439593 0.050569129973678469 0.04908982796227087 0.40705524887573413 0.42605518800736741 0.46441493077331769 0.45153556512067583 0.28161599673130788 0.18906898905986844 0.17695447692322261 0.3031788271368237 0.17934483364200887 0.293346867344707 0.18214446408528745 0.16601499616501783 0.39432466035729136 0.41756953827024168 0.14760743312970995 0.30230049369586753 0.11380087906647091 0.30345781345304079 0.3068131789350026 0.10891811262570784 0.32477029981187683 0.21312276656443652 0.25788547072293194 0.3246959110701389 0.29689452558408264 0.21793470058115313 0.29616906792616471 0.19588409910722288 0.21988911285365204 0.30521358451173264 0.17497485176272412 0.11241697663639165 0.30605974901656191 0.30263979379431555 0.16858851100766278 0.28129165711018778 0.15958204480778654 0.3007820531788461 0.30134557845745341 0.16533279633053627 0.1712184144433507 0.14082033137864011 0.13725309798870647 0.12983743703115402 0.16834622743515876 0.29161062790550507 0.1819633812688948 0.13070799606776121 0.15367891078731905 0.1463390363339509 0.28388197349986943 0.1820930396861489 0.24761270313042272 0.25619186116879222 0.26373793076628871 0.22122896998269076 0.33350492672078924 0.25404675056429915 0.34501669943608276 0.3333450143497107 0.26315073262787519 0.25535345112990682 0.31449304824802621 0.15413453885614187 0.29090696382565961 0.26087013636618384 0.31709505084979872 0.34583991888918492 0.22467187469342095 0.083202725882767836 0.0029038087904305907 0.31163339186024952 0.16112615314754314 0.15770070620599486 0.294488824092071 0.23718871452223048 0.18199888972288455 0.47603076822071755 0.46406841617134514 0.045493876825015697 0.057145411823024225 0.048584027936641322 -0.017498761472596644 -0.017692785969194887 0.32860906039910726 0.057321959953295559 0.19156555787648136 0.18190046346310759 -0.050941411134926035 0.080220601355797547 0.15307748049857556 -0.019979450969983104 0.0049347161001599494 0.052241530389528321 0.004150405645627196 -0.001577180947531449 -0.0016243063117177552 -0.0030455263606023555 0.0047259340819741404 -0.0016804077213717851 -0.013619566790273967 0.11670956877613359 0.017467096683958936 0.00068291659612466004 0.00089978227906035546 0.00048335220613249599 0.00066803264051593016 0.00048869428100479183 0.00036077588208526212 0.41673893535074003 0.43800070391937007 0.076576705471381151 0.055589721269233644 0.052702077441907323 0.06903229433875295 0.42580589406859376 0.43773165931468055 0.44444162672831478 0.29944559466630338 0.2160968043505882 0.24035094418947203 0.010916990491391261 -0.0020721191455643152 0.14814924618483158 0.16319720984457523 0.57221034599901854 0.58995431491476014 0.4875437601101929 0.47574224992116448 -0.021015777717038393 0.35740879532790043 0.25114435726273698 0.32100567983894263 0.49883834893002593 0.48726043070877162 0.58940383905266314 0.60271383777910514 -0.00041541573584704902 0.0085314734716544147 0.24917739979543219 0.46592938482341412 0.16427214191131645 0.1823330411574203 0.39502719488092186 0.088959267825218111 0.43192319319915717 0.50956479580598013 0.60250168387435277 0.61189400589844289 0.095532094011530289 0.15466473779432602 0.50705977197399732 0.3591917083246714 0.29986322914547525 0.10668641573320213 0.42756755297014071 0.29440411447084008 0.5035434043175232 0.41626830269664256 0.0096996782406256737 0.046479562319704695 0.53669558968638453 0.016607858586694734 0.5393013189765008 0.55282075881913284 0.1821673074248967 0.19759785107080716 -0.0012933574822902498 0.017538921466494495 0.10252970850099122 0.10883135236437561 0.56437235736774105 0.49854059504926995 0.65496868718048573 0.68320410255974018 0.55212783501988638 0.56228547800155371 0.59487145968757182 0.543614350331313 0.010159827418739387 0.00090664973347760768 0.61482142413530017 0.6287725313264716 0.19730466322521081 0.21269682664419295 0.1117664355539193 0.12408843734669794 0.63991421394803061 0.59366721011814061 0.10647097102377256 0.10022310541153349 0.62834326650112216 0.6440286368126773 0.12638931830729119 0.15160615612497383 0.68256079653604662 0.70133291214721671 0.21228162913300921 0.23059497482615654 0.0015856817579129202 0.001375951085943948 0.00063987037506388464 0.00092134277705204642 0.00066286446523893092 0.001437957262485229 0.0016119343669725929 0.0027173353377421168 0.0014276798086507534 0.00149930511919072 0.0032322922301907544 0.0028489800304484733 0.63881910244954332 0.68050517777984376 0.0032625065273055752 0.0046537735975196535 0.0029517179463626293 0.0047814799984948336 0.0031233700279837211 0.00491198715304137 0.0042372814264382812 0.026097692137256778 