<?xml version="1.0"?>
<VTKFile type="UnstructuredGrid" version="0.1" byte_order="LittleEndian">
<UnstructuredGrid>
<Piece NumberOfPoints="2028" NumberOfCells="724">
<Points>
<DataArray type="Float64" NumberOfComponents="3" format="ascii">
6.000000000000000e-01 7.000000000000000e-01 0.000000000000000e+00 9.499999999992372e-01 1.274999999998747e+00 0.000000000000000e+00 9.499999999992372e-01 1.274999999998747e+00 0.000000000000000e+00 1.299999999998378e+00 1.849999999997335e+00 0.000000000000000e+00 1.299999999998378e+00 1.849999999997335e+00 0.000000000000000e+00 1.649999999999066e+00 2.424999999998465e+00 0.000000000000000e+00 1.649999999999066e+00 2.424999999998465e+00 0.000000000000000e+00 2.000000000000000e+00 3.000000000000000e+00 0.000000000000000e+00 5.750000000000000e+00 7.000000000000000e-01 0.000000000000000e+00 5.500000000000827e+00 1.199999999998346e+00 0.000000000000000e+00 5.500000000000827e+00 1.199999999998346e+00 0.000000000000000e+00 5.250000000000705e+00 1.699999999998589e+00 0.000000000000000e+00 5.250000000000705e+00 1.699999999998589e+00 0.000000000000000e+00 5.000000000000000e+00 2.200000000000000e+00 0.000000000000000e+00 5.000000000000000e+00 2.200000000000000e+00 0.000000000000000e+00 4.400000000000134e+00 2.359999999999964e+00 0.000000000000000e+00 4.400000000000134e+00 2.359999999999964e+00 0.000000000000000e+00 3.800000000000203e+00 2.519999999999946e+00 0.000000000000000e+00 3.800000000000203e+00 2.519999999999946e+00 0.000000000000000e+00 3.200000000000143e+00 2.679999999999962e+00 0.000000000000000e+00 3.200000000000143e+00 2.679999999999962e+00 0.000000000000000e+00 2.600000000000082e+00 2.839999999999978e+00 0.000000000000000e+00 2.600000000000082e+00 2.839999999999978e+00 0.000000000000000e+00 2.000000000000000e+00 3.000000000000000e+00 0.000000000000000e+00 2.000000000000000e+00 3.000000000000000e+00 0.000000000000000e+00 2.083333333332920e+00 3.599999999997022e+00 0.000000000000000e+00 2.083333333332920e+00 3.599999999997022e+00 0.000000000000000e+00 2.166666666666273e+00 4.199999999997162e+00 0.000000000000000e+00 2.166666666666273e+00 4.199999999997162e+00 0.000000000000000e+00 2.250000000000000e+00 4.800000000000000e+00 0.000000000000000e+00 2.250000000000000e+00 4.800000000000000e+00 0.000000000000000e+00 1.750000000000000e+00 5.000000000000000e+00 0.000000000000000e+00 2.250000000000000e+00 4.800000000000000e+00 0.000000000000000e+00 2.833333333333118e+00 5.099999999999890e+00 0.000000000000000e+00 2.833333333333118e+00 5.099999999999890e+00 0.000000000000000e+00 3.416666666667265e+00 5.400000000000308e+00 0.000000000000000e+00 3.416666666667265e+00 5.400000000000308e+00 0.000000000000000e+00 4.000000000000000e+00 5.700000000000000e+00 0.000000000000000e+00 4.000000000000000e+00 5.700000000000000e+00 0.000000000000000e+00 3.625000000007225e+00 5.999999999994220e+00 0.000000000000000e+00 3.625000000007225e+00 5.999999999994220e+00 0.000000000000000e+00 3.250000000000000e+00 6.300000000000000e+00 0.000000000000000e+00 4.000000000000000e+00 5.700000000000000e+00 0.000000000000000e+00 4.499999999999542e+00 5.999999999999726e+00 0.000000000000000e+00 4.499999999999542e+00 5.999999999999726e+00 0.000000000000000e+00 5.000000000000000e+00 6.300000000000000e+00 0.000000000000000e+00 6.000000000000000e+00 3.800000000000000e+00 0.000000000000000e+00 6.374999999999935e+00 3.899999999999983e+00 0.000000000000000e+00 6.374999999999935e+00 3.899999999999983e+00 0.000000000000000e+00 6.750000000000000e+00 4.000000000000000e+00 0.000000000000000e+00 6.000000000000000e+00 3.800000000000000e+00 0.000000000000000e+00 5.625000000000065e+00 3.899999999999983e+00 0.000000000000000e+00 5.625000000000065e+00 3.899999999999983e+00 0.000000000000000e+00 5.250000000000000e+00 4.000000000000000e+00 0.000000000000000e+00 4.250000000000000e+00 4.800000000000000e+00 0.000000000000000e+00 4.750000000000338e+00 4.399999999999729e+00 0.000000000000000e+00 4.750000000000338e+00 4.399999999999729e+00 0.000000000000000e+00 5.250000000000000e+00 4.000000000000000e+00 0.000000000000000e+00 4.750000000000000e+00 4.000000000000000e+00 0.000000000000000e+00 5.250000000000000e+00 4.000000000000000e+00 0.000000000000000e+00 3.500000000000000e+00 4.000000000000000e+00 0.000000000000000e+00 3.083333333334594e+00 4.266666666665859e+00 0.000000000000000e+00 3.083333333334594e+00 4.266666666665859e+00 0.000000000000000e+00 2.666666666668059e+00 4.533333333332442e+00 0.000000000000000e+00 2.666666666668059e+00 4.533333333332442e+00 0.000000000000000e+00 2.250000000000000e+00 4.800000000000000e+00 0.000000000000000e+00 3.500000000000000e+00 4.000000000000000e+00 0.000000000000000e+00 3.874999999992375e+00 3.750000000005084e+00 0.000000000000000e+00 3.874999999992375e+00 3.750000000005084e+00 0.000000000000000e+00 4.250000000000000e+00 3.500000000000000e+00 0.000000000000000e+00 1.000000000000000e+00 6.200000000000000e+00 0.000000000000000e+00 1.599999999997112e+00 6.100000000000482e+00 0.000000000000000e+00 1.599999999997112e+00 6.100000000000482e+00 0.000000000000000e+00 2.199999999995692e+00 6.000000000000719e+00 0.000000000000000e+00 2.199999999995692e+00 6.000000000000719e+00 0.000000000000000e+00 2.799999999997127e+00 5.900000000000479e+00 0.000000000000000e+00 2.799999999997127e+00 5.900000000000479e+00 0.000000000000000e+00 3.399999999998564e+00 5.800000000000240e+00 0.000000000000000e+00 3.399999999998564e+00 5.800000000000240e+00 0.000000000000000e+00 4.000000000000000e+00 5.700000000000000e+00 0.000000000000000e+00 4.750000000000000e+00 7.200000000000000e+00 0.000000000000000e+00 4.500000000000000e+00 6.699999999999999e+00 0.000000000000000e+00 4.500000000000000e+00 6.699999999999999e+00 0.000000000000000e+00 4.250000000000000e+00 6.200000000000001e+00 0.000000000000000e+00 4.250000000000000e+00 6.200000000000001e+00 0.000000000000000e+00 4.000000000000000e+00 5.700000000000000e+00 0.000000000000000e+00 2.750000000000000e+00 4.000000000000000e+00 0.000000000000000e+00 3.124999999988985e+00 4.000000000000000e+00 0.000000000000000e+00 3.124999999988985e+00 4.000000000000000e+00 0.000000000000000e+00 3.500000000000000e+00 4.000000000000000e+00 0.000000000000000e+00 5.000000000000000e+00 2.200000000000000e+00 0.000000000000000e+00 4.750000000000000e+00 2.800000000000000e+00 0.000000000000000e+00 5.000000000000000e+00 2.200000000000000e+00 0.000000000000000e+00 5.249999999999616e+00 2.499999999999539e+00 0.000000000000000e+00 5.249999999999616e+00 2.499999999999539e+00 0.000000000000000e+00 5.500000000000000e+00 2.800000000000000e+00 0.000000000000000e+00 5.500000000000000e+00 2.800000000000000e+00 0.000000000000000e+00 5.250000000000325e+00 3.199999999999480e+00 0.000000000000000e+00 5.250000000000325e+00 3.199999999999480e+00 0.000000000000000e+00 5.000000000000298e+00 3.599999999999522e+00 0.000000000000000e+00 5.000000000000298e+00 3.599999999999522e+00 0.000000000000000e+00 4.750000000000000e+00 4.000000000000000e+00 0.000000000000000e+00 5.500000000000000e+00 2.800000000000000e+00 0.000000000000000e+00 5.916666666666305e+00 3.199999999999653e+00 0.000000000000000e+00 5.916666666666305e+00 3.199999999999653e+00 0.000000000000000e+00 6.333333333333001e+00 3.599999999999680e+00 0.000000000000000e+00 6.333333333333001e+00 3.599999999999680e+00 0.000000000000000e+00 6.750000000000000e+00 4.000000000000000e+00 0.000000000000000e+00 5.500000000000000e+00 2.800000000000000e+00 0.000000000000000e+00 5.750000000000000e+00 2.500000000000000e+00 0.000000000000000e+00 5.750000000000000e+00 2.500000000000000e+00 0.000000000000000e+00 6.374999999999980e+00 2.350000000000005e+00 0.000000000000000e+00 6.374999999999980e+00 2.350000000000005e+00 0.000000000000000e+00 7.000000000000000e+00 2.200000000000000e+00 0.000000000000000e+00 7.000000000000000e+00 2.200000000000000e+00 0.000000000000000e+00 7.499999999999977e+00 2.349999999999993e+00 0.000000000000000e+00 7.499999999999977e+00 2.349999999999993e+00 0.000000000000000e+00 8.000000000000000e+00 2.500000000000000e+00 0.000000000000000e+00 7.500000000000000e+00 2.000000000000000e+00 0.000000000000000e+00 7.750000000000000e+00 2.250000000000000e+00 0.000000000000000e+00 7.750000000000000e+00 2.250000000000000e+00 0.000000000000000e+00 8.000000000000000e+00 2.500000000000000e+00 0.000000000000000e+00 8.000000000000000e+00 2.500000000000000e+00 0.000000000000000e+00 8.166666666666181e+00 1.900000000001745e+00 0.000000000000000e+00 8.166666666666181e+00 1.900000000001745e+00 0.000000000000000e+00 8.333333333332911e+00 1.300000000001518e+00 0.000000000000000e+00 8.333333333332911e+00 1.300000000001518e+00 0.000000000000000e+00 8.500000000000000e+00 7.000000000000000e-01 0.000000000000000e+00 8.000000000000000e+00 2.500000000000000e+00 0.000000000000000e+00 8.499999999999950e+00 2.599999999999990e+00 0.000000000000000e+00 8.499999999999950e+00 2.599999999999990e+00 0.000000000000000e+00 9.000000000000000e+00 2.700000000000000e+00 0.000000000000000e+00 9.000000000000000e+00 2.700000000000000e+00 0.000000000000000e+00 9.466666666664466e+00 2.566666666667295e+00 0.000000000000000e+00 9.466666666664466e+00 2.566666666667295e+00 0.000000000000000e+00 9.933333333329530e+00 2.433333333334420e+00 0.000000000000000e+00 9.933333333329530e+00 2.433333333334420e+00 0.000000000000000e+00 1.040000000000000e+01 2.300000000000000e+00 0.000000000000000e+00 1.040000000000000e+01 2.300000000000000e+00 0.000000000000000e+00 1.078333333333231e+01 1.900000000001070e+00 0.000000000000000e+00 1.078333333333231e+01 1.900000000001070e+00 0.000000000000000e+00 1.116666666666699e+01 1.499999999999660e+00 0.000000000000000e+00 1.116666666666699e+01 1.499999999999660e+00 0.000000000000000e+00 1.155000000000000e+01 1.100000000000000e+00 0.000000000000000e+00 8.000000000000000e+00 2.500000000000000e+00 0.000000000000000e+00 8.437500000000002e+00 2.875000000000001e+00 0.000000000000000e+00 8.437500000000002e+00 2.875000000000001e+00 0.000000000000000e+00 8.875000000000004e+00 3.250000000000002e+00 0.0000000000000
[...]
<PointData Scalars="A_conc,B_conc,region_id," Vectors="" Tensors="">
<DataArray type="Float64" Name="A_conc" format="ascii">
1.207783975767756e-01 3.798162964227262e-01 3.470890248997237e-01 4.725845576640966e-01 4.641787991517293e-01 5.572319928477443e-01 5.524922837360088e-01 6.213047498529986e-01 3.486493009461941e-02 9.426367104591301e-03 -9.905318504197503e-04 5.134458884632399e-02 4.184416939449705e-02 1.127632397443035e-01 6.655817156859283e-01 6.575046443456056e-01 6.576486175515810e-01 6.492311988944527e-01 6.493817581438183e-01 6.406535700703971e-01 6.408860715166504e-01 6.310744577007424e-01 6.315299460645345e-01 6.178443884838564e-01 6.192230489785561e-01 5.959987471401305e-01 5.974177957098070e-01 5.667615271517829e-01 5.680830429897031e-01 5.353543011256641e-01 5.413216133757521e-01 2.108619466100446e-01 5.431487115113560e-01 5.593144486467114e-01 5.589912793813882e-01 5.775609665295259e-01 5.773346106410157e-01 5.868078333614586e-01 5.963616484111393e-01 4.703736070655559e-01 5.221410628264330e-01 1.627909641333920e-01 3.064896471682945e-01 3.306745470877377e-01 3.324846154848969e-01 3.610261181792406e-01 7.849824356585813e-01 8.087426824146375e-01 8.080043510945372e-01 8.262636517173098e-01 7.857421789337684e-01 7.561318800470349e-01 7.570561751658769e-01 7.197631824056124e-01 4.469121184604959e-01 6.605216327409824e-01 6.231044553318464e-01 6.816722668919800e-01 5.141462085458277e-01 2.431068082454159e-01 3.598323741325429e-01 3.473133183649695e-01 3.474264729882388e-01 3.260760087037545e-01 3.270651363166162e-01 3.020470438511595e-01 4.009875995519611e-01 4.367189584636808e-01 4.495252361468158e-01 5.390865290460598e-01 4.020726449538859e-01 5.224445724755959e-01 5.013964323417003e-01 5.345407099182526e-01 5.319402073098199e-01 5.543338175803015e-01 5.532371066528340e-01 5.714968403083559e-01 5.708655177844135e-01 5.870214994873790e-01 2.088138572691618e-03 2.792040049753432e-02 2.003454068481486e-02 3.128381388217157e-02 2.998831276024839e-02 5.368379720936400e-01 1.256144142322830e-01 1.232099850273201e-01 1.174442324021718e-01 1.397970995402188e-01 7.518598138454833e-01 1.319041487422395e-01 7.152863831300187e-01 7.258535153010993e-01 7.251297309003929e-01 7.319845646538470e-01 7.340311309668268e-01 6.871362833529935e-01 6.920508430381610e-01 6.184281988740500e-01 6.320323607555315e-01 4.970489561769960e-01 2.506727089426570e-01 2.683967309604486e-01 2.710992566970419e-01 2.982317722416367e-01 3.060431484563189e-01 5.413511029237508e-01 7.883445341276206e-01 7.987185378635459e-01 7.983933983370135e-01 8.081985494010498e-01 8.079155944764407e-01 8.155611677954993e-01 8.154819976037058e-01 8.214407239793522e-01 8.213824047866195e-01 8.270850642878104e-01 3.177338348817178e-01 7.888855756605070e-01 7.127871340233355e-01 8.398158644642097e-01 8.514403945406297e-02 6.378705910994495e-02 1.044772011246256e-01 1.754965842340540e-01 1.816245434503197e-01 2.231838480011376e-01 8.341946751533774e-01 8.549918136143886e-01 8.543651773872304e-01 8.664746751852801e-01 8.659919916257376e-01 8.751324273906445e-01 8.749642408363290e-01 8.821995198071859e-01 8.820903522896020e-01 8.885877468914603e-01 8.059446291995946e-01 8.430166659336519e-01 8.428559642353685e-01 8.749257312742281e-01 8.772559054686042e-01 8.974836087795801e-01 8.388194548986544e-01 8.683788886880226e-01 8.676249548651216e-01 9.004378675330212e-01 8.995284673108639e-01 9.324328599301444e-01 9.313712869609394e-01 9.578899766889680e-01 9.597437954303245e-01 9.290204332082835e-01 9.394167103064008e-01 8.563424295454488e-01 9.377758223809719e-01 4.935510366021890e-01 2.843772703880403e-01 7.618079334779357e-01 6.861807531039497e-01 8.467968050368800e-01 8.256071588636615e-01 8.533080640972770e-01 8.524107980117052e-01 8.722357055666605e-01 8.706464655522239e-01 8.826783133261694e-01 5.936586212983324e-01 8.939154417071558e-01 8.353568717131233e-01 8.882673219251298e-01 4.577964631202688e-01 4.968310485279360e-01 4.974819087823780e-01 5.329525922920008e-01 5.336331285136474e-01 5.471217197997714e-01 9.659826585402727e-01 3.466788562078477e-01 2.211030366943101e-01 3.128014313151931e-02 5.922749315523387e-01 8.955464831886363e-01 8.363175083872841e-01 8.883449533906428e-01 9.563533076537112e-01 9.528303673786701e-01 9.530182849322456e-01 9.478743579623607e-01 9.483669615980777e-01 9.388522367315640e-01 9.562007956316136e-01 9.587570234711811e-01 9.586019527749220e-01 9.598362076664863e-01 9.598586070710300e-01 9.610199435125454e-01 9.646644936140064e-01 9.385765301298673e-01 9.886357300686731e-01 7.566183229030360e-01 9.784881078443719e-01 9.798726314922765e-01 9.797804294157054e-01 9.803609539162377e-01 9.803535171876725e-01 9.807593347038082e-01 7.913804565305348e-01 8.231781896280714e-01 8.239579391709285e-01 8.468734056878013e-01 8.475991077647895e-01 8.666394722141938e-01 8.667325856335264e-01 8.680802063132745e-01 9.157924452597269e-01 9.299582478327808e-01 9.299343887119471e-01 9.426800023896513e-01 9.423815757965532e-01 9.529085958412332e-01 9.529424454251944e-01 9.606938036829710e-01 9.190552215226371e-01 9.054535962863810e-01 9.055564813455397e-01 8.744042389444271e-01 7.175023114298633e-01 7.317716318421015e-01 7.311608583494695e-01 7.404320757153939e-01 7.403139767037351e-01 7.458192429438719e-01 7.899053325275172e-01 8.094197531029036e-01 8.087446945479821e-01 8.193866155906926e-01 8.189183088833740e-01 8.259116096249676e-01 2.195397472093811e-01 3.020152168181772e-01 1.275844440216131e-01 1.559400409882053e-01 1.717185373492930e-01 1.334675567205010e-01 3.608377125787197e-01 3.840287860309287e-01 3.836435105615880e-01 4.056025461557193e-01 4.050398165249673e-01 4.290615010932355e-01 4.284888442496784e-01 4.510800229633951e-01 4.620404181320864e-01 5.245616914787345e-01 5.239897616729675e-01 6.292360408383199e-01 6.276009622698473e-01 7.031131818173352e-01 6.899392447506698e-01 7.206174707126989e-01 5.217535160939638e-01 5.391077668910689e-01 5.300332107376688e-01 5.127214251928270e-01 2.269529656298725e-01 2.371686764430618e-01 2.344332464013656e-01 2.262666859243789e-01 2.210497053759305e-01 2.714376569766542e-01 2.789005285713571e-01 4.434963512347013e-01 1.638050433148353e-01 3.045378785694133e-01 6.760127948610087e-01 5.546575863193790e-01 6.132448120077376e-01 2.271510163516074e-01 4.694491387780516e-01 4.754061401814428e-01 4.752707781549389e-01 4.811655114652083e-01 4.810231236754753e-01 4.862698611847203e-01 4.861265940362596e-01 4.907479484959355e-01 1.293249506234364e-01 3.811676814228037e-01 1.467864117144181e-01 1.433836612979021e-01 3.817171659894962e-01 3.710198920797882e-01 5.647765919508950e-01 4.269782367335586e-01 5.301039985783222e-01 4.945446369849084e-01 3.703684623274001e-01 3.975114194156055e-01 4.596883218054251e-01 5.090169561385181e-01 4.275992336524660e-01 4.536862100690168e-01 4.707692684382278e-01 3.515129649365633e-01 3.426549918755529e-01 4.532218047438606e-01 3.535075306059299e-01 5.232909031546779e-01 4.350081034722976e-01 5.657351066982881e-01 5.980635192829156e-01 5.084555846364313e-01 5.673607550249686e-01 5.234381078089760e-01 3.889924684507347e-01 4.367282238150418e-01 5.224129890021720e-01 4.943170563719581e-01 3.959956885746637e-01 4.329847997010068e-01 4.512958085407376e-01 3.489862388592486e-01 4.491040844751540e-01 4.226428745167728e-01 5.065109030415114e-01 5.065738175821307e-01 5.201538040743585e-01 4.478986499596100e-01 5.660473568755789e-01 4.805395298208985e-01 5.216798713443189e-01 5.592524444200798e-01 5.963567284277022e-01 6.198020895408342e-01 5.209391137667763e-01 5.975052856744864e-01 5.653402117222039e-01 4.644941514030478e-01 5.229644181935977e-01 5.569136864814133e-01 4.657598587955359e-01 4.413641253566564e-01 5.232151405674261e-01 5.537645316717876e-01 5.748155497018345e-01 6.213195399534860e-01 5.547644154121970e-01 5.156760605884957e-01 5.750602011793453e-01 4.841876014079773e-01 5.689313460177642e-01 5.154687800043654e-01 5.163458940889316e-01 5.014814876018805e-01 5.750781705100216e-01 4.571721022860556e-01 3.738472843081653e-01 4.922136512195929e-01 5.162031959035474e-01 4.466569049956006e-01 4.849848098690168e-01 4.574857366418482e-01 3.528066088803073e-01 3.752412320573531e-01 3.666828381549013e-01 4.523212196340804e-01 4.538489373593206e-01 4.470428743456899e-01 5.162935345710991e-01 4.424841463780429e-01 1.160817572933414e-02 1.117145780819432e-02 3.150668694996786e-02 -7.998966649754554e-03 -5.394990712701084e-03 1.339395736245563e-02 -1.184268125894057e-01 6.188667409833124e-01 3.509738212637085e-01 5.378528260042031e-01 6.277090865671561e-01 6.738344692420735e-01 1.299687054978113e-02 2.965790238345390e-02 -1.162878151123411e-02 3.238020147501169e-02 -1.539254179905384e-02 -1.407165143156493e-02 4.854654562598103e-02 3.260008599398311e-02 8.653548769820720e-03 -2.498295442154064e-03 1.547042745885631e-02 -1.225679968108224e-03 -7.640580539320468e-02 -1.440514960607676e-01 5.323103172920037e-01 3.641740855059579e-01 5.183042638794403e-01 5.976298891958614e-01 -3.070549020650630e-02 8.554886889397988e-02 2.522573975560775e-02 3.194511590569610e-01 2.032210303041618e-01 4.043383557132790e-01 6.358622181180995e-01 4.391884677223233e-01 5.938720019970569e-01 2.622202916925057e-01 5.168873346485574e-01 3.667182636938583e-01 4.404090931659931e-01 3.752050503825722e-01 5.953720190753272e-01 3.235922062008640e-01 4.011903414072455e-01 4.978333221702438e-01 1.122501031678451e-02 4.784814249627815e-01 5.544800508397498e-01 3.809531416629031e-02 4.704625627001225e-01 2.284017561817300e-02 2.939506018247898e-01 2.119784373325187e-01 1.484892832653351e-01 3.990169959666488e-01 2.090613552610748e-01 2.968116423741300e-01 5.386264918389781e-01 4.597575895649165e-01 6.298229039010781e-01 2.920954066424031e-01 3.713328565818231e-01 2.112584978278394e-01 4.565306867294330e-01 4.620743401971028e-02 1.379460064902526e-01 5.174511048337356e-01 5.956544570881908e-01 2.588473967832766e-01 3.018272960144944e-01 5.157524226540725e-01 2.638858367860349e-01 2.658761772701879e-01 3.796826147370664e-01 5.130787756094266e-01 1.617370641740410e-01 2.274852678109587e-01 1.195173396598558e-01 -2.739098927403675e-02 7.998004158925727e-02 -2.708360799359998e-02 2.149874584646352e-01 2.078931008269167e-01 2.902061743965986e-01 -1.825249368664323e-03 1.642422406462724e-02 9.297435738882262e-03 8.018360550628562e-03 3.751063081991859e-03 6.799784016467932e-03 1.846589763262019e-01 6.498977199196683e-02 2.406373474552483e-01 4.388672797067369e-02 7.615250601323537e-02 -2.416535113694813e-02 6.930983993576988e-02 1.108171893746239e-01 2.364781615275313e-01 1.146222972217010e-01 5.478157264444255e-02 1.646623812519905e-01 -1.926026817211652e-02 4.092145439399206e-02 -2.107379409673503e-02 -3.297400575178427e-02 1.000940652119445e-01 5.042416017878749e-02 1.039616578662622e-01 9.170707358488861e-02 4.470774095916059e-02 9.352454563939326e-02 3.360680650599841e-02 5.085482602617682e-02 5.928798419120090e-02 9.932949861952348e-02 1.600424613974604e-01 5.078587057579433e-02 -1.823895876602008e-02 3.573706217400880e-02 6.053899549921332e-02 3.065238655663717e-02 9.708696725952579e-02 5.912434333650970e-02 9.598352666178113e-02 -2.774650712102446e-02 -2.219697031862670e-02 5.454369487358392e-02 -2.345999804484206e-02 3.640221963333788e-01 1.682824240412913e-01 2.115426284433972e-01 1.633555183293715e-01 3.700607576845205e-01 2.707200656790104e-01 1.529606351890888e-01 1.895119765963872e-01 2.885966913523315e-01 1.548130605761319e-01 8.793299928506799e-02 1.835456267660204e-01 1.699705980232690e-01 8.151602485511053e-02 1.986847360673767e-01 9.156247079712887e-02 1.078259414361400e-01 1.792602681161371e-01 6.788822396822295e-03 8.064848730454668e-03 8.315434877054646e-03 3.768921157040936e-03 1.422960833873107e-02 4.518289340676507e-02 2.221722752364011e-01 3.720136352038820e-01 5.652710844800768e-01 2.201369841601531e-01 8.988455778141209e-02 3.542010734514560e-01 -2.676257793015786e-03 -4.729054619302667e-04 3.737725206308319e-03 -1.304127209431058e-02 1.336730959490823e-01 1.767515242687899e-02 1.985537077500084e-01 1.771724489671619e-01 -4.519163156699849e-02 2.581364459553378e-02 2.491341198197469e-01 2.240606550313354e-01 4.270069869448004e-02 4.340911643782704e-02 1.931954957527049e-01 4.048351337331929e-02 2.311649013152753e-03 4.007161008739574e-02 -7.291720109700096e-03 1.195810314531585e-02 -2.523297242677856e-04 5.717661060547378e-03 1.126100244975627e-02 -4.495266614646989e-03 -1.661471673124198e-03 5.633218601611914e-03 3.158609649875691e-02 2.970245934967897e-01 4.039342652878382e-01 3.988499673783549e-01 3.984018911810402e-01 4.038177160362862e-01 5.149286802203874e-01 5.161422202737491e-01 4.019159498165419e-01 5.136378167849034e-01 9.444556986154626e-01 9.445483778469655e-01 9.629759980937427e-01 9.321873011479115e-01 8.719366080922134e-01 9.476979837740165e-01 8.965165838643759e-01 8.906598124163329e-01 9.517422780338369e-01 9.467174519057486e-01 8.993795665608599e-01 9.464042091067603e-01 6.850786896525866e-01 8.262347465840432e-01 6.730318253741463e-01 9.455863460441674e-01 8.901122231159958e-01 9.567934328800748e-01 8.836999550100363e-01 8.898030921345619e-01 9.518125869241871e-01 8.875684470753876e-01 7.705046729806380e-01 8.937627627540122e-01 9.031503768448359e-01 7.778443758280976e-01 7.808684719538462e-01 8.983701086520169e-01 8.989598473713043e-01 7.800680933523264e-01 7.801004673441287e-01 6.317835009000558e-01 7.835124607301399e-01 6.397914601906806e-01 6.187181066630943e-01 7.773829978711400e-01 7.718919531817990e-01 8.870650134479364e-01 7.823928518306166e-01 7.849737077150996e-01 6.440389563342017e-01 7.737033045761298e-01 6.410610297790927e-01 4.955640794367471e-01 6.198908938776664e-01 5.129419341307060e-01 6.403568362981530e-01 5.152556133747900e-01 7.311683077672372e-01 6.253436982959658e-01 6.399043877160751e-01 6.407568503610347e-01 6.266520034329457e-01 5.087493639139415e-01 9.204013408440678e-01 8.210912896266802e-01 6.871650936421826e-01 6.992392792145418e-01 9.504887392237898e-01 9.141256662208490e-01 8.704802750855354e-01 9.446841374101791e-01 7.875126028381042e-01 4.503929277155511e-01 -9.876539463150583e-02 2.041245047854486e-01 2.293510815645102e-01 4.278839636320009e-01 2.535316445551409e-01 -6.959355751217376e-02 6.334794660609031e-01 7.982574554880537e-01 -1.126082091101672e-01 4.659676766487673e-01 -5.136956492945815e-04 8.223586920616979e-02 2.097573522725809e-01 8.375844885669696e-02 2.325110778427960e-01 2.233871006959494e-01 7.331381499231439e-02 2.603151712392329e-01 9.051928262322834e-02 2.182469159411376e-01 8.018799113656322e-02 8.198253672590262e-02 2.713581794758295e-02 8.431410107920695e-02 9.086595189037519e-02 2.142566570808989e-02 9.473905206628470e-02 2.323722493582388e-01 2.211508013383635e-01 2.208442040942716e-01 1.010326980047365e-01 8.477270083425915e-02 2.278718919880428e-01 8.825596189242886e-02 2.263791104518141e-01 7.935021192385507e-02 2.470793240179397e-02 2.094306480646665e-02 -8.629995082713288e-02 8.082040803743431e-01 4.423263715042000e-01 2.252366476902917e-02 3.323992677877634e-02 8.449338125799551e-02 8.871337900103957e-02 8.535644893476566e-02 1.886827205777461e-02 8.761852915113752e-02 2.174013399787530e-01 9.434350770793601e-02 4.495413117819070e-01 3.052120496980855e-01 4.706977718376703e-01 5.331672720566096e-01 2.561541764582525e-01 5.213916627951471e-01 4.613463262986592e-01 5.199451105505617e-01 5.179989685417548e-01 5.314485368454529e-01 5.418242280434168e-01 5.882908948334928e-01 5.079797792061288e-01 5.436740407901738e-01 5.565807756216448e-01 8.557352347744467e-02 1.239921333098684e-01 2.351601317899260e-01 5.939189667332276e-01 5.473307794200213e-01 4.540118304675240e-01 5.693392179177403e-01 2.083861504870004e-01 4.906150412125161e-01 5.688053439487339e-01 5.925351224733643e-01 2.253376935229858e-01 2.621736875512322e-01 4.659273032306148e-02 2.887796443402746e-01 2.546838735299929e-01 1.230162572472585e-01 5.560889011923424e-02 6.854620975508463e-01 3.342834517076589e-01 7.163345133315365e-01 2.233821799408289e-01 3.149141218754149e-02 1.405860535823643e-01 3.215167407311624e-01 4.681651599359404e-01 3.376748318775575e-01 4.598109642689249e-01 3.375838752409352e-01 4.196010593408292e-01 4.824047490176755e-01 5.015406513437384e-01 5.350138012464875e-01 2.620983397844349e-01 3.019257829303872e-01 2.910080140099746e-01 2.841027296895403e-01 2.709748842800700e-01 2.588923388776485e-01 4.735724284497526e-01 3.203599009981897e-01 2.477703674109028e-01 4.621050190172785e-01 4.160129951354709e-01 5.205467793129515e-01 4.183268727340919e-01 5.482400641247459e-01 5.419711491373060e-01 4.686090446758565e-01 4.735038720901800e-01 2.458729202852576e-01 2.872363316832619e-01 4.665791663440767e-01 2.518776452736848e-01 2.995329782313267e-01 4.131806607419938e-02 3.311337315211423e-01 4.739860292816817e-01 4.710080886463641e-01 3.154630857911433e-01 4.712110255813301e-01 3.106797852812653e-01 3.171701216453853e-01 4.567789006345231e-01 3.805532459714891e-01 4.796115704256009e-01 3.745635838812915e-01 3.950058275948597e-01 4.685767780558784e-01 5.488710977950633e-01 4.187043129645535e-01 4.746353553174699e-01 4.080437972730759e-01 3.415956500868164e-01 4.568334205647355e-01 4.565626389046067e-01 3.426435169115095e-01 3.298096103030169e-01 5.040586392288733e-01 4.229198895560319e-01 5.143046852548570e-01 5.045191327046628e-01 4.328548757029283e-01 4.235143096266036e-01 4.774740339300162e-01 3.360423389069830e-01 4.681452060418703e-01 9.943851400265394e-02 5.584557285005697e-01 5.752059168149090e-01 5.731623264685195e-03 1.808213571460237e-02 1.066316583135217e-02 6.810627967888174e-03 1.871256379258909e-02 2.080927352229685e-03 2.036514524230848e-01 6.063873130790663e-01 5.140519038589948e-01 1.795966844000297e-01 3.236584110992223e-01 6.547172768844994e-02 2.751343390232650e-01 2.224801958377922e-01 4.983433207666224e-01 2.226052901562177e-01 2.699731747319276e-01 1.270618225184811e-01 2.361097019452816e-01 5.737896012546907e-01 5.944797687503252e-01 5.033466128628081e-01 4.688052215700564e-01 5.492468938829667e-01 3.527792074384820e-03 3.036980487411238e-03 1.961724849249790e-03 4.259531819790346e-01 2.411623418299416e-01 5.924637162712989e-01 1.838993399245836e-01 2.298748269920904e-01 5.903046071056497e-01 1.350292083209245e-02 -4.072843764371713e-03 -3.732756752753157e-03 4.420281733947284e-01 3.396352934307152e-01 1.739815392721047e-01 5.105748945119595e-01 4.549272788558010e-01 1.969545172672090e-01 3.703585684280127e-01 2.857741693095729e-01 5.368829905438572e-02 4.774910662844642e-02 2.764615010660715e-01 -3.870443512645204e-02 1.393071512688526e-01 3.616019009225800e-01 2.386304646515728e-01 3.590962631480076e-01 1.178907090145534e-01 3.383985065461683e-01 3.886360178428518e-01 6.049401296122572e-01 2.097195058149300e-01 2.275193301305766e-02 1.104592914522141e-01 5.598884056503024e-01 1.260128882759060e-01 -4.249494477410375e-02 -4.192010177013460e-02 -9.116461348946764e-02 1.744471846536557e-01 3.049350731713984e-01 3.624556897672714e-01 1.899242770218744e-01 5.364403458229882e-01 3.931974049187228e-01 1.953746086629238e-02 1.618765050876231e-01 7.825089319164168e-03 2.191331252046790e-02 2.778374591955824e-02 1.962994335007203e-02 1.268245241298405e-02 5.387916834789952e-03 1.209489538275960e-02 5.580392098070852e-03 5.957631588411850e-03 6.990132431295827e-01 6.271023322372631e-01 3.864889241811137e-01 3.456659530912218e-01 6.714964561571377e-01 3.678800362993112e-01 -5.617512547249477e-03 1.455170908884845e-02 -4.220976613155739e-03 4.254508000013701e-02 2.503476839924509e-01 4.110253528223513e-01 -2.920437073232617e-02 2.636913975873220e-01 4.742500952027306e-02 3.576267187689611e-03 5.306114957408495e-03 3.031453145335435e-03 5.402539429252081e-03 3.455006799190459e-03 8.345390699388684e-03 6.027009854719954e-03 9.958700279574057e-03 2.009238643298607e-03 4.279469265676221e-01 4.922656664995526e-01 5.141763428745780e-01 8.459151477051466e-03 4.929349687913712e-02 8.159829588021639e-02 4.911337810580992e-02 2.753369