<?xml version="1.0"?>
<VTKFile type="UnstructuredGrid" version="0.1" byte_order="LittleEndian">
<UnstructuredGrid>
<Piece NumberOfPoints="567" NumberOfCells="966">
<Points>
<DataArray type="Float64" NumberOfComponents="3" format="ascii">
0.000000000000000e+00 0.000000000000000e+00 0.000000000000000e+00 0.000000000000000e+00 1.000000000000000e+00 0.000000000000000e+00 1.600000000000000e+01 1.000000000000000e+00 0.000000000000000e+00 1.600000000000000e+01 0.000000000000000e+00 0.000000000000000e+00 0.000000000000000e+00 2.499999999993998e-01 0.000000000000000e+00 0.000000000000000e+00 4.999999999990217e-01 0.000000000000000e+00 0.000000000000000e+00 7.499999999993374e-01 0.000000000000000e+00 2.025316455691341e-01 1.000000000000000e+00 0.000000000000000e+00 4.050632911382681e-01 1.000000000000000e+00 0.000000000000000e+00 6.075949367074022e-01 1.000000000000000e+00 0.000000000000000e+00 8.101265822765362e-01 1.000000000000000e+00 0.000000000000000e+00 1.012658227845670e+00 1.000000000000000e+00 0.000000000000000e+00 1.215189873414804e+00 1.000000000000000e+00 0.000000000000000e+00 1.417721518983938e+00 1.000000000000000e+00 0.000000000000000e+00 1.620253164553072e+00 1.000000000000000e+00 0.000000000000000e+00 1.822784810122207e+00 1.000000000000000e+00 0.000000000000000e+00 2.025316455691340e+00 1.000000000000000e+00 0.000000000000000e+00 2.227848101260475e+00 1.000000000000000e+00 0.000000000000000e+00 2.430379746829609e+00 1.000000000000000e+00 0.000000000000000e+00 2.632911392398743e+00 1.000000000000000e+00 0.000000000000000e+00 2.835443037967877e+00 1.000000000000000e+00 0.000000000000000e+00 3.037974683537010e+00 1.000000000000000e+00 0.000000000000000e+00 3.240506329106145e+00 1.000000000000000e+00 0.000000000000000e+00 3.443037974675279e+00 1.000000000000000e+00 0.000000000000000e+00 3.645569620244413e+00 1.000000000000000e+00 0.000000000000000e+00 3.848101265813547e+00 1.000000000000000e+00 0.000000000000000e+00 4.050632911382726e+00 1.000000000000000e+00 0.000000000000000e+00 4.253164556952040e+00 1.000000000000000e+00 0.000000000000000e+00 4.455696202521353e+00 1.000000000000000e+00 0.000000000000000e+00 4.658227848090667e+00 1.000000000000000e+00 0.000000000000000e+00 4.860759493659981e+00 1.000000000000000e+00 0.000000000000000e+00 5.063291139229296e+00 1.000000000000000e+00 0.000000000000000e+00 5.265822784798610e+00 1.000000000000000e+00 0.000000000000000e+00 5.468354430367923e+00 1.000000000000000e+00 0.000000000000000e+00 5.670886075937237e+00 1.000000000000000e+00 0.000000000000000e+00 5.873417721506551e+00 1.000000000000000e+00 0.000000000000000e+00 6.075949367075864e+00 1.000000000000000e+00 0.000000000000000e+00 6.278481012645178e+00 1.000000000000000e+00 0.000000000000000e+00 6.481012658214492e+00 1.000000000000000e+00 0.000000000000000e+00 6.683544303783806e+00 1.000000000000000e+00 0.000000000000000e+00 6.886075949353121e+00 1.000000000000000e+00 0.000000000000000e+00 7.088607594922435e+00 1.000000000000000e+00 0.000000000000000e+00 7.291139240491749e+00 1.000000000000000e+00 0.000000000000000e+00 7.493670886061063e+00 1.000000000000000e+00 0.000000000000000e+00 7.696202531630375e+00 1.000000000000000e+00 0.000000000000000e+00 7.898734177199691e+00 1.000000000000000e+00 0.000000000000000e+00 8.101265822769285e+00 1.000000000000000e+00 0.000000000000000e+00 8.303797468339161e+00 1.000000000000000e+00 0.000000000000000e+00 8.506329113909036e+00 1.000000000000000e+00 0.000000000000000e+00 8.708860759478913e+00 1.000000000000000e+00 0.000000000000000e+00 8.911392405048788e+00 1.000000000000000e+00 0.000000000000000e+00 9.113924050618664e+00 1.000000000000000e+00 0.000000000000000e+00 9.316455696188541e+00 1.000000000000000e+00 0.000000000000000e+00 9.518987341758416e+00 1.000000000000000e+00 0.000000000000000e+00 9.721518987328292e+00 1.000000000000000e+00 0.000000000000000e+00 9.924050632898169e+00 1.000000000000000e+00 0.000000000000000e+00 1.012658227846805e+01 1.000000000000000e+00 0.000000000000000e+00 1.032911392403792e+01 1.000000000000000e+00 0.000000000000000e+00 1.053164556960780e+01 1.000000000000000e+00 0.000000000000000e+00 1.073417721517767e+01 1.000000000000000e+00 0.000000000000000e+00 1.093670886074755e+01 1.000000000000000e+00 0.000000000000000e+00 1.113924050631742e+01 1.000000000000000e+00 0.000000000000000e+00 1.134177215188730e+01 1.000000000000000e+00 0.000000000000000e+00 1.154430379745718e+01 1.000000000000000e+00 0.000000000000000e+00 1.174683544302705e+01 1.000000000000000e+00 0.000000000000000e+00 1.194936708859693e+01 1.000000000000000e+00 0.000000000000000e+00 1.215189873416701e+01 1.000000000000000e+00 0.000000000000000e+00 1.235443037973717e+01 1.000000000000000e+00 0.000000000000000e+00 1.255696202530733e+01 1.000000000000000e+00 0.000000000000000e+00 1.275949367087749e+01 1.000000000000000e+00 0.000000000000000e+00 1.296202531644764e+01 1.000000000000000e+00 0.000000000000000e+00 1.316455696201780e+01 1.000000000000000e+00 0.000000000000000e+00 1.336708860758796e+01 1.000000000000000e+00 0.000000000000000e+00 1.356962025315812e+01 1.000000000000000e+00 0.000000000000000e+00 1.377215189872827e+01 1.000000000000000e+00 0.000000000000000e+00 1.397468354429843e+01 1.000000000000000e+00 0.000000000000000e+00 1.417721518986859e+01 1.000000000000000e+00 0.000000000000000e+00 1.437974683543874e+01 1.000000000000000e+00 0.000000000000000e+00 1.458227848100890e+01 1.000000000000000e+00 0.000000000000000e+00 1.478481012657906e+01 1.000000000000000e+00 0.000000000000000e+00 1.498734177214921e+01 1.000000000000000e+00 0.000000000000000e+00 1.518987341771937e+01 1.000000000000000e+00 0.000000000000000e+00 1.539240506328953e+01 1.000000000000000e+00 0.000000000000000e+00 1.559493670885968e+01 1.000000000000000e+00 0.000000000000000e+00 1.579746835442984e+01 1.000000000000000e+00 0.000000000000000e+00 1.600000000000000e+01 7.500000000003469e-01 0.000000000000000e+00 1.600000000000000e+01 5.000000000013878e-01 0.000000000000000e+00 1.600000000000000e+01 2.500000000010407e-01 0.000000000000000e+00 1.579746835443066e+01 0.000000000000000e+00 0.000000000000000e+00 1.559493670886132e+01 0.000000000000000e+00 0.000000000000000e+00 1.539240506329198e+01 0.000000000000000e+00 0.000000000000000e+00 1.518987341772264e+01 0.000000000000000e+00 0.000000000000000e+00 1.498734177215330e+01 0.000000000000000e+00 0.000000000000000e+00 1.478481012658396e+01 0.000000000000000e+00 0.000000000000000e+00 1.458227848101463e+01 0.000000000000000e+00 0.000000000000000e+00 1.437974683544529e+01 0.000000000000000e+00 0.000000000000000e+00 1.417721518987595e+01 0.000000000000000e+00 0.000000000000000e+00 1.397468354430661e+01 0.000000000000000e+00 0.000000000000000e+00 1.377215189873727e+01 0.000000000000000e+00 0.000000000000000e+00 1.356962025316793e+01 0.000000000000000e+00 0.000000000000000e+00 1.336708860759859e+01 0.000000000000000e+00 0.000000000000000e+00 1.316455696202925e+01 0.000000000000000e+00 0.000000000000000e+00 1.296202531645991e+01 0.000000000000000e+00 0.000000000000000e+00 1.275949367089057e+01 0.000000000000000e+00 0.000000000000000e+00 1.255696202532123e+01 0.000000000000000e+00 0.000000000000000e+00 1.235443037975189e+01 0.000000000000000e+00 0.000000000000000e+00 1.215189873418256e+01 0.000000000000000e+00 0.000000000000000e+00 1.194936708861336e+01 0.000000000000000e+00 0.000000000000000e+00 1.174683544304458e+01 0.000000000000000e+00 0.000000000000000e+00 1.154430379747580e+01 0.000000000000000e+00 0.000000000000000e+00 1.134177215190703e+01 0.000000000000000e+00 0.000000000000000e+00 1.113924050633825e+01 0.000000000000000e+00 0.000000000000000e+00 1.093670886076947e+01 0.000000000000000e+00 0.000000000000000e+00 1.073417721520070e+01 0.000000000000000e+00 0.000000000000000e+00 1.053164556963192e+01 0.000000000000000e+00 0.000000000000000e+00 1.032911392406314e+01 0.000000000000000e+00 0.000000000000000e+00 1.012658227849436e+01 0.000000000000000e+00 0.000000000000000e+00 9.924050632925587e+00 0.000000000000000e+00 0.000000000000000e+00 9.721518987356809e+00 0.000000000000000e+00 0.000000000000000e+00 9.518987341788034e+00 0.000000000000000e+00 0.000000000000000e+00 9.316455696219256e+00 0.000000000000000e+00 0.000000000000000e+00 9.113924050650478e+00 0.000000000000000e+00 0.000000000000000e+00 8.911392405081703e+00 0.000000000000000e+00 0.000000000000000e+00 8.708860759512925e+00 0.000000000000000e+00 0.000000000000000e+00 8.506329113944147e+00 0.000000000000000e+00 0.000000000000000e+00 8.303797468375370e+00 0.000000000000000e+00 0.000000000000000e+00 8.101265822806592e+00 0.000000000000000e+00 0.000000000000000e+00 7.898734177237253e+00 0.000000000000000e+00 0.000000000000000e+00 7.696202531667353e+00 0.000000000000000e+00 0.000000000000000e+00 7.493670886097451e+00 0.000000000000000e+00 0.000000000000000e+00 7.291139240527549e+00 0.000000000000000e+00 0.000000000000000e+00 7.088607594957649e+00 0.000000000000000e+00 0.000000000000000e+00 6.886075949387747e+00 0.000000000000000e+00 0.000000000000000e+00 6.683544303817845e+00 0.000000000000000e+00 0.000000000000000e+00 6.481012658247945e+00 0.000000000000000e+00 0.000000000000000e+00 6.278481012678045e+00 0.000000000000000e+00 0.000000000000000e+00 6.075949367108143e+00 0.000000000000000e+00 0.000000000000000e+00 5.873417721538242e+00 0.000000000000000e+00 0.000000000000000e+00 5.670886075968340e+00 0.000000000000000e+00 0.000000000000000e+00 5.468354430398438e+00 0.000000000000000e+00 0.000000000000000e+00 5.265822784828536e+00 0.000000000000000e+00 0.000000000000000e+00 5.063291139258636e+00 0.000000000000000e+00 0.000000000000000e+00 4.860759493688734e+00 0.000000000000000e+00 0.000000000000000e+00 4.658227848118834e+00 0.000000000000000e+00 0.000000000000000e+00 4.455696202548932e+00 0.000000000000000e+00 0.000000000000000e+00 4.253164556979030e+00 0.000000000000000e+00 0.000000000000000e+00 4.050632911409130e+00 0.000000000000000e+00 0.000000000000000e+00 3.848101265838807e+00 0.000000000000000e+00 0.00000000000000
[...]
<CellData Scalars="conc_conc," Vectors="" Tensors="">
<DataArray type="Float64" Name="conc_conc" format="ascii">
4.105448386798059e-11 2.560056154470797e-03 6.643171954866589e-11 2.809968962940804e-03 4.771473005430001e-11 9.184025756455232e-11 4.052832612624394e-11 3.852445842697680e-11 2.196022667609552e-11 1.424051214337131e-11 3.307316369299931e-11 8.569403428138834e-12 2.805315644989024e-11 3.371680290801376e-09 1.425815472367291e-06 4.798124361313520e-11 6.785586832858584e-11 7.830601714681838e-05 6.445136206861027e-11 6.334538992583338e-11 1.100415250960661e-02 1.552677442248620e-10 7.546061959803184e-11 2.672795558598061e-02 7.204219069001506e-11 8.305054778434263e-11 7.565505381188627e-11 5.205510833499673e-02 4.165275687955343e-11 5.251125532212379e-02 4.834886849098836e-11 1.619651844113242e-10 4.134127789045109e-11 2.844816201500492e-02 3.954244798232973e-11 1.713908931656325e-10 1.102499178487784e-02 5.289455042126851e-11 8.347652345259534e-05 8.238797458016206e-11 1.499265658420222e-06 3.965833033667465e-09 8.486483498974581e-12 9.670558454600263e-12 1.547331829830191e-11 2.820592798220525e-11 1.304456906080834e-11 1.187797984829932e-11 1.734774693458817e-13 8.288695910430591e-06 2.033867921851488e-10 2.247042768995831e-05 3.532725869817970e-11 5.144608115394078e-13 2.041245867370753e-06 9.013897262332814e-07 8.311940078689270e-12 4.547687239686595e-11 3.454474203367985e-06 6.692825003090141e-11 4.437401652018290e-11 3.620351573930663e-06 3.199177287339510e-11 4.828543021484929e-02 7.587226408173703e-11 6.455318915456792e-03 1.827207761322772e-10 7.183222695471689e-11 4.396058896782125e-11 3.894678754384234e-11 5.343658447670981e-11 3.583804752338200e-02 3.912992572434171e-11 4.818224737987093e-11 8.166474006889425e-11 1.149981624228605e-08 1.738085219495659e-11 8.160204316651704e-12 1.503880502551842e-11 2.438813750386081e-11 4.608521477932787e-03 5.279227042232877e-11 3.410257230270584e-11 2.136342117167121e-11 3.915447149640239e-11 1.154608125241174e-11 1.567491287368100e-11 3.164293953387234e-11 9.815019846188212e-09 3.057483424370763e-11 5.259099027046499e-11 7.130465437083023e-11 3.409330622304788e-02 6.113712874877924e-11 8.061654415336626e-11 2.382317622088249e-04 9.309013307193522e-11 1.436413390996318e-10 6.517300463816439e-03 1.603519909986223e-10 1.681243385329736e-02 9.880728232162734e-11 4.725390544490894e-02 7.748547575768206e-11 6.949866407779850e-11 6.413017470031886e-11 4.323590064082480e-11 5.382194976144052e-02 5.755720516604001e-07 2.637961862223634e-11 1.169405494506994e-09 2.023670333110909e-02 6.851175171641766e-12 3.431470477374952e-11 1.687406503099808e-11 2.281837588792791e-11 3.782235548292525e-11 8.687115172920163e-11 4.167210793325863e-11 4.235542094512573e-03 3.717471587828521e-05 7.259999612750879e-05 2.074335296997829e-11 1.922709083427024e-11 4.040978862621717e-11 1.522155400232328e-03 6.665285328482104e-11 1.677824303506423e-03 4.501868885487137e-11 9.592519224306158e-11 2.206724092912834e-05 3.955975274286019e-11 7.885371234067875e-14 5.889722086158937e-07 2.951354126760946e-11 4.996407957918202e-02 5.743400548555857e-12 8.075651149575280e-12 7.526348243058010e-12 6.638479835244029e-12 4.152223166586631e-12 1.439328241655473e-11 1.962788488397906e-12 1.234220719389351e-09 2.132976253446551e-11 2.589200557591164e-02 2.684291331150587e-11 3.150350045951842e-11 5.314142574184866e-02 2.690462145021949e-12 1.279761342864571e-02 7.082498136566834e-11 6.974727728423990e-11 5.397845936920641e-02 4.418448867004704e-11 3.986815091150280e-11 4.016811261835191e-11 2.156618610828969e-02 1.358184075363495e-10 5.884901039767046e-11 1.633941020375593e-10 7.993399538315187e-11 1.716850463729642e-02 2.596747922409820e-04 6.054147230202935e-07 1.332286524989631e-09 5.989106547248593e-12 1.123645474777964e-11 1.609104291355973e-11 6.630753891305350e-11 3.130801415250561e-12 2.047117149698385e-12 9.898961602680048e-13 1.767471551194390e-12 2.772092415733187e-12 2.868890430352171e-12 2.695448626764703e-02 3.040574193751099e-09 2.686775325033892e-12 4.530820958510473e-13 9.312454705283576e-13 1.543707826967039e-11 1.117978443045437e-02 5.742214878808910e-12 1.078282085187238e-11 7.647826935644870e-12 6.834846775695109e-12 3.676095809795855e-12 7.743548158022442e-12 3.082769833005180e-12 3.045844236674547e-09 1.497825916438731e-11 2.140790674580279e-11 3.138852188866874e-02 2.826635091903695e-11 2.150935329746412e-12 9.141293543871394e-03 6.224127427068481e-08 2.982675553157891e-12 9.638719539457310e-13 2.597118917934009e-12 7.726084479204726e-13 1.948881592812689e-11 4.783491828402143e-11 2.652901336938523e-02 1.005894861815059e-11 3.911736376176458e-09 6.221181028516008e-12 8.299333578979934e-13 2.417974569829898e-13 6.041744569303492e-11 1.070594029674658e-02 3.708160297525948e-11 1.334553747240168e-04 1.344637255805248e-04 5.615007989379967e-11 5.054757038440858e-11 8.272326535873199e-11 3.296640650159222e-02 1.637493113032760e-03 1.880962680264312e-10 9.199302330769341e-11 5.232255375420109e-11 3.779435450400767e-11 8.882875816332876e-08 4.895513213668445e-02 1.418683260363955e-10 5.987823889580755e-12 1.378276031838942e-11 1.889832007308168e-11 6.403070117013215e-11 3.973510089237607e-11 4.259268044850751e-11 7.244769944054416e-11 6.895490647619213e-11 6.760732881126012e-11 1.084354262994718e-02 1.253445011828864e-04 2.170901456134617e-11 1.535084695377980e-12 4.657526557283756e-12 5.307896803546278e-02 2.931405752228286e-12 3.597851015272455e-11 7.865013995579554e-05 5.574531833549585e-11 5.108675539457667e-11 7.616621309079921e-05 8.235130421229048e-11 3.510649641645312e-12 5.889211171642454e-12 1.090546021918229e-04 3.979101641293601e-11 6.200982288101362e-11 3.807409374187121e-11 2.912157567681119e-11 4.807786084933724e-02 8.644725418435886e-11 2.137080578669459e-11 2.737611689122234e-11 1.305329835854441e-10 8.227466518937914e-12 8.471269527492114e-08 6.296383918685602e-11 1.332465105442441e-10 1.499455148619891e-03 3.217476249451433e-02 1.433101615795719e-10 4.491776432833207e-14 2.021835068254424e-08 7.846988586526494e-11 1.009534342478481e-02 4.194073525865077e-11 7.087721142914831e-06 1.708751774567333e-12 5.035505999289615e-11 1.214237752089909e-11 3.579551010060037e-06 2.255483354736437e-06 3.502811201644622e-05 6.585800385147665e-11 5.344685352857795e-02 8.199084552162138e-12 2.497108229499098e-10 4.809845886366098e-06 2.424951325979311e-11 8.122880876931685e-05 3.174036382307744e-02 1.553667829093324e-03 5.801749489270468e-11 4.329946960933887e-11 9.525896571309054e-12 9.985155884886747e-12 8.962394735201017e-08 1.398654668735233e-10 1.821833793255576e-12 4.106303189333421e-13 2.804403294029797e-13 4.790622609629139e-02 1.033284562003637e-12 1.138746931812145e-12 7.909935182402443e-12 3.757324596194106e-11 1.686857281770210e-12 4.303504602627578e-11 9.762683288636364e-03 1.618927314763245e-12 4.755119657297142e-12 7.719721025290857e-12 6.363332593552800e-05 1.214838840488528e-12 8.772490280158046e-07 2.772011447231481e-03 5.378824918203291e-12 5.391095154188016e-11 1.315282847983563e-11 8.043886027763569e-06 5.198289920312164e-06 1.317303844863240e-11 2.730396471418029e-11 1.646171532429796e-11 1.092353948044089e-11 4.866791811671677e-02 9.237569204431248e-12 1.164151241160489e-11 3.352568349867579e-12 4.811049164442601e-11 5.384226764321652e-08 4.423381149153744e-11 4.310556301969691e-11 6.770950381229856e-12 3.325074297705574e-11 2.029487282865624e-03 3.506871158368410e-02 3.656288931278891e-11 9.213475932082243e-03 1.009345397490106e-11 1.478165748162952e-12 1.865849769209207e-04 3.845603550891573e-13 1.476222502919839e-06 1.488783386015239e-11 6.667698337137105e-12 1.085749265383601e-05 1.100535195925104e-11 4.226406735359748e-13 2.164194475057540e-05 4.327427313882148e-12 9.202117735191742e-07 3.321356315205103e-11 2.760107885528349e-10 7.925777196427072e-07 2.565870713594896e-03 3.140040258681664e-11 4.108439532810504e-02 8.082630998139382e-11 3.420981662644254e-03 1.921676315862092e-10 3.802290751561702e-11 4.733316279494317e-11 7.059471592860529e-11 5.889530681053446e-11 4.298483100801245e-02 3.909803204398357e-11 4.480448173038651e-11 7.807968416246518e-11 3.248542394283733e-08 4.697090494605262e-11 6.909542642328428e-12 1.458357144507800e-11 2.152228608851426e-11 1.315620099106448e-11 1.792920970253295e-04 7.554996492737856e-12 5.995947046986798e-11 7.180221730649194e-03 3.229422599967129e-11 2.283627201551255e-11 3.965025870780492e-11 1.023017851547973e-11 4.444177124512123e-11 3.016555944759241e-11 3.089755726302047e-08 3.411822388788480e-11 5.748699333138810e-11 7.493189576052256e-11 4.185088202835465e-02 6.132130794438418e-11 8.456778542595845e-11 1.531545077645789e-10 6.317290086613107e-04 3.133015662330774e-03 1.205841268112178e-10 1.170661035812417e-10 2.426603961340928e-02 4.034453851094903e-02 1.564026501628994e-10 8.626407465300283e-11 6.745353888666169e-11 5.211262910520401e-02 1.446925947137856e-02 6.670839609095345e-11 4.282511639834892e-11 2.230684895786343e-07 2.878045263467372e-11 3.837566243083407e-10 7.076720261333425e-12 3.950906053662893e-11 1.942803535246102e-11 2.465202611017911e-11 4.266913201394459e-11 8.255561921148794e-11 6.622317394790081e-03 4.232937295519264e-11 3.823679272040805e-11 2.462301664788256e-04 2.740434520235777e-04 6.701828048046071e-11 4.850669825435958e-11 1.018967458802876e-10 4.186200720959301e-12 2.038359229082713e-05 1.188442344250429e-11 2.314644835520853e-05 3.896595970112675e-11 4.763565439866317e-13 7.920214678398916e-08 2.297557305216887e-13 1.080640996849970e-10 5.414369746339902e-13 2.610231297449656e-12 3.577346885821033e-12 2.482906346831573e-12 5.092430264602112e-08 4.556926889291538e-11 4.338875006248659e-12 1.259876596519572e-12 4.889020977647119e-12 3.627168689512282e-12 3.535511700027792e-12 2.518573626134481e-11 1.719986403245276e-11 1.534291606963109e-11 2.232342177756984e-12 8.837043409707350e-13 2.828349471846499e-12 3.456947840604111e-02 2.109206485858750e-03 1.783736094529057e-12 4.855507713659717e-02 9.674435178176806e-13 3.922611097675792e-12 1.026047275085256e-02 1.594692737225018e-11 1.297496336411301e-11 7.352603501321689e-12 4.683889815415424e-12 1.179318609712641e-12 4.702774078050539e-12 3.110483649599968e-02 1.638571012659742e-03 4.874581715483319e-02 9.290394073252732e-03 6.824128532255023e-11 4.143000444222093e-11 4.122527765170661e-11 6.574741737211929e-11 5.283438449037724e-02 5.993869711471746e-11 7.492017196861570e-11 3.876965963391696e-11 1.558763626540453e-02 2.353634355886437e-07 4.366208940302111e-10 5.568870068731740e-12 1.266508348002808e-11 1.719154487662966e-11 1.750393986511059e-10 1.112166858993659e-10 6.955187777483831e-04 2.477099297462076e-02 6.746307721847691e-11 3.903302112189394e-11 4.739039638180935e-04 4.640204255124184e-11 6.606360717215784e-11 5.235375568504309e-04 9.908036160538808e-11 3.355028033510633e-11 2.548784084817385e-10 8.794182877182279e-08 1.647421354740137e-12 2.421602406066676e-03 3.977456110185601e-11 8.514487740377797e-04 6.818655658969411e-11 9.463008905563036e-04 4.484107787114525e-11 1.009737351794438e-10 4.597969519390123e-11 1.362776178749733e-13 3.240619001301651e-09 1.226621693712132e-11 4.193607011605900e-05 9.794681610335899e-12 2.366119699777672e-03 1.811847150456703e-14 2.940748241496538e-17 1.357368858844320e-06 4.427378794220008e-03 4.749955635076955e-12 1.956858335201886e-12 2.685339228836206e-12 2.864812541586015e-12 4.238713527484388e-12 1.968138000098488e-12 3.446128629544273e-02 9.144532321388779e-13 1.387621531488246e-12 9.022732710782971e-09 2.492888311031320e-12 8.885809661300314e-12 4.270249592175182e-13 1.051518442671149e-12 1.190057765542134e-12 1.585959927134463e-11 2.126668876107188e-11 6.699365845263911e-03 4.500655153271413e-02 5.169485527619990e-06 9.568178316261430e-12 1.311285110923794e-11 9.441663703324115e-07 1.394310569652792e-12 2.364662908211343e-10 5.632998164471078e-15 3.580944403444631e-05 4.162278688091651e-11 3.710669268176013e-05 5.396064058934479e-11 8.009865063457437e-11 5.490824343497930e-11 6.776145919755009e-10 3.008720588355605e-11 1.938032168953215e-07 9.261473930924079e-12 1.488059138557565e-06 6.487498679283474e-13 3.474842106725687e-07 2.058273761621787e-12 1.437661101696955e-12 4.714601506123838e-04 2.392534634477261e-11 2.023537261992877e-02 2.471958036858290e-12 5.417772848801441e-02 1.306851740624785e-11 1.822707010616345e-02 8.179696098600708e-12 3.440908616190878e-07 3.897511631276633e-10 4.164447069511455e-12 1.282607067831709e-12 3.810193185456918e-12 4.299209222590654e-12 5.090256792309803e-12 1.104384935237425e-12 1.532337625977615e-11 1.966318877687287e-12 5.357484874589034e-12 4.332559763311346e-12 4.937408469336448e-12 1.649005340862748e-12 5.370670477646136e-12 5.667625130597354e-12 7.155808596808633e-09 6.531905398256816e-12 1.246498644773254e-11 1.700467263263654e-11 3.690395093290537e-02 5.987482582937153e-12 2.401687761301687e-11 4.718784368325083e-12 3.831738140631905e-12 6.429850291379441e-03 4.891155675951312e-02 1.448596424663707e-12 3.929306518862670e-03 1.471341996279576e-12 2.369473027922305e-12 7.852700230290306e-12 1.139391871714476e-12 1.334585750566352e-11 4.954926483094399e-04 6.087864342523015e-04 9.586521003011276e-06 1.554424751618308e-12 3.979643266924886e-11 3.971390378796310e-11 2.997026398636172e-11 1.436719451409972e-12 3.004508143793740e-11 1.394717763975950e-12 1.532525428639602e-03 9.082655323055261e-04 8.050762540593423e-04 1.390695895118800e-03 9.636785014785122e-12 9.731206978439665e-12 4.813529315917788e-06 2.113502146305157e-11 1.000336171504578e-11 9.917023761848067e-12 6.114923072608894e-03 3.850780855998836e-03 1.261875655347411e-11 1.474480995801402e-11 9.499164852586383e-12 9.539229956837903e-12 3.902060358673541e-12 4.755787307442937e-12 1.328884711708846e-11 1.330908556485805e-11 1.820531785001188e-11 6.887216315044269e-12 2.171172961196079e-08 7.644115240001456e-09 1.146555862771701e-11 1.215817829624275e-11 1.489060340341929e-11 1.384538392596376e-11 2.606386231439308e-11 2.494994653923053e-11 3.405819674058599e-11 3.361034239073532e-11 4.249053528394867e-11 4.364579071975869e-11 4.388578321065585e-02 3.687152591045988e-02 4.350284044172953e-11 4.228350747281573e-11 3.669462031381919e-11 8.018937318076047e-12 7.487871424931164e-12 3.405861051365050e-11 4.939246472444467e-02 6.209505377205493e-03 4.294539625187068e-02 3.452863998377816e-03 2.294862079594416e-05 1.575821260729200e-11 3.861886031674579e-02 3.870075039599882e-11 3.321279059051544e-03 6.367099851240025e-11 9.816239631646922e-12 9.969351384113671e-12 3.222548105423409e-08 4.448192642618832e-11 1.396413407182725e-12 3.354287358590033e-13 2.945363807329690e-13 4.135980876464768e-02 1.369164369642631e-12 1.016903980117198e-12 1.479492025366009e-12 1.100925016840811e-11 4.264753294852547e-11 3.795572430672386e-02 1.971105783553853e-11 3.262869512405562e-03 1.710630105888499e-11 2.643174505785440e-12 3.860930043040667e-12 2.900589330568293e-08 3.331279300682744e-11 1.525682546340769e-13 4.502946274240468e-13 4.334002993830877e-13 4.238568879532720e-02 2.512927987696937e-12 1.824150135525245e-12 8.703088752660733e-13 3.325207534113558e-12 1.288649161572357e-12 4.341019312766571e-12 6.816220623295247e-03 3.833594617836642e-11 6.496303008237917e-03 3.581648471338100e-11 7.852001378216506e-06 5.133140102640464e-11 8.303649092499185e-06 4.827335204767065e-11 7.198480403643190e-11 2.957905613587182e-12 3.168106625816631e-12 3.325179206447722e-05 3.249873339545657e-13 7.021505135101843e-08 9.564220139787090e-12 3.139213284667732e-11 4.544355032767263e-04 4.001775252248760e-11 1.366427229784434e-12 5.242052207144827e-04 3.781828826475683e-11 3.729762443175099e-11 1.766278675245390e-04 3.135505541602540e-04 1.287173878039548e-12 1.245971627009921e-12 2.476682282080411e-04 1.482428185740162e-04 3.275619011547721e-11 3.448279047163479e-11 8.398186167692592e-12 8.303768305098023e-12 5.036324618092566e-12 4.446511095479931e-12 1.413928843089835e-12 4.843013655253713e-12 1.629149028708779e-11 5.198939283871733e-12 2.036618144952419e-08 6.898473627469323e-12 1.276540112722401e-11 1.682273506612139e-11 4.393881924800903e-02 4.651134500984413e-12 2.484449674843773e-11 3.195876858129427e-12 4.139358368491451e-12 4.218881972652812e-02 3.595216701256886e-03 6.170627168934233e-03 1.307741840456412e-12 1.994364103494300e-12 2.649327551445686e-12 8.942628236396033e-12 9.630029779463335e-13 1.280489921354291e-11 3.389273670520040e-12 1.113596585990258e-12 2.095573472949657e-12 2.192252032602373e-12 3.023840094670591e-12 5.482657625744694e-12 3.045667506228593e-12 5.436816407457544e-07 5.435741729171455e-02 1.039739147742010e-09 9.038010669295633e-12 9.095850214004282e-13 2.048807851565064e-02 4.750095898744659e-13 8.040761693493208e-13 2.954951195969775e-04 1.466713061587852e-11 1.671378313890818e-02 1.660165333221412e-12 8.555458454232512e-04 1.023883943930894e-03 1.129103880357661e-09 3.022191739914564e-10 8.057788809755657e-05 7.288238889750784e-05 1.233856739991358e-12 1.933576268677980e-12 2.256629676440290e-11 1.751481689747601e-11 3.732097736672659e-11 3.823886903850304e-11 4.459593892610795e-04 2.030793903804928e-02 1.986127760380120e-11 1.000457431288630e-03 2.684047083918353e-02 5.028621534277206e-12 2.662399748533971e-11 6.035172861178939e-12 4.376010523237604e-11 4.202514764452158e-11 4.478373793361262e-11 4.806172649587298e-11 5.272642570478394e-02 5.407388693366368e-02 2.820344923924197e-11 2.908463518491492e-11 1.353684528376575e-02 1.819820095881702e-02 1.769972554975978e-11 1.919543767840547e-11 1.064465514937080e-11 1.068007174413413e-11 1.421928371893139e-07 3.665819758316687e-07 1.473292833350908e-10 4.016838158269347e-10 1.295642305535442e-11 1.248944833884454e-11 2.887937707725604e-12 2.767690592669843e-12 8.670682416340285e-12 8.013433891184804e-12 1.017236289718912e-11 1.026638869152554e-11 1.066184105699372e-11 1.038361836700893e-11 1.523061156605165e-12 1.595901549959801e-12 1.016092120800660e-12 1.044933464555697e-12 8.211073489700701e-13 9.312894294000072e-13 3.777250763449575e-12 2.500952647349269e-11 5.437258308675404e-12 3.084486083146739e-11 4.754345653575192e-11 4.500198607521921e-11 5.446616947494708e-02 5.253215206355089e-02 1.977405906350157e-02 8.579492923654599e-12 8.921052406308635e-12 1.425493512057916e-02 1.002051538189165e-11 9.821646558844333e-12 6.041385814050236e-07 2.359005505538952e-07 1.307916806731643e-09 4.343594543139968e-10 3.393099174443662e-12 2.357673638258582e-12 6.673374049580882e-13 2.850909918256828e-13 5.203555681563655e-13 2.770898143694427e-13 4.784741336046207e-11 3.596559870309330e-11 4.732936433047466e-11 5.421155718423740e-11 6.671070139150253e-04 2.524116461905161e-04 2.375450924678273e-02 1.675601828536726e-02 3.752841577680927e-11 1.714723173628329e-12 6.347900919715310e-11 1.499990146795135e-11 1.816263040027402e-05 1.100944609118921e-05 4.534560159657785e-09 1.109888741106649e-12 4.592810323787568e-02 3.873786793087141e-11 6.235234665482859e-03 6.469338639668422e-11 1.461267562677665e-12 9.962329203522488e-13 2.005525520372021e-12 1.488983700059730e-11 4.623964735510101e-11 3.397674616693890e-02 1.000874048307875e-11 1.041005281296010e-11 1.146654347891749e-08 1.524315489763292e-11 1.086794326720825e-12 2.800041969963349e-13 3.084356889811063e-13 3.458912955091730e-11 4.129040709265781e-03 9.828566976516473e-12 1.269193988248079e-11 1.707235253012552e-05 2.658607545946614e-02 1.995369699109822e-12 3.030343629964747e-12 1.035703890932106e-03 2.521795666096392e-11 3.187877810479036e-12 5.284928739053413e-02 1.359884745037275e-02 1.316837291899716e-11 7.819769789740545e-12 4.428531672309477e-12 1.344965041342691e-07 1.423888427392956e-10 4.592539740287188e-12 1.198764372747157e-12 4.123991626286505e-12 1.200836097814156e-12 4.969109733189329e-12 1.577561431973122e-11 2.104194601667296e-06 5.395366537851959e-12 9.242134487749025e-12 3.267546957150634e-06 3.793638464634597e-04 2.229068787797859e-04 1.566015805112817e-04 2.820594490648773e-04