<?xml version="1.0"?>
<VTKFile type="UnstructuredGrid" version="0.1" byte_order="LittleEndian">
<UnstructuredGrid>
<Piece NumberOfPoints="567" NumberOfCells="966">
<Points>
<DataArray type="Float64" NumberOfComponents="3" format="ascii">
0.000000000000000e+00 0.000000000000000e+00 0.000000000000000e+00 0.000000000000000e+00 1.000000000000000e+00 0.000000000000000e+00 1.600000000000000e+01 1.000000000000000e+00 0.000000000000000e+00 1.600000000000000e+01 0.000000000000000e+00 0.000000000000000e+00 0.000000000000000e+00 2.499999999993998e-01 0.000000000000000e+00 0.000000000000000e+00 4.999999999990217e-01 0.000000000000000e+00 0.000000000000000e+00 7.499999999993374e-01 0.000000000000000e+00 2.025316455691341e-01 1.000000000000000e+00 0.000000000000000e+00 4.050632911382681e-01 1.000000000000000e+00 0.000000000000000e+00 6.075949367074022e-01 1.000000000000000e+00 0.000000000000000e+00 8.101265822765362e-01 1.000000000000000e+00 0.000000000000000e+00 1.012658227845670e+00 1.000000000000000e+00 0.000000000000000e+00 1.215189873414804e+00 1.000000000000000e+00 0.000000000000000e+00 1.417721518983938e+00 1.000000000000000e+00 0.000000000000000e+00 1.620253164553072e+00 1.000000000000000e+00 0.000000000000000e+00 1.822784810122207e+00 1.000000000000000e+00 0.000000000000000e+00 2.025316455691340e+00 1.000000000000000e+00 0.000000000000000e+00 2.227848101260475e+00 1.000000000000000e+00 0.000000000000000e+00 2.430379746829609e+00 1.000000000000000e+00 0.000000000000000e+00 2.632911392398743e+00 1.000000000000000e+00 0.000000000000000e+00 2.835443037967877e+00 1.000000000000000e+00 0.000000000000000e+00 3.037974683537010e+00 1.000000000000000e+00 0.000000000000000e+00 3.240506329106145e+00 1.000000000000000e+00 0.000000000000000e+00 3.443037974675279e+00 1.000000000000000e+00 0.000000000000000e+00 3.645569620244413e+00 1.000000000000000e+00 0.000000000000000e+00 3.848101265813547e+00 1.000000000000000e+00 0.000000000000000e+00 4.050632911382726e+00 1.000000000000000e+00 0.000000000000000e+00 4.253164556952040e+00 1.000000000000000e+00 0.000000000000000e+00 4.455696202521353e+00 1.000000000000000e+00 0.000000000000000e+00 4.658227848090667e+00 1.000000000000000e+00 0.000000000000000e+00 4.860759493659981e+00 1.000000000000000e+00 0.000000000000000e+00 5.063291139229296e+00 1.000000000000000e+00 0.000000000000000e+00 5.265822784798610e+00 1.000000000000000e+00 0.000000000000000e+00 5.468354430367923e+00 1.000000000000000e+00 0.000000000000000e+00 5.670886075937237e+00 1.000000000000000e+00 0.000000000000000e+00 5.873417721506551e+00 1.000000000000000e+00 0.000000000000000e+00 6.075949367075864e+00 1.000000000000000e+00 0.000000000000000e+00 6.278481012645178e+00 1.000000000000000e+00 0.000000000000000e+00 6.481012658214492e+00 1.000000000000000e+00 0.000000000000000e+00 6.683544303783806e+00 1.000000000000000e+00 0.000000000000000e+00 6.886075949353121e+00 1.000000000000000e+00 0.000000000000000e+00 7.088607594922435e+00 1.000000000000000e+00 0.000000000000000e+00 7.291139240491749e+00 1.000000000000000e+00 0.000000000000000e+00 7.493670886061063e+00 1.000000000000000e+00 0.000000000000000e+00 7.696202531630375e+00 1.000000000000000e+00 0.000000000000000e+00 7.898734177199691e+00 1.000000000000000e+00 0.000000000000000e+00 8.101265822769285e+00 1.000000000000000e+00 0.000000000000000e+00 8.303797468339161e+00 1.000000000000000e+00 0.000000000000000e+00 8.506329113909036e+00 1.000000000000000e+00 0.000000000000000e+00 8.708860759478913e+00 1.000000000000000e+00 0.000000000000000e+00 8.911392405048788e+00 1.000000000000000e+00 0.000000000000000e+00 9.113924050618664e+00 1.000000000000000e+00 0.000000000000000e+00 9.316455696188541e+00 1.000000000000000e+00 0.000000000000000e+00 9.518987341758416e+00 1.000000000000000e+00 0.000000000000000e+00 9.721518987328292e+00 1.000000000000000e+00 0.000000000000000e+00 9.924050632898169e+00 1.000000000000000e+00 0.000000000000000e+00 1.012658227846805e+01 1.000000000000000e+00 0.000000000000000e+00 1.032911392403792e+01 1.000000000000000e+00 0.000000000000000e+00 1.053164556960780e+01 1.000000000000000e+00 0.000000000000000e+00 1.073417721517767e+01 1.000000000000000e+00 0.000000000000000e+00 1.093670886074755e+01 1.000000000000000e+00 0.000000000000000e+00 1.113924050631742e+01 1.000000000000000e+00 0.000000000000000e+00 1.134177215188730e+01 1.000000000000000e+00 0.000000000000000e+00 1.154430379745718e+01 1.000000000000000e+00 0.000000000000000e+00 1.174683544302705e+01 1.000000000000000e+00 0.000000000000000e+00 1.194936708859693e+01 1.000000000000000e+00 0.000000000000000e+00 1.215189873416701e+01 1.000000000000000e+00 0.000000000000000e+00 1.235443037973717e+01 1.000000000000000e+00 0.000000000000000e+00 1.255696202530733e+01 1.000000000000000e+00 0.000000000000000e+00 1.275949367087749e+01 1.000000000000000e+00 0.000000000000000e+00 1.296202531644764e+01 1.000000000000000e+00 0.000000000000000e+00 1.316455696201780e+01 1.000000000000000e+00 0.000000000000000e+00 1.336708860758796e+01 1.000000000000000e+00 0.000000000000000e+00 1.356962025315812e+01 1.000000000000000e+00 0.000000000000000e+00 1.377215189872827e+01 1.000000000000000e+00 0.000000000000000e+00 1.397468354429843e+01 1.000000000000000e+00 0.000000000000000e+00 1.417721518986859e+01 1.000000000000000e+00 0.000000000000000e+00 1.437974683543874e+01 1.000000000000000e+00 0.000000000000000e+00 1.458227848100890e+01 1.000000000000000e+00 0.000000000000000e+00 1.478481012657906e+01 1.000000000000000e+00 0.000000000000000e+00 1.498734177214921e+01 1.000000000000000e+00 0.000000000000000e+00 1.518987341771937e+01 1.000000000000000e+00 0.000000000000000e+00 1.539240506328953e+01 1.000000000000000e+00 0.000000000000000e+00 1.559493670885968e+01 1.000000000000000e+00 0.000000000000000e+00 1.579746835442984e+01 1.000000000000000e+00 0.000000000000000e+00 1.600000000000000e+01 7.500000000003469e-01 0.000000000000000e+00 1.600000000000000e+01 5.000000000013878e-01 0.000000000000000e+00 1.600000000000000e+01 2.500000000010407e-01 0.000000000000000e+00 1.579746835443066e+01 0.000000000000000e+00 0.000000000000000e+00 1.559493670886132e+01 0.000000000000000e+00 0.000000000000000e+00 1.539240506329198e+01 0.000000000000000e+00 0.000000000000000e+00 1.518987341772264e+01 0.000000000000000e+00 0.000000000000000e+00 1.498734177215330e+01 0.000000000000000e+00 0.000000000000000e+00 1.478481012658396e+01 0.000000000000000e+00 0.000000000000000e+00 1.458227848101463e+01 0.000000000000000e+00 0.000000000000000e+00 1.437974683544529e+01 0.000000000000000e+00 0.000000000000000e+00 1.417721518987595e+01 0.000000000000000e+00 0.000000000000000e+00 1.397468354430661e+01 0.000000000000000e+00 0.000000000000000e+00 1.377215189873727e+01 0.000000000000000e+00 0.000000000000000e+00 1.356962025316793e+01 0.000000000000000e+00 0.000000000000000e+00 1.336708860759859e+01 0.000000000000000e+00 0.000000000000000e+00 1.316455696202925e+01 0.000000000000000e+00 0.000000000000000e+00 1.296202531645991e+01 0.000000000000000e+00 0.000000000000000e+00 1.275949367089057e+01 0.000000000000000e+00 0.000000000000000e+00 1.255696202532123e+01 0.000000000000000e+00 0.000000000000000e+00 1.235443037975189e+01 0.000000000000000e+00 0.000000000000000e+00 1.215189873418256e+01 0.000000000000000e+00 0.000000000000000e+00 1.194936708861336e+01 0.000000000000000e+00 0.000000000000000e+00 1.174683544304458e+01 0.000000000000000e+00 0.000000000000000e+00 1.154430379747580e+01 0.000000000000000e+00 0.000000000000000e+00 1.134177215190703e+01 0.000000000000000e+00 0.000000000000000e+00 1.113924050633825e+01 0.000000000000000e+00 0.000000000000000e+00 1.093670886076947e+01 0.000000000000000e+00 0.000000000000000e+00 1.073417721520070e+01 0.000000000000000e+00 0.000000000000000e+00 1.053164556963192e+01 0.000000000000000e+00 0.000000000000000e+00 1.032911392406314e+01 0.000000000000000e+00 0.000000000000000e+00 1.012658227849436e+01 0.000000000000000e+00 0.000000000000000e+00 9.924050632925587e+00 0.000000000000000e+00 0.000000000000000e+00 9.721518987356809e+00 0.000000000000000e+00 0.000000000000000e+00 9.518987341788034e+00 0.000000000000000e+00 0.000000000000000e+00 9.316455696219256e+00 0.000000000000000e+00 0.000000000000000e+00 9.113924050650478e+00 0.000000000000000e+00 0.000000000000000e+00 8.911392405081703e+00 0.000000000000000e+00 0.000000000000000e+00 8.708860759512925e+00 0.000000000000000e+00 0.000000000000000e+00 8.506329113944147e+00 0.000000000000000e+00 0.000000000000000e+00 8.303797468375370e+00 0.000000000000000e+00 0.000000000000000e+00 8.101265822806592e+00 0.000000000000000e+00 0.000000000000000e+00 7.898734177237253e+00 0.000000000000000e+00 0.000000000000000e+00 7.696202531667353e+00 0.000000000000000e+00 0.000000000000000e+00 7.493670886097451e+00 0.000000000000000e+00 0.000000000000000e+00 7.291139240527549e+00 0.000000000000000e+00 0.000000000000000e+00 7.088607594957649e+00 0.000000000000000e+00 0.000000000000000e+00 6.886075949387747e+00 0.000000000000000e+00 0.000000000000000e+00 6.683544303817845e+00 0.000000000000000e+00 0.000000000000000e+00 6.481012658247945e+00 0.000000000000000e+00 0.000000000000000e+00 6.278481012678045e+00 0.000000000000000e+00 0.000000000000000e+00 6.075949367108143e+00 0.000000000000000e+00 0.000000000000000e+00 5.873417721538242e+00 0.000000000000000e+00 0.000000000000000e+00 5.670886075968340e+00 0.000000000000000e+00 0.000000000000000e+00 5.468354430398438e+00 0.000000000000000e+00 0.000000000000000e+00 5.265822784828536e+00 0.000000000000000e+00 0.000000000000000e+00 5.063291139258636e+00 0.000000000000000e+00 0.000000000000000e+00 4.860759493688734e+00 0.000000000000000e+00 0.000000000000000e+00 4.658227848118834e+00 0.000000000000000e+00 0.000000000000000e+00 4.455696202548932e+00 0.000000000000000e+00 0.000000000000000e+00 4.253164556979030e+00 0.000000000000000e+00 0.000000000000000e+00 4.050632911409130e+00 0.000000000000000e+00 0.000000000000000e+00 3.848101265838807e+00 0.000000000000000e+00 0.00000000000000
[...]
<CellData Scalars="conc_conc," Vectors="" Tensors="">
<DataArray type="Float64" Name="conc_conc" format="ascii">
5.434551803442063e-75 4.764564266340743e-12 1.273128893030986e-152 6.343509003444713e-12 4.401829131128564e-75 1.394433982824961e-152 4.245031634163532e-58 1.310304777847918e-85 2.254151565854102e-49 2.271295622830723e-41 5.595407292488127e-97 5.346627841069527e-34 3.227602817952744e-109 2.940444953713738e-27 3.991220909977430e-21 1.918193710789527e-122 7.758242400793038e-137 4.750578523395104e-02 0.000000000000000e+00 1.242261381215685e-187 1.226144065207299e-02 0.000000000000000e+00 0.000000000000000e+00 5.080933531120291e-08 8.056209999800428e-137 0.000000000000000e+00 0.000000000000000e+00 1.044597980890890e-04 0.000000000000000e+00 8.293446487068329e-05 1.922987795421988e-122 0.000000000000000e+00 1.811010833524580e-187 7.009347490316666e-08 3.165492729510656e-109 0.000000000000000e+00 1.170847713650201e-02 5.337149551346253e-97 4.934305734265676e-02 1.215959096544883e-85 4.207430855503355e-21 3.479951361483567e-27 6.475308724607931e-34 2.801972198605803e-41 2.813418374249191e-49 6.449918734082323e-58 1.830543499649040e-63 5.712903007316909e-62 0.000000000000000e+00 1.742182657093933e-02 0.000000000000000e+00 3.853917028018948e-02 2.665824595370482e-61 0.000000000000000e+00 1.067477177863612e-02 1.065875401064713e-02 0.000000000000000e+00 1.854901837917490e-59 3.558764143488153e-20 7.870757011173083e-184 1.141241477037386e-183 3.749541932481308e-20 2.162535039238781e-59 2.269096017234872e-04 0.000000000000000e+00 1.969093412210040e-02 0.000000000000000e+00 2.417401842042083e-139 0.000000000000000e+00 1.668337188465790e-191 9.428413615898392e-125 2.759314643127672e-07 2.347750919065412e-111 5.675740264247172e-99 1.770021858996622e-87 3.993216268826969e-26 9.492728595218555e-33 5.231559775818250e-40 6.697631281563524e-48 1.967745021699886e-56 3.432675153459254e-11 8.843855595288608e-77 1.295999215887568e-56 5.364812431877751e-48 2.039573592367918e-87 4.240139039873246e-40 7.838685316525607e-33 6.345998247438158e-99 3.375539710168674e-26 2.556950193656745e-111 1.011211757927281e-124 2.461638968829579e-139 2.019471187985698e-07 1.150649791370129e-191 0.000000000000000e+00 5.293738545617718e-02 0.000000000000000e+00 0.000000000000000e+00 2.037661872770608e-02 0.000000000000000e+00 6.857616611036045e-03 0.000000000000000e+00 2.819971440633142e-04 0.000000000000000e+00 0.000000000000000e+00 2.388914875626478e-134 3.637601303628774e-120 2.932858288202468e-05 4.380969966272398e-22 4.091880621832131e-107 2.599009111519632e-28 1.255073398108986e-08 3.708676665820541e-35 4.998161839724834e-95 1.242002591950345e-42 9.623598837824604e-51 8.560381419436916e-84 8.020250238939260e-150 1.110575549455380e-76 2.593023743956129e-11 7.152591717306087e-18 4.677484400735822e-17 4.964335334387356e-192 0.000000000000000e+00 2.665159357150740e-73 8.760524643280436e-13 2.104029199658345e-155 1.164029961487120e-12 2.157999087362115e-73 2.305109440026010e-155 3.595306571164827e-02 0.000000000000000e+00 0.000000000000000e+00 3.123835963138836e-03 0.000000000000000e+00 1.659967929459875e-04 1.077203029807087e-86 1.053806700011571e-99 6.262021919326136e-114 7.198238067024538e-53 1.628281069124046e-44 1.357202246719357e-129 1.296885212891261e-36 4.234595317827976e-29 4.579218984465057e-147 2.210135297592084e-08 0.000000000000000e+00 0.000000000000000e+00 7.387752753453468e-05 0.000000000000000e+00 9.745417230112586e-03 2.477358550340174e-134 0.000000000000000e+00 3.634068573250085e-05 3.641838977311250e-120 0.000000000000000e+00 4.008374777283633e-107 1.691731970060209e-08 0.000000000000000e+00 4.762770314000676e-95 0.000000000000000e+00 7.938217733730757e-84 6.380922477188435e-03 5.343923942262018e-02 4.573390161984842e-22 2.915807621278302e-28 4.248404937667886e-35 1.439515659900644e-42 1.138336879383477e-50 7.318721144063455e-150 2.119051959134986e-141 1.439358546875096e-126 5.577857206932225e-113 1.945941566130354e-100 8.462685719161391e-89 0.000000000000000e+00 4.475812064061081e-08 8.236932145120164e-28 1.223052365829309e-34 4.170569995676827e-42 3.309639159300668e-50 0.000000000000000e+00 1.273353068120388e-02 2.271937915008805e-88 1.436054045939722e-60 1.541252767293140e-101 1.303337124123101e-51 2.339834232812559e-43 5.957324913799589e-116 1.488750957141316e-35 3.800242958251239e-28 7.681549579769464e-132 1.275632763848401e-149 7.178884689202916e-08 0.000000000000000e+00 0.000000000000000e+00 1.480181354189470e-02 3.072256022201309e-03 0.000000000000000e+00 3.394197110474156e-139 3.332938945241541e-111 1.328596268207098e-124 8.037879769320106e-99 2.499928843603381e-87 4.237601179648114e-08 0.000000000000000e+00 3.450049257044850e-27 6.509622355813226e-34 2.814857755953892e-41 2.823938162282627e-49 0.000000000000000e+00 1.208378795108782e-02 7.914628704086110e-67 6.169383331312594e-16 6.199989080899588e-16 3.695589681154539e-167 6.451263508354929e-67 2.436627145068815e-167 1.467673953360153e-03 4.109437026885798e-02 0.000000000000000e+00 0.000000000000000e+00 0.000000000000000e+00 0.000000000000000e+00 4.662335876122239e-24 3.591979118525618e-06 1.813576662787105e-30 1.620947042052441e-37 3.376579409945697e-45 1.642677219696431e-53 1.809147982529372e-129 1.062970697262821e-115 5.388545683553188e-103 3.239272807733175e-91 1.634082777038177e-144 2.937733795367520e-80 8.422344950217816e-10 2.436904783583956e-16 7.304834419567747e-188 1.877826444621924e-59 0.000000000000000e+00 7.441596024590269e-05 7.558729776086201e-63 2.056933291228710e-65 1.228388599241641e-16 4.094243068792814e-170 1.689351493746787e-65 1.168793282675221e-16 2.871854632835384e-170 8.007339831957497e-62 0.000000000000000e+00 4.438274356789614e-02 4.009869626743278e-91 2.092873164292662e-129 1.257919518573013e-115 6.508239588582951e-103 2.951195585062128e-06 0.000000000000000e+00 3.118678472751232e-45 1.436726217775395e-53 1.714146653647135e-30 1.509595945668576e-37 4.566204834218109e-24 0.000000000000000e+00 0.000000000000000e+00 4.289977990146659e-02 1.638514518406177e-03 0.000000000000000e+00 0.000000000000000e+00 3.476915227226005e-04 1.758533100971094e-144 6.365940558763285e-10 3.775849122091284e-80 1.616500941652377e-02 0.000000000000000e+00 7.680591671494575e-184 1.202708411854979e-190 3.620367740727288e-20 3.793297143777356e-21 1.445577710757354e-17 1.358142181478607e-173 7.061844930709162e-05 0.000000000000000e+00 0.000000000000000e+00 2.461700921194502e-02 0.000000000000000e+00 4.816370158664007e-02 1.615654555082750e-03 4.174357734531683e-02 0.000000000000000e+00 0.000000000000000e+00 0.000000000000000e+00 0.000000000000000e+00 4.728591429423528e-24 1.844706598180586e-30 1.659298812352902e-37 3.468813426365432e-45 1.713064234156493e-53 2.311946748342472e-06 1.002764567832941e-131 9.317191547090032e-118 6.970108017354152e-105 5.825054340336250e-93 5.289332992766238e-147 7.137394366418117e-82 4.952495970097538e-10 8.386396585581658e-61 7.795053207502729e-196 0.000000000000000e+00 3.821280176882563e-02 7.519562720146977e-59 3.002096041948672e-22 4.751457388056458e-12 5.584554077557089e-78 2.877207936428089e-180 1.169781147786945e-186 2.875266914904138e-19 3.178710110666460e-20 4.947906836890807e-94 2.361602513213052e-139 1.013456106466187e-122 1.036400383637908e-107 2.514875578222188e-06 1.767249659473540e-47 4.692310077299413e-56 1.412205140623857e-39 3.725243542914403e-32 4.390639788995131e-25 0.000000000000000e+00 0.000000000000000e+00 0.000000000000000e+00 0.000000000000000e+00 3.960792132992295e-02 1.173355018752933e-03 3.294914918545498e-158 2.366650781388380e-10 3.085225211985107e-81 0.000000000000000e+00 4.756889684199499e-02 0.000000000000000e+00 6.408456355791015e-03 3.025614610450302e-167 1.074774331401897e-183 1.837324323686634e-19 4.690332222167730e-195 5.853027012373916e-58 1.176602261563019e-18 8.798133888526207e-183 4.130623767927574e-22 2.949502016260259e-64 0.000000000000000e+00 1.230177183296991e-02 4.022000702020681e-12 1.179652143756534e-76 6.227074760566324e-04 0.000000000000000e+00 3.004333004813064e-02 0.000000000000000e+00 6.212404429289636e-196 0.000000000000000e+00 6.511774162002434e-142 4.283811063661092e-127 1.026357378481844e-06 1.632518964204662e-113 5.685816641577989e-101 2.450969202142028e-89 4.415472925760149e-25 1.341677930971344e-31 9.410005249730962e-39 1.538628171926657e-46 5.853897114937337e-55 0.000000000000000e+00 4.695459317619278e-02 0.000000000000000e+00 1.643761902191959e-78 1.722251229429169e-10 5.122992221677688e-55 1.422255422133138e-46 2.822957791102410e-89 8.769226478172358e-39 1.268577025494567e-31 6.353729742236850e-101 4.324800674111351e-25 1.776079575043166e-113 4.588376862346404e-127 6.620647301681129e-142 8.363149830110684e-07 4.255256240146830e-196 0.000000000000000e+00 0.000000000000000e+00 5.087111146122521e-02 3.206324266944011e-02 0.000000000000000e+00 0.000000000000000e+00 3.449133671153322e-03 7.023922939086536e-04 0.000000000000000e+00 0.000000000000000e+00 0.000000000000000e+00 9.395731078918692e-06 2.829982484279313e-09 8.088347743871154e-132 7.647953935709384e-118 4.512128534321939e-23 5.802070101544445e-105 2.085929018657536e-29 2.334054168373900e-36 5.003322883187418e-93 6.139001932531123e-44 3.726317289081577e-52 6.379478349800369e-82 3.847211335144817e-147 1.293191492595234e-10 2.063713291798263e-78 1.931004961903812e-68 3.781002292501993e-15 4.941147128401112e-15 3.611829893953499e-164 1.574586324845543e-68 3.777096457277917e-164 0.000000000000000e+00 2.643642214471163e-02 2.069961245656339e-179 1.768374883470347e-18 2.824414191113745e-167 5.109526267064872e-46 1.408924194401656e-24 3.091254290144650e-38 4.328018467054708e-31 2.080558848654459e-54 0.000000000000000e+00 0.000000000000000e+00 0.000000000000000e+00 3.112379317341514e-25 2.253853062051948e-32 3.965717159918250e-48 4.806266006622716e-40 1.031460079330593e-56 0.000000000000000e+00 0.000000000000000e+00 0.000000000000000e+00 0.000000000000000e+00 0.000000000000000e+00 2.628207678618012e-149 1.438877094265871e-119 1.890992390883206e-94 1.231778921439636e-03 3.884938738466983e-02 9.621223316723579e-134 2.642700934064426e-06 1.599138921737161e-106 3.168994078663220e-83 5.635228070967731e-10 3.405004860474674e-158 2.375046351546467e-139 1.008005462360910e-122 4.998035720756983e-94 4.845943863052857e-82 1.048184227008054e-107 1.962315497510944e-03 4.141220628989103e-02 2.487977388062614e-06 2.358611146614691e-10 6.998902282430383e-132 6.466407853737068e-118 4.805083631625240e-105 4.042642315974854e-93 1.176793346362763e-05 0.000000000000000e+00 4.963674124635164e-82 0.000000000000000e+00 3.845225994643398e-09 4.711762803328736e-23 2.340419384017188e-29 2.673180929834535e-36 7.112463118440973e-44 4.405852311421006e-52 0.000000000000000e+00 0.000000000000000e+00 5.001754700933730e-02 3.173628935697582e-03 3.581130100850262e-147 5.230596596232339e-70 2.488189265762730e-14 4.251374331925944e-70 3.642879224008884e-161 3.237689378945576e-14 3.813795597369677e-161 1.317042997206458e-65 0.000000000000000e+00 4.465532297391345e-03 6.842776206534196e-77 1.822749482978111e-12 1.167949867662475e-71 1.461460245220974e-13 2.821225621023229e-158 1.951674077799704e-13 9.496554416943010e-72 3.087601892031926e-158 1.227026870925135e-187 0.000000000000000e+00 2.864524652079013e-04 3.566353564887563e-176 9.878469224508771e-18 4.394140471319384e-76 1.782429741012534e-12 0.000000000000000e+00 1.651101682820541e-07 1.331801451042319e-21 2.416545332957400e-11 1.062237009313071e-79 1.025659507312350e-63 0.000000000000000e+00 5.600648797306876e-144 0.000000000000000e+00 6.568284376598178e-129 1.804725635914187e-07 3.933027738089618e-115 1.993073307542278e-102 9.865651793881341e-27 1.197052583612760e-90 1.869658819668869e-33 8.147781906988432e-41 8.242603554180665e-49 2.476050996269310e-57 0.000000000000000e+00 0.000000000000000e+00 2.064562937554942e-02 4.126490015097356e-04 2.290879103031726e-02 0.000000000000000e+00 0.000000000000000e+00 1.081453801114878e-02 1.231671077207506e-157 0.000000000000000e+00 1.197453686534622e-06 1.559269652824359e-17 6.171821323568076e-64 1.639873993353559e-17 2.303801338346468e-173 1.610893771844244e-173 5.400591018602675e-64 5.538514729064313e-04 0.000000000000000e+00 3.925439942570269e-03 0.000000000000000e+00 4.109035506781671e-21 0.000000000000000e+00 3.890820419488235e-03 0.000000000000000e+00 0.000000000000000e+00 5.004189046203427e-02 0.000000000000000e+00 4.892599444815795e-03 0.000000000000000e+00 2.146148953163784e-05 1.940480738848055e-144 4.405742671850208e-09 2.871977166517041e-127 3.075939220277261e-23 3.183845970562270e-30 7.889945072296958e-112 1.113339719561038e-37 1.472471472915035e-45 8.548193840393671e-98 6.060686809244141e-54 1.568096265090009e-85 3.725161440572082e-164 4.698711659173565e-65 1.695302185560725e-59 8.820617999145166e-51 2.273496270081223e-90 1.726355029279659e-42 1.325811642420866e-34 1.040494948918868e-103 2.968615926197876e-27 2.513123731519788e-118 1.866221276074469e-134 1.451152671284175e-152 2.271166895604331e-07 0.000000000000000e+00 0.000000000000000e+00 0.000000000000000e+00 0.000000000000000e+00 2.086101232018387e-02 2.043183621111106e-04 1.366696333395949e-78 9.615124821181268e-12 3.516323322391337e-155 5.978968486815756e-72 5.496689322331265e-73 2.137034057327890e-166 5.543871497557990e-177 1.103144608630827e-14 3.376962771468235e-14 2.183602942247543e-02 0.000000000000000e+00 1.808324010847358e-170 9.961381976162928e-174 5.622265737066558e-75 5.200848426175077e-158 2.604916033231191e-73 7.030131108739526e-161 7.439638162303557e-13 1.385942021836862e-13 5.582492853810386e-14 3.161467291906385e-13 9.392738369417820e-73 2.059657594512896e-74 2.211793672791526e-02 0.000000000000000e+00 1.684244134927042e-79 8.617920923953756e-78 4.919001330474569e-11 9.440866305416709e-12 2.021565881874622e-57 6.108265476555577e-59 9.923453214592583e-49 4.287834840660590e-50 1.003079264082576e-40 5.519723976303720e-42 3.824364359641300e-92 2.305954762193082e-90 3.322872752855168e-33 2.307648440434323e-34 4.829174726819589e-26 4.288675295729303e-27 1.196146658253456e-105 1.044213569182459e-103 1.874609086875702e-120 2.573369431261938e-118 7.832335541761851e-137 1.884709760598321e-134 2.652203775091388e-155 1.446420465927178e-152 4.592012348746470e-196 1.160376145220954e-191 8.415692850483533e-07 2.302069378371955e-07 0.000000000000000e+00 0.000000000000000e+00 0.000000000000000e+00 0.000000000000000e+00 0.000000000000000e+00 0.000000000000000e+00 1.944289433643285e-04 2.167143208031934e-02 4.954705283486967e-04 3.141990753079857e-02 3.694932409435389e-02 0.000000000000000e+00 7.803231631920819e-04 0.000000000000000e+00 3.056690646127728e-02 0.000000000000000e+00 0.000000000000000e+00 0.000000000000000e+00 4.384752305915739e-25 1.347511505234940e-31 9.473824859278235e-39 1.550348838920369e-46 6.074621938191708e-55 6.429979133247264e-07 2.354581156742290e-144 2.577943265880743e-129 1.529201927246981e-115 7.786495116465292e-103 4.640816174127152e-91 9.679904324920198e-04 0.000000000000000e+00 3.190041736078763e-02 0.000000000000000e+00 0.000000000000000e+00 0.000000000000000e+00 1.324187488375882e-25 3.165514749206972e-32 1.765058212314497e-39 2.290709415551817e-47 7.505224551049766e-56 7.536938843593370e-07 1.202615226753089e-146 2.488352584215348e-131 2.338065311616724e-117 1.469589884051379e-92 1.747892920594590e-104 1.893797118235868e-81 1.172872652069779e-10 4.134590716037810e-80 1.043478037183914e-10 6.516495627286101e-61 2.861883694733357e-19 5.590520361962239e-61 3.096045076952422e-19 4.365712760645011e-180 3.142081138681068e-180 2.792908775339081e-67 0.000000000000000e+00 3.378735687598729e-02 0.000000000000000e+00 1.145221613348299e-03 3.797156142075103e-71 1.059395637306724e-71 9.614505127240307e-15 4.273294744336181e-177 8.470242646941278e-164 2.514110606281723e-14 1.586431771352091e-180 3.659096635150506e-184 8.779907784377515e-16 4.906112402971586e-15 8.451060544560078e-167 1.029753080553880e-169 1.557280156948214e-15 3.142167641611964e-16 4.278593331613341e-70 1.462103687246624e-68 1.513845068488117e-69 5.147194762991670e-68 4.471898690174713e-58 2.121912683641896e-49 3.259009286931217e-41 3.850126215110762e-92 1.946689825552802e-33 1.202197768065354e-105 3.364511285841922e-26 1.840766934013139e-120 7.798662925639160e-137 2.679483226009020e-155 8.310071258229296e-07 0.000000000000000e+00 0.000000000000000e+00 0.000000000000000e+00 0.000000000000000e+00 5.373406756082704e-04 3.050164055685591e-02 4.902848754224828e-11 2.625195397582426e-80 1.523916704639309e-66 2.286663654609241e-70 2.157104291349755e-71 1.997238971869617e-169 2.377417658301772e-180 7.936425998631536e-139 8.137844481233214e-111 3.197440457334411e-124 1.962241864006663e-98 6.158407101349447e-87 0.000000000000000e+00 0.000000000000000e+00 1.413676298900729e-22 2.644789178504012e-05 7.063997849486003e-29 0.000000000000000e+00 8.239113859647090e-36 1.111857294592670e-08 2.207573072483408e-43 1.390892777175235e-51 4.944993200394199e-02 0.000000000000000e+00 7.413096295605692e-03 8.244785650440439e-155 6.149387117718383e-14 1.768105311527185e-13 2.342790827476846e-04 0.000000000000000e+00 4.967228343274212e-17 4.336016301828421e-17 6.176836725530898e-173 7.249844271694440e-176 0.000000000000000e+00 2.501411887933592e-05 3.812081922700081e-161 3.505889592715954e-164 5.000146106109842e-02 4.807356074903598e-03 0.000000000000000e+00 4.701630758914013e-02 2.576734066098095e-03 0.000000000000000e+00 0.000000000000000e+00 0.000000000000000e+00 0.000000000000000e+00 0.000000000000000e+00 0.000000000000000e+00 0.000000000000000e+00 8.071295791844400e-06 2.176743661932662e-05 8.192941239011872e-142 1.962030848825819e-144 1.133564960215309e-09 4.473295386891900e-09 6.467877744949398e-125 2.940468416675775e-127 1.065198065913918e-109 7.953813957516804e-112 4.446884143377155e-24 4.360587290209167e-23 4.855271663627819e-31 5.101225512448079e-30 7.602032869571120e-96 8.608709360120054e-98 2.324352831757633e-38 3.068226037681736e-37 3.690037124238655e-46 6.138307965546703e-45 6.487810461597702e-83 1.047096851625790e-84 1.271593031582340e-54 2.709452539034711e-53 2.055985435035246e-152 1.118425100228609e-149 1.147391745974806e-136 3.523026874811214e-134 2.744011186264419e-122 5.204859473084254e-120 4.557873420719046e-109 7.659325300080006e-97 5.771317515501607e-107 6.818362209231166e-95 1.744020812136875e-85 1.129839870892776e-83 2.387833388227063e-05 7.743002953892434e-06 9.987985856580097e-09 0.000000000000000e+00 0.000000000000000e+00 2.311163858795205e-09 0.000000000000000e+00 0.000000000000000e+00 4.521887439814872e-22 4.713278362914978e-23 2.881053481595294e-28 2.376924939796810e-29 4.246165201065756e-35 2.740710882736832e-36 1.441211812454198e-42 1.137421038189985e-50 7.287724392329363e-44 4.566058942808841e-52 0.000000000000000e+00 0.000000000000000e+00 0.000000000000000e+00 0.000000000000000e+00 5.017316088912985e-02 5.294243829185367e-02 3.419760261496394e-03 6.608366503277136e-03 1.080587255254156e-62 2.870061474014818e-62 8.508802915755787e-177 5.654756622806862e-183 2.335117848397771e-18 2.334371676658096e-19 5.608874472430648e-04 0.000000000000000e+00 3.170537180405969e-04 0.000000000000000e+00 2.023281898300948e-02 0.000000000000000e+00 9.177126692397898e-142 5.998204472839791e-127 2.302270957800070e-113 8.025738411628989e-101 3.446422133295676e-89 1.703230774352335e-07 0.000000000000000e+00 0.000000000000000e+00 4.010537465467407e-26 9.597828370783023e-33 5.297160086187835e-40 6.787473560193238e-48 2.091678156966034e-56 2.260045187244760e-78 2.062155121100335e-11 9.721322255732724e-64 3.995694350021955e-187 8.305895620434882e-19 2.660383943885193e-03 0.000000000000000e+00 0.000000000000000e+00 4.661948905016855e-02 0.000000000000000e+00 0.000000000000000e+00 8.026460456978675e-06 1.125650213877070e-09 8.136779419537657e-142 6.339340545300807e-125 1.060694467281347e-109 3.163665999570307e-24 2.992988644506623e-31 7.566050987963514e-96 8.214580049203753e-39 8.608502741963864e-47 9.856652286202717e-84 2.805226712072136e-55