<?xml version="1.0"?>
<VTKFile type="UnstructuredGrid" version="0.1" byte_order="LittleEndian">
<UnstructuredGrid>
<Piece NumberOfPoints="567" NumberOfCells="966">
<Points>
<DataArray type="Float64" NumberOfComponents="3" format="ascii">
0.000000000000000e+00 0.000000000000000e+00 0.000000000000000e+00 0.000000000000000e+00 1.000000000000000e+00 0.000000000000000e+00 1.600000000000000e+01 1.000000000000000e+00 0.000000000000000e+00 1.600000000000000e+01 0.000000000000000e+00 0.000000000000000e+00 0.000000000000000e+00 2.499999999993998e-01 0.000000000000000e+00 0.000000000000000e+00 4.999999999990217e-01 0.000000000000000e+00 0.000000000000000e+00 7.499999999993374e-01 0.000000000000000e+00 2.025316455691341e-01 1.000000000000000e+00 0.000000000000000e+00 4.050632911382681e-01 1.000000000000000e+00 0.000000000000000e+00 6.075949367074022e-01 1.000000000000000e+00 0.000000000000000e+00 8.101265822765362e-01 1.000000000000000e+00 0.000000000000000e+00 1.012658227845670e+00 1.000000000000000e+00 0.000000000000000e+00 1.215189873414804e+00 1.000000000000000e+00 0.000000000000000e+00 1.417721518983938e+00 1.000000000000000e+00 0.000000000000000e+00 1.620253164553072e+00 1.000000000000000e+00 0.000000000000000e+00 1.822784810122207e+00 1.000000000000000e+00 0.000000000000000e+00 2.025316455691340e+00 1.000000000000000e+00 0.000000000000000e+00 2.227848101260475e+00 1.000000000000000e+00 0.000000000000000e+00 2.430379746829609e+00 1.000000000000000e+00 0.000000000000000e+00 2.632911392398743e+00 1.000000000000000e+00 0.000000000000000e+00 2.835443037967877e+00 1.000000000000000e+00 0.000000000000000e+00 3.037974683537010e+00 1.000000000000000e+00 0.000000000000000e+00 3.240506329106145e+00 1.000000000000000e+00 0.000000000000000e+00 3.443037974675279e+00 1.000000000000000e+00 0.000000000000000e+00 3.645569620244413e+00 1.000000000000000e+00 0.000000000000000e+00 3.848101265813547e+00 1.000000000000000e+00 0.000000000000000e+00 4.050632911382726e+00 1.000000000000000e+00 0.000000000000000e+00 4.253164556952040e+00 1.000000000000000e+00 0.000000000000000e+00 4.455696202521353e+00 1.000000000000000e+00 0.000000000000000e+00 4.658227848090667e+00 1.000000000000000e+00 0.000000000000000e+00 4.860759493659981e+00 1.000000000000000e+00 0.000000000000000e+00 5.063291139229296e+00 1.000000000000000e+00 0.000000000000000e+00 5.265822784798610e+00 1.000000000000000e+00 0.000000000000000e+00 5.468354430367923e+00 1.000000000000000e+00 0.000000000000000e+00 5.670886075937237e+00 1.000000000000000e+00 0.000000000000000e+00 5.873417721506551e+00 1.000000000000000e+00 0.000000000000000e+00 6.075949367075864e+00 1.000000000000000e+00 0.000000000000000e+00 6.278481012645178e+00 1.000000000000000e+00 0.000000000000000e+00 6.481012658214492e+00 1.000000000000000e+00 0.000000000000000e+00 6.683544303783806e+00 1.000000000000000e+00 0.000000000000000e+00 6.886075949353121e+00 1.000000000000000e+00 0.000000000000000e+00 7.088607594922435e+00 1.000000000000000e+00 0.000000000000000e+00 7.291139240491749e+00 1.000000000000000e+00 0.000000000000000e+00 7.493670886061063e+00 1.000000000000000e+00 0.000000000000000e+00 7.696202531630375e+00 1.000000000000000e+00 0.000000000000000e+00 7.898734177199691e+00 1.000000000000000e+00 0.000000000000000e+00 8.101265822769285e+00 1.000000000000000e+00 0.000000000000000e+00 8.303797468339161e+00 1.000000000000000e+00 0.000000000000000e+00 8.506329113909036e+00 1.000000000000000e+00 0.000000000000000e+00 8.708860759478913e+00 1.000000000000000e+00 0.000000000000000e+00 8.911392405048788e+00 1.000000000000000e+00 0.000000000000000e+00 9.113924050618664e+00 1.000000000000000e+00 0.000000000000000e+00 9.316455696188541e+00 1.000000000000000e+00 0.000000000000000e+00 9.518987341758416e+00 1.000000000000000e+00 0.000000000000000e+00 9.721518987328292e+00 1.000000000000000e+00 0.000000000000000e+00 9.924050632898169e+00 1.000000000000000e+00 0.000000000000000e+00 1.012658227846805e+01 1.000000000000000e+00 0.000000000000000e+00 1.032911392403792e+01 1.000000000000000e+00 0.000000000000000e+00 1.053164556960780e+01 1.000000000000000e+00 0.000000000000000e+00 1.073417721517767e+01 1.000000000000000e+00 0.000000000000000e+00 1.093670886074755e+01 1.000000000000000e+00 0.000000000000000e+00 1.113924050631742e+01 1.000000000000000e+00 0.000000000000000e+00 1.134177215188730e+01 1.000000000000000e+00 0.000000000000000e+00 1.154430379745718e+01 1.000000000000000e+00 0.000000000000000e+00 1.174683544302705e+01 1.000000000000000e+00 0.000000000000000e+00 1.194936708859693e+01 1.000000000000000e+00 0.000000000000000e+00 1.215189873416701e+01 1.000000000000000e+00 0.000000000000000e+00 1.235443037973717e+01 1.000000000000000e+00 0.000000000000000e+00 1.255696202530733e+01 1.000000000000000e+00 0.000000000000000e+00 1.275949367087749e+01 1.000000000000000e+00 0.000000000000000e+00 1.296202531644764e+01 1.000000000000000e+00 0.000000000000000e+00 1.316455696201780e+01 1.000000000000000e+00 0.000000000000000e+00 1.336708860758796e+01 1.000000000000000e+00 0.000000000000000e+00 1.356962025315812e+01 1.000000000000000e+00 0.000000000000000e+00 1.377215189872827e+01 1.000000000000000e+00 0.000000000000000e+00 1.397468354429843e+01 1.000000000000000e+00 0.000000000000000e+00 1.417721518986859e+01 1.000000000000000e+00 0.000000000000000e+00 1.437974683543874e+01 1.000000000000000e+00 0.000000000000000e+00 1.458227848100890e+01 1.000000000000000e+00 0.000000000000000e+00 1.478481012657906e+01 1.000000000000000e+00 0.000000000000000e+00 1.498734177214921e+01 1.000000000000000e+00 0.000000000000000e+00 1.518987341771937e+01 1.000000000000000e+00 0.000000000000000e+00 1.539240506328953e+01 1.000000000000000e+00 0.000000000000000e+00 1.559493670885968e+01 1.000000000000000e+00 0.000000000000000e+00 1.579746835442984e+01 1.000000000000000e+00 0.000000000000000e+00 1.600000000000000e+01 7.500000000003469e-01 0.000000000000000e+00 1.600000000000000e+01 5.000000000013878e-01 0.000000000000000e+00 1.600000000000000e+01 2.500000000010407e-01 0.000000000000000e+00 1.579746835443066e+01 0.000000000000000e+00 0.000000000000000e+00 1.559493670886132e+01 0.000000000000000e+00 0.000000000000000e+00 1.539240506329198e+01 0.000000000000000e+00 0.000000000000000e+00 1.518987341772264e+01 0.000000000000000e+00 0.000000000000000e+00 1.498734177215330e+01 0.000000000000000e+00 0.000000000000000e+00 1.478481012658396e+01 0.000000000000000e+00 0.000000000000000e+00 1.458227848101463e+01 0.000000000000000e+00 0.000000000000000e+00 1.437974683544529e+01 0.000000000000000e+00 0.000000000000000e+00 1.417721518987595e+01 0.000000000000000e+00 0.000000000000000e+00 1.397468354430661e+01 0.000000000000000e+00 0.000000000000000e+00 1.377215189873727e+01 0.000000000000000e+00 0.000000000000000e+00 1.356962025316793e+01 0.000000000000000e+00 0.000000000000000e+00 1.336708860759859e+01 0.000000000000000e+00 0.000000000000000e+00 1.316455696202925e+01 0.000000000000000e+00 0.000000000000000e+00 1.296202531645991e+01 0.000000000000000e+00 0.000000000000000e+00 1.275949367089057e+01 0.000000000000000e+00 0.000000000000000e+00 1.255696202532123e+01 0.000000000000000e+00 0.000000000000000e+00 1.235443037975189e+01 0.000000000000000e+00 0.000000000000000e+00 1.215189873418256e+01 0.000000000000000e+00 0.000000000000000e+00 1.194936708861336e+01 0.000000000000000e+00 0.000000000000000e+00 1.174683544304458e+01 0.000000000000000e+00 0.000000000000000e+00 1.154430379747580e+01 0.000000000000000e+00 0.000000000000000e+00 1.134177215190703e+01 0.000000000000000e+00 0.000000000000000e+00 1.113924050633825e+01 0.000000000000000e+00 0.000000000000000e+00 1.093670886076947e+01 0.000000000000000e+00 0.000000000000000e+00 1.073417721520070e+01 0.000000000000000e+00 0.000000000000000e+00 1.053164556963192e+01 0.000000000000000e+00 0.000000000000000e+00 1.032911392406314e+01 0.000000000000000e+00 0.000000000000000e+00 1.012658227849436e+01 0.000000000000000e+00 0.000000000000000e+00 9.924050632925587e+00 0.000000000000000e+00 0.000000000000000e+00 9.721518987356809e+00 0.000000000000000e+00 0.000000000000000e+00 9.518987341788034e+00 0.000000000000000e+00 0.000000000000000e+00 9.316455696219256e+00 0.000000000000000e+00 0.000000000000000e+00 9.113924050650478e+00 0.000000000000000e+00 0.000000000000000e+00 8.911392405081703e+00 0.000000000000000e+00 0.000000000000000e+00 8.708860759512925e+00 0.000000000000000e+00 0.000000000000000e+00 8.506329113944147e+00 0.000000000000000e+00 0.000000000000000e+00 8.303797468375370e+00 0.000000000000000e+00 0.000000000000000e+00 8.101265822806592e+00 0.000000000000000e+00 0.000000000000000e+00 7.898734177237253e+00 0.000000000000000e+00 0.000000000000000e+00 7.696202531667353e+00 0.000000000000000e+00 0.000000000000000e+00 7.493670886097451e+00 0.000000000000000e+00 0.000000000000000e+00 7.291139240527549e+00 0.000000000000000e+00 0.000000000000000e+00 7.088607594957649e+00 0.000000000000000e+00 0.000000000000000e+00 6.886075949387747e+00 0.000000000000000e+00 0.000000000000000e+00 6.683544303817845e+00 0.000000000000000e+00 0.000000000000000e+00 6.481012658247945e+00 0.000000000000000e+00 0.000000000000000e+00 6.278481012678045e+00 0.000000000000000e+00 0.000000000000000e+00 6.075949367108143e+00 0.000000000000000e+00 0.000000000000000e+00 5.873417721538242e+00 0.000000000000000e+00 0.000000000000000e+00 5.670886075968340e+00 0.000000000000000e+00 0.000000000000000e+00 5.468354430398438e+00 0.000000000000000e+00 0.000000000000000e+00 5.265822784828536e+00 0.000000000000000e+00 0.000000000000000e+00 5.063291139258636e+00 0.000000000000000e+00 0.000000000000000e+00 4.860759493688734e+00 0.000000000000000e+00 0.000000000000000e+00 4.658227848118834e+00 0.000000000000000e+00 0.000000000000000e+00 4.455696202548932e+00 0.000000000000000e+00 0.000000000000000e+00 4.253164556979030e+00 0.000000000000000e+00 0.000000000000000e+00 4.050632911409130e+00 0.000000000000000e+00 0.000000000000000e+00 3.848101265838807e+00 0.000000000000000e+00 0.00000000000000
[...]
<CellData Scalars="conc_conc," Vectors="">
<DataArray type="Float64" Name="conc_conc" format="ascii">
1.865713360726925e-50 1.122062194142691e-06 1.160999775255951e-103 1.340154003168363e-06 1.484019343040747e-50 1.316793131183402e-103 1.791812510636044e-38 4.769510369055652e-58 3.327087913352432e-32 1.681456797650793e-26 4.143515283206747e-66 2.675942966639415e-21 1.106792906438890e-74 1.291973493357180e-16 1.906378152950632e-12 8.725495825090094e-84 1.902808137880050e-93 2.366932064030935e-03 2.420411981041012e-181 8.102042187681593e-124 2.508350262734826e-02 3.386672489828097e-164 3.443428707684933e-136 2.296003613226239e-04 1.888542758200863e-93 2.478670814553146e-149 1.510310568970895e-149 8.595572073822538e-03 5.381184952459564e-136 7.931105374317392e-03 8.426755756180558e-84 2.765070297554398e-164 1.068824009088179e-123 2.734007324067347e-04 1.050459086874974e-74 1.550836260466738e-181 2.566206157939314e-02 3.834285172530235e-66 2.655478922793193e-03 4.300033418810944e-58 1.965236786583563e-12 1.494454580722257e-16 3.208201872246158e-21 2.072683273284518e-26 4.175175826002022e-32 2.698885992394821e-38 3.796352803489422e-42 4.334287799399118e-41 0.000000000000000e+00 3.719464911689772e-04 7.128820362903482e-185 1.104680613344530e-03 8.282320058453565e-41 0.000000000000000e+00 1.344702154544873e-04 8.782712198047920e-05 0.000000000000000e+00 2.011138666191800e-39 8.171856372859698e-12 7.490061929804200e-122 9.864587916910594e-122 8.408726084828097e-12 2.387986687250129e-39 1.156829634395232e-02 7.136371597331214e-152 2.331490964071477e-02 6.123434911255770e-167 4.128213258506497e-95 3.872993369818692e-138 1.115266491124631e-125 2.273767736078158e-85 5.601953043753950e-04 3.494729379601802e-76 1.562948820315436e-67 2.120536464968531e-59 7.950622927933671e-16 2.095540503736599e-20 1.647896164709879e-25 4.017988429864673e-31 3.133779508363352e-37 3.680794347696674e-06 9.106629661626573e-52 2.081417889084630e-37 3.201561951616877e-31 2.497754144425940e-59 1.337319292111066e-25 1.749590476232039e-20 1.789584814572451e-67 6.885953253664077e-16 3.908160697428502e-76 2.513985723463058e-85 4.373953711436161e-95 4.766015751492345e-04 8.523548127320987e-126 2.656377111042880e-138 4.793676213182244e-03 3.335357007864159e-178 1.326342292694346e-161 2.267329005009105e-02 8.029117276574471e-167 2.543149618263330e-02 1.135332715176933e-151 1.234096668629035e-02 3.084218789894042e-147 4.495733060144034e-134 8.477636292495725e-92 3.123117324089581e-82 5.198485597060268e-03 4.362597386634439e-13 3.219350642307767e-73 2.456764663368549e-17 1.078495402159994e-04 4.163215404678141e-22 9.876213162802872e-65 2.161146953977945e-27 3.525226207560749e-33 9.370673792998267e-57 7.417182069907487e-102 1.161916486891147e-51 3.107435019082033e-06 3.288322825731526e-10 1.076897720673803e-09 5.815552431599380e-124 7.241087802388809e-126 3.033158398364226e-49 4.028873508698674e-07 2.116063855840309e-105 4.821966681293505e-07 2.410542709450950e-49 2.399609808481674e-105 9.802200133950550e-04 1.167449377027429e-184 0.000000000000000e+00 3.522395936355752e-05 1.701511143391710e-153 1.027882293790264e-02 1.206101875831304e-58 1.149174629174844e-67 4.206881006886144e-77 1.390898149067564e-34 1.585935726083191e-28 9.027052597503699e-87 7.751187124772400e-23 1.264734697228456e-17 9.764015198027455e-97 1.699500190980639e-04 3.815485083658739e-136 2.550954458333818e-151 7.723389973074622e-03 1.583603981991333e-167 2.566019493054722e-02 8.406247460972330e-92 5.047221439093928e-147 5.627002072239729e-03 3.013430166993151e-82 7.011281890472563e-134 3.052445647038757e-73 1.270820784081615e-04 1.085973537003072e-161 9.129410092284426e-65 2.151989239192362e-178 8.439538332537472e-57 2.581247943746753e-02 5.357772594170669e-03 4.466225209390227e-13 2.717126448350993e-17 4.757163397807998e-22 2.521533736316969e-27 4.216951848977242e-33 6.535521321603124e-102 3.128138169321522e-96 2.148572386254420e-86 4.066697211525170e-77 2.223271976637725e-68 3.660708260771736e-60 1.483640517200669e-139 2.129308360319310e-04 7.152936262151467e-17 1.283779720953413e-21 6.882792877966069e-27 1.161306107577394e-32 9.587037533548837e-169 2.413385623939369e-02 8.442956819438868e-60 4.110414634789216e-40 6.498843553757711e-69 1.036402406038012e-33 9.982628087348852e-28 1.914975260703291e-78 4.064402149349782e-22 5.413285620821564e-17 3.256204080270726e-88 2.679670000330096e-98 3.083045818032976e-04 4.301412579444685e-138 5.114025210408236e-170 2.456859276540085e-02 1.105922979454819e-05 0.000000000000000e+00 6.265948878302942e-95 5.223161743800297e-76 3.419647982959325e-85 2.308085974372013e-67 3.090596224880356e-59 2.072678230160203e-04 7.244301469065403e-139 1.470022031687164e-16 3.190273149975472e-21 2.059538693944855e-26 4.147655186658707e-32 1.155794994333840e-168 2.526961580925913e-02 1.278730759635089e-44 4.370205470815906e-09 4.307045668040916e-09 1.544515683601499e-112 1.019958244853374e-44 1.114891257283585e-112 2.041626548823551e-02 1.418266694554158e-02 1.788883211068470e-172 1.127118317396238e-156 1.632826456002630e-142 9.982552928093879e-130 2.030895237341841e-14 1.997191770787990e-03 8.111123525965305e-19 9.477571853921376e-24 3.400191218433332e-29 3.905517645595700e-35 1.494072735219358e-88 3.490179335535629e-79 2.343889943106644e-70 4.712702320483860e-62 1.767302197248446e-98 2.972344323058052e-54 2.372230901889089e-05 2.942208978242239e-09 3.537443302760679e-122 2.085293787583436e-39 3.550159253956786e-153 7.475659385515331e-03 8.619848036173721e-42 1.228872235927976e-43 1.608828796963065e-09 3.251877982000212e-114 9.862620670709042e-44 1.574842559884775e-09 2.487222866637726e-114 5.903639643874458e-41 2.190424277227541e-186 2.691898313574732e-03 5.917022852915780e-62 1.770032709930865e-88 4.207602351312630e-79 2.875104606772009e-70 1.842874823033628e-03 1.209486094167613e-142 3.094226626684580e-29 3.365492649031610e-35 7.699782700435323e-19 8.768507787632245e-24 2.016598590290867e-14 7.772913517666050e-130 1.751702608825757e-156 1.310052887114031e-02 2.059275692438767e-02 2.566550570821576e-172 0.000000000000000e+00 1.965280218208031e-06 1.970285410940422e-98 2.020510772341354e-05 3.868741297595925e-54 3.238867471099171e-04 0.000000000000000e+00 7.350897307660619e-122 2.281647830467915e-124 8.117744998077849e-12 2.603832192553311e-12 3.942209884139069e-10 2.810232611732531e-116 7.414426271744635e-03 1.906981533246657e-152 1.883236036158328e-188 3.688762811471969e-04 2.263324136377281e-186 2.477421780899429e-03 2.081794242457610e-02 1.358674505933632e-02 4.718789429906026e-177 7.055813201158021e-161 1.711356724947783e-145 1.789349248604460e-132 2.039324885665918e-14 8.152222573322320e-19 9.574761198228527e-24 3.447261393913699e-29 4.016781494133210e-35 1.619877182933132e-03 5.566392725792025e-90 1.593924062938178e-80 1.307169861363790e-71 3.151908390942530e-63 5.391344930208833e-100 2.377553398012066e-55 1.726303431893282e-05 2.403606001322035e-40 5.745269345436885e-127 1.875385142495907e-191 1.778208828205822e-03 7.770184008168434e-39 4.991831734685625e-13 1.145984170844060e-06 1.837465121438816e-52 5.856559878881968e-120 1.953710235716211e-122 3.152559175495200e-11 1.053146532532829e-11 1.068115924320191e-63 1.274299599539396e-91 5.216205280140436e-82 1.011131713986985e-72 1.754105707020964e-03 7.642347635881445e-31 5.486129133185309e-37 3.869215792485060e-25 8.047351314988444e-20 6.008511382429314e-15 1.181788314578806e-144 8.794346220738038e-130 1.079927311775167e-159 1.338432933514689e-178 1.448840734448338e-02 1.911912178491936e-02 5.723365714226051e-102 1.335067738491313e-05 8.771930487854563e-55 5.204323929612408e-188 3.804079735651885e-03 0.000000000000000e+00 8.280779171619653e-05 2.831323000655522e-109 3.765772501653686e-121 3.410754627040456e-11 2.349912584731903e-126 2.451554268221980e-38 1.148428256047047e-10 9.885414146821835e-121 5.953669551094399e-13 6.611575710746113e-43 1.921333110499903e-192 9.461001907496245e-05 1.016540438199836e-06 1.247108990247634e-51 1.617197229726107e-02 2.897917171872986e-154 1.917795418497344e-02 1.144835659185579e-169 1.085987161392843e-127 2.598919986952583e-140 8.593762522765045e-97 5.919587133215711e-87 1.088212495413753e-03 1.123478194540328e-77 6.147470625461901e-69 1.013589106754048e-60 4.098457553243259e-15 1.328250985721803e-19 1.271853454626995e-24 3.763772967485706e-30 3.580307611988914e-36 5.786677612983866e-188 3.618675202128854e-03 4.523773625763817e-129 5.265818906786110e-53 9.473423994306938e-06 3.086947015585812e-36 3.426609969055446e-30 1.192887116910998e-60 1.176673113138577e-24 1.260082300408580e-19 7.032740890619096e-69 4.065205520088526e-15 1.255389516823535e-77 6.540256899078121e-87 9.097627690619006e-97 9.939126747929665e-04 8.286469908275296e-128 1.778374060306064e-140 5.772956586026788e-159 8.470845196566851e-03 1.805188495401060e-02 3.242672427646492e-175 4.629637981876149e-154 2.371006655166347e-02 1.648677564980407e-02 1.502746031364720e-169 6.991538144815567e-145 6.742269191094977e-132 3.145815225985606e-03 4.695013422814087e-05 4.282487483094678e-90 1.261760017684530e-80 9.451993794417870e-14 1.057693042510508e-71 4.302040984675759e-18 5.961476578642695e-23 2.650503256378581e-63 2.549330078537486e-28 3.441270036876540e-34 2.099236079963037e-55 3.790525221396618e-100 7.994056524404733e-06 6.713697131348124e-53 8.903923101651988e-46 1.358231352558779e-08 1.618603629125384e-08 8.960803929690518e-111 7.108941797003177e-46 9.754510985954351e-111 5.360419949637941e-195 7.634136305154306e-04 1.080742804091882e-118 1.402302398798499e-10 2.143121735607784e-107 1.167301094165637e-29 1.192503269814316e-14 3.883564512348957e-24 3.960629927682927e-19 1.186822541089886e-35 3.823372336615487e-146 4.312866461925476e-133 2.126237447306483e-160 4.950772974251267e-15 6.919574186891177e-20 4.096163522345402e-31 2.726204553252327e-25 2.729351514997641e-37 1.352751678721117e-178 3.254921998776053e-135 1.226069629753092e-144 7.099509963284733e-161 4.293707711066205e-177 2.659949738624840e-101 1.251047398277717e-81 3.756897630384193e-64 1.918100465222580e-02 1.498305180185130e-02 3.523021541307461e-91 1.726522138792166e-03 1.268363410666477e-72 3.424503576178683e-56 1.879905380677807e-05 1.248614562700603e-103 4.171374157811998e-93 5.121418640080638e-83 8.515262273791253e-64 2.133545421674171e-55 3.359541003976270e-73 2.030636410291703e-02 1.289341088909038e-02 1.736536552064479e-03 1.331783284081446e-05 3.616269038745805e-90 1.047070767037823e-80 8.627195715468598e-72 2.112204796551075e-63 3.449766347920155e-03 9.454258039187422e-145 1.613692040582328e-55 8.669635273572037e-132 5.593827505849838e-05 9.691381391855734e-14 4.764067173065113e-18 6.815827800051715e-23 2.974484161052811e-28 4.115225167618132e-34 2.252956769179692e-175 3.696761768375815e-159 9.305874908864403e-03 2.384965051836232e-02 3.402405770413485e-100 6.874245950123114e-47 4.462157338787879e-08 5.475657223830492e-47 5.970003338051682e-109 5.283177602125906e-08 6.503416064215506e-109 7.807103659977497e-44 0.000000000000000e+00 1.708645822347045e-05 9.734217398601211e-52 7.664464758090590e-07 4.500030535447387e-48 1.333221500032278e-07 3.460109073542559e-107 1.607670105079899e-07 3.587773639132066e-48 3.921341684906090e-107 8.038706327280809e-124 0.000000000000000e+00 6.816278717730638e-07 5.409529519577643e-117 4.067109482352921e-10 4.041703045067518e-51 7.528929469932368e-07 0.000000000000000e+00 1.265747572451867e-12 1.185954446052743e-12 3.008953014633191e-06 1.099155944237749e-53 2.098940123797022e-42 1.044897760351274e-141 6.785146423258850e-98 5.451891808114349e-129 5.839512111065721e-88 4.465670677314946e-04 1.359592738388267e-78 9.098564390111374e-70 3.933296367113425e-16 1.811906753070120e-61 8.658198198123110e-21 5.663786697984835e-26 1.155462431620055e-31 9.581603391870655e-38 1.975511129604902e-171 4.641912823846277e-156 2.191606718771404e-02 1.325007895620841e-02 3.396375001526389e-04 1.215062915631271e-193 5.508090388199948e-198 8.500579903874504e-05 1.725481111685338e-106 0.000000000000000e+00 5.096451515794093e-11 4.275603095850697e-10 1.345266839341482e-42 4.376899296667333e-10 4.281298922661442e-116 3.268639922470958e-116 1.152953855365615e-42 4.756280473649817e-07 0.000000000000000e+00 1.942854505212015e-05 0.000000000000000e+00 1.914113451207176e-12 0.000000000000000e+00 3.014127360251251e-05 1.012623021160500e-184 2.190475974039601e-165 6.799712004415205e-03 4.935726463252024e-149 2.462441705959379e-02 2.304644626845458e-139 4.527882100099084e-03 2.227658719303734e-96 6.820149082402520e-05 4.863378141049177e-86 1.084294526685219e-13 2.038016092031730e-18 5.052636891645681e-76 1.210124294052316e-23 2.627375615420047e-29 2.020551100896579e-66 2.435707000013889e-35 7.328718796759731e-58 2.507906109952644e-107 2.534174929933544e-43 3.054944552574585e-39 5.509389567334830e-33 3.054095505654506e-61 5.301461659096418e-27 2.015826073263045e-21 1.879040291702728e-70 2.149804020070374e-16 4.496354514141851e-80 6.151629015723588e-90 3.720626631054277e-100 5.415439510544262e-04 4.148629168451821e-131 2.155164539026408e-140 5.635368833106706e-173 1.541536383240003e-155 2.263807730600190e-02 1.095499357883342e-02 6.011118939252440e-53 2.063351106039285e-06 3.725612296488274e-105 3.177299537568109e-48 6.452004717197415e-49 1.030270018489572e-111 8.705399717329705e-116 3.477882429883536e-08 5.839960786816996e-08 4.661449802425787e-04 1.163551054622804e-193 2.596851361425579e-109 2.635348630634175e-111 1.950708539309738e-50 6.630224546974320e-107 3.005668296610668e-49 1.191818323774197e-108 3.665234313884841e-07 1.322481128516904e-07 9.178046102083290e-08 2.639975143509172e-07 9.487215212628880e-49 6.237010628184115e-50 3.277424176916854e-04 3.129065934006204e-188 1.501834934571159e-53 2.453760374330661e-52 5.390021578658280e-06 2.033952180621650e-06 6.071921523961158e-38 4.926402668307034e-39 1.023437151148260e-31 1.091615424998956e-32 6.171947047222513e-26 7.890216358658709e-27 2.269550565107937e-62 3.851716803859745e-61 1.549571891513295e-20 2.404205848547893e-21 1.383646183219764e-15 2.655324870491146e-16 2.658770705238821e-71 5.543530516179308e-70 1.718317766653982e-80 4.443042824229867e-79 5.280281073392663e-90 1.705820078824403e-88 3.342314211117643e-100 1.470190585872307e-98 8.898159543147205e-128 8.615996837534182e-126 1.052519356677237e-03 5.481295529255695e-04 1.848867340542246e-142 2.127628580119161e-140 5.645489258876040e-173 7.784874638374895e-155 3.098440396399365e-157 1.111369374514368e-175 1.090055115720970e-02 2.219421514235449e-02 1.494381975910351e-02 1.831445029221647e-02 1.031620351933658e-03 8.636597445932141e-190 1.748138574958265e-02 2.154463080767755e-158 1.863656431938335e-02 3.586082878283070e-174 2.985538591828945e-143 2.069956850440733e-130 4.040103735334242e-15 1.320062921117833e-19 1.266148648463513e-24 3.750940620428192e-30 3.666670968682955e-36 8.593993086175558e-04 2.741296868493489e-98 2.282337663885232e-88 5.295139539174888e-79 3.534201637897615e-70 6.983300199659304e-62 1.715259946583196e-02 2.192544194407375e-158 1.738198194728179e-02 3.010293700482220e-174 6.249373049583893e-144 5.042324645542749e-131 2.401049766165080e-15 6.451504380381764e-20 5.163950962486735e-25 1.281926400843607e-30 1.108666028900030e-36 9.344018448689591e-04 1.292766743463477e-99 1.393283584897733e-89 4.003197394648615e-80 8.012519393277277e-63 3.299247268488929e-71 6.274882640822890e-55 7.577580663426279e-06 4.287769430663303e-54 7.008706200033374e-06 1.933165790247393e-40 3.208594616601265e-11 1.629083886178911e-40 3.370123852702174e-11 8.025306005223771e-120 6.317822477952349e-120 6.432938311244711e-45 6.665070495219957e-190 1.180515348343286e-03 0.000000000000000e+00 6.786537343753659e-06 1.307306612204741e-47 4.158321776345695e-48 3.115591994694188e-08 1.584687627032070e-113 2.130455366518495e-110 4.655413079870060e-08 1.242528000156596e-118 1.693335292917658e-120 6.010511493318599e-09 1.734901965686618e-08 3.590781977917626e-112 8.248927141757327e-114 1.005596201237280e-08 3.837491942298304e-09 5.772795471345245e-47 6.956452686148298e-46 1.796181597301630e-46 2.157469777807349e-45 3.054667250069592e-38 5.301314996385319e-32 4.231964331034792e-26 1.805108802918110e-62 1.308508201111305e-20 8.931510308685019e-72 1.124939340549356e-15 1.705877397478428e-81 1.814194582764300e-91 7.864199975026626e-102 1.040644494588007e-03 3.745221963259678e-133 1.880316302124532e-142 5.641020768048924e-158 1.113396580833851e-175 1.523228409314583e-02 1.884062677561103e-02 5.377611808369025e-06 3.624530797226660e-54 2.263251397074869e-44 4.204311721800322e-47 8.644640810076059e-48 1.894982236486195e-113 1.020236846862246e-117 1.505572024360502e-94 1.280085272357126e-75 8.289316188547465e-85 5.698067064302157e-67 7.704588655620949e-59 8.119903737865596e-151 2.136466176307227e-137 2.651904508552076e-13 4.903449731481036e-03 1.332464292287055e-17 3.710955994172810e-183 1.957956035756202e-22 1.003958884083270e-04 8.650242854076217e-28 1.222238155812715e-33 5.088640614440800e-03 4.372760314772707e-166 2.447463602077223e-02 9.481967079223841e-105 9.912666947338165e-08 1.589552235877507e-07 3.629258493726776e-07 0.000000000000000e+00 1.215807840825316e-09 1.082692784677360e-09 1.150606385955795e-115 4.645164945372079e-117 0.000000000000000e+00 1.443951037880464e-08 9.884480114070049e-104 1.497054984315921e-105 6.428557116510023e-03 2.479834794599413e-02 1.027047022416655e-184 1.017353882338269e-02 2.277548134998624e-02 1.165835156609277e-164 1.394423932188867e-181 4.298855463711738e-162 9.064121341542465e-147 4.839080824301392e-149 9.973542798264808e-132 8.539339768509580e-134 3.007019959361267e-03 4.579736677779356e-03 3.656163900311538e-93 7.874694973176508e-95 3.267919033232735e-05 6.896825416156366e-05 1.897576098583457e-83 5.235843906297172e-85 4.593280637353423e-74 1.597962186181072e-75 2.860838162678561e-14 1.324776766461474e-13 4.773093784341168e-19 2.352665338604644e-18 5.973935319587905e-65 2.577023696929221e-66 2.795294778785426e-24 1.669195923439771e-23 6.613051535636416e-30 4.701399370491552e-29 5.877789761386680e-56 3.139337124661387e-57 5.738253719975298e-36 4.874808048710342e-35 1.987617894112225e-103 1.066722403998821e-101 2.902742870560489e-93 1.288349799780510e-91 1.278274544599900e-83 4.565458389106380e-82 1.587187559524857e-74 5.721291023298784e-66 4.602382076247010e-73 1.356850964673450e-64 6.343389074417911e-58 1.234187169732955e-56 4.719496058233086e-03 2.864338875237923e-03 9.402303982190241e-05 4.327867394935040e-150 8.859540920853529e-148 4.163329377719208e-05 1.048078590716709e-136 1.388002147570557e-134 4.392860508255641e-13 9.621976147047766e-14 2.664117151233257e-17 4.782654571102471e-18 4.706059286166123e-22 6.895260183280459e-23 2.498089081143461e-27 4.172790926024555e-33 3.008378309584790e-28 4.208111127916763e-34 5.031298488780059e-180 4.116604063311780e-183 2.064471982392614e-163 5.301435119891902e-166 8.866636719703141e-03 5.074603217903101e-03 2.397471539717626e-02 2.557318609655063e-02 8.825535998237629e-42 2.198603909297902e-41 4.841036984219052e-118 1.401056366346667e-120 1.248154099502556e-10 3.813964974237880e-11 1.106306624887405e-06 0.000000000000000e+00 1.325718953060594e-02 4.663817373875552e-156 2.278950684813163e-02 2.177159856716729e-171 1.307726554523173e-96 8.876598249099591e-87 1.671742196674377e-77 9.064030771774994e-69 1.474072687638919e-60 4.342924252315874e-04 4.763536084372225e-141 2.305502266451128e-128 7.911166962268435e-16 2.094546618546761e-20 1.648857380773974e-25 4.025341881589415e-31 3.280056029230603e-37 7.424546001941262e-53 2.691405930246560e-06 2.229763540901184e-42 4.017691033234015e-123 8.230272008666703e-11 2.270639767992152e-02 8.010536700532183e-163 1.357770934952591e-181 1.057922243725163e-02 9.145683312342892e-147 3.133024931994257e-137 2.986609296101261e-03 3.250363116167433e-05 1.112151745341060e-94 1.800854074727714e-84 1.480588075597011e-74 2.361481663208804e-14 4.130506570773065e-19 4.695939332923623e-65 2.008121642760933e-24 3.637626975553595e-30 1.388585414821448e-56 