<?xml version="1.0"?>
<VTKFile type="UnstructuredGrid" version="0.1" byte_order="LittleEndian">
<UnstructuredGrid>
<Piece NumberOfPoints="567" NumberOfCells="966">
<Points>
<DataArray type="Float64" NumberOfComponents="3" format="ascii">
0.000000000000000e+00 0.000000000000000e+00 0.000000000000000e+00 0.000000000000000e+00 1.000000000000000e+00 0.000000000000000e+00 1.600000000000000e+01 1.000000000000000e+00 0.000000000000000e+00 1.600000000000000e+01 0.000000000000000e+00 0.000000000000000e+00 0.000000000000000e+00 2.499999999993998e-01 0.000000000000000e+00 0.000000000000000e+00 4.999999999990217e-01 0.000000000000000e+00 0.000000000000000e+00 7.499999999993374e-01 0.000000000000000e+00 2.025316455691341e-01 1.000000000000000e+00 0.000000000000000e+00 4.050632911382681e-01 1.000000000000000e+00 0.000000000000000e+00 6.075949367074022e-01 1.000000000000000e+00 0.000000000000000e+00 8.101265822765362e-01 1.000000000000000e+00 0.000000000000000e+00 1.012658227845670e+00 1.000000000000000e+00 0.000000000000000e+00 1.215189873414804e+00 1.000000000000000e+00 0.000000000000000e+00 1.417721518983938e+00 1.000000000000000e+00 0.000000000000000e+00 1.620253164553072e+00 1.000000000000000e+00 0.000000000000000e+00 1.822784810122207e+00 1.000000000000000e+00 0.000000000000000e+00 2.025316455691340e+00 1.000000000000000e+00 0.000000000000000e+00 2.227848101260475e+00 1.000000000000000e+00 0.000000000000000e+00 2.430379746829609e+00 1.000000000000000e+00 0.000000000000000e+00 2.632911392398743e+00 1.000000000000000e+00 0.000000000000000e+00 2.835443037967877e+00 1.000000000000000e+00 0.000000000000000e+00 3.037974683537010e+00 1.000000000000000e+00 0.000000000000000e+00 3.240506329106145e+00 1.000000000000000e+00 0.000000000000000e+00 3.443037974675279e+00 1.000000000000000e+00 0.000000000000000e+00 3.645569620244413e+00 1.000000000000000e+00 0.000000000000000e+00 3.848101265813547e+00 1.000000000000000e+00 0.000000000000000e+00 4.050632911382726e+00 1.000000000000000e+00 0.000000000000000e+00 4.253164556952040e+00 1.000000000000000e+00 0.000000000000000e+00 4.455696202521353e+00 1.000000000000000e+00 0.000000000000000e+00 4.658227848090667e+00 1.000000000000000e+00 0.000000000000000e+00 4.860759493659981e+00 1.000000000000000e+00 0.000000000000000e+00 5.063291139229296e+00 1.000000000000000e+00 0.000000000000000e+00 5.265822784798610e+00 1.000000000000000e+00 0.000000000000000e+00 5.468354430367923e+00 1.000000000000000e+00 0.000000000000000e+00 5.670886075937237e+00 1.000000000000000e+00 0.000000000000000e+00 5.873417721506551e+00 1.000000000000000e+00 0.000000000000000e+00 6.075949367075864e+00 1.000000000000000e+00 0.000000000000000e+00 6.278481012645178e+00 1.000000000000000e+00 0.000000000000000e+00 6.481012658214492e+00 1.000000000000000e+00 0.000000000000000e+00 6.683544303783806e+00 1.000000000000000e+00 0.000000000000000e+00 6.886075949353121e+00 1.000000000000000e+00 0.000000000000000e+00 7.088607594922435e+00 1.000000000000000e+00 0.000000000000000e+00 7.291139240491749e+00 1.000000000000000e+00 0.000000000000000e+00 7.493670886061063e+00 1.000000000000000e+00 0.000000000000000e+00 7.696202531630375e+00 1.000000000000000e+00 0.000000000000000e+00 7.898734177199691e+00 1.000000000000000e+00 0.000000000000000e+00 8.101265822769285e+00 1.000000000000000e+00 0.000000000000000e+00 8.303797468339161e+00 1.000000000000000e+00 0.000000000000000e+00 8.506329113909036e+00 1.000000000000000e+00 0.000000000000000e+00 8.708860759478913e+00 1.000000000000000e+00 0.000000000000000e+00 8.911392405048788e+00 1.000000000000000e+00 0.000000000000000e+00 9.113924050618664e+00 1.000000000000000e+00 0.000000000000000e+00 9.316455696188541e+00 1.000000000000000e+00 0.000000000000000e+00 9.518987341758416e+00 1.000000000000000e+00 0.000000000000000e+00 9.721518987328292e+00 1.000000000000000e+00 0.000000000000000e+00 9.924050632898169e+00 1.000000000000000e+00 0.000000000000000e+00 1.012658227846805e+01 1.000000000000000e+00 0.000000000000000e+00 1.032911392403792e+01 1.000000000000000e+00 0.000000000000000e+00 1.053164556960780e+01 1.000000000000000e+00 0.000000000000000e+00 1.073417721517767e+01 1.000000000000000e+00 0.000000000000000e+00 1.093670886074755e+01 1.000000000000000e+00 0.000000000000000e+00 1.113924050631742e+01 1.000000000000000e+00 0.000000000000000e+00 1.134177215188730e+01 1.000000000000000e+00 0.000000000000000e+00 1.154430379745718e+01 1.000000000000000e+00 0.000000000000000e+00 1.174683544302705e+01 1.000000000000000e+00 0.000000000000000e+00 1.194936708859693e+01 1.000000000000000e+00 0.000000000000000e+00 1.215189873416701e+01 1.000000000000000e+00 0.000000000000000e+00 1.235443037973717e+01 1.000000000000000e+00 0.000000000000000e+00 1.255696202530733e+01 1.000000000000000e+00 0.000000000000000e+00 1.275949367087749e+01 1.000000000000000e+00 0.000000000000000e+00 1.296202531644764e+01 1.000000000000000e+00 0.000000000000000e+00 1.316455696201780e+01 1.000000000000000e+00 0.000000000000000e+00 1.336708860758796e+01 1.000000000000000e+00 0.000000000000000e+00 1.356962025315812e+01 1.000000000000000e+00 0.000000000000000e+00 1.377215189872827e+01 1.000000000000000e+00 0.000000000000000e+00 1.397468354429843e+01 1.000000000000000e+00 0.000000000000000e+00 1.417721518986859e+01 1.000000000000000e+00 0.000000000000000e+00 1.437974683543874e+01 1.000000000000000e+00 0.000000000000000e+00 1.458227848100890e+01 1.000000000000000e+00 0.000000000000000e+00 1.478481012657906e+01 1.000000000000000e+00 0.000000000000000e+00 1.498734177214921e+01 1.000000000000000e+00 0.000000000000000e+00 1.518987341771937e+01 1.000000000000000e+00 0.000000000000000e+00 1.539240506328953e+01 1.000000000000000e+00 0.000000000000000e+00 1.559493670885968e+01 1.000000000000000e+00 0.000000000000000e+00 1.579746835442984e+01 1.000000000000000e+00 0.000000000000000e+00 1.600000000000000e+01 7.500000000003469e-01 0.000000000000000e+00 1.600000000000000e+01 5.000000000013878e-01 0.000000000000000e+00 1.600000000000000e+01 2.500000000010407e-01 0.000000000000000e+00 1.579746835443066e+01 0.000000000000000e+00 0.000000000000000e+00 1.559493670886132e+01 0.000000000000000e+00 0.000000000000000e+00 1.539240506329198e+01 0.000000000000000e+00 0.000000000000000e+00 1.518987341772264e+01 0.000000000000000e+00 0.000000000000000e+00 1.498734177215330e+01 0.000000000000000e+00 0.000000000000000e+00 1.478481012658396e+01 0.000000000000000e+00 0.000000000000000e+00 1.458227848101463e+01 0.000000000000000e+00 0.000000000000000e+00 1.437974683544529e+01 0.000000000000000e+00 0.000000000000000e+00 1.417721518987595e+01 0.000000000000000e+00 0.000000000000000e+00 1.397468354430661e+01 0.000000000000000e+00 0.000000000000000e+00 1.377215189873727e+01 0.000000000000000e+00 0.000000000000000e+00 1.356962025316793e+01 0.000000000000000e+00 0.000000000000000e+00 1.336708860759859e+01 0.000000000000000e+00 0.000000000000000e+00 1.316455696202925e+01 0.000000000000000e+00 0.000000000000000e+00 1.296202531645991e+01 0.000000000000000e+00 0.000000000000000e+00 1.275949367089057e+01 0.000000000000000e+00 0.000000000000000e+00 1.255696202532123e+01 0.000000000000000e+00 0.000000000000000e+00 1.235443037975189e+01 0.000000000000000e+00 0.000000000000000e+00 1.215189873418256e+01 0.000000000000000e+00 0.000000000000000e+00 1.194936708861336e+01 0.000000000000000e+00 0.000000000000000e+00 1.174683544304458e+01 0.000000000000000e+00 0.000000000000000e+00 1.154430379747580e+01 0.000000000000000e+00 0.000000000000000e+00 1.134177215190703e+01 0.000000000000000e+00 0.000000000000000e+00 1.113924050633825e+01 0.000000000000000e+00 0.000000000000000e+00 1.093670886076947e+01 0.000000000000000e+00 0.000000000000000e+00 1.073417721520070e+01 0.000000000000000e+00 0.000000000000000e+00 1.053164556963192e+01 0.000000000000000e+00 0.000000000000000e+00 1.032911392406314e+01 0.000000000000000e+00 0.000000000000000e+00 1.012658227849436e+01 0.000000000000000e+00 0.000000000000000e+00 9.924050632925587e+00 0.000000000000000e+00 0.000000000000000e+00 9.721518987356809e+00 0.000000000000000e+00 0.000000000000000e+00 9.518987341788034e+00 0.000000000000000e+00 0.000000000000000e+00 9.316455696219256e+00 0.000000000000000e+00 0.000000000000000e+00 9.113924050650478e+00 0.000000000000000e+00 0.000000000000000e+00 8.911392405081703e+00 0.000000000000000e+00 0.000000000000000e+00 8.708860759512925e+00 0.000000000000000e+00 0.000000000000000e+00 8.506329113944147e+00 0.000000000000000e+00 0.000000000000000e+00 8.303797468375370e+00 0.000000000000000e+00 0.000000000000000e+00 8.101265822806592e+00 0.000000000000000e+00 0.000000000000000e+00 7.898734177237253e+00 0.000000000000000e+00 0.000000000000000e+00 7.696202531667353e+00 0.000000000000000e+00 0.000000000000000e+00 7.493670886097451e+00 0.000000000000000e+00 0.000000000000000e+00 7.291139240527549e+00 0.000000000000000e+00 0.000000000000000e+00 7.088607594957649e+00 0.000000000000000e+00 0.000000000000000e+00 6.886075949387747e+00 0.000000000000000e+00 0.000000000000000e+00 6.683544303817845e+00 0.000000000000000e+00 0.000000000000000e+00 6.481012658247945e+00 0.000000000000000e+00 0.000000000000000e+00 6.278481012678045e+00 0.000000000000000e+00 0.000000000000000e+00 6.075949367108143e+00 0.000000000000000e+00 0.000000000000000e+00 5.873417721538242e+00 0.000000000000000e+00 0.000000000000000e+00 5.670886075968340e+00 0.000000000000000e+00 0.000000000000000e+00 5.468354430398438e+00 0.000000000000000e+00 0.000000000000000e+00 5.265822784828536e+00 0.000000000000000e+00 0.000000000000000e+00 5.063291139258636e+00 0.000000000000000e+00 0.000000000000000e+00 4.860759493688734e+00 0.000000000000000e+00 0.000000000000000e+00 4.658227848118834e+00 0.000000000000000e+00 0.000000000000000e+00 4.455696202548932e+00 0.000000000000000e+00 0.000000000000000e+00 4.253164556979030e+00 0.000000000000000e+00 0.000000000000000e+00 4.050632911409130e+00 0.000000000000000e+00 0.000000000000000e+00 3.848101265838807e+00 0.000000000000000e+00 0.00000000000000
[...]
<CellData Scalars="conc_conc," Vectors="" Tensors="">
<DataArray type="Float64" Name="conc_conc" format="ascii">
1.214459212274439e-44 9.541091775920277e-06 1.237142856722909e-91 1.103882425422778e-05 9.573527544918466e-45 1.415148101898687e-91 5.641543052667025e-34 2.032764329587437e-51 2.350747438350223e-28 2.995653091885483e-23 1.365569276809203e-58 1.331072014859631e-18 3.413255949809981e-66 1.967357289435957e-14 9.603193060821354e-11 3.131975482685242e-74 1.023207445731931e-82 7.645101351623521e-04 3.678766261698688e-157 5.434214301854133e-109 1.708056325209447e-02 5.301651471057722e-143 1.534543686963318e-119 8.041092778735973e-04 1.003156042637545e-82 1.338687662246805e-130 8.413194581636097e-131 1.256023085246264e-02 2.337824144984795e-119 1.199647332379110e-02 2.988069780606367e-74 4.441754271280858e-143 7.031387543128841e-109 9.207613065297183e-04 3.199140859615884e-66 2.451060097622061e-157 1.755860372377093e-02 1.248370318291180e-58 8.576399694338252e-04 1.811132897452527e-51 9.797327747970835e-11 2.246702379642668e-14 1.582233307644096e-18 3.676667484637737e-23 2.947385169690606e-28 8.473640181412021e-34 3.264006109619060e-37 2.864470418257677e-36 3.113167347779303e-172 1.104854696008647e-04 4.259364044877419e-160 3.149748275157377e-04 4.413086052589639e-36 0.000000000000000e+00 3.539222650137741e-05 2.034056852146677e-05 0.000000000000000e+00 8.120930893328958e-35 3.451499905077307e-10 2.629951543440711e-107 3.399059001444846e-107 3.514111214138285e-10 9.706055953220192e-35 1.530012354369852e-02 9.558492325198095e-133 1.405623738882521e-02 2.806403567415527e-145 3.537205501681809e-84 3.582112971354074e-121 1.419624777546710e-110 1.242658491025611e-75 1.634368702027985e-03 1.576805204443239e-67 7.283567999596611e-60 1.240661922067235e-52 9.887688710766474e-14 8.426112355746018e-18 2.345650721284897e-22 2.236608540100342e-27 7.610245155289648e-33 2.598522166697221e-05 7.939170362629066e-46 5.069401389715636e-33 1.784005610889797e-27 1.475768260581453e-52 1.912365636804480e-22 7.098265610941510e-18 8.426296863172619e-60 8.677808072880590e-14 1.782135448145767e-67 1.387896762244959e-75 3.787984503869373e-84 1.445985225251302e-03 1.106116118215161e-110 2.516478286032099e-121 1.736274735066111e-03 1.435622120808415e-154 7.526061532705934e-141 1.365947227662699e-02 3.575315578836243e-145 1.951353912295269e-02 1.474870119689202e-132 1.577819981198110e-02 7.301193656079912e-129 9.572566266404409e-118 2.848716174871577e-81 7.325588471467913e-73 8.964611665574296e-03 2.623723627605116e-11 6.742864569781720e-65 4.519630983315042e-15 4.352456957723738e-04 2.539636297505949e-19 2.285961268797300e-57 4.799552894262832e-24 3.161765397484937e-29 2.888846704978626e-50 4.726574565629943e-90 1.021516218631289e-45 2.264998990335017e-05 9.210004601454821e-09 2.566887986101110e-08 1.549882775785534e-105 3.770065704128509e-107 1.465848752666010e-43 3.989880033649374e-06 3.832342073007141e-93 4.628990219174329e-06 1.154432289317071e-43 4.382884246684356e-93 2.824070838545681e-04 6.680227600280912e-160 0.000000000000000e+00 9.632633478831859e-06 5.515516012213570e-134 1.413716942861458e-02 6.869365934321974e-52 7.212284373354747e-60 3.142405021788492e-68 1.993655585353212e-30 5.739993824348149e-25 8.997127731933132e-77 7.120484979310474e-20 2.981093631793569e-15 1.767838280753702e-85 6.502189723174970e-04 1.691618490444707e-119 3.385946476834976e-132 1.178927051311505e-02 1.501756921478589e-145 1.844987181576523e-02 2.789929764197723e-81 1.159075813286757e-128 9.405504396595703e-03 6.981551449906667e-73 1.455822258597602e-117 6.312875941021470e-65 4.946623229909201e-04 6.317862635104278e-141 2.087448074468327e-57 9.623643404431149e-155 2.570991501212744e-50 2.004002984296245e-02 1.958740794783943e-03 2.660238462287328e-11 4.948994707820096e-15 2.884813122614810e-19 5.589992942875428e-24 3.786435324259534e-29 4.129283596168386e-90 4.395445244567243e-85 1.835853925296986e-76 2.753934332313386e-68 1.498071570341657e-60 2.989949665342211e-53 2.307926934792167e-122 7.538360785391568e-04 1.261238730669809e-14 7.557515672152358e-19 1.483391561143885e-23 1.014725511874796e-28 1.283894282144489e-146 1.664661830184982e-02 6.628434851474454e-53 2.108306892153705e-35 5.833039111043678e-61 1.182247069624923e-29 2.921923326246276e-24 2.133397076920668e-69 3.062536165575697e-19 1.064414786177288e-14 5.183025329132541e-78 8.492790781694191e-87 1.042926018262215e-03 4.017184424481342e-121 1.474994270815248e-147 1.621940593821590e-02 2.170059049481433e-06 0.000000000000000e+00 5.389110200646318e-84 2.349787972899874e-67 1.869366460648459e-75 1.069283241752052e-59 1.792239377467727e-52 7.392020167505825e-04 1.034321574592477e-121 2.210999108183336e-14 1.571244828100155e-18 3.645127102352825e-23 2.919638114526935e-28 1.537860722641000e-146 1.713704466248423e-02 1.966933615995129e-39 8.157877183567987e-08 7.976121236643500e-08 2.584496033602643e-99 1.553938733582409e-39 1.901581102260163e-99 2.050032325888337e-02 6.650275076605502e-03 7.444300768620666e-150 9.413400827807200e-137 7.231992283879647e-125 4.974435663069813e-114 1.739910159929108e-12 4.394305506819407e-03 2.183950189272643e-16 8.757422988471969e-21 1.187337813032737e-25 5.727963335004468e-31 1.981838807932327e-78 3.521963791708511e-70 2.274873794956468e-62 5.396325192290198e-55 4.040622491331634e-87 4.800729564943377e-48 1.239444901976298e-04 6.059609752850011e-08 4.735395232349495e-104 8.485987944386136e-35 8.828973123347971e-134 1.145520014177768e-02 6.576915156316837e-37 1.451143508050173e-38 3.435898927203144e-08 9.653933542524400e-101 1.153206747991392e-38 3.400756532672422e-08 7.514905783824212e-101 3.922375422462266e-36 4.750285078095402e-161 9.363406640011603e-04 6.827736095594205e-55 2.366311523564319e-78 4.280358060725755e-70 2.813373169176633e-62 4.167952133712839e-03 5.482288948253219e-125 1.079308161450937e-25 4.923619893443053e-31 2.087071648620159e-16 8.124426115250972e-21 1.741739004531682e-12 3.948317672627434e-114 1.418360909034919e-136 6.036758805229723e-03 2.028693322534549e-02 1.032231462929037e-149 0.000000000000000e+00 4.635057584738176e-07 4.545518603601851e-87 1.091223071818134e-04 6.296307853528756e-48 9.563883643187637e-05 9.159429331513598e-172 2.581175889088216e-107 2.134224305610363e-109 3.405310042258220e-10 1.390399277221072e-10 1.005694094667318e-08 1.547689406569550e-102 1.145583304886671e-02 4.311324358144311e-133 4.645693970108968e-163 9.257320482475944e-05 4.904907525991072e-161 8.027212426694497e-04 2.049333578121535e-02 6.314700384717609e-03 2.036770744557088e-153 4.045099586232250e-140 2.768963901999314e-127 2.684786018099981e-116 1.747338700249045e-12 2.192157164182063e-16 8.824613392818734e-21 1.199701509102140e-25 5.865659374006423e-31 3.767799618932363e-03 1.164980408605425e-79 2.424480967285576e-71 1.837110428798087e-63 5.047129386553087e-56 2.050153820795857e-88 5.205397561437219e-49 9.539480566981456e-05 1.256006291763861e-35 1.134874698481645e-111 6.713604658579959e-165 6.022989136403822e-04 3.060144488921594e-34 3.284733410821011e-11 9.751442078508446e-06 2.158746477691596e-46 1.093697512622397e-105 9.508939039122255e-108 1.115767085208893e-09 4.718286132149904e-10 2.271146385485935e-56 4.618730208872804e-81 1.260810503529774e-72 2.131908536807517e-64 4.028971636665233e-03 4.061683067956011e-27 1.202206669395939e-32 5.634235532740554e-22 3.235983525172253e-17 6.666281943767739e-13 1.193713471672287e-126 4.451577788787482e-114 4.257921548094059e-139 1.507288039774925e-154 7.191904358001103e-03 1.993503991020537e-02 5.186700405323475e-90 7.991177425975784e-05 1.853983792668116e-48 3.886435771888057e-162 1.414995139418840e-03 0.000000000000000e+00 2.302257042930992e-05 6.825779332694007e-96 1.043955000954153e-106 1.322629171411271e-09 4.304735057614727e-111 7.696040389090142e-34 3.804413347150178e-09 3.403044821057451e-106 3.807322752009281e-11 5.960095102711815e-38 2.342374813724899e-166 2.087367246450482e-05 8.782749046161816e-06 1.076589430579057e-45 1.852012337556963e-02 9.576697100577529e-135 1.018866494798884e-02 1.551282915235498e-147 2.714858482087497e-112 5.211126126890150e-123 1.198121599119448e-85 5.022044567484492e-77 2.754623280664819e-03 7.556786806477785e-69 4.123048891876580e-61 8.276651794411532e-54 4.225240489855081e-13 4.364685561074861e-17 1.456565541431268e-21 1.656772200918033e-26 6.743923786116576e-32 4.300200643077206e-162 1.341939313260140e-03 2.605580705197684e-113 6.235904709048989e-47 5.753947180778692e-05 5.799355577808764e-32 1.506404748960192e-26 9.836270767148179e-54 1.350859622253592e-21 4.166999544241180e-17 4.765666536273831e-61 4.224204678884372e-13 8.532834258783450e-69 5.604176373138523e-77 1.281854263313166e-85 2.587031945496507e-03 2.112439735838516e-112 3.654506352568602e-123 1.215068390862872e-138 3.456519397526214e-03 9.394720317344370e-03 4.172228806862581e-152 1.482936419307769e-134 2.064762467222008e-02 1.850137927603913e-02 1.976136349236851e-147 7.147805047762801e-127 6.935540519763482e-116 6.223241438433630e-03 2.194629326475623e-04 9.020201953285592e-80 1.938133491766365e-71 6.808885791002138e-12 1.506355715820391e-63 9.608582508734591e-16 4.481905913132658e-20 4.310815615995514e-56 7.093902850907409e-25 3.938080231942933e-30 4.680913477306498e-49 1.447970378422117e-88 5.018399573711410e-05 8.017234842042144e-47 1.815856725763624e-40 2.162368490348132e-07 2.504459833846835e-07 8.490903107399206e-98 1.436030356954373e-40 9.332114706121765e-98 1.016620509174792e-167 2.383117477021491e-04 1.490936688909146e-104 4.482968656191748e-09 1.524110569968526e-94 4.981063759235352e-26 1.179864788059346e-12 4.305939654466742e-21 1.256819419071928e-16 2.164693405542929e-31 6.736426126322495e-128 7.010392567013569e-117 9.267543689916530e-140 5.666226498687712e-13 2.929288881602864e-17 2.646940519579122e-27 4.494869384087753e-22 7.350989939278909e-33 1.522814679966953e-154 1.490288365502202e-118 1.237142718832629e-126 4.070006403557715e-140 1.859985089988437e-153 1.691782386482963e-89 2.907999269209231e-72 8.570905196223275e-57 1.985192447711830e-02 7.504286988272646e-03 1.172680840323141e-80 3.945475656420261e-03 2.627257167150299e-64 1.031932101718297e-49 1.025095920395334e-04 2.553624303223850e-91 2.995915740179212e-82 2.043372955081059e-73 1.865015186308997e-56 5.172177773651204e-49 9.451086058951490e-65 1.972227600332804e-02 6.156848505158611e-03 3.991220183577733e-03 7.973594063057719e-05 7.557957296547807e-80 1.595523921861757e-71 1.218630616364902e-63 3.408889316423230e-56 6.612021398070847e-03 9.436100611644417e-127 3.571144930630671e-49 8.746836488601531e-116 2.522157606622063e-04 6.915757214054333e-12 1.053885303915402e-15 5.095650381788427e-20 8.264117259417453e-25 4.715265041539510e-30 3.001950918731925e-152 8.032529609116348e-139 3.851303928545820e-03 2.106267622342643e-02 1.287991576707356e-88 1.857251432708753e-41 6.043457091155083e-07 1.465600396721518e-41 3.221863877715318e-96 6.953078086128989e-07 3.543498310573539e-96 9.095929070801091e-39 0.000000000000000e+00 3.289244077116517e-06 9.339954902085130e-46 7.231492438247724e-06 1.624475390769848e-42 1.546023701023277e-06 1.077700281612784e-94 1.807528936073928e-06 1.283180715373569e-42 1.231767865465808e-94 5.390634380666427e-109 0.000000000000000e+00 1.277804851368526e-07 4.086239234242587e-103 1.118127540575511e-08 3.384954647318238e-45 7.116184613266158e-06 0.000000000000000e+00 5.636393069166750e-14 6.776585083312730e-11 2.205396170268702e-05 1.758903162878576e-47 1.850508558481620e-37 3.571186248135742e-124 1.561881039569660e-86 2.145889804160599e-113 7.784203003374137e-78 1.368216419467820e-03 1.378689846045308e-69 8.855883988355034e-62 5.716521780410920e-14 2.072049171196141e-54 4.141119231502736e-18 9.758860580910538e-23 7.930478045556389e-28 2.903700494243340e-33 8.084313468019683e-149 3.852266914379396e-136 1.344495548115469e-02 1.620078063737095e-02 8.774875776098589e-05 5.408323111404819e-167 1.604359432532060e-170 1.989451729904948e-05 5.398322197072887e-94 0.000000000000000e+00 3.428445312442144e-12 1.091987170564142e-08 1.212532991049083e-37 1.105734829620731e-08 2.308019428275365e-102 1.793728462487007e-102 1.030869629986803e-37 6.452906917959458e-08 0.000000000000000e+00 4.375904880200437e-06 0.000000000000000e+00 9.569610730030505e-11 0.000000000000000e+00 7.342172287574040e-06 1.737834710994503e-159 7.482982296709945e-144 2.793429416256422e-03 2.677952841775284e-130 2.031784434066440e-02 4.779485758886583e-122 8.084513712453285e-03 4.715401031365873e-85 3.062637124097124e-04 4.683239803348783e-76 8.574379621514390e-12 5.822645097342888e-16 3.114267589724528e-67 1.305818340073459e-20 1.078951393004394e-25 8.934901868404099e-59 4.018017112586311e-31 3.358705871036320e-51 2.333830914078855e-94 2.884744617473416e-38 1.358501714193735e-34 5.683571215196619e-29 3.386402017377372e-54 1.352375542119436e-23 1.279419263679813e-18 2.477530555493490e-62 3.575212423062144e-14 7.700264831925133e-71 1.622299455123458e-79 2.162117284467891e-88 1.620249304439924e-03 4.661323151015749e-115 4.406608781665662e-123 5.318106097346613e-150 9.684446270600422e-136 1.382921414667503e-02 1.469206449045563e-02 7.822811932058474e-47 1.670474108195567e-05 6.773533569188631e-93 1.256834950049830e-42 3.089285198752589e-43 1.725435509203681e-98 1.840617211290790e-100 5.200494954182774e-07 7.758203327558903e-07 1.339790470061065e-04 5.120858630519047e-167 4.428985379577685e-96 1.305272847718970e-97 1.247025860590255e-44 2.069942203910280e-94 1.428054397110449e-43 6.445746145172431e-96 3.686394975393938e-06 1.545771885658131e-06 1.185114051362546e-06 2.917882598617021e-06 4.379164689382501e-43 3.870962551729200e-44 8.427008967348503e-05 7.374985246884991e-163 2.321581636026180e-47 2.787823528580439e-46 3.746751556521873e-05 1.649064394756628e-05 1.698781245835472e-33 1.785132446633578e-34 6.794358731753796e-28 9.155937541239217e-29 1.104955427499523e-22 1.756344187500495e-23 3.414071198068346e-55 4.146660292600872e-54 7.562664674177269e-18 1.441124756474558e-18 1.838354030751949e-13 4.271701928300406e-14 3.831762143318726e-63 5.530214468346427e-62 2.702542491740690e-71 4.616827591300480e-70 1.175355428638846e-79 2.375434373105943e-78 1.678084435178110e-88 4.223593167728235e-87 2.263615801926723e-112 1.117454767496419e-110 2.732774034621452e-03 1.638672270702353e-03 8.295818941017692e-125 4.352137576318792e-123 5.327413964287232e-150 4.441180336887525e-135 4.577163886669789e-137 3.510778595382222e-152 1.473515319585115e-02 1.341157900108495e-02 1.772356362455358e-02 9.902809076404803e-03 2.983841497353172e-04 7.865146074505911e-164 1.921712865264100e-02 4.618000640593144e-138 9.839712461232088e-03 4.652607311715450e-151 2.104664440479677e-125 1.518969264983590e-114 4.168735180601666e-13 4.333625447774012e-17 1.447040813485752e-21 1.646507207599771e-26 6.877514372628335e-32 2.302578276670317e-03 6.295391317508319e-87 3.030391072072675e-78 5.331390125004955e-70 3.411432870561716e-62 7.930901162219945e-55 1.854177822325534e-02 4.697937411905004e-138 9.267194121537634e-03 3.930579096842898e-151 4.801891952329173e-126 3.998061859910659e-115 2.864923452677331e-13 2.504348285592468e-17 7.115071368496431e-22 6.915060490524078e-27 2.602698767244095e-32 2.454286398240412e-03 4.931796760972569e-88 2.927440208176591e-79 6.134429005085549e-71 1.292629899646999e-55 4.677386624384437e-63 1.374515975992153e-48 4.793286385393279e-05 6.852742871438400e-48 4.487112688262453e-05 1.022883271615098e-35 1.142448124056433e-09 8.563743277156375e-36 1.185302833850562e-09 1.470491641560595e-105 1.177997330618654e-105 1.094830893744065e-39 6.180668586602089e-164 3.705165017573430e-04 0.000000000000000e+00 1.604349847404666e-06 4.517026357009669e-42 1.478509286423285e-42 4.703296088320443e-07 3.781397247018773e-99 2.015222508411832e-97 6.329541034215945e-07 1.236979808137306e-100 3.649989708503994e-102 1.099738572897049e-07 2.729525642536285e-07 6.008275089264784e-99 2.445498134822848e-100 1.781465372927010e-07 7.848120433301729e-08 1.540578960144022e-41 1.404488496858164e-40 4.660095707503542e-41 4.235471862048978e-40 1.053370424936179e-33 4.304816517818956e-28 8.631223479824479e-23 2.796963101430267e-55 6.744073646891196e-18 1.709516583512120e-63 1.543898056353147e-13 4.428363900903683e-72 7.809458929040158e-81 8.370402711385114e-90 2.704044422064537e-03 8.382002800022225e-117 8.432509128823411e-125 9.218965586567366e-138 3.516960180446050e-152 1.783972699532738e-02 1.029530806845465e-02 3.739018738342070e-05 6.424362000432120e-48 3.377004177681107e-39 1.250129027945244e-41 3.101195469138117e-42 5.660429969378311e-100 6.723620857023958e-102 1.299675269614452e-83 5.811106645421270e-67 4.562551860296937e-75 2.666206649870659e-59 4.506087513145295e-52 8.169478714731140e-132 1.539406801694328e-120 1.815759958735837e-11 8.550865475309253e-03 2.848322288460553e-15 2.061928134067399e-158 1.418344054292445e-19 4.092273483163619e-04 2.332171493100731e-24 1.359811500082385e-29 1.956695104461478e-03 1.985010005779217e-144 1.885814873476372e-02 1.727976074486504e-92 1.271155102998652e-06 1.821134296755108e-06 6.061581989807678e-08 0.000000000000000e+00 2.918549218093451e-08 2.622301600322516e-08 6.191337664588772e-102 4.597163616357210e-103 0.000000000000000e+00 1.869965599215382e-09 1.670369193929551e-91 4.983241331338973e-93 2.619337359131817e-03 2.048025196007536e-02 1.761969463166046e-159 4.570551612841272e-03 2.091326256611224e-02 3.586447284827551e-143 5.924687564095345e-157 4.639392575186976e-141 2.091766683824128e-128 2.627354625231613e-130 1.015209530777276e-115 1.786823175513453e-117 6.034511719077802e-03 8.166110400153418e-03 2.177148194113567e-82 7.926338050831557e-84 1.681076323995847e-04 3.094256717077798e-04 7.080758260167946e-74 3.082774368542248e-75 1.418121466622929e-65 7.338314532679908e-67 2.636756532989782e-12 1.016140451395489e-11 1.571903131706934e-16 6.413847479930291e-16 1.793643445296262e-57 1.106790917627992e-58 3.294106730323564e-21 1.608382224411013e-20 2.802804740052530e-26 1.605823837899269e-25 1.696589172609566e-49 1.251314550233401e-50 9.822928966263653e-32 6.590748547593084e-31 2.126101151419748e-91 6.769572138612335e-90 1.546107005220776e-82 4.285116924108873e-81 4.530092523674095e-74 1.056574131229169e-72 4.815270297313771e-66 1.850238098586883e-58 9.477058044453181e-65 3.080324224454653e-57 2.645732281931085e-51 3.722293043663557e-50 8.352568218196132e-03 5.799491025705689e-03 3.878736300695946e-04 3.967541251814858e-131 3.371804867355658e-129 1.983911290738518e-04 6.932163557711773e-120 4.335917953666480e-118 2.621521118637622e-11 6.873404034233697e-12 4.854306008023473e-15 1.056893984011225e-15 2.850103708614130e-19 5.142287371218189e-20 5.525576216764910e-24 3.736422868134847e-29 8.331575115967121e-25 4.802083083683800e-30 7.569961733125799e-156 2.276795354406606e-158 3.265100774001114e-142 2.390680156219005e-144 3.651510446907906e-03 1.854294025449498e-03 2.081541815049271e-02 1.967654258459485e-02 6.073107779886219e-37 1.492768392803237e-36 4.858845384807231e-104 3.612293806608811e-106 3.719924992362242e-09 1.444141955174550e-09 1.983169745452926e-07 0.000000000000000e+00 1.661538549705248e-02 3.869818786982439e-136 1.362052981382441e-02 8.875515841363705e-149 1.831113174085561e-85 7.537549415763273e-77 1.121952606746338e-68 6.046888604016957e-61 1.193819675495886e-53 1.341020925795302e-03 1.496367168613799e-123 8.405236083371154e-113 9.839662188795939e-14 8.410143620306558e-18 2.341348422349142e-22 2.233785208326884e-27 7.925322893450799e-33 8.702531681870392e-47 2.002403563216381e-05 2.007968909187949e-37 3.333601608388362e-108 2.774305269041092e-09 2.076870637207614e-02 9.585080120757956e-142 5.774250477443411e-157 4.786247241449728e-03 2.109758619177891e-128 3.004263276446793e-120 5.994353512486065e-03 1.672273464591633e-04 1.350582071508492e-83 1.107481646530026e-74 6.125054285309310e-66 2.243864812491902e-12 1.428520592456472e-16 1.452657425055779e-57 2.663987804411348e-21 1.863752188736574e-26 4.604472792981730e-50 5.971848502335815e-32 7.8720